Membrane in water
40167
    1TCq1    O1    1   3.074   2.990  11.366 -0.5506  0.0029  0.6099
    1TCq1    C1    2   3.033   3.088  11.445  0.0974 -0.2060 -0.1193
    1TCq1    O2    3   3.108   3.169  11.505 -0.4226  0.5049  0.0550
    1TCq1    C2    4   2.893   3.064  11.460 -0.1775  0.6463 -0.4565
    1TCq1    C3    5   2.831   3.010  11.348 -0.5125 -0.6208 -0.3657
    1TCq1    C4    6   2.696   3.016  11.354 -0.0261 -0.7442  0.6784
    1TCq1    C5    7   2.627   3.057  11.464  0.3750  0.5920 -0.1909
    1TCq1    C6    8   2.700   3.083  11.575 -0.0097 -0.5661  0.1066
    1TCq1    C7    9   2.836   3.095  11.575  0.4415 -0.1943 -0.5942
    1TCq1    C8   10   2.641   3.049  11.702  0.3519 -0.3187 -0.3921
    1TCq1    O4   11   2.687   3.087  11.813  0.3485  0.4127  0.0317
    1TCq1    C9   12   2.619   2.984  11.238  0.1705  0.3382  0.2208
    1TCq1    O5   13   2.676   2.941  11.133  0.1794  0.3246 -0.0366
    1TCq1    O6   14   2.495   3.002  11.243  0.0167 -0.0531  0.3783
    1TCq1    H1   15   3.011   2.915  11.364 -0.3256 -0.1733  0.0108
    1TCq1    H2   16   2.879   2.999  11.251  0.4575 -1.6296  0.2269
    1TCq1    H3   17   2.519   3.064  11.461  0.2106 -2.3043 -0.3630
    1TCq1    H4   18   2.896   3.141  11.653 -1.4385  0.6956  0.3327
    2MPD2     C   19   2.266   2.808  11.970 -0.5345  0.8431  0.4049
    2MPD2    C1   20   2.331   2.925  11.993 -0.5724 -0.0458  0.2015
    2MPD2    C2   21   2.416   2.980  11.896  1.0158  0.0142  0.6552
    2MPD2    C3   22   2.462   2.905  11.792  0.4630 -0.8403  0.5579
    2MPD2    C4   23   2.401   2.782  11.775 -0.1006  0.7505 -0.0885
    2MPD2    C5   24   2.305   2.741  11.857 -0.0931  0.9259  0.3820
    2MPD2     H   25   2.444   3.082  11.920  1.8761  0.1881 -1.1040
    2MPD2    H1   26   2.429   2.709  11.700  1.4669 -0.4535  1.6726
    2MPD2    H2   27   2.183   2.771  12.029 -2.1452  0.3058 -2.1928
    2MPD2    H3   28   2.241   2.660  11.824 -0.7325  1.5366  0.0937
    2MPD2     N   29   2.552   2.944  11.688 -0.0888  0.9315  0.1881
    2MPD2    H5   30   2.559   2.879  11.611  0.5592  1.5627 -0.2874
    2MPD2    N1   31   2.306   3.005  12.101  0.1111 -0.0304 -0.6787
    2MPD2    H7   32   2.351   3.096  12.107 -0.9468  0.4062  0.6597
    3TCq1    O1   33   2.095   4.505  10.983  0.5168  0.5706  0.0751
    3TCq1    C1   34   1.998   4.444  11.060  0.3044 -0.5501  0.5863
    3TCq1    O2   35   1.990   4.325  11.093  0.8028  0.4350  0.3115
    3TCq1    C2   36   1.886   4.530  11.050 -0.7246 -0.5414 -0.1380
    3TCq1    C3   37   1.855   4.599  10.935 -0.4680  0.2628  0.3366
    3TCq1    C4   38   1.767   4.706  10.954 -0.0218 -0.0830 -0.0850
    3TCq1    C5   39   1.719   0.008  11.079  0.0202 -0.2770 -0.4639
    3TCq1    C6   40   1.757   4.662  11.186  0.6236  0.3880 -0.1927
    3TCq1    C7   41   1.842   4.558  11.173  0.1718 -0.2109  0.1928
    3TCq1    C8   42   1.721   4.706  11.323  0.4755 -0.2200  0.3163
    3TCq1    O4   43   1.738   4.622  11.411  0.3210  0.3288 -0.3268
    3TCq1    C9   44   1.732   0.058  10.844 -0.9261 -0.4369 -0.2919
    3TCq1    O5   45   1.697   0.176  10.872  0.3967  0.4388  0.2855
    3TCq1    O6   46   1.748   0.010  10.729 -0.0964  0.0784 -0.2690
    3TCq1    H1   47   2.077   4.601  10.982 -0.7413  0.3390  1.0075
    3TCq1    H2   48   1.899   4.594  10.836 -1.7315  2.6718 -0.3266
    3TCq1    H3   49   1.640   0.083  11.079  0.0983 -0.1963 -0.3011
    3TCq1    H4   50   1.883   4.511  11.261 -0.1313  0.2707  0.5889
    4MPD2     C   51   1.575   0.343  11.645 -0.2417  0.5044 -0.0308
    4MPD2    C1   52   1.621   0.399  11.528 -0.3635  0.6007 -0.3655
    4MPD2    C2   53   1.669   0.311  11.434 -0.2132  0.4128  0.9383
    4MPD2    C3   54   1.670   0.180  11.448  0.1842  0.0488  0.1329
    4MPD2    C4   55   1.636   0.121  11.571 -0.9604  1.0196  0.5736
    4MPD2    C5   56   1.582   0.206  11.665 -0.3522  0.1113 -0.7739
    4MPD2     H   57   1.703   0.346  11.337 -0.2916  2.2285  1.5607
    4MPD2    H1   58   1.630   0.014  11.585 -1.2483  0.8412 -0.8591
    4MPD2    H2   59   1.530   0.393  11.730  1.6859 -2.4649  2.7378
    4MPD2    H3   60   1.540   0.159  11.754  1.9157  0.7372  0.6287
    4MPD2     N   61   1.699   0.114  11.329 -0.0085 -0.2198 -0.4609
    4MPD2    H5   62   1.697   0.174  11.247 -0.1268 -1.1843 -1.1743
    4MPD2    N1   63   1.610   0.537  11.488  0.3315 -0.2509 -0.0470
    4MPD2    H7   64   1.649   0.561  11.397 -0.8015  0.2304 -0.4070
    5TCq1    O1   65   2.406   1.617  11.079  0.7716 -0.3690  0.3120
    5TCq1    C1   66   2.413   1.553  11.196  0.4251 -0.3159  0.7773
    5TCq1    O2   67   2.509   1.552  11.273  0.0723  0.3574  0.6486
    5TCq1    C2   68   2.338   1.436  11.166 -0.0267 -0.6641  0.3694
    5TCq1    C3   69   2.207   1.452  11.170 -0.7079  0.2176 -1.1117
    5TCq1    C4   70   2.128   1.345  11.196 -0.0817 -0.7437 -0.7062
    5TCq1    C5   71   2.178   1.219  11.209  0.0589  0.2673  0.2073
    5TCq1    C6   72   2.315   1.210  11.211 -0.3101 -0.2699 -0.2879
    5TCq1    C7   73   2.397   1.317  11.196  0.6684 -0.3032  0.2393
    5TCq1    C8   74   2.385   1.084  11.194 -0.2183  0.4668  0.1478
    5TCq1    O4   75   2.507   1.074  11.214  0.0812 -0.5773 -0.1086
    5TCq1    C9   76   1.989   1.359  11.203 -0.9467  0.4634 -0.0066
    5TCq1    O5   77   1.954   1.475  11.220 -0.5600 -0.1707 -0.5290
    5TCq1    O6   78   1.924   1.262  11.240 -1.2516  0.6189  0.2250
    5TCq1    H1   79   2.357   1.577  11.005 -1.7190  1.5403  0.9550
    5TCq1    H2   80   2.160   1.546  11.144 -0.2130  1.4025  2.2229
    5TCq1    H3   81   2.108   1.139  11.229 -0.5204  0.5023 -0.8684
    5TCq1    H4   82   2.506   1.314  11.200  0.7631  1.9280 -0.8435
    6MPD2     C   83   2.227   0.753  11.230  0.2159  0.9801  0.2005
    6MPD2    C1   84   2.323   0.843  11.195 -0.4696 -0.8962  0.2804
    6MPD2    C2   85   2.447   0.795  11.152  0.2929  0.3035  0.2344
    6MPD2    C3   86   2.468   0.659  11.127 -0.4563  0.1429 -0.0521
    6MPD2    C4   87   2.369   0.576  11.158 -0.2721  0.0507 -0.0913
    6MPD2    C5   88   2.251   0.619  11.209 -0.5794 -0.6206 -0.2633
    6MPD2     H   89   2.522   0.866  11.118  1.8817  0.0246  3.1324
    6MPD2    H1   90   2.364   0.470  11.137  0.1563 -0.0783  0.4458
    6MPD2    H2   91   2.137   0.789  11.280  0.9895  0.7429  1.7530
    6MPD2    H3   92   2.177   0.546  11.238 -0.3585 -0.8166 -0.1955
    6MPD2     N   93   2.599   0.626  11.085 -0.5722 -0.1257 -1.1931
    6MPD2    H5   94   2.661   0.699  11.052 -0.8172  1.7134  2.3916
    6MPD2    N1   95   2.293   0.980  11.202 -0.2621  0.3694 -0.4937
    6MPD2    H7   96   2.197   1.009  11.222  0.1840  0.9332  0.7951
    7TCq1    O1   97   0.206   2.077  13.297  0.2583 -0.4027  0.1026
    7TCq1    C1   98   0.252   1.969  13.363 -0.0132  0.0049  0.1322
    7TCq1    O2   99   0.259   1.950  13.482 -0.0699  0.2500 -0.8990
    7TCq1    C2  100   0.308   1.881  13.264  0.3076 -0.2253  0.8711
    7TCq1    C3  101   0.355   1.939  13.146 -0.4810  0.4533 -0.1877
    7TCq1    C4  102   0.423   1.859  13.060  0.2031 -0.0078 -0.3788
    7TCq1    C5  103   0.448   1.729  13.086  0.3336 -0.7326 -1.0607
    7TCq1    C6  104   0.404   1.670  13.208 -0.2419  0.2616 -0.0221
    7TCq1    C7  105   0.326   1.748  13.299  0.0613 -0.2229 -0.3201
    7TCq1    C8  106   0.447   1.542  13.247  0.0423  0.3932  0.0538
    7TCq1    O4  107   0.397   1.499  13.352 -0.5446  0.4834 -0.0912
    7TCq1    C9  108   0.479   1.918  12.942  0.4339  0.3129  0.1811
    7TCq1    O5  109   0.476   2.045  12.929  0.2717 -0.3467  0.2298
    7TCq1    O6  110   0.506   1.839  12.849  0.4323 -0.7540  0.1941
    7TCq1    H1  111   0.182   2.055  13.204 -1.1029  1.9033 -0.0829
    7TCq1    H2  112   0.341   2.043  13.119 -0.1973  1.2154  2.5957
    7TCq1    H3  113   0.507   1.667  13.020  1.6445  0.0386 -0.6122
    7TCq1    H4  114   0.296   1.711  13.396  0.1601  0.2570 -0.1058
    8MPD2     C  115   0.641   1.096  13.114 -0.3116  0.3224  0.2075
    8MPD2    C1  116   0.529   1.123  13.192 -0.1111  0.3622  0.1484
    8MPD2    C2  117   0.500   1.257  13.219  0.7785  1.3429  0.7428
    8MPD2    C3  118   0.576   1.355  13.152 -0.7599  0.1414  0.6881
    8MPD2    C4  119   0.688   1.329  13.078 -0.1524 -0.4838 -0.0762
    8MPD2    C5  120   0.713   1.197  13.060  0.2481  0.4897 -0.2134
    8MPD2     H  121   0.412   1.284  13.277 -0.6374 -0.5210 -0.5595
    8MPD2    H1  122   0.746   1.398  13.018 -0.6595 -0.2979 -0.3549
    8MPD2    H2  123   0.667   0.995  13.085 -0.5521  0.5436 -0.7736
    8MPD2    H3  124   0.798   1.178  12.995  1.3776 -1.3970  1.8254
    8MPD2     N  125   0.535   1.487  13.157  0.4438 -0.1586 -0.0506
    8MPD2    H5  126   0.578   1.541  13.083 -0.5203  0.4251 -0.1827
    8MPD2    N1  127   0.455   1.012  13.240  0.0059 -0.0424  0.3702
    8MPD2    H7  128   0.484   0.919  13.213 -0.6725  0.8033 -3.1986
    9TCq1    O1  129   2.480   3.626  10.683  0.9954  0.2769 -0.1586
    9TCq1    C1  130   2.406   3.732  10.713 -0.3639 -0.6936 -0.0888
    9TCq1    O2  131   2.301   3.726  10.777 -0.5678 -0.2885  0.0452
    9TCq1    C2  132   2.495   3.841  10.719 -0.2454 -0.0521 -0.3692
    9TCq1    C3  133   2.565   3.857  10.604  0.8958  0.1195  0.0475
    9TCq1    C4  134   2.669   3.953  10.612 -1.6871 -0.1364  0.2393
    9TCq1    C5  135   2.700   4.004  10.731  0.3784  0.3235 -0.7782
    9TCq1    C6  136   2.624   3.968  10.847  0.0472 -0.0830 -0.2175
    9TCq1    C7  137   2.518   3.886  10.846 -0.4059  0.2889  0.1637
    9TCq1    C8  138   2.692   3.999  10.969  0.5995  0.7219 -0.0187
    9TCq1    O4  139   2.809   4.027  10.960  0.2221  0.1549  0.3712
    9TCq1    C9  140   2.745   3.975  10.496 -0.0730 -0.2164  0.1408
    9TCq1    O5  141   2.852   4.043  10.511  0.1443  0.7246  0.5678
    9TCq1    O6  142   2.734   3.882  10.414  0.0963 -0.3608 -0.1033
    9TCq1    H1  143   2.574   3.643  10.661  1.3801  1.1816  2.2705
    9TCq1    H2  144   2.533   3.819  10.507  0.2104  0.4770  0.1314
    9TCq1    H3  145   2.781   4.075  10.730  1.3969 -0.8009  1.2023
    9TCq1    H4  146   2.472   3.845  10.935 -0.9845  1.4460  0.3990
   10MPD2     C  147   2.805   4.004  11.247  0.1222 -0.0487 -0.2155
   10MPD2    C1  148   2.674   3.974  11.217 -0.0706 -0.1243 -0.0975
   10MPD2    C2  149   2.586   3.966  11.326  1.1280  0.1534 -0.1996
   10MPD2    C3  150   2.635   3.977  11.451  0.1133 -0.9533 -0.3053
   10MPD2    C4  151   2.767   4.014  11.470 -0.2059 -0.5053  0.0015
   10MPD2    C5  152   2.851   4.027  11.368 -0.2827  0.6382  0.9016
   10MPD2     H  153   2.481   3.951  11.307  1.3483  1.3536 -2.3275
   10MPD2    H1  154   2.810   4.048  11.564 -1.6468  0.6986  0.2074
   10MPD2    H2  155   2.880   3.999  11.169  0.1426 -1.1774 -0.1293
   10MPD2    H3  156   2.955   4.051  11.389  1.2132 -1.4739 -4.2857
   10MPD2     N  157   2.553   3.993  11.567 -0.1225  0.0226 -0.0113
   10MPD2    H5  158   2.592   4.019  11.657 -0.2704  0.8955 -0.1983
   10MPD2    N1  159   2.624   3.970  11.085  0.4178  0.2439 -0.4531
   10MPD2    H7  160   2.523   3.955  11.078  0.1353  1.7721  0.3329
   11TCq1    O1  161   4.037   4.646  14.527  0.0255  0.0390 -0.6634
   11TCq1    C1  162   3.925   4.710  14.560 -0.1872 -0.7672  0.3447
   11TCq1    O2  163   3.906   0.055  14.661  0.4772 -0.3010  0.0989
   11TCq1    C2  164   3.825   4.706  14.457  0.1273 -1.1238  0.0864
   11TCq1    C3  165   3.838   4.642  14.337  0.3186 -0.5134  0.4991
   11TCq1    C4  166   3.731   4.615  14.262 -0.0464 -0.4307 -0.0815
   11TCq1    C5  167   3.605   4.643  14.299  0.5494 -0.4744  0.2655
   11TCq1    C6  168   3.593   4.709  14.416 -0.1490 -0.1008  0.0370
   11TCq1    C7  169   3.694   0.007  14.502 -0.0788 -0.6973 -0.0271
   11TCq1    C8  170   3.466   0.034  14.453  0.2106  0.3781  0.0996
   11TCq1    O4  171   3.463   0.081  14.567  0.6028  0.6285 -0.4330
   11TCq1    C9  172   3.749   4.571  14.130  0.5872  0.1655  0.0177
   11TCq1    O5  173   3.863   4.588  14.079  0.1456  0.4315  0.4159
   11TCq1    O6  174   3.647   4.572  14.052 -0.4540 -0.7192 -0.2799
   11TCq1    H1  175   4.026   4.592  14.446 -0.1227  1.6679 -1.7505
   11TCq1    H2  176   3.930   4.621  14.283  1.1206  1.9133  0.9281
   11TCq1    H3  177   3.520   4.610  14.239 -0.0357  0.0303  0.8119
   11TCq1    H4  178   3.686   0.071  14.589  2.2361 -2.2036  1.2812
   12MPD2     C  179   3.171   0.076  14.479  0.0986  0.6152 -0.0206
   12MPD2    C1  180   3.233   0.004  14.378 -0.1604  0.7468 -0.0972
   12MPD2    C2  181   3.156   4.646  14.301 -0.6668 -0.0942 -0.5486
   12MPD2    C3  182   3.024   4.638  14.322  0.2610  0.2301 -0.0901
   12MPD2    C4  183   2.954   4.723  14.407 -0.1717 -0.0050  0.1696
   12MPD2    C5  184   3.036   0.071  14.486 -0.3787 -1.0730  0.2250
   12MPD2     H  185   3.214   4.586  14.232 -0.6904  0.2042 -0.8264
   12MPD2    H1  186   2.849   4.727  14.435 -0.5307  1.0616 -1.3667
   12MPD2    H2  187   3.235   0.119  14.555  0.4883  0.0827 -0.0393
   12MPD2    H3  188   2.992   0.133  14.563  0.0597 -0.7232  0.1979
   12MPD2     N  189   2.949   4.531  14.255  0.4362 -0.7612 -0.0058
   12MPD2    H5  190   2.999   4.460  14.202  3.3853 -0.6999  2.6923
   12MPD2    N1  191   3.369   4.726  14.358  0.1639 -0.7304  0.8910
   12MPD2    H7  192   3.403   4.684  14.272 -0.1013  1.9062 -0.4789
   13TCq1    O1  193   3.182   3.780  11.023  0.2703 -0.6546 -0.2197
   13TCq1    C1  194   3.096   3.729  11.108 -0.0852  0.3000 -0.0045
   13TCq1    O2  195   3.115   3.694  11.224  0.2455  0.1220 -0.1992
   13TCq1    C2  196   2.966   3.712  11.037 -0.0324 -0.9994  0.3917
   13TCq1    C3  197   2.968   3.699  10.899  0.0151  0.4339 -0.1337
   13TCq1    C4  198   2.851   3.654  10.843 -0.1905  0.5691 -0.2979
   13TCq1    C5  199   2.741   3.623  10.918 -0.0365 -0.5779 -1.0339
   13TCq1    C6  200   2.755   3.624  11.054  0.7990 -0.1647 -0.1405
   13TCq1    C7  201   2.865   3.674  11.114  0.1420 -0.3500  0.3248
   13TCq1    C8  202   2.635   3.609  11.137  0.3075  0.0610 -0.3905
   13TCq1    O4  203   2.634   3.641  11.255  0.1952 -0.0748  0.3547
   13TCq1    C9  204   2.838   3.657  10.699 -0.4287  0.0478  0.3218
   13TCq1    O5  205   2.724   3.627  10.659  0.5480  0.3690  0.3486
   13TCq1    O6  206   2.931   3.696  10.624 -1.0122  0.5603 -0.2734
   13TCq1    H1  207   3.141   3.824  10.945 -0.3198  0.4149  0.6955
   13TCq1    H2  208   3.046   3.741  10.838 -0.7228  2.1344  0.1107
   13TCq1    H3  209   2.655   3.584  10.865 -0.0789 -1.4628 -0.3085
   13TCq1    H4  210   2.872   3.678  11.222 -2.4981 -2.0105  0.5565
   14MPD2     C  211   2.311   3.505  11.025  0.4906 -0.1217 -0.6866
   14MPD2    C1  212   2.393   3.579  11.104  0.3355  0.0997  1.1009
   14MPD2    C2  213   2.348   3.653  11.211  0.7482 -0.1745 -0.2380
   14MPD2    C3  214   2.213   3.656  11.245 -0.2350 -0.7772 -0.0661
   14MPD2    C4  215   2.126   3.593  11.159  0.3558 -0.0270  0.1683
   14MPD2    C5  216   2.177   3.516  11.052  0.1175  0.0944 -0.8532
   14MPD2     H  217   2.414   3.719  11.266 -1.0203  0.9060  0.5586
   14MPD2    H1  218   2.019   3.604  11.168 -0.1566 -4.5852 -0.1749
   14MPD2    H2  219   2.344   3.449  10.938  0.2218 -0.3349 -0.6498
   14MPD2    H3  220   2.106   3.467  10.987 -0.8800 -0.0677  0.3568
   14MPD2     N  221   2.164   3.735  11.356  0.2396  0.1495 -0.0049
   14MPD2    H5  222   2.228   3.800  11.401 -1.0209  0.3904  1.4477
   14MPD2    N1  223   2.526   3.578  11.059  0.5796 -0.4293  0.5984
   14MPD2    H7  224   2.547   3.543  10.966 -0.8524 -1.0845  0.5136
   15TCq1    O1  225   4.228   3.438   2.058  0.1310  0.1954 -0.5122
   15TCq1    C1  226   4.223   3.510   1.944  0.6975  1.1987 -0.1340
   15TCq1    O2  227   4.240   3.629   1.940  0.7408 -0.1821  0.1827
   15TCq1    C2  228   4.115   3.451   1.866  0.0878 -0.7063  0.1148
   15TCq1    C3  229   4.002   3.528   1.850  0.1657  0.1670  0.2429
   15TCq1    C4  230   3.906   3.475   1.772  0.5437 -0.3286 -0.2217
   15TCq1    C5  231   3.921   3.358   1.700  0.3779 -0.3774  0.0115
   15TCq1    C6  232   4.044   3.302   1.702  0.4661 -0.2272 -0.0013
   15TCq1    C7  233   4.150   3.349   1.782  0.1189 -0.2320  1.1101
   15TCq1    C8  234   4.059   3.170   1.640 -0.1002 -0.1642  0.1444
   15TCq1    O4  235   4.157   3.106   1.669  0.4741 -0.5843  0.1147
   15TCq1    C9  236   3.788   3.553   1.761  0.2596 -0.4252  0.4821
   15TCq1    O5  237   3.779   3.664   1.821  0.2063  0.1188  0.3715
   15TCq1    O6  238   3.693   3.517   1.686  0.3934 -0.1495  0.7575
   15TCq1    H1  239   4.231   3.342   2.039 -1.0165 -0.0810  0.7097
   15TCq1    H2  240   3.984   3.617   1.910  0.4525  0.4593 -0.1103
   15TCq1    H3  241   3.834   3.327   1.643  1.1379 -1.4398 -0.5721
   15TCq1    H4  242   4.240   3.291   1.797  0.1034  0.0788  2.3478
   16MPD2     C  243   3.802   3.020   1.407 -0.2785 -0.3204  0.9290
   16MPD2    C1  244   3.913   3.023   1.492  0.5728  0.2267 -0.0371
   16MPD2    C2  245   3.999   2.909   1.494  0.0510 -0.0209  0.8398
   16MPD2    C3  246   3.955   2.794   1.433 -0.3378  0.1308 -0.1162
   16MPD2    C4  247   3.840   2.797   1.360 -0.4880 -1.2321  0.9128
   16MPD2    C5  248   3.762   2.908   1.339  0.3352  0.2112 -0.0977
   16MPD2     H  249   4.093   2.900   1.547 -0.3355 -1.3419  1.3205
   16MPD2    H1  250   3.807   2.710   1.304  0.9272 -0.5048 -1.0626
   16MPD2    H2  251   3.726   3.097   1.409 -0.0327 -0.0343 -1.3220
   16MPD2    H3  252   3.668   2.903   1.285 -0.6869  2.8717  1.3865
   16MPD2     N  253   4.040   2.677   1.447 -0.0054 -0.0027 -0.4554
   16MPD2    H5  254   4.126   2.703   1.496  1.1813 -3.9733 -0.3528
   16MPD2    N1  255   3.950   3.141   1.558 -0.0976 -0.9722  0.0567
   16MPD2    H7  256   3.881   3.216   1.550  0.4984 -0.2743  1.4165
   17TCq1    O1  257   1.499   3.332  10.178 -0.1713  0.3040 -0.1731
   17TCq1    C1  258   1.538   3.286  10.061  0.4079 -0.0987  0.0154
   17TCq1    O2  259   1.494   3.325   9.953  0.8527  0.4313  0.5464
   17TCq1    C2  260   1.548   3.149  10.086  0.1854 -0.3785 -0.1298
   17TCq1    C3  261   1.477   3.063  10.018  0.1364  0.4424 -0.0198
   17TCq1    C4  262   1.470   2.935  10.051  0.1316 -1.2779 -0.1536
   17TCq1    C5  263   1.542   2.885  10.160 -0.3948  0.0953  0.4645
   17TCq1    C6  264   1.622   2.974  10.221 -0.7811 -0.1435  0.5073
   17TCq1    C7  265   1.635   3.104  10.183 -0.1184 -0.6970 -0.5256
   17TCq1    C8  266   1.696   2.921  10.329  0.0968 -0.1225  0.1574
   17TCq1    O4  267   1.638   2.830  10.389 -0.5204  0.3336  0.1528
   17TCq1    C9  268   1.379   2.849   9.982 -0.3121 -0.8448  0.2562
   17TCq1    O5  269   1.335   2.752  10.048 -0.2141 -0.0384 -0.2929
   17TCq1    O6  270   1.365   2.860   9.856  0.2107 -0.0275 -0.2031
   17TCq1    H1  271   1.543   3.298  10.259  0.3712  0.5840 -0.3538
   17TCq1    H2  272   1.416   3.099   9.936 -0.7616  1.4741  1.0949
   17TCq1    H3  273   1.535   2.782  10.193  1.9438  0.4803  2.1929
   17TCq1    H4  274   1.710   3.169  10.226  0.2085 -2.0861  1.0360
   18MPD2     C  275   1.875   2.845  10.551  0.3365 -0.1486 -0.2909
   18MPD2    C1  276   1.910   2.943  10.457  0.2118  0.4567  0.1713
   18MPD2    C2  277   2.031   3.004  10.466  0.6745  0.0467  0.7527
   18MPD2    C3  278   2.116   2.969  10.572 -0.6452 -0.4786  0.1047
   18MPD2    C4  279   2.077   2.877  10.662 -0.0962 -0.1619  0.8727
   18MPD2    C5  280   1.961   2.806  10.650 -0.6645  0.2287  0.4268
   18MPD2     H  281   2.055   3.083  10.397 -0.0451 -0.6703 -0.3175
   18MPD2    H1  282   2.138   2.847  10.746  1.6915 -0.7792 -0.6508
   18MPD2    H2  283   1.783   2.788  10.539 -0.6382  0.8652  2.3400
   18MPD2    H3  284   1.932   2.742  10.733 -1.0974  0.8907  0.7886
   18MPD2     N  285   2.240   3.026  10.591 -0.1247 -0.2651 -0.1335
   18MPD2    H5  286   2.292   2.984  10.667  0.2431 -1.7096 -1.1784
   18MPD2    N1  287   1.819   2.980  10.355  0.2816 -0.3918  0.0641
   18MPD2    H7  288   1.843   3.050  10.285 -0.9793  1.5422  1.5579
   19TMC2    C1  289   4.545   4.155  13.798 -0.2904  0.3217 -1.0521
   19TMC2    C2  290   4.603   4.145  13.673 -0.0263 -0.3686 -0.5879
   19TMC2    C3  291   4.539   4.073  13.582 -0.3219 -0.6064  0.2180
   19TMC2    C4  292   4.442   4.081  13.834 -0.6017  0.7448 -0.3927
   19TMC2    C5  293   4.391   3.994  13.743  0.3323  0.2502 -0.2051
   19TMC2    C6  294   4.445   3.983  13.618 -0.9419 -0.0284  0.2688
   19TMC2     C  295   4.605   4.240  13.897 -0.4011  1.1388 -0.9669
   19TMC2     O  296   4.688   4.325  13.870  0.1572 -0.2978 -0.6587
   19TMC2     H  297   4.676   4.222  13.651 -0.3225 -0.2338 -1.0800
   19TMC2    H1  298   4.402   4.075  13.935  0.0204 -0.1635 -0.2035
   19TMC2    H2  299   4.386   3.931  13.543 -0.9195  0.1062  0.1605
   19TMC2    C7  300   4.284   3.910  13.782  0.1959  0.2157 -0.2634
   19TMC2    C8  301   4.595   4.068  13.449 -0.3412 -0.2419  0.3237
   19TMC2    O1  302   4.192   3.956  13.847 -0.2013 -0.3061  0.9981
   19TMC2    O2  303   4.536   3.998  13.362  0.3724  0.1563  0.3981
   19TMC2    O5  304   0.003   4.072  13.466 -0.2960  0.6859  0.2829
   19TMC2    H5  305   0.039   4.126  13.539 -0.0807  0.6524  0.2021
   20MPD2     C  306   4.724   4.337  14.154  0.9675 -0.2443  0.2767
   20MPD2    C1  307   4.602   4.272  14.141 -0.3546 -0.0036  0.3415
   20MPD2    C2  308   4.529   4.253  14.256  0.7666 -0.1291 -0.3668
   20MPD2    C3  309   4.565   4.310  14.379  0.6282  0.3095 -0.6642
   20MPD2    C4  310   4.683   4.375  14.384 -0.4240 -1.2388  0.2261
   20MPD2    C5  311   0.036   4.396  14.276  0.5530  0.0397  0.2198
   20MPD2     H  312   4.428   4.217  14.238  0.9730 -1.4867  1.2774
   20MPD2    H1  313   4.715   4.420  14.477 -0.9484 -1.5774  0.5675
   20MPD2    H2  314   0.069   4.338  14.073 -1.5378  1.9645 -1.9129
   20MPD2    H3  315   0.129   4.452  14.279  1.0386 -0.6233 -2.3400
   20MPD2     N  316   4.480   4.304  14.486  0.4260 -0.3840  0.1540
   20MPD2    H5  317   4.508   4.365  14.562 -1.2331  0.6965 -0.1137
   20MPD2    N1  318   4.552   4.222  14.019  0.2946 -0.3305 -0.1494
   20MPD2    H7  319   4.475   4.156  14.023  0.6884 -0.6257  2.7070
   21MPD2     C  320   1.818   0.328  14.297  0.1639  0.3133  0.1834
   21MPD2    C1  321   1.855   0.219  14.225 -0.2065 -0.0013  0.1833
   21MPD2    C2  322   1.777   0.107  14.201 -0.2971 -0.1952 -0.3564
   21MPD2    C3  323   1.654   0.110  14.255 -0.0906  0.2878 -0.3099
   21MPD2    C4  324   1.613   0.215  14.339 -0.7523 -0.5636 -0.6048
   21MPD2    C5  325   1.696   0.319  14.357  0.3162 -0.2600 -0.2051
   21MPD2     H  326   1.806   0.030  14.131 -0.6342  0.8167 -1.6079
   21MPD2    H1  327   1.518   0.223  14.391 -0.1970 -0.3255  0.3712
   21MPD2    H2  328   1.888   0.409  14.316  0.6403  0.0629 -0.4797
   21MPD2    H3  329   1.661   0.393  14.428 -0.3282  0.8050 -1.6455
   21MPD2     N  330   1.570   4.720  14.262  0.1605  0.3830  0.2201
   21MPD2    H5  331   1.484   4.715  14.315 -0.1715  0.8782 -0.2742
   21MPD2    N1  332   1.980   0.204  14.172 -0.7040 -0.4864  0.1677
   21MPD2    H7  333   2.002   0.111  14.138 -1.8247  0.0861 -2.1083
   22TCq2    C1  334   1.589   4.601  14.189 -0.2961  0.5613 -0.1070
   22TCq2    O2  335   1.664   4.580  14.093 -0.0881  0.0962 -0.4661
   22TCq2    C2  336   1.510   4.497  14.251 -0.9248 -0.0241  0.2773
   22TCq2    C3  337   1.573   4.373  14.254  0.8071  0.7204 -0.3583
   22TCq2    C4  338   1.525   4.287  14.348  0.4478  0.4714  0.1896
   22TCq2    C5  339   1.406   4.303  14.408 -0.1219 -0.2189  0.5202
   22TCq2    C6  340   1.342   4.420  14.385 -0.5606 -0.0296  0.2818
   22TCq2    C7  341   1.392   4.521  14.305 -0.6168 -0.3760  0.2004
   22TCq2    C8  342   1.207   4.427  14.442  0.4809 -0.5312 -0.0546
   22TCq2    O4  343   1.180   4.334  14.521 -0.2030 -0.1144  0.1384
   22TCq2    C9  344   1.595   4.163  14.375  0.0072 -0.5178 -0.2495
   22TCq2    O5  345   1.555   4.102  14.483 -0.0453 -0.1183 -0.5042
   22TCq2    O6  346   1.685   4.131  14.293 -0.4823  0.1756  0.3493
   22TCq2    H2  347   1.669   4.350  14.210  1.1210 -1.6783  1.5718
   22TCq2    H3  348   1.378   4.228  14.482 -2.6166  1.4673  1.2906
   22TCq2    H4  349   1.341   4.614  14.282  4.3079  2.3250  0.1322
   23MPD2     C  350   3.550   0.625  14.509 -0.4192 -0.8978 -0.2198
   23MPD2    C1  351   3.517   0.592  14.641  0.2754 -0.2552 -0.1281
   23MPD2    C2  352   3.411   0.658  14.699  0.2134 -0.2056 -0.0187
   23MPD2    C3  353   3.329   0.746  14.626 -0.3287 -0.5553  0.0832
   23MPD2    C4  354   3.364   0.773  14.495  0.1905  0.5414 -0.2847
   23MPD2    C5  355   3.476   0.717  14.433 -0.4901  0.0791  0.0303
   23MPD2     H  356   3.390   0.638  14.803 -0.3412 -0.0175 -0.0955
   23MPD2    H1  357   3.304   0.841  14.435 -1.1675  0.6140  1.1840
   23MPD2    H2  358   3.644   0.595  14.464 -1.2445  0.0423 -2.5499
   23MPD2    H3  359   3.500   0.751  14.333 -0.3554 -0.1358 -0.0106
   23MPD2     N  360   3.224   0.819  14.693  0.1780 -0.5910 -0.5847
   23MPD2    H5  361   3.196   0.901  14.639  1.8785 -0.2970 -1.0321
   23MPD2    N1  362   3.574   0.496  14.722 -0.1763  0.2942 -0.0203
   23MPD2    H7  363   3.521   0.484  14.807 -2.2743  0.7467 -1.2618
   24TCq2    C1  364   3.163   0.789  14.811 -0.5085 -0.2012 -0.6956
   24TCq2    O2  365   3.176   0.684  14.868  0.0035  0.2752 -0.1609
   24TCq2    C2  366   3.040   0.862  14.826 -0.0158  0.4289 -0.7602
   24TCq2    C3  367   3.013   0.976  14.757 -0.1750 -0.0012 -0.4206
   24TCq2    C4  368   2.884   1.022  14.735 -0.2609 -0.4098  0.3874
   24TCq2    C5  369   2.780   0.939  14.767 -0.0765 -0.1488 -0.8237
   24TCq2    C6  370   2.805   0.822  14.837  0.0453 -0.0513  0.2979
   24TCq2    C7  371   2.931   0.789  14.874 -0.2231 -0.3467 -0.2690
   24TCq2    C8  372   2.706   0.734  14.904 -0.4168  0.6796  0.0216
   24TCq2    O4  373   2.737   0.661  15.003  0.0477  0.4575 -0.0851
   24TCq2    C9  374   2.854   1.144  14.658 -0.9146 -0.0095 -0.0774
   24TCq2    O5  375   2.733   1.172  14.654 -0.1840  0.1471  0.3565
   24TCq2    O6  376   2.954   1.200  14.603  0.6114  0.2135 -0.2187
   24TCq2    H2  377   3.088   1.048  14.727 -1.6993  1.3354 -1.0374
   24TCq2    H3  378   2.681   0.958  14.726 -1.2028 -2.3661  0.9121
   24TCq2    H4  379   2.942   0.691  14.919 -0.9534  0.1685  1.0077
   25TMC2    C1  380   2.131   3.137  11.684  0.3643 -0.0898  0.1057
   25TMC2    C2  381   2.164   3.270  11.671 -0.5321 -0.4955  0.9245
   25TMC2    C3  382   2.123   3.360  11.765  0.6272  0.1772  0.2660
   25TMC2    C4  383   2.044   3.101  11.784 -0.0935 -0.1574  0.4100
   25TMC2    C5  384   2.009   3.193  11.875 -0.3574 -0.5265  0.1862
   25TMC2    C6  385   2.040   3.331  11.863  0.1313  0.2282  0.8747
   25TMC2     C  386   2.174   3.047  11.579  0.2797  0.4787 -0.1977
   25TMC2     O  387   2.254   3.097  11.500  0.1293 -0.1477 -0.0753
   25TMC2     H  388   2.237   3.306  11.600 -0.6972  1.2789  1.6564
   25TMC2    H1  389   2.019   2.997  11.798 -0.1735 -0.1569  0.2739
   25TMC2    H2  390   2.008   3.407  11.933  2.7087  0.6481  1.6034
   25TMC2    C7  391   1.913   3.160  11.989  0.2234  0.1983 -0.1627
   25TMC2    C8  392   2.161   3.498  11.744  0.2414 -0.3555  0.6058
   25TMC2    O1  393   1.917   3.049  12.039  0.1215  0.3396 -0.2945
   25TMC2    O2  394   2.179   3.555  11.634 -0.4324  0.1756 -0.2077
   25TMC2    O5  395   2.181   3.555  11.864 -0.3069  0.0064 -0.1363
   25TMC2    H5  396   2.174   3.494  11.940 -2.3141  1.1481  0.5791
   26MPD2     C  397   2.206   2.643  11.268  0.0906  0.4758 -0.2479
   26MPD2    C1  398   2.085   2.624  11.341 -0.3628 -0.2756  0.3404
   26MPD2    C2  399   2.060   2.709  11.453  0.0725  0.3441  1.0478
   26MPD2    C3  400   2.144   2.823  11.474 -0.8939  0.2281  0.0235
   26MPD2    C4  401   2.251   2.839  11.392  0.4385 -0.7405  0.3823
   26MPD2    C5  402   2.283   2.751  11.289  0.3796 -0.3510 -0.7294
   26MPD2     H  403   1.964   2.697  11.503 -0.4808 -2.8145 -0.7924
   26MPD2    H1  404   2.328   2.914  11.400 -1.2683  1.0265  0.0401
   26MPD2    H2  405   2.248   2.570  11.200 -1.5840 -0.0493 -0.7094
   26MPD2    H3  406   2.375   2.757  11.232 -0.7956  0.6217 -2.5295
   26MPD2     N  407   2.118   2.922  11.570  0.2502 -0.4880 -0.2300
   26MPD2    H5  408   2.042   2.901  11.634  0.8946 -0.3355  0.5852
   26MPD2    N1  409   2.000   2.513  11.304 -0.1915 -0.1123  0.1910
   26MPD2    H7  410   2.029   2.450  11.230  1.2731  1.7169 -0.7665
   27TMC2    C1  411   0.749   4.701  12.083 -0.0992  0.7019 -0.4894
   27TMC2    C2  412   0.782   4.683  11.949 -0.3951 -0.5906  0.7236
   27TMC2    C3  413   0.840   0.062  11.893 -0.3210  0.1917 -0.6871
   27TMC2    C4  414   0.808   0.071  12.156 -0.3318 -0.4031  0.4812
   27TMC2    C5  415   0.874   0.172  12.096 -0.0297 -0.1628  0.5215
   27TMC2    C6  416   0.891   0.170  11.958  0.5164  0.3202 -0.6424
   27TMC2     C  417   0.719   4.589  12.161 -0.0005  0.1864 -0.7583
   27TMC2     O  418   0.753   4.475  12.120 -0.5086  0.4598 -0.1396
   27TMC2     H  419   0.730   4.608  11.892 -0.7507  0.5677 -0.4831
   27TMC2    H1  420   0.801   0.075  12.264 -0.1258 -3.7637  0.6157
   27TMC2    H2  421   0.929   0.256  11.903 -0.8443  0.6179 -1.1018
   27TMC2    C7  422   0.965   0.247  12.182 -0.5381  0.0693  0.0965
   27TMC2    C8  423   0.855   0.041  11.750  0.5388 -0.4529  0.5990
   27TMC2    O1  424   0.972   0.213  12.297  0.3167  0.8457 -0.1156
   27TMC2    O2  425   0.858   4.661  11.690  0.3647  0.7808  0.6166
   27TMC2    O5  426   0.822   0.156  11.688  0.2440 -0.4476  0.6584
   27TMC2    H5  427   0.775   0.211  11.755  1.3800  2.2830 -0.7922
   28MPD2     C  428   0.462   4.441  12.590  0.9197 -0.0111  0.1237
   28MPD2    C1  429   0.424   4.566  12.553  0.4520  0.4459 -0.6917
   28MPD2    C2  430   0.490   4.621  12.448 -0.3819 -0.1337 -0.7638
   28MPD2    C3  431   0.579   4.546  12.366 -0.0965  0.9650 -0.3167
   28MPD2    C4  432   0.610   4.416  12.394 -0.9634  0.1114  0.2544
   28MPD2    C5  433   0.538   4.367  12.503  0.0942  1.2486  0.2721
   28MPD2     H  434   0.478   4.723  12.412 -0.2268  0.1717  0.0528
   28MPD2    H1  435   0.666   4.358  12.322 -0.8713  0.8575 -0.2698
   28MPD2    H2  436   0.415   4.398  12.677  0.1508  0.9665  0.1862
   28MPD2    H3  437   0.550   4.265  12.537 -1.1547  0.2626 -2.2521
   28MPD2     N  438   0.644   4.629  12.267  0.1969 -0.1971  0.2229
   28MPD2    H5  439   0.628   0.002  12.266 -1.7317 -0.5085  0.7739
   28MPD2    N1  440   0.319   4.629  12.624  0.2969 -0.0644 -0.3435
   28MPD2    H7  441   0.280   4.578  12.703 -2.3915  0.4888 -1.3118
   29MPD2     C  442   4.551   2.417  14.356 -0.8379  0.5037 -0.2448
   29MPD2    C1  443   4.688   2.407  14.337  0.6118  0.0669  0.4303
   29MPD2    C2  444   0.027   2.527  14.320 -0.1314  0.1834 -0.3091
   29MPD2    C3  445   4.698   2.652  14.347  0.2284 -0.2374  0.3622
   29MPD2    C4  446   4.562   2.654  14.369  0.2003  0.5424  0.6243
   29MPD2    C5  447   4.493   2.540  14.370  0.3625  0.5832  0.1487
   29MPD2     H  448   0.133   2.516  14.303  0.2494  3.1108  0.1939
   29MPD2    H1  449   4.501   2.740  14.397 -0.5453 -0.3123  1.6298
   29MPD2    H2  450   4.483   2.332  14.362 -0.6156  0.2877 -0.7931
   29MPD2    H3  451   4.387   2.550  14.386  0.7144 -0.4577  3.1520
   29MPD2     N  452   0.047   2.771  14.330 -0.0486 -0.4588 -0.4689
   29MPD2    H5  453   4.718   2.855  14.344  0.8191 -0.2568  1.7360
   29MPD2    N1  454   0.042   2.290  14.327 -0.0927 -0.0761 -0.1391
   29MPD2    H7  455   0.141   2.300  14.342 -0.1278 -0.0409  0.0687
   30TCq2    C1  456   0.185   2.784  14.322 -0.6227 -0.9271  0.1521
   30TCq2    O2  457   0.268   2.697  14.334 -0.0401 -0.4946 -0.0875
   30TCq2    C2  458   0.244   2.917  14.309  0.3338 -0.0971  0.2678
   30TCq2    C3  459   0.376   2.932  14.337 -0.0334  0.0768 -0.1108
   30TCq2    C4  460   0.423   3.063  14.326 -0.6814  0.0864  0.5962
   30TCq2    C5  461   0.343   3.166  14.287  0.0723  0.7499  0.2213
   30TCq2    C6  462   0.211   3.147  14.289  0.2717  0.0185  0.8761
   30TCq2    C7  463   0.159   3.019  14.303 -0.0552  0.0214  0.0054
   30TCq2    C8  464   0.124   3.259  14.303 -0.0459  0.3076  0.2900
   30TCq2    O4  465   0.007   3.251  14.263  0.0020  0.5760  0.0641
   30TCq2    C9  466   0.559   3.088  14.375 -0.5266 -0.0725 -0.0578
   30TCq2    O5  467   0.575   3.206  14.406  0.1449  0.1784 -0.5694
   30TCq2    O6  468   0.624   2.995  14.426 -0.0555  0.4893  0.2414
   30TCq2    H2  469   0.445   2.859  14.377 -0.0691  0.5475  0.7951
   30TCq2    H3  470   0.389   3.262  14.268  3.2273 -0.5868  1.0948
   30TCq2    H4  471   0.052   3.007  14.293 -0.1798 -0.2141  1.7268
   31MPD2     C  472   2.796   1.978  14.824  0.5904  0.3818  0.4849
   31MPD2    C1  473   2.672   2.041  14.816  0.2835 -0.2072  0.3777
   31MPD2    C2  474   2.574   1.997  14.898  0.2894 -0.5978 -0.2615
   31MPD2    C3  475   2.594   1.900  14.994  0.4094 -0.3530  0.1153
   31MPD2    C4  476   2.717   1.840  15.003 -0.0173  0.1499 -0.2332
   31MPD2    C5  477   2.808   1.872  14.909  0.2503  0.4715 -0.4768
   31MPD2     H  478   2.472   2.032  14.898  0.6336  0.4106  1.2255
   31MPD2    H1  479   2.736   1.760  15.074 -1.1939  0.4113  0.3830
   31MPD2    H2  480   2.879   2.004  14.758 -0.2725  4.8836  1.1416
   31MPD2    H3  481   2.909   1.834  14.924 -0.2469 -0.7910 -0.3713
   31MPD2     N  482   2.502   1.857  15.092 -0.0583  0.1117 -0.1796
   31MPD2    H5  483   2.537   1.797  15.166  1.2708 -1.5113 -2.1631
   31MPD2    N1  484   2.652   2.138  14.718  0.0271  0.2629  0.5164
   31MPD2    H7  485   2.729   2.157  14.655 -0.9286  1.0327 -0.4322
   32TCq2    C1  486   2.370   1.884  15.098 -0.5813  0.0687 -0.2522
   32TCq2    O2  487   2.314   1.972  15.043  0.3487 -0.2474  0.0401
   32TCq2    C2  488   2.309   1.802  15.196  0.5512  0.3095  0.0675
   32TCq2    C3  489   2.184   1.840  15.241 -0.6366  0.1679  0.3007
   32TCq2    C4  490   2.112   1.755  15.316 -0.7783  1.0996 -0.6958
   32TCq2    C5  491   2.165   1.642  15.368  0.2103 -0.4228  1.0005
   32TCq2    C6  492   2.298   1.614  15.326  0.7026  0.0693 -0.4604
   32TCq2    C7  493   2.367   1.688  15.237 -0.6425 -0.0604  0.3742
   32TCq2    C8  494   2.383   1.524  15.405 -0.2333 -0.1706 -0.5485
   32TCq2    O4  495   2.496   1.500  15.360 -0.3007 -0.4350  0.2288
   32TCq2    C9  496   1.974   1.785  15.354  0.0628 -0.0524 -0.1127
   32TCq2    O5  497   1.920   1.890  15.315  0.4146  0.2468  0.3384
   32TCq2    O6  498   1.921   1.704  15.435 -0.2235 -0.3332 -0.0689
   32TCq2    H2  499   2.140   1.935  15.213  1.8235  1.6081  1.3236
   32TCq2    H3  500   2.109   1.571  15.427 -1.4681  0.3942  0.3974
   32TCq2    H4  501   2.468   1.656  15.214 -1.0203 -1.5964  0.8247
   33MPD2     C  502   2.782   3.081  10.062  0.4967  0.3170 -0.5510
   33MPD2    C1  503   2.799   3.190  10.141  0.4102  0.1661  0.2359
   33MPD2    C2  504   2.883   3.292  10.103 -0.1677  0.2126  0.0752
   33MPD2    C3  505   2.941   3.286   9.975  0.1999 -0.4896 -0.4565
   33MPD2    C4  506   2.929   3.173   9.902  0.2170  0.0630 -0.8150
   33MPD2    C5  507   2.855   3.067   9.947  0.1481  0.6395  0.3674
   33MPD2     H  508   2.892   3.376  10.170  2.6472 -1.2141  1.5079
   33MPD2    H1  509   2.981   3.167   9.807  0.2358  0.4166 -0.8301
   33MPD2    H2  510   2.721   3.003  10.105  1.7349 -0.5799 -0.4242
   33MPD2    H3  511   2.840   2.978   9.888  0.0008  1.6192 -1.0810
   33MPD2     N  512   3.025   3.388   9.912  0.6802  0.4153  0.7837
   33MPD2    H5  513   3.064   3.378   9.819 -0.2063  0.4057  0.4119
   33MPD2    N1  514   2.724   3.188  10.258  0.1482 -0.5265 -0.5191
   33MPD2    H7  515   2.652   3.116  10.264 -0.9300  0.6872  1.1422
   34TCq2    C1  516   3.042   3.511   9.961 -0.0729 -0.0017 -0.3901
   34TCq2    O2  517   2.986   3.574  10.053 -0.2264 -0.0884 -0.3603
   34TCq2    C2  518   3.146   3.585   9.899  0.7001  0.4666  0.1820
   34TCq2    C3  519   3.243   3.525   9.825 -0.1671 -0.0977  0.6921
   34TCq2    C4  520   3.347   3.598   9.774  0.6438 -0.2829  0.4354
   34TCq2    C5  521   3.340   3.735   9.793  0.7281  0.2905 -0.1216
   34TCq2    C6  522   3.235   3.797   9.858 -0.0306  0.0196  0.1773
   34TCq2    C7  523   3.139   3.720   9.928 -0.6210  0.0553  0.3152
   34TCq2    C8  524   3.242   3.941   9.866  0.2374  0.1490  0.0050
   34TCq2    O4  525   3.336   3.997   9.812 -0.5563 -0.4488  0.8972
   34TCq2    C9  526   3.456   3.540   9.702 -0.3195 -0.9240  0.6269
   34TCq2    O5  527   3.466   3.415   9.703 -0.3281  0.1103  0.3324
   34TCq2    O6  528   3.507   3.626   9.621  0.3210 -0.3889 -0.1367
   34TCq2    H2  529   3.259   3.420   9.808 -0.1487  0.1471 -0.7787
   34TCq2    H3  530   3.419   3.795   9.749  1.8953 -1.2975 -0.2155
   34TCq2    H4  531   3.052   3.764   9.975 -2.1008 -0.1609 -2.2409
   35MPD2     C  532   0.013   0.160  11.690 -0.4096  0.1260 -0.0591
   35MPD2    C1  533   4.633   0.223  11.746  0.7280  0.1862  0.5621
   35MPD2    C2  534   4.534   0.279  11.659  0.4874 -0.1896 -1.2524
   35MPD2    C3  535   4.555   0.283  11.520 -0.4682 -0.4597 -1.5171
   35MPD2    C4  536   4.669   0.224  11.466 -0.1030 -0.0517 -0.2792
   35MPD2    C5  537   0.027   0.159  11.549 -0.5699  0.6416  0.7274
   35MPD2     H  538   4.446   0.332  11.695  2.2073 -0.3340  3.2467
   35MPD2    H1  539   4.692   0.220  11.360  1.9645  2.3344  0.0816
   35MPD2    H2  540   0.086   0.101  11.744 -0.2304  0.6597  0.2743
   35MPD2    H3  541   0.113   0.108  11.507 -1.1138  1.3925 -1.3052
   35MPD2     N  542   4.448   0.339  11.443  0.7355  0.2611  0.5076
   35MPD2    H5  543   4.366   0.377  11.489 -0.3894 -0.5136 -0.8678
   35MPD2    N1  544   4.624   0.211  11.887  0.2251  0.0576 -0.1843
   35MPD2    H7  545   4.701   0.161  11.931  1.0732  0.2168 -1.4880
   36TCq2    C1  546   4.447   0.342  11.307  0.2276 -0.0106 -0.2438
   36TCq2    O2  547   4.534   0.325  11.221 -0.4018  0.6806  0.0551
   36TCq2    C2  548   4.313   0.385  11.251  0.5209 -0.1518  0.2380
   36TCq2    C3  549   4.313   0.403  11.113  0.4313  0.3324  0.0946
   36TCq2    C4  550   4.187   0.410  11.053  0.4451 -0.7668 -0.2525
   36TCq2    C5  551   4.072   0.397  11.129 -0.2917 -0.2755  0.0422
   36TCq2    C6  552   4.079   0.376  11.264  0.3608 -0.5440  0.1381
   36TCq2    C7  553   4.201   0.371  11.322 -0.4062  0.6940  0.3354
   36TCq2    C8  554   3.966   0.317  11.334  0.2271 -0.2967  0.1620
   36TCq2    O4  555   3.990   0.272  11.441 -0.3960  0.3789  0.6638
   36TCq2    C9  556   4.175   0.430  10.908  0.3832 -0.0385 -0.2030
   36TCq2    O5  557   4.251   0.354  10.840 -0.2350  0.0328  0.0095
   36TCq2    O6  558   4.101   0.523  10.867 -0.8210  0.4126  0.4504
   36TCq2    H2  559   4.406   0.424  11.062 -0.6686  0.0100 -2.0246
   36TCq2    H3  560   3.982   0.395  11.069  0.8651 -0.3937 -1.6935
   36TCq2    H4  561   4.198   0.363  11.430 -0.1013  0.7994  0.3519
   37TMC2    C1  562   1.693   4.589  11.963 -0.0054 -0.1354 -0.4001
   37TMC2    C2  563   1.706   4.464  11.896  0.7692  0.0206  0.1492
   37TMC2    C3  564   1.763   4.478  11.771 -0.0308  0.0391  0.5515
   37TMC2    C4  565   1.761   4.706  11.927  0.9330  1.2822  0.6984
   37TMC2    C5  566   1.827   4.699  11.805  0.9340  0.1769 -0.4113
   37TMC2    C6  567   1.812   4.591  11.720  0.2067  0.2227  0.5848
   37TMC2     C  568   1.609   4.583  12.079  0.5948  0.2794  0.3443
   37TMC2     O  569   1.580   4.467  12.120  0.0136 -0.0858  0.6363
   37TMC2     H  570   1.660   4.375  11.936  2.0319 -0.5204  0.4050
   37TMC2    H1  571   1.760   0.066  11.992  0.0712  0.1028  2.2629
   37TMC2    H2  572   1.874   4.586  11.631  2.1580 -0.9527  2.0163
   37TMC2    C7  573   1.907   0.091  11.782  0.1031 -1.0627  0.0824
   37TMC2    C8  574   1.743   4.358  11.685  0.2875 -0.0090  0.0196
   37TMC2    O1  575   1.932   0.168  11.877  0.1100 -0.2160 -0.2388
   37TMC2    O2  576   1.680   4.258  11.722  0.5300  0.0790 -0.7602
   37TMC2    O5  577   1.738   4.396  11.558 -0.2603  0.1406  0.0606
   37TMC2    H5  578   1.774   4.482  11.526 -0.2369  1.0946  2.6053
   38MPD2     C  579   1.384   0.077  12.486  0.6242  0.8847  0.5285
   38MPD2    C1  580   1.440   0.174  12.406 -0.3120 -0.6023 -0.1000
   38MPD2    C2  581   1.506   0.140  12.288 -0.0901  0.3611  0.5472
   38MPD2    C3  582   1.520   0.007  12.256  0.6075  1.2594 -0.0989
   38MPD2    C4  583   1.468   4.638  12.339  0.4214  0.0355  0.0204
   38MPD2    C5  584   1.398   4.672  12.452 -0.0823  0.3692 -0.1352
   38MPD2     H  585   1.561   0.212  12.227  2.0183 -1.0371  0.7993
   38MPD2    H1  586   1.479   4.532  12.318 -2.2529 -0.4272  0.8909
   38MPD2    H2  587   1.354   0.113  12.583 -0.0857 -0.9403  0.9742
   38MPD2    H3  588   1.360   4.590  12.511 -0.3124 -0.0322 -0.8447
   38MPD2     N  589   1.593   4.704  12.136  0.0808 -0.1557 -0.3487
   38MPD2    H5  590   1.631   0.053  12.081 -1.9575  1.3141  0.2769
   38MPD2    N1  591   1.460   0.309  12.437  0.1583 -0.3441 -0.2835
   38MPD2    H7  592   1.519   0.366  12.377  0.6138  0.8100  1.2447
   39MPD2     C  593   4.139   2.372   1.854  0.2889  0.0724  0.5350
   39MPD2    C1  594   4.092   2.502   1.819 -0.8801 -0.7571 -0.8229
   39MPD2    C2  595   3.990   2.515   1.722 -0.5301 -0.0822  0.3860
   39MPD2    C3  596   3.921   2.400   1.680 -0.6884 -0.1554  0.6855
   39MPD2    C4  597   3.970   2.276   1.714  1.0902  1.0293 -0.2306
   39MPD2    C5  598   4.070   2.261   1.809  0.1755  0.5299 -0.4208
   39MPD2     H  599   3.962   2.616   1.694 -0.1046 -0.1755 -0.3613
   39MPD2    H1  600   3.917   2.183   1.693  0.4023  1.4330 -0.2818
   39MPD2    H2  601   4.222   2.359   1.923 -0.6591 -0.2542  1.6104
   39MPD2    H3  602   4.093   2.162   1.848 -1.3758  0.3838  0.1370
   39MPD2     N  603   3.805   2.408   1.590  0.3967  0.4131  0.4138
   39MPD2    H5  604   3.776   2.325   1.538  0.5422  0.3714  0.3990
   39MPD2    N1  605   4.179   2.606   1.860  0.1651 -1.0930 -0.3441
   39MPD2    H7  606   4.265   2.581   1.908 -1.4583 -4.0952  1.0401
   40TCq2    C1  607   4.156   2.739   1.844  1.1022 -0.6779  0.6038
   40TCq2    O2  608   4.063   2.796   1.790 -0.2087 -0.4938 -0.2314
   40TCq2    C2  609   4.274   2.812   1.891  0.6652  0.6888  0.7116
   40TCq2    C3  610   4.257   2.934   1.943 -0.4128  0.1863  0.6200
   40TCq2    C4  611   4.363   2.998   1.998 -0.6421 -0.0762  0.0444
   40TCq2    C5  612   4.488   2.935   2.001  0.1909  0.5433  0.0164
   40TCq2    C6  613   4.504   2.807   1.944 -0.9932 -0.9447 -0.2389
   40TCq2    C7  614   4.401   2.746   1.887 -0.8579 -0.9759  0.0407
   40TCq2    C8  615   4.620   2.726   1.969  0.3123 -0.8216  0.3741
   40TCq2    O4  616   4.599   2.622   2.031  0.1133  0.4659 -0.3651
   40TCq2    C9  617   4.355   3.131   2.053  0.6130 -0.9334  0.2574
   40TCq2    O5  618   4.239   3.187   2.050 -0.1743  0.2509 -0.3685
   40TCq2    O6  619   4.458   3.175   2.110  0.0885  0.0935  0.0967
   40TCq2    H2  620   4.157   2.977   1.937 -1.0483 -1.3597  0.0332
   40TCq2    H3  621   4.580   2.979   2.039  1.1887  0.6372 -2.5493
   40TCq2    H4  622   4.406   2.647   1.845 -1.2969 -0.4256 -1.3244
   41TMC2    C1  623   4.040   0.696  14.370  0.6059 -0.4774 -0.5826
   41TMC2    C2  624   3.913   0.679  14.327  0.0697 -0.7845 -0.2371
   41TMC2    C3  625   3.896   0.707  14.192  0.1186  0.2833 -0.1039
   41TMC2    C4  626   4.150   0.722  14.284  0.0116 -0.1053  0.2001
   41TMC2    C5  627   4.129   0.741  14.154 -0.1919  0.5560 -0.1151
   41TMC2    C6  628   3.997   0.734  14.102  0.4991  0.4557 -0.0067
   41TMC2     C  629   4.076   0.653  14.505 -0.4249  0.5603  0.2329
   41TMC2     O  630   4.189   0.617  14.522 -0.4642 -0.2956  0.1510
   41TMC2     H  631   3.822   0.675  14.386 -1.9932 -0.4228 -3.4060
   41TMC2    H1  632   4.249   0.730  14.327 -0.1116  1.2635  0.2588
   41TMC2    H2  633   3.974   0.750  13.997  0.9810  0.1719 -0.1585
   41TMC2    C7  634   4.218   0.842  14.089  0.3819 -0.1932 -0.6414
   41TMC2    C8  635   3.766   0.692  14.132  0.3733  0.4217 -0.7508
   41TMC2    O1  636   4.285   0.912  14.166  0.8246  0.3077 -0.7193
   41TMC2    O2  637   3.734   0.740  14.023 -0.0992  0.3503 -0.1435
   41TMC2    O5  638   3.694   0.598  14.202 -0.9288 -0.1695 -0.2966
   41TMC2    H5  639   3.625   0.557  14.146 -1.1709 -0.3226  0.1197
   42MPD2     C  640   4.108   0.618  14.799  0.0849  0.5254 -0.2586
   42MPD2    C1  641   3.993   0.658  14.738  0.1626  0.8339 -0.3645
   42MPD2    C2  642   3.881   0.687  14.821 -0.3000  0.1167  0.2688
   42MPD2    C3  643   3.888   0.671  14.957  0.6431 -0.5072 -0.1938
   42MPD2    C4  644   4.008   0.625  15.013  1.0285  0.2248 -0.2998
   42MPD2    C5  645   4.117   0.597  14.932  0.3183  0.5895 -0.5177
   42MPD2     H  646   3.791   0.720  14.771  2.7810  2.7724 -3.5697
   42MPD2    H1  647   4.005   0.616  15.121 -2.5387  0.3611 -0.3695
   42MPD2    H2  648   4.197   0.600  14.739  0.5003 -1.1829  0.8814
   42MPD2    H3  649   4.211   0.568  14.977 -0.4065 -0.9798 -0.0007
   42MPD2     N  650   3.783   0.693  15.053 -0.5720 -0.5673 -0.2952
   42MPD2    H5  651   3.799   0.662  15.149  2.2588 -2.6583 -1.4197
   42MPD2    N1  652   3.975   0.672  14.596 -0.9112 -0.5208  0.6550
   42MPD2    H7  653   3.892   0.716  14.559 -1.0305  0.4491  2.0645
   43MPD2     C  654   0.059   3.609   0.696 -0.1611  0.3722 -0.2791
   43MPD2    C1  655   0.139   3.551   0.790  0.4071 -0.0465  0.0138
   43MPD2    C2  656   0.136   3.601   0.913  0.1790 -0.1628  0.1023
   43MPD2    C3  657   0.059   3.711   0.944 -0.1333  0.3258 -0.0740
   43MPD2    C4  658   4.702   3.768   0.851  0.6557  0.0801 -0.1744
   43MPD2    C5  659   4.711   3.721   0.724  0.4238  0.8942 -0.4678
   43MPD2     H  660   0.188   3.547   0.991  1.1249  0.1927 -0.2700
   43MPD2    H1  661   4.640   3.856   0.860  0.4677  0.0919 -1.6278
   43MPD2    H2  662   0.062   3.581   0.591 -0.1186  1.6045 -0.6096
   43MPD2    H3  663   4.642   3.760   0.651 -0.5566  1.0881  0.5601
   43MPD2     N  664   0.063   3.772   1.071 -0.1856  0.2539  0.5077
   43MPD2    H5  665   4.714   3.833   1.099  1.4051  1.9133  1.2216
   43MPD2    N1  666   0.230   3.451   0.748  0.1029 -0.4667  0.2360
   43MPD2    H7  667   0.307   3.422   0.809 -0.0744 -0.4233  0.4810
   44TCq2    C1  668   0.042   4.135   1.446  0.4096 -0.2232  0.2756
   44TCq2    O2  669   0.047   4.208   1.349  0.0055  0.3280 -0.2116
   44TCq2    C2  670   0.089   3.998   1.436 -0.0438  0.1222 -0.1364
   44TCq2    C3  671   0.148   3.943   1.545  0.0376  0.1738  0.5906
   44TCq2    C4  672   0.225   3.832   1.513 -0.5592  0.6314 -0.1949
   44TCq2    C5  673   0.239   3.777   1.385 -0.3960  0.2074 -0.3005
   44TCq2    C6  674   0.160   3.826   1.289  0.2890 -0.4079 -0.2935
   44TCq2    C7  675   0.092   3.947   1.309 -0.4845  0.0685  0.3898
   44TCq2    C8  676   0.178   3.763   1.156  0.1143 -0.4385  0.3192
   44TCq2    O4  677   0.294   3.734   1.125  0.1844 -0.2515 -0.2354
   44TCq2    C9  678   0.290   3.764   1.628 -0.0180  0.0053  0.1309
   44TCq2    O5  679   0.257   3.801   1.744 -0.3349  1.0254  0.2043
   44TCq2    O6  680   0.391   3.694   1.599 -0.0374  0.2031  0.3768
   44TCq2    H2  681   0.158   3.984   1.645  1.0620  1.9268 -0.2406
   44TCq2    H3  682   0.283   3.679   1.371  0.9045  0.7899 -0.2290
   44TCq2    H4  683   0.030   3.997   1.236  0.7733  0.8103 -0.1814
   45TMC2    C1  684   1.472   0.446  10.732  0.0969  0.5575  1.1316
   45TMC2    C2  685   1.486   0.403  10.863  0.4545  0.2711  0.3361
   45TMC2    C3  686   1.533   0.496  10.950  0.3135  0.4847 -0.3003
   45TMC2    C4  687   1.516   0.565  10.688  0.0414  0.0925 -0.0024
   45TMC2    C5  688   1.564   0.654  10.784 -0.8082  0.3361 -0.9346
   45TMC2    C6  689   1.565   0.623  10.916 -0.4202 -0.2824  0.5326
   45TMC2     C  690   1.427   0.340  10.643  0.8176  0.5306 -0.4702
   45TMC2     O  691   1.443   0.223  10.670  0.0566 -0.1984 -0.6171
   45TMC2     H  692   1.450   0.304  10.890  0.5060 -0.2927 -1.6685
   45TMC2    H1  693   1.502   0.591  10.583  0.8790 -0.5750 -0.2781
   45TMC2    H2  694   1.599   0.694  10.991 -1.1084 -1.2809  1.7981
   45TMC2    C7  695   1.605   0.784  10.743 -0.3039  0.3276 -0.5598
   45TMC2    C8  696   1.587   0.459  11.084  0.2870 -0.1256  0.0405
   45TMC2    O1  697   1.602   0.877  10.825 -0.7058  0.0712  0.1581
   45TMC2    O2  698   1.604   0.544  11.170 -0.2834 -0.0274  0.1849
   45TMC2    O5  699   1.637   0.334  11.078 -0.3551 -0.3148  0.1335
   45TMC2    H5  700   1.634   0.290  10.991  1.3038 -1.6524  0.7557
   46MPD2     C  701   1.326   0.179  10.408  0.5394  0.3319 -0.0300
   46MPD2    C1  702   1.324   0.317  10.422  0.0299 -0.1301  0.3829
   46MPD2    C2  703   1.279   0.393  10.310  0.4078  0.1796  0.5055
   46MPD2    C3  704   1.209   0.333  10.210 -0.5505 -0.5911  0.6307
   46MPD2    C4  705   1.217   0.191  10.198 -0.4354 -0.0918  0.1593
   46MPD2    C5  706   1.289   0.124  10.288 -0.1639  0.2519  0.3404
   46MPD2     H  707   1.282   0.502  10.316 -1.4715  0.2139  1.0836
   46MPD2    H1  708   1.155   0.134  10.130  0.9481 -0.7924 -0.5215
   46MPD2    H2  709   1.357   0.115  10.490  1.9689 -0.3574 -1.1020
   46MPD2    H3  710   1.295   0.018  10.265 -0.9906  0.4817 -0.9266
   46MPD2     N  711   1.142   0.416  10.111  0.5879 -0.0384 -0.4478
   46MPD2    H5  712   1.153   0.516  10.126 -2.4732  0.4863 -1.7484
   46MPD2    N1  713   1.381   0.392  10.526 -0.0809  0.3730  0.0964
   46MPD2    H7  714   1.358   0.491  10.522  0.5964  0.4372 -2.1453
   47TMC2    C1  715   2.651   1.639   8.928  0.2801 -0.7700  0.5958
   47TMC2    C2  716   2.577   1.691   8.821  0.2272 -0.3707  0.3271
   47TMC2    C3  717   2.460   1.744   8.858  0.4380 -0.2482 -0.7398
   47TMC2    C4  718   2.599   1.653   9.056  0.4227 -0.0971  0.1679
   47TMC2    C5  719   2.470   1.702   9.079  0.0211 -0.0381 -1.1873
   47TMC2    C6  720   2.400   1.756   8.977 -0.3119 -0.0658  0.6407
   47TMC2     C  721   2.786   1.599   8.910  0.3306  0.1039  0.1220
   47TMC2     O  722   2.828   1.622   8.794  0.5449  0.1106  0.3449
   47TMC2     H  723   2.624   1.702   8.724 -0.4674 -0.4305 -0.0142
   47TMC2    H1  724   2.668   1.632   9.136 -0.6300  1.4661  1.4914
   47TMC2    H2  725   2.296   1.787   8.986 -0.2669  0.0933  0.6121
   47TMC2    C7  726   2.405   1.717   9.218 -0.5899  0.3786 -0.1628
   47TMC2    C8  727   2.387   1.790   8.744  1.3462  0.2186  0.4129
   47TMC2    O1  728   2.288   1.762   9.226 -0.1729 -0.1876 -0.6187
   47TMC2    O2  729   2.445   1.850   8.653  0.0124  0.4438  0.1109
   47TMC2    O5  730   2.314   1.682   8.731 -0.6932  0.3124  0.9229
   47TMC2    H5  731   2.280   1.636   8.811  0.5036  0.2295  1.3755
   48MPD2     C  732   3.078   1.592   8.938  0.2382 -0.5451  0.0564
   48MPD2    C1  733   2.996   1.503   9.001 -0.3690 -0.5918  0.5507
   48MPD2    C2  734   3.053   1.406   9.087  0.1358 -0.3518 -0.3530
   48MPD2    C3  735   3.195   1.399   9.095  0.1452 -0.3356  0.3975
   48MPD2    C4  736   3.272   1.489   9.030  0.0123  0.1460  0.0592
   48MPD2    C5  737   3.214   1.583   8.951 -0.4727  0.1446 -0.2874
   48MPD2     H  738   2.989   1.341   9.145 -1.7349  1.2011 -0.6739
   48MPD2    H1  739   3.380   1.483   9.028 -0.0170 -0.1659 -0.4187
   48MPD2    H2  740   3.030   1.670   8.881 -0.4619 -0.4055  0.8389
   48MPD2    H3  741   3.272   1.653   8.893  1.2497 -0.1129  1.1225
   48MPD2     N  742   3.263   1.298   9.173  0.2704 -0.5800 -0.1631
   48MPD2    H5  743   3.211   1.221   9.214 -0.2396  0.7912  1.7501
   48MPD2    N1  744   2.856   1.525   9.004  0.3244  0.2305 -0.3188
   48MPD2    H7  745   2.807   1.498   9.089  0.8032 -0.8980 -0.4048
   49MPD2     C  746   1.407   2.482  11.072 -0.5726  0.4258  0.4578
   49MPD2    C1  747   1.496   2.510  10.965 -0.1831  0.4443 -0.0308
   49MPD2    C2  748   1.594   2.604  10.987 -0.3854  0.2461 -1.3750
   49MPD2    C3  749   1.609   2.649  11.117 -0.0228  0.1392  0.3645
   49MPD2    C4  750   1.523   2.627  11.218  0.3629 -0.8369  0.2224
   49MPD2    C5  751   1.418   2.541  11.190 -0.1392 -0.3467  0.1024
   49MPD2     H  752   1.649   2.641  10.901 -0.5806 -0.6054 -1.8664
   49MPD2    H1  753   1.531   2.666  11.319 -0.2050  1.2162 -0.5132
   49MPD2    H2  754   1.310   2.436  11.056 -0.5592 -0.2390  2.3314
   49MPD2    H3  755   1.343   2.530  11.267 -0.5683 -0.5607 -0.3540
   49MPD2     N  756   1.716   2.732  11.153  0.3458 -0.2272 -0.5792
   49MPD2    H5  757   1.718   2.766  11.249  1.1879 -2.5250  0.2244
   49MPD2    N1  758   1.488   2.465  10.832  0.2812  0.3304 -0.1342
   49MPD2    H7  759   1.550   2.506  10.763  0.8098 -1.5485 -0.7682
   50TCq2    C1  760   1.415   2.355  10.795  0.5216  0.3362  0.2819
   50TCq2    O2  761   1.355   2.273  10.868  0.3212  0.0739  0.4693
   50TCq2    C2  762   1.426   2.329  10.653  0.5925  0.1072 -1.2047
   50TCq2    C3  763   1.439   2.438  10.562 -0.4569 -0.5889 -0.3451
   50TCq2    C4  764   1.425   2.414  10.427 -0.3821  0.3935  0.1992
   50TCq2    C5  765   1.379   2.291  10.389  0.1601  0.2954  0.1490
   50TCq2    C6  766   1.354   2.191  10.481 -0.8468  0.1234  0.6466
   50TCq2    C7  767   1.388   2.202  10.613  0.1952  0.2648 -1.0030
   50TCq2    C8  768   1.292   2.071  10.443 -0.2016  0.0631  0.0447
   50TCq2    O4  769   1.226   2.005  10.521 -0.0714  0.2642 -0.5261
   50TCq2    C9  770   1.446   2.524  10.333 -0.2525  0.7953  0.1962
   50TCq2    O5  771   1.443   2.495  10.212 -0.1471 -0.5584  0.0090
   50TCq2    O6  772   1.417   2.637  10.383  0.4487 -0.1991 -0.2772
   50TCq2    H2  773   1.459   2.539  10.595  1.3142 -0.3688 -2.0527
   50TCq2    H3  774   1.333   2.283  10.291  0.4918 -0.6935  0.0675
   50TCq2    H4  775   1.368   2.119  10.679 -0.3286  0.9567 -0.2920
   51MPD2     C  776   2.713   2.374   1.286  0.4647  0.6156 -0.5265
   51MPD2    C1  777   2.628   2.270   1.303  0.0054 -0.2150 -0.0844
   51MPD2    C2  778   2.494   2.288   1.316 -0.2967 -0.5681 -0.0025
   51MPD2    C3  779   2.434   2.410   1.291 -0.2984 -0.4260  0.3674
   51MPD2    C4  780   2.518   2.512   1.247 -0.0196  0.0327 -0.6295
   51MPD2    C5  781   2.657   2.498   1.251  0.6230  0.8935 -0.2125
   51MPD2     H  782   2.433   2.202   1.341 -0.2478 -0.1148  1.6887
   51MPD2    H1  783   2.479   2.612   1.232  2.3244  0.5840 -3.1243
   51MPD2    H2  784   2.821   2.368   1.281  0.5074  0.7015  0.3190
   51MPD2    H3  785   2.717   2.588   1.245 -0.6792  1.7823  0.1021
   51MPD2     N  786   2.298   2.440   1.306  0.5679  0.6698 -0.0548
   51MPD2    H5  787   2.272   2.530   1.267 -2.1546 -0.4195 -0.7662
   51MPD2    N1  788   2.686   2.144   1.303 -0.1994 -0.1549 -0.1185
   51MPD2    H7  789   2.613   2.074   1.304 -2.7021  2.4543  1.3988
   52TCq2    C1  790   2.207   2.361   1.365 -0.2124 -0.6376  0.2419
   52TCq2    O2  791   2.229   2.273   1.448  0.1037  0.1340 -0.6066
   52TCq2    C2  792   2.073   2.416   1.368 -0.0046  0.5682  0.1322
   52TCq2    C3  793   2.004   2.389   1.484  0.8254  0.1181  0.0702
   52TCq2    C4  794   1.887   2.460   1.511 -0.2762 -0.2259  0.1776
   52TCq2    C5  795   1.845   2.557   1.427 -0.1674  0.8515  0.8213
   52TCq2    C6  796   1.917   2.582   1.317 -0.1057  0.2130 -0.2914
   52TCq2    C7  797   2.027   2.512   1.286  0.2907  0.0772 -0.7646
   52TCq2    C8  798   1.881   2.694   1.232 -0.2722  0.1174 -0.6461
   52TCq2    O4  799   1.960   2.733   1.151 -0.6104  0.5738  0.1238
   52TCq2    C9  800   1.818   2.435   1.636 -0.7651 -0.7812 -0.8067
   52TCq2    O5  801   1.716   2.508   1.665  0.1806 -0.2884  0.3293
   52TCq2    O6  802   1.875   2.346   1.704 -0.0583 -0.4314 -0.0307
   52TCq2    H2  803   2.041   2.323   1.562  3.2568  0.9363 -0.4157
   52TCq2    H3  804   1.765   2.619   1.463 -1.9116 -2.0053  1.8944
   52TCq2    H4  805   2.087   2.531   1.198  1.3052 -2.3814 -0.6186
   53TMC2    C1  806   2.401   0.650  11.746  0.6659  0.4268 -0.1058
   53TMC2    C2  807   2.530   0.705  11.733 -0.3853  0.5249 -0.2225
   53TMC2    C3  808   2.554   0.811  11.821 -0.1575  0.3547 -0.2038
   53TMC2    C4  809   2.300   0.713  11.822  1.0271 -0.6199  0.3901
   53TMC2    C5  810   2.341   0.820  11.898  0.0996 -0.5545 -0.8298
   53TMC2    C6  811   2.466   0.869  11.904 -0.3127 -0.7484  0.7803
   53TMC2     C  812   2.362   0.550  11.652 -0.7502  0.3020 -0.6087
   53TMC2     O  813   2.432   0.532  11.553 -0.6102 -0.8947 -0.3437
   53TMC2     H  814   2.604   0.646  11.680 -0.1218  2.0380 -1.5361
   53TMC2    H1  815   2.197   0.682  11.837  0.1446  2.1973  0.1033
   53TMC2    H2  816   2.493   0.959  11.957 -2.0885 -0.1573  0.6767
   53TMC2    C7  817   2.242   0.882  11.992 -0.0747  0.7453  0.2095
   53TMC2    C8  818   2.693   0.864  11.825  0.8549  0.5077  0.5363
   53TMC2    O1  819   2.124   0.879  11.964  0.1075  0.0779 -0.3962
   53TMC2    O2  820   2.761   0.849  11.724  0.0273  0.1769  0.1541
   53TMC2    O5  821   2.741   0.852  11.950  0.3580  0.2007  0.2607
   53TMC2    H5  822   2.673   0.848  12.021 -0.6504  2.2644 -0.5868
   54MPD2     C  823   2.212   0.379  11.470  0.3532 -0.6148  0.6271
   54MPD2    C1  824   2.195   0.373  11.604  0.3285 -0.4473 -0.7691
   54MPD2    C2  825   2.109   0.283  11.670 -1.2188 -0.8565  0.1901
   54MPD2    C3  826   2.036   0.197  11.591  0.3976  0.2107 -0.2766
   54MPD2    C4  827   2.058   0.198  11.454 -0.4181 -0.5920  0.1244
   54MPD2    C5  828   2.141   0.290  11.392  0.3984  0.4513  0.1570
   54MPD2     H  829   2.116   0.281  11.778  0.7568  1.4207  0.1076
   54MPD2    H1  830   2.009   0.129  11.387 -1.3457 -0.3005  0.5015
   54MPD2    H2  831   2.274   0.453  11.420 -1.0395 -1.0765 -1.7784
   54MPD2    H3  832   2.152   0.285  11.285 -1.1190  0.7558 -0.0168
   54MPD2     N  833   1.938   0.107  11.640 -0.2820  0.2798 -0.1810
   54MPD2    H5  834   1.914   0.042  11.566 -2.8942  0.7338  0.2468
   54MPD2    N1  835   2.255   0.467  11.690  0.5194  0.0616 -0.1403
   54MPD2    H7  836   2.231   0.467  11.789  2.8158 -0.2059  0.4386
   55MPD2     C  837   3.820   2.531  17.335 -0.7799  0.2358  0.4923
   55MPD2    C1  838   3.762   2.589  17.446  0.5479  0.3657  0.9394
   55MPD2    C2  839   3.707   2.719  17.434  0.0760  0.2430 -0.0660
   55MPD2    C3  840   3.702   2.780  17.309  1.1766 -1.0035  0.6068
   55MPD2    C4  841   3.749   2.718  17.197 -0.4206 -0.0310 -0.0373
   55MPD2    C5  842   3.801   2.592  17.213  0.1865 -0.4375 -0.2167
   55MPD2     H  843   3.668   2.772  17.520  2.9821  1.1447  0.6673
   55MPD2    H1  844   3.758   2.768  17.101  1.3140  1.1740  0.7574
   55MPD2    H2  845   3.874   2.437  17.330 -0.5208  0.4215 -0.2236
   55MPD2    H3  846   3.842   2.558  17.119 -1.3750 -0.6655 -0.8183
   55MPD2     N  847   3.649   2.908  17.303  0.2921 -0.0844 -0.2961
   55MPD2    H5  848   3.610   2.944  17.389 -1.0274  0.6868 -1.2126
   55MPD2    N1  849   3.768   2.523  17.569 -0.1074  0.0079  0.0394
   55MPD2    H7  850   3.809   2.430  17.575 -2.1472 -0.8954  0.0880
   56TCq2    C1  851   3.756   2.585  17.694 -1.4611  0.2465  0.2688
   56TCq2    O2  852   3.713   2.697   0.012  0.0427  0.0714  0.1246
   56TCq2    C2  853   3.790   2.496   0.095  0.1990 -0.0687 -0.5917
   56TCq2    C3  854   3.803   2.361   0.090  0.3812  0.2845 -0.0068
   56TCq2    C4  855   3.832   2.283   0.200  0.2090 -0.5801  0.2654
   56TCq2    C5  856   3.838   2.339   0.320  0.4787  0.4236  0.1540
   56TCq2    C6  857   3.810   2.469   0.322 -0.4726 -0.5074 -0.2520
   56TCq2    C7  858   3.802   2.555   0.214  0.9552 -0.1509 -0.1680
   56TCq2    C8  859   3.832   2.526   0.461 -0.2672 -0.7334 -0.2304
   56TCq2    O4  860   3.931   2.495   0.529  0.7083  0.3665 -0.3328
   56TCq2    C9  861   3.836   2.140   0.188 -0.3316 -0.6501 -0.1898
   56TCq2    O5  862   3.863   2.075   0.292  0.2033  0.1390 -0.0577
   56TCq2    O6  863   3.772   2.088   0.095  0.7853  0.2245 -1.1054
   56TCq2    H2  864   3.774   2.310  17.708 -1.3821 -0.0391  0.7546
   56TCq2    H3  865   3.822   2.274   0.405 -0.4498  0.5788  0.0944
   56TCq2    H4  866   3.790   2.662   0.227 -2.3086 -0.6049  0.5249
   57TMC2    C1  867   2.392   4.472  13.683  0.3517 -0.2390 -0.2579
   57TMC2    C2  868   2.461   4.560  13.762 -0.1718 -0.5546  0.1737
   57TMC2    C3  869   2.589   4.531  13.796 -0.5750  0.3619  0.4961
   57TMC2    C4  870   2.435   4.340  13.662  0.0828  0.0210 -0.1001
   57TMC2    C5  871   2.563   4.311  13.705 -0.5822  0.2525 -0.3221
   57TMC2    C6  872   2.642   4.401  13.775 -0.5505 -0.0619 -0.2094
   57TMC2     C  873   2.252   4.509  13.652 -0.4229 -0.1288 -0.3527
   57TMC2     O  874   2.203   4.583  13.736  0.0722  0.2626 -0.1114
   57TMC2     H  875   2.419   4.657  13.783  1.3458  0.0828  0.3210
   57TMC2    H1  876   2.373   4.265  13.615 -0.5801 -0.4238  1.4601
   57TMC2    H2  877   2.746   4.378  13.793  0.1124  1.3687 -2.2131
   57TMC2    C7  878   2.619   4.180  13.675  0.6181 -0.4864  0.2273
   57TMC2    C8  879   2.645   4.616  13.899  0.5897  0.1100 -0.0857
   57TMC2    O1  880   2.740   4.164  13.704  0.7255 -0.0540  0.0638
   57TMC2    O2  881   2.571   4.691  13.964 -0.2671 -0.2252 -0.0109
   57TMC2    O5  882   2.765   4.557  13.948 -0.8419 -0.0628  0.5477
   57TMC2    H5  883   2.815   4.504  13.883 -0.9837  0.5888 -0.0974
   58MPD2     C  884   1.791   4.395  13.422 -0.2005 -0.0514  0.5873
   58MPD2    C1  885   1.820   4.471  13.536 -0.4231  0.5121 -0.4218
   58MPD2    C2  886   1.960   4.491  13.571 -0.6109 -0.4988  0.0944
   58MPD2    C3  887   2.064   4.442  13.495 -0.3913 -0.1935 -0.6344
   58MPD2    C4  888   2.029   4.375  13.383 -0.1262 -0.7198  0.1834
   58MPD2    C5  889   1.900   4.357  13.353  0.2076 -0.4784 -0.4291
   58MPD2     H  890   1.976   4.557  13.656  0.2941  0.4981 -0.8459
   58MPD2    H1  891   2.101   4.315  13.329  1.8451  0.8183  1.1107
   58MPD2    H2  892   1.692   4.385  13.381 -0.0863  0.3926  0.2055
   58MPD2    H3  893   1.882   4.289  13.271  0.8225 -0.5627 -0.4954
   58MPD2     N  894   2.202   4.448  13.533 -0.1766 -0.3143  0.8959
   58MPD2    H5  895   2.268   4.393  13.479 -0.5197 -2.6215  2.8406
   58MPD2    N1  896   1.713   4.516  13.624  0.0613 -0.0859 -0.3342
   58MPD2    H7  897   1.738   4.566  13.708  0.0535 -0.6334 -0.0069
   59MPD2     C  898   4.691   4.457  13.396  0.3269 -0.1138  0.2553
   59MPD2    C1  899   0.043   4.454  13.285  0.3690 -0.1268 -0.9169
   59MPD2    C2  900   0.156   4.531  13.276  0.9359 -0.3766  0.1889
   59MPD2    C3  901   0.192   4.604  13.385 -0.1287 -0.0702  0.4022
   59MPD2    C4  902   0.121   4.593  13.500 -0.2907 -0.3601  0.6456
   59MPD2    C5  903   0.004   4.523  13.507 -0.4684 -0.0102 -0.2629
   59MPD2     H  904   0.212   4.530  13.183  1.1787  4.4071  0.3246
   59MPD2    H1  905   0.142   4.649  13.591  1.7821  1.1517 -0.7716
   59MPD2    H2  906   4.597   4.404  13.406 -0.3044  0.4021 -3.0422
   59MPD2    H3  907   4.675   4.513  13.599 -1.3616 -0.7837 -0.8955
   59MPD2     N  908   0.306   4.694  13.393  0.4218 -0.2436 -0.6422
   59MPD2    H5  909   0.305   0.028  13.474  0.2059  0.1811 -0.9643
   59MPD2    N1  910   0.007   4.385  13.165  0.2380  0.0672 -0.0202
   59MPD2    H7  911   0.069   4.387  13.084  0.5736  0.6731  0.2464
   60TCq2    C1  912   4.629   4.298  13.158  0.7072  0.2485  0.0040
   60TCq2    O2  913   4.538   4.269  13.235 -0.4442 -0.0652  0.2463
   60TCq2    C2  914   4.637   4.214  13.030  0.0347 -0.1189 -0.1933
   60TCq2    C3  915   4.597   4.089  13.048 -0.3119  0.2963  0.2623
   60TCq2    C4  916   4.611   3.991  12.951  0.0988 -0.1440 -0.7611
   60TCq2    C5  917   4.678   4.028  12.831 -0.1504 -0.7063 -0.9526
   60TCq2    C6  918   0.003   4.149  12.817  0.5459 -0.8491  0.3084
   60TCq2    C7  919   4.706   4.251  12.911 -0.1050  0.3198  0.4450
   60TCq2    C8  920   0.048   4.178  12.681 -0.2170  0.5847  0.2174
   60TCq2    O4  921   0.105   4.090  12.616 -0.3619  0.2249 -0.3495
   60TCq2    C9  922   4.568   3.852  12.963 -0.5799 -0.3481 -0.1618
   60TCq2    O5  923   4.514   3.817  13.075  0.0876  0.0513 -0.2284
   60TCq2    O6  924   4.625   3.762  12.893 -0.3513  0.0125  0.2418
   60TCq2    H2  925   4.547   4.060  13.140 -0.0223  0.6714  0.5390
   60TCq2    H3  926   4.703   3.953  12.757 -1.4005 -3.2290  1.1582
   60TCq2    H4  927   0.027   4.348  12.899  1.7694 -0.8550 -1.5985
   61MPD2     C  928   4.248   0.938  14.767 -0.2708  0.2201 -0.1858
   61MPD2    C1  929   4.118   0.978  14.740  0.1739  0.3557  0.1622
   61MPD2    C2  930   4.081   0.990  14.607  0.7125 -0.3930 -0.0019
   61MPD2    C3  931   4.183   0.994  14.509 -0.1615 -0.1945 -0.3821
   61MPD2    C4  932   4.313   0.951  14.541  0.3114 -0.1522  0.4202
   61MPD2    C5  933   4.343   0.928  14.671 -0.1868 -0.8085  0.2569
   61MPD2     H  934   3.980   1.019  14.583  0.1459 -3.0826 -0.9054
   61MPD2    H1  935   4.385   0.957  14.461  1.3982 -1.0498  1.3301
   61MPD2    H2  936   4.287   0.929  14.867  1.3749  0.4197 -0.7985
   61MPD2    H3  937   4.443   0.903  14.703 -0.0090 -0.5745 -0.1128
   61MPD2     N  938   4.159   1.036  14.373 -0.0562  0.8004  0.4096
   61MPD2    H5  939   4.217   1.000  14.298 -1.1248  0.2147 -0.1380
   61MPD2    N1  940   4.022   1.016  14.834 -0.4002 -0.2550  0.3187
   61MPD2    H7  941   3.928   1.045  14.811 -0.1486 -0.6874 -1.2431
   62TCq2    C1  942   4.044   1.003  14.969  0.7395 -0.4279  0.0725
   62TCq2    O2  943   4.128   0.946  15.033  0.0254  0.0717 -0.8442
   62TCq2    C2  944   3.921   1.045  15.042 -0.3058  0.3347  0.8740
   62TCq2    C3  945   3.905   1.012  15.170 -0.4399 -0.5719 -0.3936
   62TCq2    C4  946   3.812   1.079  15.246 -0.0616  0.1854 -0.3830
   62TCq2    C5  947   3.741   1.183  15.204  0.4953 -0.4102 -0.0662
   62TCq2    C6  948   3.766   1.229  15.072  0.2859  0.2346 -0.5652
   62TCq2    C7  949   3.855   1.158  14.996  0.0965  0.0022 -0.1581
   62TCq2    C8  950   3.751   1.369  15.036  0.1782 -0.1938 -0.4601
   62TCq2    O4  951   3.835   1.410  14.959  0.1843 -0.5170 -0.4628
   62TCq2    C9  952   3.802   1.035  15.383  0.2504 -0.1341 -1.1624
   62TCq2    O5  953   3.749   1.111  15.466  0.5415 -0.0984  0.1706
   62TCq2    O6  954   3.886   0.947  15.419 -0.2584 -0.0343  0.4618
   62TCq2    H2  955   3.969   0.937  15.216  2.9280  3.7442  2.0306
   62TCq2    H3  956   3.658   1.210  15.269  0.9485 -1.1083  0.8049
   62TCq2    H4  957   3.869   1.181  14.890  2.3021  0.6584  0.2736
   63TMC2    C1  958   3.031   0.994  10.386 -0.1023  0.4308  0.8895
   63TMC2    C2  959   2.938   1.081  10.414  0.0807  0.2367  0.5611
   63TMC2    C3  960   2.978   1.211  10.415  0.0648  0.1698 -0.0148
   63TMC2    C4  961   3.160   1.028  10.352 -0.1720 -0.0771 -0.3526
   63TMC2    C5  962   3.198   1.158  10.370  0.0945  0.3968 -0.2303
   63TMC2    C6  963   3.104   1.255  10.390  0.2732  0.1418  0.1906
   63TMC2     C  964   2.975   0.859  10.361 -0.1154  0.8207 -0.3436
   63TMC2     O  965   2.855   0.839  10.380 -0.0948 -0.1113 -0.0930
   63TMC2     H  966   2.833   1.062  10.432  0.3882 -2.4505 -0.4590
   63TMC2    H1  967   3.234   0.958  10.314 -0.4499 -0.2403 -0.5903
   63TMC2    H2  968   3.128   1.361  10.395  1.6007  0.0017 -3.2583
   63TMC2    C7  969   3.337   1.195  10.348  0.0124  0.1977 -0.0790
   63TMC2    C8  970   2.880   1.314  10.460 -0.2954  0.3509  0.2697
   63TMC2    O1  971   3.362   1.284  10.271 -0.0110 -0.1318 -0.1748
   63TMC2    O2  972   2.903   1.433  10.431  0.4041  0.1290 -0.4872
   63TMC2    O5  973   2.842   1.274  10.590 -0.3315 -0.0718 -0.3459
   63TMC2    H5  974   2.884   1.191  10.620 -1.5020 -0.7196 -0.5022
   64MPD2     C  975   3.056   0.366  10.235  0.2005 -0.0150 -0.4145
   64MPD2    C1  976   3.174   0.418  10.292  0.0143  0.1678 -0.2038
   64MPD2    C2  977   3.176   0.558  10.308 -0.0720  0.8331  0.8939
   64MPD2    C3  978   3.062   0.639  10.289  0.3439  0.0901  0.3974
   64MPD2    C4  979   2.945   0.580  10.245  0.1504  0.5866 -0.3872
   64MPD2    C5  980   2.943   0.442  10.219  0.2673 -0.1116 -0.1474
   64MPD2     H  981   3.260   0.603  10.360 -0.3686  0.2913  1.8386
   64MPD2    H1  982   2.851   0.629  10.221 -0.6235  0.6515  2.6977
   64MPD2    H2  983   3.034   0.260  10.221  3.2851 -0.7149  0.0641
   64MPD2    H3  984   2.846   0.407  10.187  0.6968  1.1707 -2.9002
   64MPD2     N  985   3.075   0.767  10.332  0.0090  0.1942  0.2571
   64MPD2    H5  986   3.175   0.782  10.341  0.2021 -0.7293 -0.3660
   64MPD2    N1  987   3.277   0.340  10.332 -0.3152  0.3811  0.2372
   64MPD2    H7  988   3.261   0.240  10.332 -0.5394  0.4133 -0.3570
   65MPD2     C  989   0.178   0.497  15.796 -0.1229 -0.1988  0.6929
   65MPD2    C1  990   0.193   0.494  15.663  0.0057 -0.0151  0.0353
   65MPD2    C2  991   0.213   0.375  15.590 -0.7971 -0.0541  0.2379
   65MPD2    C3  992   0.216   0.255  15.661  0.5756 -0.2941  0.1912
   65MPD2    C4  993   0.191   0.263  15.800  0.2510  0.3411 -0.3574
   65MPD2    C5  994   0.175   0.381  15.867 -0.0771  0.2328  0.2664
   65MPD2     H  995   0.231   0.383  15.484  0.8734 -2.4295  0.3508
   65MPD2    H1  996   0.187   0.173  15.861 -0.6073  0.8537  0.3373
   65MPD2    H2  997   0.167   0.581  15.865 -1.2911  0.5872 -0.4600
   65MPD2    H3  998   0.153   0.385  15.973  0.5884 -0.3177  0.4148
   65MPD2     N  999   0.215   0.124  15.603  0.2193  0.1195 -0.1576
   65MPD2    H5 1000   0.209   0.051  15.674  0.8389  0.8311  0.6355
   65MPD2    N1 1001   0.173   0.604  15.580 -0.1443 -0.1129  0.6896
   65MPD2    H7 1002   0.183   0.588  15.481  1.9893  0.5872  0.7810
   66TCq2    C1 1003   0.148   0.734  15.614  0.0172  0.3470 -0.5361
   66TCq2    O2 1004   0.130   0.775  15.728 -0.2817  0.0430 -0.1310
   66TCq2    C2 1005   0.151   0.818  15.500  0.7557  0.8530  0.0675
   66TCq2    C3 1006   0.223   0.781  15.391  0.1966  0.1824  0.9138
   66TCq2    C4 1007   0.206   0.861  15.279  0.2954  0.3266 -0.3135
   66TCq2    C5 1008   0.106   0.950  15.269  0.1147  0.0435 -0.0587
   66TCq2    C6 1009   0.037   0.989  15.379 -0.3054 -0.0590 -0.3333
   66TCq2    C7 1010   0.067   0.929  15.500 -0.1125  0.2194 -0.1233
   66TCq2    C8 1011   4.676   1.105  15.380 -0.3842 -0.1385  0.2760
   66TCq2    O4 1012   4.696   1.185  15.287 -0.1917 -0.3627  0.0322
   66TCq2    C9 1013   0.270   0.815  15.160  0.4691 -0.4043 -0.3033
   66TCq2    O5 1014   0.208   0.832  15.051  0.1936  0.1927  0.4482
   66TCq2    O6 1015   0.349   0.717  15.177  0.0872  0.1591  0.3379
   66TCq2    H2 1016   0.299   0.703  15.387  1.1583  1.2299 -1.0186
   66TCq2    H3 1017   0.078   0.994  15.174 -2.3895  0.2722  0.7686
   66TCq2    H4 1018   0.031   0.965  15.595  0.3278 -1.0338  0.5170
   67MPD2     C 1019   0.206   0.360  14.006 -0.3649 -0.4505  0.1314
   67MPD2    C1 1020   0.117   0.328  14.106 -0.1742 -0.5761  0.0332
   67MPD2    C2 1021   4.707   0.297  14.076  0.2971  0.5039  0.0669
   67MPD2    C3 1022   4.666   0.291  13.943  0.3359 -1.2536 -0.1482
   67MPD2    C4 1023   0.032   0.332  13.847 -0.4626  0.6674  0.3410
   67MPD2    C5 1024   0.160   0.367  13.878 -0.2213 -0.1294  0.5972
   67MPD2     H 1025   4.638   0.265  14.152  1.2703  0.3625  0.8890
   67MPD2    H1 1026   0.014   0.334  13.740  2.1555 -1.4246 -0.1416
   67MPD2    H2 1027   0.307   0.392  14.031  0.3452 -1.4846 -1.4313
   67MPD2    H3 1028   0.240   0.381  13.807 -0.2891  1.2510  0.8100
   67MPD2     N 1029   4.532   0.274  13.901 -0.3037  0.0489  0.4871
   67MPD2    H5 1030   4.519   0.278  13.801 -0.4270  3.0481  0.6405
   67MPD2    N1 1031   0.152   0.321  14.245 -0.5400  0.8172  0.4051
   67MPD2    H7 1032   0.083   0.322  14.320 -1.3555  0.5923 -0.3448
   68TCq2    C1 1033   0.280   0.332  14.292 -0.7491 -0.5370 -0.4388
   68TCq2    O2 1034   0.386   0.301  14.233  0.6785  0.3610  0.8017
   68TCq2    C2 1035   0.286   0.365  14.434 -0.1514 -0.7357 -0.9345
   68TCq2    C3 1036   0.239   0.492  14.467  0.0326 -0.1741 -1.0139
   68TCq2    C4 1037   0.279   0.550  14.584  0.0401  0.6985 -0.2810
   68TCq2    C5 1038   0.378   0.495  14.663  0.1761  0.6227 -0.2503
   68TCq2    C6 1039   0.430   0.375  14.616 -0.1747  0.5524  0.1739
   68TCq2    C7 1040   0.390   0.313  14.501 -1.0895  0.4799  1.1406
   68TCq2    C8 1041   0.548   0.320  14.685 -0.3523  0.0359  0.5329
   68TCq2    O4 1042   0.622   0.236  14.631  0.4436  0.1099 -0.1329
   68TCq2    C9 1043   0.206   0.672  14.627 -0.2408  0.3123 -0.0084
   68TCq2    O5 1044   0.109   0.713  14.550 -0.4654 -0.1712 -0.9163
   68TCq2    O6 1045   0.223   0.710  14.745  0.3695 -0.7829 -0.0787
   68TCq2    H2 1046   0.169   0.543  14.402 -2.1052  0.2642  1.6540
   68TCq2    H3 1047   0.416   0.563  14.739  2.3904  0.2030 -0.9938
   68TCq2    H4 1048   0.437   0.218  14.477 -0.8708  0.7200  0.6263
   69TMC2    C1 1049   2.149   1.338  12.388 -0.6601 -0.0704 -0.3765
   69TMC2    C2 1050   2.032   1.302  12.329  0.6597 -0.1716 -0.3038
   69TMC2    C3 1051   2.029   1.256  12.201  0.1437 -0.5920 -0.3871
   69TMC2    C4 1052   2.264   1.341  12.315 -0.0400 -0.1020  0.1602
   69TMC2    C5 1053   2.257   1.286  12.189 -0.3062 -0.9605  0.1364
   69TMC2    C6 1054   2.142   1.249  12.127 -0.3177  0.0620  0.1954
   69TMC2     C 1055   2.163   1.335  12.529 -0.2718 -0.5499 -0.3032
   69TMC2     O 1056   2.071   1.295  12.598  0.0447  0.1968  0.1284
   69TMC2     H 1057   1.942   1.304  12.390  0.1323 -0.4028 -1.0694
   69TMC2    H1 1058   2.362   1.360  12.357  0.1072  0.4798 -0.4486
   69TMC2    H2 1059   2.133   1.195  12.033  0.0785 -0.2338  0.3262
   69TMC2    C7 1060   2.384   1.274  12.131  0.0850  0.1177 -0.0577
   69TMC2    C8 1061   1.897   1.229  12.135  0.0761 -0.1287  0.3385
   69TMC2    O1 1062   2.480   1.238  12.201 -0.7423 -0.0476  0.0058
   69TMC2    O2 1063   1.793   1.224  12.196 -0.0494 -0.1542 -0.1778
   69TMC2    O5 1064   1.916   1.302  12.019  0.4893 -0.1035 -0.5336
   69TMC2    H5 1065   1.994   1.356  11.993 -0.4800  0.8633 -1.4033
   70MPD2     C 1066   2.460   1.402  12.741 -0.4737 -0.2291 -0.7166
   70MPD2    C1 1067   2.345   1.336  12.699  1.1661  0.7502  0.4118
   70MPD2    C2 1068   2.312   1.221  12.769  0.2984  0.6964  0.2126
   70MPD2    C3 1069   2.383   1.183  12.884  0.4964 -0.0599  0.5801
   70MPD2    C4 1070   2.477   1.274  12.932 -0.1202 -0.6369  0.5454
   70MPD2    C5 1071   2.514   1.387  12.865  0.0167  0.2735 -0.4973
   70MPD2     H 1072   2.237   1.156  12.726  0.5266 -0.6884  1.9112
   70MPD2    H1 1073   2.525   1.255  13.028  0.7712  1.4215  0.5069
   70MPD2    H2 1074   2.499   1.474  12.670 -1.4092  1.4516  0.4670
   70MPD2    H3 1075   2.595   1.453  12.891  1.4254 -1.5762 -0.2185
   70MPD2     N 1076   2.369   1.053  12.947 -0.0551 -0.3555 -0.0093
   70MPD2    H5 1077   2.443   1.037  13.014 -0.3270 -2.6739 -0.2830
   70MPD2    N1 1078   2.288   1.375  12.581 -0.2018 -0.1739  0.5196
   70MPD2    H7 1079   2.339   1.437  12.519 -1.1461 -0.5569 -0.6387
   71TMC2    C1 1080   4.140   1.351   1.627 -0.2810  0.3096  0.4474
   71TMC2    C2 1081   4.269   1.369   1.648  0.5767 -0.3987  0.4123
   71TMC2    C3 1082   4.308   1.406   1.776 -0.3091 -0.3699  0.4222
   71TMC2    C4 1083   4.039   1.363   1.722 -0.3894  0.0038  0.1347
   71TMC2    C5 1084   4.081   1.398   1.846 -0.3681 -0.1525 -0.2404
   71TMC2    C6 1085   4.211   1.420   1.877  0.7734 -0.4438  0.3753
   71TMC2     C 1086   4.096   1.322   1.496  0.7319 -1.6988  0.0338
   71TMC2     O 1087   4.182   1.331   1.404  0.3925  0.5559 -0.2306
   71TMC2     H 1088   4.340   1.378   1.567  0.4928  0.4507  0.4364
   71TMC2    H1 1089   3.940   1.389   1.684 -0.0626  2.3075  0.8359
   71TMC2    H2 1090   4.236   1.450   1.978 -2.7533  1.9794  0.5046
   71TMC2    C7 1091   3.978   1.424   1.941  0.1785  0.2525 -0.0944
   71TMC2    C8 1092   4.449   1.441   1.791 -0.4339 -0.3116 -0.2215
   71TMC2    O1 1093   4.011   1.466   2.049 -0.1795 -0.5106  0.1638
   71TMC2    O2 1094   4.535   1.408   1.713  0.1624 -0.0055  0.6702
   71TMC2    O5 1095   4.456   1.543   1.883  0.2785 -0.1284 -0.0180
   71TMC2    H5 1096   4.375   1.561   1.935  0.4642  1.5698 -0.3098
   72MPD2     C 1097   3.781   1.199   1.112 -0.9363 -0.5617 -0.3564
   72MPD2    C1 1098   3.880   1.293   1.127 -0.7232 -0.3162  0.1592
   72MPD2    C2 1099   3.939   1.306   1.249 -0.0264  0.5032 -0.1482
   72MPD2    C3 1100   3.912   1.234   1.362  0.2362  0.1427 -0.3055
   72MPD2    C4 1101   3.806   1.148   1.353 -0.5757 -0.1454 -0.0172
   72MPD2    C5 1102   3.742   1.133   1.232  0.4255 -0.3691  0.5621
   72MPD2     H 1103   4.014   1.384   1.258 -0.5982  0.9995  0.3206
   72MPD2    H1 1104   3.774   1.081   1.431 -1.5222 -0.0544 -0.3292
   72MPD2    H2 1105   3.725   1.194   1.019 -0.3728  1.7335 -0.8054
   72MPD2    H3 1106   3.655   1.068   1.227 -0.2586  0.5811  0.1388
   72MPD2     N 1107   3.981   1.248   1.487  0.5753  0.0411 -0.2168
   72MPD2    H5 1108   3.927   1.221   1.569  0.2713  0.3987 -0.3024
   72MPD2    N1 1109   3.929   1.378   1.025  0.3869 -0.5914 -0.1055
   72MPD2    H7 1110   4.003   1.441   1.052 -0.3575 -0.1223  0.8396
   73TMC2    C1 1111   4.313   3.298  14.122 -0.8020  0.2883  0.3080
   73TMC2    C2 1112   4.188   3.348  14.145 -0.6158 -0.0227  0.6346
   73TMC2    C3 1113   4.181   3.482  14.183  0.1790 -0.0342  0.5165
   73TMC2    C4 1114   4.424   3.383  14.118  0.2414 -0.3151  0.4438
   73TMC2    C5 1115   4.407   3.513  14.137  0.4101 -0.1551  0.3933
   73TMC2    C6 1116   4.290   3.566  14.180  0.3369 -0.4642 -0.0869
   73TMC2     C 1117   4.315   3.218  13.998 -0.4007 -0.3923  0.0610
   73TMC2     O 1118   4.421   3.227  13.936  0.1603 -0.1576  0.2158
   73TMC2     H 1119   4.094   3.297  14.130 -1.4968  1.0938  2.3362
   73TMC2    H1 1120   4.521   3.340  14.099 -0.1231 -0.4718 -1.0615
   73TMC2    H2 1121   4.286   3.674  14.195  0.1185 -0.7428  1.7511
   73TMC2    C7 1122   4.495   3.595  14.054 -0.3950 -0.6275  0.1265
   73TMC2    C8 1123   4.067   3.520  14.265  0.4975 -0.2736  0.6887
   73TMC2    O1 1124   4.491   3.716  14.070  0.3208  0.5584 -0.3175
   73TMC2    O2 1125   3.991   3.439  14.314  0.2138  0.5461 -0.3851
   73TMC2    O5 1126   4.023   3.633  14.214 -0.4430  0.2318  0.3865
   73TMC2    H5 1127   4.089   3.687  14.165  0.9956 -0.5237  1.4889
   74MPD2     C 1128   4.110   2.941  13.621  0.3293 -1.8549 -0.3304
   74MPD2    C1 1129   4.210   3.034  13.619 -0.2463 -0.4355 -1.6161
   74MPD2    C2 1130   4.247   3.092  13.739 -0.7407  0.5986  0.5594
   74MPD2    C3 1131   4.179   3.064  13.857  0.4808  0.4268  0.1495
   74MPD2    C4 1132   4.064   2.985  13.846 -0.3638  1.1233 -0.4556
   74MPD2    C5 1133   4.033   2.922  13.729  0.5347 -0.3980  0.0188
   74MPD2     H 1134   4.323   3.169  13.735 -1.1684  0.9226 -1.3730
   74MPD2    H1 1135   4.001   2.975  13.934 -0.2414  0.3260 -0.4611
   74MPD2    H2 1136   4.083   2.889  13.530 -1.1011 -1.4386 -0.1443
   74MPD2    H3 1137   3.950   2.852  13.725 -0.5410  0.9835 -2.1320
   74MPD2     N 1138   4.205   3.136  13.973  0.4834  0.3763  0.5148
   74MPD2    H5 1139   4.133   3.120  14.043 -1.7825 -0.4421 -1.9662
   74MPD2    N1 1140   4.265   3.080  13.494 -0.0728 -0.9355 -0.1871
   74MPD2    H7 1141   4.220   3.047  13.410 -2.8545 -2.3578  1.8599
   75TCq2    C1 1142   4.418   0.234  13.973  0.0847  0.4826 -0.5081
   75TCq2    O2 1143   4.409   0.197  14.091  0.1361  0.4317 -0.0502
   75TCq2    C2 1144   4.299   0.221  13.895 -0.9738  0.0092  0.1588
   75TCq2    C3 1145   4.224   0.108  13.915  0.7496 -0.3402  0.1523
   75TCq2    C4 1146   4.117   0.087  13.831 -0.1423 -0.2966 -0.1242
   75TCq2    C5 1147   4.076   0.179  13.739  0.3383 -0.2799  0.0651
   75TCq2    C6 1148   4.158   0.285  13.715 -0.1841  0.2195  0.5019
   75TCq2    C7 1149   4.271   0.307  13.793  0.6382 -0.3637  0.4012
   75TCq2    C8 1150   4.134   0.373  13.603  0.4991  0.3393 -0.0526
   75TCq2    O4 1151   4.190   0.483  13.609 -0.2994  0.4619  0.3997
   75TCq2    C9 1152   4.051   4.687  13.839 -0.2509 -0.0933 -0.3588
   75TCq2    O5 1153   4.109   4.594  13.907  0.2368 -0.1271 -0.4734
   75TCq2    O6 1154   3.959   4.652  13.766 -0.5035 -0.3035  0.8533
   75TCq2    H2 1155   4.252   0.038  13.992  1.1210  1.5511  1.7424
   75TCq2    H3 1156   3.987   0.162  13.679  1.8846 -2.6567 -1.5262
   75TCq2    H4 1157   4.335   0.391  13.769 -1.1043  1.0832  0.8408
   76MPD2     C 1158   3.499   0.968  12.387  0.3853  0.1599  0.0729
   76MPD2    C1 1159   3.458   0.871  12.297  0.1160  0.1260  0.4242
   76MPD2    C2 1160   3.504   0.741  12.309 -0.4485  0.4444 -0.5790
   76MPD2    C3 1161   3.591   0.711  12.407  0.1840  0.2206 -0.4247
   76MPD2    C4 1162   3.635   0.806  12.498  0.5105  0.4230 -0.3167
   76MPD2    C5 1163   3.586   0.934  12.484  0.4332  0.8829  0.5537
   76MPD2     H 1164   3.466   0.663  12.243 -0.5989  0.3649 -0.3989
   76MPD2    H1 1165   3.694   0.781  12.586 -0.8027 -1.4114  0.0503
   76MPD2    H2 1166   3.460   1.069  12.391  1.4284  0.5872 -0.4544
   76MPD2    H3 1167   3.627   1.015  12.544  0.5966  0.1968  1.3697
   76MPD2     N 1168   3.633   0.579  12.440  0.2097  0.2363  0.5826
   76MPD2    H5 1169   3.696   0.579  12.519  1.1412  1.2747 -0.1681
   76MPD2    N1 1170   3.380   0.902  12.178  0.5857 -0.4651 -0.1577
   76MPD2    H7 1171   3.356   0.827  12.114 -0.0777 -0.9830  0.7018
   77TCq2    C1 1172   3.606   0.459  12.374  0.5171  0.2834 -0.4638
   77TCq2    O2 1173   3.537   0.447  12.274  0.0392  1.1164 -0.2294
   77TCq2    C2 1174   3.688   0.344  12.422 -0.0272  0.2036 -0.1893
   77TCq2    C3 1175   3.715   0.250  12.325  0.4169  0.2132 -0.2358
   77TCq2    C4 1176   3.822   0.171  12.324 -0.2646  0.5993 -0.5398
   77TCq2    C5 1177   3.904   0.178  12.427  0.3963 -0.3000  0.4200
   77TCq2    C6 1178   3.875   0.267  12.532 -0.1997 -0.1381 -0.1010
   77TCq2    C7 1179   3.771   0.357  12.533  0.2577 -0.9673  0.7084
   77TCq2    C8 1180   3.964   0.257  12.643 -0.0536  0.0249 -0.0533
   77TCq2    O4 1181   3.994   0.139  12.667 -0.0408 -0.2195  0.2355
   77TCq2    C9 1182   3.857   0.100  12.208 -0.1855 -1.0722  0.4531
   77TCq2    O5 1183   3.784   0.092  12.108  0.0019 -0.1139  0.2117
   77TCq2    O6 1184   3.962   0.033  12.224  0.3513 -0.1236 -0.1204
   77TCq2    H2 1185   3.654   0.244  12.236 -0.2665 -3.1107  0.4418
   77TCq2    H3 1186   3.996   0.121  12.429  1.0134  0.6860 -0.7339
   77TCq2    H4 1187   3.756   0.433  12.610  2.9367 -0.1984  0.4936
   78MPD1     C 1188   4.253   0.957   1.584  0.2861 -0.2771 -0.3256
   78MPD1    C1 1189   4.170   0.993   1.687 -0.1846  0.5899  0.2437
   78MPD1    C2 1190   4.234   1.032   1.806  0.3363 -0.5210 -0.5513
   78MPD1    C3 1191   4.372   1.024   1.836 -0.1364 -0.4807  0.3376
   78MPD1    C4 1192   4.448   0.980   1.726  0.6436  0.0658 -0.2929
   78MPD1    C5 1193   4.387   0.948   1.608  0.8014  0.0457  0.5350
   78MPD1     H 1194   4.166   1.075   1.879 -1.1628 -0.1720 -2.1663
   78MPD1    H1 1195   4.556   0.980   1.729  0.6346  0.5325  0.1547
   78MPD1    H2 1196   4.221   0.928   1.485  0.2097 -1.5976  0.0769
   78MPD1    H3 1197   4.451   0.913   1.528 -1.1639 -0.6607 -0.7422
   78MPD1     N 1198   4.432   1.080   1.953 -0.9171  0.0306  0.0142
   78MPD1    H5 1199   4.532   1.088   1.944 -1.2290  1.0439 -2.6836
   78MPD1    N1 1200   4.029   1.019   1.682 -0.1767  0.1107  0.0933
   78MPD1    H6 1201   3.985   0.988   1.769  1.1921  0.7983  1.0288
   78MPD1    H7 1202   3.986   0.966   1.606  1.0913 -0.6572 -0.1107
   79TCq2    C1 1203   4.361   1.100   2.067  0.1926  0.2285 -0.5366
   79TCq2    O2 1204   4.243   1.077   2.095 -0.1513  0.2988 -0.1822
   79TCq2    C2 1205   4.420   1.205   2.153  0.5461  0.1268 -0.3210
   79TCq2    C3 1206   4.333   1.272   2.232  0.4747  0.2616  0.5523
   79TCq2    C4 1207   4.366   1.388   2.290  0.1060 -0.5894  0.2320
   79TCq2    C5 1208   4.478   1.456   2.254  0.0520  0.4153 -0.0314
   79TCq2    C6 1209   4.557   1.395   2.153  0.8100  0.0123 -0.3686
   79TCq2    C7 1210   4.535   1.273   2.110 -0.2683  0.9278  0.8094
   79TCq2    C8 1211   4.671   1.472   2.101  0.2382  0.3265  0.4024
   79TCq2    O4 1212   0.021   1.408   2.031  0.3648 -0.0411  0.6805
   79TCq2    C9 1213   4.283   1.434   2.399  0.0403 -0.1190 -0.1852
   79TCq2    O5 1214   4.175   1.365   2.421  0.0982  0.0193 -0.3807
   79TCq2    O6 1215   4.324   1.535   2.463  0.0820  0.5357 -0.1801
   79TCq2    H2 1216   4.245   1.217   2.263  1.1785  0.1282  2.3172
   79TCq2    H3 1217   4.505   1.544   2.312 -3.1260  0.0987  1.9312
   79TCq2    H4 1218   4.611   1.233   2.043 -0.3016 -1.2045  2.0358
   80MPD2     C 1219   2.334   0.598  12.419  0.5254 -0.1130  0.5178
   80MPD2    C1 1220   2.238   0.519  12.359  1.6187 -0.5549 -0.1371
   80MPD2    C2 1221   2.111   0.513  12.399 -0.3528  0.5741  0.2112
   80MPD2    C3 1222   2.076   0.583  12.516 -0.0595 -0.6849  0.6371
   80MPD2    C4 1223   2.169   0.656  12.581  0.1842  0.8317 -0.7477
   80MPD2    C5 1224   2.300   0.662  12.535  0.5025  0.1617  0.7139
   80MPD2     H 1225   2.042   0.451  12.342  0.1317 -0.2670  0.5431
   80MPD2    H1 1226   2.144   0.693  12.679  0.1359 -0.2221 -0.3664
   80MPD2    H2 1227   2.437   0.600  12.387 -0.2274 -2.2055 -2.0653
   80MPD2    H3 1228   2.367   0.726  12.591  0.8111  0.6867 -0.2534
   80MPD2     N 1229   1.943   0.590  12.572  0.3655  0.3073 -0.3255
   80MPD2    H5 1230   1.937   0.618  12.670  0.5060 -1.8774  0.3056
   80MPD2    N1 1231   2.274   0.437  12.250  0.3720 -0.6689  0.9609
   80MPD2    H7 1232   2.207   0.367  12.221 -0.3918 -0.3568  1.9594
   81TCq2    C1 1233   2.378   0.467  12.161  0.0096  0.1736 -0.1901
   81TCq2    O2 1234   2.466   0.557  12.168 -0.3156 -0.4922 -0.0573
   81TCq2    C2 1235   2.396   0.362  12.061 -0.1576  1.0394  0.4163
   81TCq2    C3 1236   2.499   0.394  11.976 -0.3189 -0.2750  0.7144
   81TCq2    C4 1237   2.556   0.290  11.905  0.7929  0.4608  0.0294
   81TCq2    C5 1238   2.484   0.171  11.900  0.0850  0.0243  0.6182
   81TCq2    C6 1239   2.368   0.154  11.976  0.3773  0.1302  0.4654
   81TCq2    C7 1240   2.335   0.245  12.071 -0.2213 -0.2496  0.8056
   81TCq2    C8 1241   2.282   0.043  11.938  0.3578 -0.2237  0.0598
   81TCq2    O4 1242   2.293   4.725  11.822  0.1329 -0.4951  0.1031
   81TCq2    C9 1243   2.664   0.315  11.820 -0.1108 -0.7169  0.9449
   81TCq2    O5 1244   2.712   0.225  11.748 -0.0840 -0.0938  0.3054
   81TCq2    O6 1245   2.732   0.422  11.846 -0.0964  0.1423  0.5273
   81TCq2    H2 1246   2.551   0.489  11.971  1.7531 -1.4790 -0.8122
   81TCq2    H3 1247   2.513   0.091  11.833  1.6517  0.6603  0.5257
   81TCq2    H4 1248   2.248   0.249  12.136 -0.0982 -1.0330  1.0162
   82MPD2     C 1249   0.787   4.713  11.179  0.4249 -0.3915  0.1707
   82MPD2    C1 1250   0.697   4.603  11.175  0.0790 -0.0526  0.6062
   82MPD2    C2 1251   0.735   4.487  11.231  0.5879 -0.6450 -0.4290
   82MPD2    C3 1252   0.855   4.474  11.295  0.4070  0.4628  0.4461
   82MPD2    C4 1253   0.952   4.574  11.283 -0.8073 -0.0489 -0.5075
   82MPD2    C5 1254   0.922   4.700  11.231 -0.1585  0.4510  0.1099
   82MPD2     H 1255   0.673   4.400  11.212  0.2181 -0.7703  1.3252
   82MPD2    H1 1256   1.047   4.552  11.331 -1.3929  0.7631  1.0140
   82MPD2    H2 1257   0.768   0.085  11.140  0.6375 -0.4045  0.0331
   82MPD2    H3 1258   0.996   0.052  11.236  1.6484 -1.3135  1.3199
   82MPD2     N 1259   0.898   4.353  11.348 -0.6847  0.0796 -0.0046
   82MPD2    H5 1260   0.999   4.352  11.361 -0.6866  4.2010  0.2884
   82MPD2    N1 1261   0.573   4.614  11.108  0.3298 -0.8694  0.3581
   82MPD2    H7 1262   0.561   4.699  11.054 -1.1314 -0.9351  0.5650
   83TCq2    C1 1263   0.812   4.243  11.373 -0.0946 -0.0874 -0.3676
   83TCq2    O2 1264   0.692   4.242  11.386  0.4948  0.9175  0.6330
   83TCq2    C2 1265   0.871   4.114  11.403 -0.6021 -0.4312 -0.6690
   83TCq2    C3 1266   1.001   4.075  11.372  0.2424 -0.4208 -0.2517
   83TCq2    C4 1267   1.028   3.946  11.363  0.1671  1.1714 -0.6306
   83TCq2    C5 1268   0.929   3.853  11.390  0.4183 -0.1697  0.2451
   83TCq2    C6 1269   0.802   3.891  11.422  0.7823 -0.1211  0.1102
   83TCq2    C7 1270   0.769   4.020  11.427  0.2570  0.1235 -0.2369
   83TCq2    C8 1271   0.693   3.790  11.438 -0.2168 -0.4261 -0.2582
   83TCq2    O4 1272   0.574   3.829  11.445 -0.5043  0.2203  0.3345
   83TCq2    C9 1273   1.162   3.902  11.325 -0.2571  0.2341 -0.6493
   83TCq2    O5 1274   1.182   3.776  11.348 -0.1445 -0.4174  0.2889
   83TCq2    O6 1275   1.251   3.989  11.317 -0.0511 -0.3392  0.3240
   83TCq2    H2 1276   1.077   4.147  11.345 -0.7845  0.6992 -0.1893
   83TCq2    H3 1277   0.955   3.747  11.392 -2.2235 -0.8505 -1.1088
   83TCq2    H4 1278   0.664   4.032  11.449  0.4375  0.3751  0.4925
   84TCq2    C1 1279   1.822   2.776  11.074  0.1287 -0.0330 -0.5173
   84TCq2    O2 1280   1.845   2.745  10.954  0.8024 -0.7167  0.3491
   84TCq2    C2 1281   1.898   2.884  11.125  0.4241 -0.7474 -0.7622
   84TCq2    C3 1282   2.023   2.906  11.077  0.7586 -0.3137 -0.1537
   84TCq2    C4 1283   2.089   3.023  11.111  0.1978  0.3787  0.7548
   84TCq2    C5 1284   2.040   3.096  11.212  0.2969 -0.3291  0.5526
   84TCq2    C6 1285   1.927   3.060  11.273  0.2192  0.3079 -0.1296
   84TCq2    C7 1286   1.839   2.959  11.221  0.2859 -0.4932  0.1384
   84TCq2    C8 1287   1.878   3.149  11.377 -0.8113 -0.1925  0.2795
   84TCq2    O4 1288   1.920   3.265  11.369 -0.4464 -0.2889  0.4349
   84TCq2    C9 1289   2.216   3.056  11.059  0.0243  0.0134  0.5313
   84TCq2    O5 1290   2.278   3.140  11.126 -0.2839  0.1575 -0.8791
   84TCq2    O6 1291   2.251   3.004  10.952 -0.3793  0.3605 -0.0034
   84TCq2    H2 1292   2.052   2.844  10.993 -0.3611 -1.7688  0.5315
   84TCq2    H3 1293   2.080   3.196  11.229  0.3061  0.0818 -1.9567
   84TCq2    H4 1294   1.735   2.951  11.249  0.2653  1.6794  0.6251
   85MPD2     C 1295   1.898   1.568  16.439  0.1896 -0.1505 -0.0340
   85MPD2    C1 1296   1.913   1.536  16.304  0.7358  0.4603 -0.1657
   85MPD2    C2 1297   2.008   1.595  16.223  0.0456  0.0694 -0.5836
   85MPD2    C3 1298   2.088   1.694  16.281  1.0524  0.3345  0.8875
   85MPD2    C4 1299   2.074   1.727  16.412 -0.7375  0.1468  0.2168
   85MPD2    C5 1300   1.993   1.650  16.488  1.0979  0.0172  0.1650
   85MPD2     H 1301   2.006   1.566  16.118 -0.8824 -0.2195 -0.4886
   85MPD2    H1 1302   2.133   1.797  16.470 -2.3054  1.1780  0.5775
   85MPD2    H2 1303   1.832   1.529  16.515  1.5430  0.6895  1.5768
   85MPD2    H3 1304   1.993   1.656  16.596  0.2182 -1.2251  0.2286
   85MPD2     N 1305   2.162   1.776  16.195 -0.7752 -0.3941  0.2347
   85MPD2    H5 1306   2.171   1.747  16.098  0.8849  2.2865 -0.4032
   85MPD2    N1 1307   1.841   1.430  16.243 -0.1498 -0.0796  0.0675
   85MPD2    H7 1308   1.883   1.387  16.161 -0.0180  1.5289 -0.6954
   86TCq2    C1 1309   2.243   1.882  16.230 -0.6147  0.7815  0.2978
   86TCq2    O2 1310   2.289   1.914  16.335  0.2348  0.0267 -0.2562
   86TCq2    C2 1311   2.292   1.952  16.109 -0.6117 -0.2575  1.2513
   86TCq2    C3 1312   2.206   1.989  16.011  0.5737  0.0595  0.6755
   86TCq2    C4 1313   2.268   2.056  15.908 -1.3107  0.8671  0.2427
   86TCq2    C5 1314   2.403   2.066  15.894  0.5922 -0.2788  0.4354
   86TCq2    C6 1315   2.478   2.007  15.987  0.1888 -0.1081  0.0020
   86TCq2    C7 1316   2.426   1.956  16.097 -0.0735 -0.5025 -0.6054
   86TCq2    C8 1317   2.613   1.959  15.952 -0.6363 -0.0235 -0.0322
   86TCq2    O4 1318   2.676   1.894  16.034  0.3434  0.3555 -0.2755
   86TCq2    C9 1319   2.189   2.130  15.817 -0.6960 -0.5406 -0.2127
   86TCq2    O5 1320   2.246   2.214  15.748 -0.4241 -0.1006  0.3596
   86TCq2    O6 1321   2.065   2.120  15.832  0.0308  0.0465 -0.4040
   86TCq2    H2 1322   2.099   1.982  16.022  0.5319 -0.0419  0.2174
   86TCq2    H3 1323   2.450   2.119  15.811 -1.8161  0.2920 -0.5648
   86TCq2    H4 1324   2.484   1.910  16.176 -2.5092  0.5390  1.7720
   87MPD2     C 1325   3.902   0.625   1.726 -1.2739 -1.2985 -0.2710
   87MPD2    C1 1326   4.019   0.637   1.647  0.7356  0.3811 -0.0151
   87MPD2    C2 1327   4.002   0.697   1.519  0.3544 -0.2371 -0.7701
   87MPD2    C3 1328   3.880   0.746   1.473  0.4684 -0.3641 -1.0554
   87MPD2    C4 1329   3.761   0.716   1.542 -0.0341 -0.1472  0.4753
   87MPD2    C5 1330   3.780   0.657   1.665  0.6828  0.5372 -0.1551
   87MPD2     H 1331   4.087   0.731   1.460 -1.1763  1.8575 -1.7936
   87MPD2    H1 1332   3.662   0.745   1.508 -0.2147 -1.4603 -0.1547
   87MPD2    H2 1333   3.899   0.590   1.829 -0.2979 -0.5986  0.0018
   87MPD2    H3 1334   3.694   0.639   1.729  0.0469  0.6286 -0.9809
   87MPD2     N 1335   3.869   0.797   1.339 -0.1772  0.3447 -0.3314
   87MPD2    H5 1336   3.771   0.784   1.313  0.0544  1.3873 -1.6545
   87MPD2    N1 1337   4.154   0.608   1.685  0.1446  0.1113  0.8664
   87MPD2    H7 1338   4.228   0.621   1.616  1.1735  0.1536  1.9856
   88TCq2    C1 1339   4.202   0.585   1.810 -0.1637  0.2847  0.3117
   88TCq2    O2 1340   4.145   0.605   1.916  0.0060 -0.1494  0.0708
   88TCq2    C2 1341   4.340   0.554   1.803  0.1341  0.5477  0.7830
   88TCq2    C3 1342   4.411   0.636   1.889  0.3924 -0.6917  0.7644
   88TCq2    C4 1343   4.540   0.669   1.854  0.0442 -0.5022  0.2528
   88TCq2    C5 1344   4.596   0.626   1.735  0.3916  0.1557  0.7216
   88TCq2    C6 1345   4.511   0.568   1.642 -0.1969  0.6528 -0.1852
   88TCq2    C7 1346   4.388   0.525   1.680 -0.6168  0.7204  0.0824
   88TCq2    C8 1347   4.555   0.532   1.505  0.7329 -0.7921 -0.0670
   88TCq2    O4 1348   4.474   0.484   1.426  0.2825 -0.1902 -1.0793
   88TCq2    C9 1349   4.629   0.740   1.945  0.7214 -0.3125 -0.4537
   88TCq2    O5 1350   4.600   0.749   2.066 -0.2703 -0.0986  0.1519
   88TCq2    O6 1351   4.724   0.799   1.889 -0.2080 -0.1081  0.1631
   88TCq2    H2 1352   4.373   0.665   1.986 -1.7251 -0.6334 -0.0792
   88TCq2    H3 1353   4.693   0.663   1.703 -0.6742  2.0479 -0.3475
   88TCq2    H4 1354   4.336   0.463   1.607 -0.4638  1.0364 -0.2938
   89MPD2     C 1355   0.160   2.587   1.957 -0.0839  0.1080 -0.0957
   89MPD2    C1 1356   0.129   2.707   1.893 -0.0969  0.7594 -0.4475
   89MPD2    C2 1357   0.231   2.779   1.828  0.2615  0.4707 -0.7742
   89MPD2    C3 1358   0.361   2.728   1.823  0.7283  1.1724  0.4355
   89MPD2    C4 1359   0.389   2.611   1.884 -0.2315 -0.2271 -0.5365
   89MPD2    C5 1360   0.287   2.538   1.945 -0.0883  0.4858  0.4369
   89MPD2     H 1361   0.205   2.873   1.781  0.2413  0.2152 -1.2743
   89MPD2    H1 1362   0.489   2.569   1.890  0.3523  0.9632 -1.9105
   89MPD2    H2 1363   0.090   2.522   2.008 -1.0878  1.0550 -0.2604
   89MPD2    H3 1364   0.319   2.448   1.996  0.7821 -0.5444 -1.9236
   89MPD2     N 1365   0.471   2.798   1.766  0.3329  0.1955 -0.3455
   89MPD2    H5 1366   0.453   2.888   1.724 -1.1117  0.6499  1.2550
   89MPD2    N1 1367   4.726   2.776   1.905 -0.1956  0.4423  0.2100
   89MPD2    H7 1368   4.709   2.866   1.860 -1.2617  0.0380 -0.2008
   90TCq2    C1 1369   0.604   2.757   1.753 -0.3409 -0.4750 -0.3175
   90TCq2    O2 1370   0.660   2.658   1.788  0.3677  0.0170  0.1224
   90TCq2    C2 1371   0.691   2.856   1.683 -0.1741  0.0092 -0.3260
   90TCq2    C3 1372   0.825   2.850   1.711 -0.2555 -0.5844  0.5215
   90TCq2    C4 1373   0.907   2.949   1.659  0.3063  0.2123  0.3672
   90TCq2    C5 1374   0.854   3.061   1.601  0.2044 -0.8751  0.2525
   90TCq2    C6 1375   0.722   3.062   1.572 -0.8007  0.0869 -0.4103
   90TCq2    C7 1376   0.637   2.962   1.623  0.3467 -0.1817  0.4337
   90TCq2    C8 1377   0.671   3.155   1.477 -0.4611  0.0443 -0.1891
   90TCq2    O4 1378   0.548   3.155   1.456 -0.0159 -0.2124  0.3633
   90TCq2    C9 1379   1.052   2.946   1.682  0.1293 -0.9834 -0.3580
   90TCq2    O5 1380   1.114   3.051   1.663 -0.5036  0.9557 -0.5839
   90TCq2    O6 1381   1.080   2.863   1.771  0.4793  1.1013 -0.3097
   90TCq2    H2 1382   0.863   2.763   1.762 -1.6090 -1.8908 -0.6923
   90TCq2    H3 1383   0.924   3.138   1.571 -0.0125 -0.3190  1.1699
   90TCq2    H4 1384   0.541   2.942   1.578  0.0992  1.3399  0.2954
   91TMC2    C1 1385   2.263   2.686  16.506 -0.3658  0.0049 -0.3085
   91TMC2    C2 1386   2.317   2.712  16.632 -0.0275 -0.4329  0.4156
   91TMC2    C3 1387   2.240   2.776  16.723 -0.4579  0.2932  0.0592
   91TMC2    C4 1388   2.128   2.699  16.487  0.1040 -0.0193  0.1124
   91TMC2    C5 1389   2.053   2.757  16.588 -0.1409  0.0466 -0.8531
   91TMC2    C6 1390   2.109   2.795  16.705  0.2914 -0.1232  0.3076
   91TMC2     C 1391   2.338   2.634  16.398 -0.6296  0.2185  0.2408
   91TMC2     O 1392   2.276   2.552  16.330  0.7019  0.6194  0.3387
   91TMC2     H 1393   2.410   2.663  16.659  1.4407  2.2671  0.2430
   91TMC2    H1 1394   2.097   2.692  16.383  0.6244 -0.8362  0.0121
   91TMC2    H2 1395   2.058   2.853  16.781 -0.9859 -0.9052  0.0506
   91TMC2    C7 1396   1.926   2.831  16.563 -0.1283  0.1678  0.2558
   91TMC2    C8 1397   2.288   2.801  16.857 -0.1932 -0.1654  0.2017
   91TMC2    O1 1398   1.872   2.893  16.652 -0.0948 -0.0023  0.3982
   91TMC2    O2 1399   2.214   2.834  16.950 -0.5899 -0.7708  0.3888
   91TMC2    O5 1400   2.414   2.852  16.839  0.1088 -0.3848  0.3418
   91TMC2    H5 1401   2.448   2.850  16.747  0.2079 -1.3786  0.4009
   92MPD2     C 1402   2.537   2.571  16.187  0.4289  0.5436  0.1241
   92MPD2    C1 1403   2.566   2.645  16.296  0.7154  0.1080 -0.4887
   92MPD2    C2 1404   2.697   2.693  16.316  0.6797 -0.0043  0.1043
   92MPD2    C3 1405   2.794   2.670  16.222  0.1241  0.0031 -0.1197
   92MPD2    C4 1406   2.763   2.600  16.099  0.7306  1.2582  0.4645
   92MPD2    C5 1407   2.638   2.555  16.093 -0.8207 -0.0845  0.2533
   92MPD2     H 1408   2.730   2.746  16.405 -0.8311 -0.2048  0.7767
   92MPD2    H1 1409   2.829   2.581  16.015 -0.7112  0.4896 -0.4810
   92MPD2    H2 1410   2.441   2.527  16.166  1.7101 -0.9367 -2.7668
   92MPD2    H3 1411   2.615   2.510  15.997 -0.3847 -1.2206  0.6905
   92MPD2     N 1412   2.918   2.719  16.247 -0.1163 -0.3777  0.3418
   92MPD2    H5 1413   2.943   2.757  16.338 -0.8929  1.5893 -0.2652
   92MPD2    N1 1414   2.470   2.682  16.396  0.4904 -0.0929 -0.3146
   92MPD2    H7 1415   2.495   2.748  16.468  0.4321  0.3845 -0.7304
   93MPD2     C 1416   3.907   2.556  13.900  0.1785  0.2638 -0.1571
   93MPD2    C1 1417   3.933   2.679  13.962 -0.1815  0.4186 -0.2842
   93MPD2    C2 1418   3.832   2.771  13.957  0.4324  0.4740  1.0608
   93MPD2    C3 1419   3.719   2.760  13.883 -0.2113 -0.1900 -0.8370
   93MPD2    C4 1420   3.697   2.640  13.822  1.0845  0.0466 -0.4899
   93MPD2    C5 1421   3.790   2.533  13.828  0.4996  0.3694  0.3808
   93MPD2     H 1422   3.851   2.860  14.015 -0.4909  1.6140 -0.4000
   93MPD2    H1 1423   3.610   2.627  13.760 -0.0595 -0.9806  1.3224
   93MPD2    H2 1424   3.969   2.468  13.908  0.9182  0.8660  0.7860
   93MPD2    H3 1425   3.773   2.436  13.784  1.3421  0.8232 -0.9458
   93MPD2     N 1426   3.619   2.860  13.869  0.0270  0.8147  0.1107
   93MPD2    H5 1427   3.539   2.838  13.811  1.2682  0.4375 -1.4593
   93MPD2    N1 1428   4.045   2.709  14.034 -0.2785 -0.4879  0.2014
   93MPD2    H7 1429   4.040   2.797  14.085  1.4884  0.2722 -0.9530
   94TCq2    C1 1430   4.154   2.632  14.061  0.1043  0.0346 -0.7067
   94TCq2    O2 1431   4.182   2.524  14.006  0.3005  0.0570  0.4123
   94TCq2    C2 1432   4.250   2.708  14.144  0.0297 -0.4828  0.7438
   94TCq2    C3 1433   4.211   2.800  14.232  0.1375  0.3500  0.5126
   94TCq2    C4 1434   4.298   2.900  14.272  0.0421 -0.1017 -0.1619
   94TCq2    C5 1435   4.417   2.930  14.209 -0.3106 -0.0199  0.0127
   94TCq2    C6 1436   4.452   2.837  14.116  0.5198  0.8114  0.1603
   94TCq2    C7 1437   4.376   2.722  14.090  0.4003 -0.2056  0.1225
   94TCq2    C8 1438   4.583   2.851  14.051 -0.0653 -0.1956 -0.0494
   94TCq2    O4 1439   4.642   2.748  14.029 -0.2610  0.8874  0.0222
   94TCq2    C9 1440   4.260   2.991  14.373 -0.5837  0.0903  0.3870
   94TCq2    O5 1441   4.142   2.989  14.413  0.6629  0.3119  0.3028
   94TCq2    O6 1442   4.349   3.081  14.399  0.0199 -0.0181  0.3203
   94TCq2    H2 1443   4.114   2.795  14.281 -0.3345  1.5073 -0.2941
   94TCq2    H3 1444   4.496   2.991  14.251  0.0139  0.5869 -1.5154
   94TCq2    H4 1445   4.404   2.662  14.004 -1.3457  0.5649 -0.9828
   95TMC2    C1 1446   4.362   4.397  16.214  0.1639 -0.2428 -0.2780
   95TMC2    C2 1447   4.300   4.511  16.248  0.4076 -0.3629  0.3855
   95TMC2    C3 1448   4.243   4.513  16.370 -0.0289 -0.5322  0.3865
   95TMC2    C4 1449   4.366   4.279  16.282  0.2450  0.3904  0.0451
   95TMC2    C5 1450   4.300   4.286  16.401  0.2438  1.0041  0.5451
   95TMC2    C6 1451   4.244   4.402  16.453  0.2133 -0.3588 -0.7662
   95TMC2     C 1452   4.413   4.385  16.083 -0.2818 -0.5785 -0.4015
   95TMC2     O 1453   4.470   4.483  16.035 -0.5805  0.1248 -0.5169
   95TMC2     H 1454   4.305   4.597  16.183 -1.2248 -0.3788  0.2353
   95TMC2    H1 1455   4.418   4.190  16.248  1.0864  0.8640  0.0955
   95TMC2    H2 1456   4.201   4.400  16.553  1.7723 -0.4558 -0.0954
   95TMC2    C7 1457   4.303   4.173  16.493 -0.2210  0.4097 -0.7412
   95TMC2    C8 1458   4.234   4.640  16.429 -0.3287  0.5840 -0.2364
   95TMC2    O1 1459   4.296   4.194  16.613 -0.8257 -0.0391  0.0406
   95TMC2    O2 1460   4.284   0.012  16.367  0.7003 -0.0390  0.1220
   95TMC2    O5 1461   4.104   4.642  16.487 -0.3450 -0.1524 -0.0394
   95TMC2    H5 1462   4.070   4.559  16.527  0.3069 -1.1262 -1.5239
   96MPD2     C 1463   4.353   4.214  15.601  0.1585  0.3619 -0.4537
   96MPD2    C1 1464   4.442   4.303  15.655  0.2143 -0.2455  0.4155
   96MPD2    C2 1465   4.440   4.314  15.795 -0.4548  0.6318  0.1476
   96MPD2    C3 1466   4.351   4.251  15.880  0.3830  0.6061 -0.1804
   96MPD2    C4 1467   4.259   4.170  15.822 -0.4935 -0.4704  0.2262
   96MPD2    C5 1468   4.261   4.160  15.680  0.0620  0.0603 -0.3476
   96MPD2     H 1469   4.518   4.375  15.839  0.0025  0.3826 -0.3167
   96MPD2    H1 1470   4.186   4.110  15.876  0.0671 -0.8799  0.5270
   96MPD2    H2 1471   4.336   4.196  15.496  3.4173 -0.6235 -0.7773
   96MPD2    H3 1472   4.194   4.093  15.627  0.7391  0.2119 -1.3949
   96MPD2     N 1473   4.347   4.284  16.018 -0.4275 -0.4015  0.1787
   96MPD2    H5 1474   4.286   4.224  16.074 -0.2193 -2.6497 -1.9755
   96MPD2    N1 1475   4.520   4.383  15.570 -0.1174 -0.0625  0.2281
   96MPD2    H7 1476   4.472   4.381  15.481  0.0412  1.6970  0.1023
   97MPD2     C 1477   1.684   2.445   1.049 -0.1929 -0.5246  0.0426
   97MPD2    C1 1478   1.758   2.352   1.124  0.5212  0.2359  0.3699
   97MPD2    C2 1479   1.890   2.320   1.084  0.3764 -1.1454  0.6678
   97MPD2    C3 1480   1.957   2.386   0.982 -0.7149 -0.3117 -0.2217
   97MPD2    C4 1481   1.876   2.480   0.910  0.1290  0.4675 -0.5944
   97MPD2    C5 1482   1.745   2.508   0.943  0.3524 -1.3452  0.0615
   97MPD2     H 1483   1.936   2.234   1.133  0.3798 -1.2866  0.4191
   97MPD2    H1 1484   1.923   2.534   0.829  2.5204  0.7599  0.9916
   97MPD2    H2 1485   1.579   2.465   1.065 -0.3970 -1.5079 -0.0671
   97MPD2    H3 1486   1.680   2.567   0.879 -0.4340 -1.9273  0.3207
   97MPD2     N 1487   2.094   2.372   0.952  0.2352 -0.1117 -0.3869
   97MPD2    H5 1488   2.117   2.447   0.889 -0.1431  0.5629  0.2695
   97MPD2    N1 1489   1.686   2.279   1.227 -0.5097  0.5188 -0.4118
   97MPD2    H7 1490   1.591   2.309   1.244  0.3076  3.9193 -1.7903
   98TCq2    C1 1491   2.175   2.270   0.993 -0.1753 -0.3132  0.3743
   98TCq2    O2 1492   2.151   2.183   1.073 -0.3310  0.2549  0.1838
   98TCq2    C2 1493   2.316   2.283   0.965  0.7144  0.6513 -0.6642
   98TCq2    C3 1494   2.387   2.164   0.978  0.5955 -0.3164  0.4328
   98TCq2    C4 1495   2.515   2.165   0.926 -0.4582 -0.0719  0.4486
   98TCq2    C5 1496   2.572   2.274   0.869 -0.0699  0.1181  0.5264
   98TCq2    C6 1497   2.496   2.390   0.855  0.2856 -0.1326 -0.4533
   98TCq2    C7 1498   2.377   2.397   0.915  0.3952  0.1004 -0.0868
   98TCq2    C8 1499   2.545   2.495   0.766 -0.0221  0.9521  0.0469
   98TCq2    O4 1500   2.636   2.463   0.694 -0.4083 -1.1071 -0.5579
   98TCq2    C9 1501   2.600   2.057   0.964  0.6011 -0.1962  1.5263
   98TCq2    O5 1502   2.548   1.959   1.025  0.4765 -0.6891  0.1941
   98TCq2    O6 1503   2.724   2.078   0.948 -0.3637 -0.2985  0.0948
   98TCq2    H2 1504   2.355   2.068   1.017  0.4759 -0.3297  0.2997
   98TCq2    H3 1505   2.675   2.263   0.837 -0.1131 -0.0533  0.4441
   98TCq2    H4 1506   2.325   2.491   0.930  1.3028  0.4386  0.9425
   99MPD2     C 1507   4.554   4.516   1.730  0.3910 -0.0679 -0.4991
   99MPD2    C1 1508   4.556   4.402   1.800  0.2941 -0.3885 -0.1331
   99MPD2    C2 1509   4.601   4.288   1.743 -0.0633  0.5571  0.4043
   99MPD2    C3 1510   4.655   4.283   1.613  0.1179  0.5612  0.4364
   99MPD2    C4 1511   4.663   4.399   1.546 -0.3172  0.6775 -0.1488
   99MPD2    C5 1512   4.613   4.515   1.611  0.0762  0.3194  0.2765
   99MPD2     H 1513   4.610   4.196   1.800  2.1564 -0.0710 -0.9690
   99MPD2    H1 1514   4.712   4.409   1.450 -2.3306 -1.4256 -1.4252
   99MPD2    H2 1515   4.521   4.614   1.763 -2.3468 -0.5709 -1.7278
   99MPD2    H3 1516   4.632   4.609   1.560  1.7504 -0.7542 -1.1059
   99MPD2     N 1517   4.707   4.162   1.565  0.0291 -0.2302 -0.1915
   99MPD2    H5 1518   4.710   4.076   1.618  1.1148  0.7132  1.2729
   99MPD2    N1 1519   4.521   4.405   1.938 -0.2003  0.6423 -0.3306
   99MPD2    H7 1520   4.528   4.320   1.991  2.4983 -1.5697 -4.2148
  100TCq2    C1 1521   4.483   4.521   2.005 -0.4382  0.5388 -0.3231
  100TCq2    O2 1522   4.511   4.637   1.976 -0.1002  0.3287 -0.4321
  100TCq2    C2 1523   4.415   4.493   2.124 -0.8924 -0.5698  0.2682
  100TCq2    C3 1524   4.399   4.603   2.206 -0.2577 -0.3658  0.3960
  100TCq2    C4 1525   4.312   4.587   2.316  0.2357  0.2371 -0.1508
  100TCq2    C5 1526   4.243   4.474   2.339 -0.5597  0.3872  0.2802
  100TCq2    C6 1527   4.261   4.365   2.250 -1.1856  0.2955  0.4540
  100TCq2    C7 1528   4.353   4.372   2.145  0.6334  0.2081  0.5679
  100TCq2    C8 1529   4.163   4.251   2.268  0.1684  0.5994  0.0296
  100TCq2    O4 1530   4.130   4.220   2.379 -0.5486  0.7242 -0.8276
  100TCq2    C9 1531   4.296   4.694   2.415  0.4165 -0.0584 -0.2957
  100TCq2    O5 1532   4.382   0.066   2.411 -0.0934 -0.9510  0.0466
  100TCq2    O6 1533   4.223   4.685   2.512  0.1312 -0.0006  0.2428
  100TCq2    H2 1534   4.452   4.696   2.190 -1.7666  0.8042  2.1331
  100TCq2    H3 1535   4.185   4.469   2.430 -0.1095 -2.5853  0.3944
  100TCq2    H4 1536   4.370   4.291   2.074 -0.5553 -0.6694  1.2936
  101MPD2     C 1537   1.314   0.234  13.459  0.2967  0.3870  0.4484
  101MPD2    C1 1538   1.236   0.331  13.505  0.2863 -0.1751 -0.3819
  101MPD2    C2 1539   1.104   0.336  13.460 -0.4803 -0.4585 -0.9118
  101MPD2    C3 1540   1.048   0.240  13.379  0.0108  0.2941 -0.2115
  101MPD2    C4 1541   1.135   0.147  13.320  0.1437 -0.1251  0.9675
  101MPD2    C5 1542   1.266   0.148  13.366 -0.2037 -0.4281 -0.7775
  101MPD2     H 1543   1.042   0.420  13.490 -0.9002 -0.9222 -0.4866
  101MPD2    H1 1544   1.108   0.074  13.244 -0.0005  0.9897 -0.0586
  101MPD2    H2 1545   1.414   0.212  13.496  0.6087 -0.7851 -1.1044
  101MPD2    H3 1546   1.323   0.064  13.328 -0.1399 -1.1501  0.9145
  101MPD2     N 1547   0.911   0.253  13.346  0.2203 -0.0975  0.0190
  101MPD2    H5 1548   0.862   0.325  13.397 -2.2346 -1.2446 -0.7335
  101MPD2    N1 1549   1.301   0.437  13.575  0.2269  0.0099 -0.0359
  101MPD2    H7 1550   1.400   0.424  13.590  0.2362  2.1262  1.6401
  102TCq2    C1 1551   1.399   0.839  13.323 -0.1448 -0.4311 -0.1333
  102TCq2    O2 1552   1.475   0.785  13.242  0.3020  0.3480  0.7253
  102TCq2    C2 1553   1.415   0.816  13.463  0.5302 -0.3715 -0.6412
  102TCq2    C3 1554   1.386   0.917  13.547 -0.1791 -0.0604 -0.0357
  102TCq2    C4 1555   1.340   0.883  13.674  0.2954 -0.1124 -0.1368
  102TCq2    C5 1556   1.314   0.756  13.706  0.3207 -0.1220  0.1521
  102TCq2    C6 1557   1.338   0.653  13.619 -0.2689 -0.3528  0.4217
  102TCq2    C7 1558   1.391   0.684  13.493 -0.4299  0.1855  0.3992
  102TCq2    C8 1559   1.241   0.555  13.610 -0.1040  0.5712  0.0598
  102TCq2    O4 1560   1.123   0.596  13.607 -0.3264  0.1388 -0.5124
  102TCq2    C9 1561   1.315   0.996  13.764  0.2244  0.1034  0.1304
  102TCq2    O5 1562   1.358   1.113  13.738  0.4569 -0.2433  0.5878
  102TCq2    O6 1563   1.239   0.963  13.860 -0.2130 -0.3412 -0.0296
  102TCq2    H2 1564   1.395   1.021  13.518 -3.2657 -0.0727 -1.0476
  102TCq2    H3 1565   1.268   0.730  13.800 -1.8928 -4.4821 -2.1077
  102TCq2    H4 1566   1.401   0.603  13.421 -0.2297 -0.5643  1.2791
  103TMC2    C1 1567   4.225   0.888  13.088 -0.5733 -0.0320  0.8629
  103TMC2    C2 1568   4.271   1.002  13.018  0.1917  0.2404 -0.6170
  103TMC2    C3 1569   4.315   1.103  13.102  0.1343 -0.1089  0.3027
  103TMC2    C4 1570   4.210   0.884  13.222  0.2920  0.2849 -0.0012
  103TMC2    C5 1571   4.252   0.988  13.297 -0.0924 -0.1266  0.8530
  103TMC2    C6 1572   4.303   1.098  13.239  0.0429  0.1330 -0.5916
  103TMC2     C 1573   4.167   0.779  13.008 -0.1175 -0.4632  0.6362
  103TMC2     O 1574   4.118   0.811  12.897  0.3808 -0.4027 -0.2575
  103TMC2     H 1575   4.305   0.989  12.916 -0.2841 -0.0729 -0.7367
  103TMC2    H1 1576   4.157   0.799  13.265 -3.0571  1.0761 -2.5547
  103TMC2    H2 1577   4.352   1.169  13.306  2.2201 -0.2617 -1.7987
  103TMC2    C7 1578   4.225   0.964  13.436  0.8002  0.4232 -0.8824
  103TMC2    C8 1579   4.441   1.166  13.059  0.0771  0.1452 -0.7230
  103TMC2    O1 1580   4.234   0.847  13.467  0.3521  0.0499 -0.3177
  103TMC2    O2 1581   4.497   1.128  12.956 -0.4645 -0.2717  0.8063
  103TMC2    O5 1582   4.457   1.282  13.131  0.1854  0.0364  0.3899
  103TMC2    H5 1583   4.375   1.315  13.174 -0.3213  0.5025 -0.9166
  104MPD2     C 1584   4.229   0.427  13.057 -0.5225 -0.3834  0.8120
  104MPD2    C1 1585   4.174   0.529  12.995 -0.0521  0.3779 -0.1972
  104MPD2    C2 1586   4.090   0.512  12.882  0.1669  0.0663  0.3875
  104MPD2    C3 1587   4.072   0.387  12.827  0.0093  0.4491  0.0874
  104MPD2    C4 1588   4.114   0.280  12.907 -0.8972 -0.1957  0.2868
  104MPD2    C5 1589   4.177   0.302  13.024 -0.5939 -0.6485 -0.3340
  104MPD2     H 1590   4.055   0.597  12.824  2.3632  0.6334 -0.1167
  104MPD2    H1 1591   4.105   0.179  12.867  0.5751  0.8287 -2.5985
  104MPD2    H2 1592   4.298   0.435  13.139 -0.7426  0.6299  0.8961
  104MPD2    H3 1593   4.226   0.219  13.074  1.9360  1.1479  0.1697
  104MPD2     N 1594   4.003   0.372  12.703  0.0313  0.1801  0.2762
  104MPD2    H5 1595   3.971   0.459  12.662 -2.2525 -0.7792  0.0096
  104MPD2    N1 1596   4.216   0.655  13.044  0.2198  0.2084 -0.1882
  104MPD2    H7 1597   4.259   0.660  13.136  0.7226 -2.6086 -0.2782
  105MPD2     C 1598   0.362   4.424   0.348  0.6774 -0.2870 -0.7234
  105MPD2    C1 1599   0.386   4.556   0.367  0.1907  0.7565  0.3592
  105MPD2    C2 1600   0.304   4.633   0.448 -0.4732 -0.5254 -0.0766
  105MPD2    C3 1601   0.204   4.571   0.516 -0.0147 -1.1046  0.3674
  105MPD2    C4 1602   0.167   4.440   0.484 -0.0875 -0.5782  0.3912
  105MPD2    C5 1603   0.257   4.368   0.407  0.4513  0.0477  0.0619
  105MPD2     H 1604   0.338   0.008   0.462 -0.3719 -0.5890  0.1298
  105MPD2    H1 1605   0.079   4.396   0.529 -2.4010  3.1747 -0.3792
  105MPD2    H2 1606   0.433   4.352   0.308  2.1446  0.6595  0.1589
  105MPD2    H3 1607   0.234   4.265   0.382  2.3525 -0.3320 -0.1303
  105MPD2     N 1608   0.122   4.658   0.596 -0.2299  1.0568  0.0745
  105MPD2    H5 1609   0.158   0.026   0.600 -1.5835  1.6324 -1.1130
  105MPD2    N1 1610   0.491   4.628   0.304  0.2177  0.3889 -0.8358
  105MPD2    H7 1611   0.487   0.003   0.304  0.4896  0.4028  0.0022
  106TCq2    C1 1612   4.718   4.630   0.647 -0.4693 -0.8199  0.1346
  106TCq2    O2 1613   4.656   4.524   0.626  0.7848  0.1189  0.5667
  106TCq2    C2 1614   4.658   0.001   0.728 -0.3620  0.1144 -0.2986
  106TCq2    C3 1615   4.530   4.704   0.766 -0.3735 -0.1377 -0.8213
  106TCq2    C4 1616   4.485   0.036   0.879 -0.2893 -0.0241 -0.0738
  106TCq2    C5 1617   4.561   0.129   0.942 -0.2277  0.4525 -0.2885
  106TCq2    C6 1618   4.687   0.159   0.896  0.1008  0.3959 -0.6023
  106TCq2    C7 1619   0.009   0.087   0.795  0.2144 -0.2795  0.0909
  106TCq2    C8 1620   0.060   0.221   0.979 -0.8456 -0.4661  0.8245
  106TCq2    O4 1621   0.176   0.235   0.940  0.3053 -0.8582 -0.1483
  106TCq2    C9 1622   4.356   4.720   0.929  0.1111 -0.4432 -0.1688
  106TCq2    O5 1623   4.303   4.622   0.869 -0.6532  0.1848  0.4619
  106TCq2    O6 1624   4.293   0.075   1.003  0.5683  0.1253 -0.5030
  106TCq2    H2 1625   4.465   4.632   0.719 -0.1784 -1.3385  0.7644
  106TCq2    H3 1626   4.509   0.176   1.025  2.9188  1.7559  0.9209
  106TCq2    H4 1627   0.107   0.109   0.755 -0.3583  0.4685 -0.8840
  107TMC2    C1 1628   1.313   3.868  11.663  1.1973  0.0118  0.5181
  107TMC2    C2 1629   1.383   3.928  11.568 -0.1769  0.0783 -0.3724
  107TMC2    C3 1630   1.476   3.855  11.501  0.2672 -1.1059 -0.2889
  107TMC2    C4 1631   1.333   3.740  11.702  0.1162 -0.3114 -0.2431
  107TMC2    C5 1632   1.438   3.672  11.643 -0.1410 -0.4538 -1.2876
  107TMC2    C6 1633   1.508   3.730  11.543  0.3992  0.0020  0.3388
  107TMC2     C 1634   1.212   3.938  11.736  0.4364 -0.5798 -0.2377
  107TMC2     O 1635   1.154   3.883  11.832  0.3959 -0.1462  0.5957
  107TMC2     H 1636   1.392   4.036  11.566 -0.6806  0.1390  0.7281
  107TMC2    H1 1637   1.286   3.692  11.787  1.6181 -0.2252  0.6220
  107TMC2    H2 1638   1.593   3.681  11.496  0.2067  0.2774 -0.2887
  107TMC2    C7 1639   1.475   3.552  11.703 -0.1987  0.1500  0.2826
  107TMC2    C8 1640   1.568   3.924  11.420  0.5442 -0.6553 -0.0355
  107TMC2    O1 1641   1.439   3.519  11.814 -0.1817  0.2926  0.5903
  107TMC2    O2 1642   1.691   3.891  11.429 -0.0626  0.1595 -0.5057
  107TMC2    O5 1643   1.513   4.034  11.361  0.2697  0.0177  0.0896
  107TMC2    H5 1644   1.418   4.012  11.344  0.3536  0.4231 -0.9367
  108MPD2     C 1645   1.080   4.279  11.668 -0.8401  0.0401  0.4544
  108MPD2    C1 1646   1.106   4.167  11.745  0.7361  0.0438 -0.0126
  108MPD2    C2 1647   1.068   4.165  11.877 -0.4328 -0.2323 -0.2574
  108MPD2    C3 1648   0.982   4.264  11.923  0.4577  0.9443 -0.0739
  108MPD2    C4 1649   0.951   4.375  11.846  0.8754  0.4728  0.1275
  108MPD2    C5 1650   1.003   4.376  11.718  0.3851  0.2236  0.6373
  108MPD2     H 1651   1.091   4.081  11.942 -1.0855  0.8457  1.3802
  108MPD2    H1 1652   0.884   4.454  11.876  1.1571  1.3125 -1.4395
  108MPD2    H2 1653   1.120   4.300  11.569 -0.7671 -0.1898  0.4369
  108MPD2    H3 1654   0.971   4.462  11.661 -0.1646  0.0474  0.6831
  108MPD2     N 1655   0.921   4.249  12.050 -0.0960  0.1836 -0.2522
  108MPD2    H5 1656   0.860   4.322  12.082 -1.3711 -0.8851 -0.2589
  108MPD2    N1 1657   1.192   4.066  11.685 -0.5965 -0.2519 -0.2128
  108MPD2    H7 1658   1.217   4.093  11.591 -0.6927 -0.2361 -0.2342
  109MPD2     C 1659   0.830   1.143   2.119 -0.3257 -0.2886  0.2499
  109MPD2    C1 1660   0.897   1.236   2.043  0.2656 -0.3045  0.0652
  109MPD2    C2 1661   1.039   1.230   2.040 -0.5184 -0.6225  0.0092
  109MPD2    C3 1662   1.106   1.131   2.105  0.0508 -0.2067  0.0959
  109MPD2    C4 1663   1.037   1.042   2.178  0.0150 -0.1714 -0.5335
  109MPD2    C5 1664   0.900   1.049   2.184  0.0218  0.4990  0.4805
  109MPD2     H 1665   1.081   1.327   2.014 -1.6063  0.7824  3.4653
  109MPD2    H1 1666   1.090   0.969   2.238  0.5204 -0.2094 -1.0292
  109MPD2    H2 1667   0.723   1.144   2.136 -0.2857 -1.4059  0.5934
  109MPD2    H3 1668   0.838   0.981   2.242 -0.7010  2.0401  1.5124
  109MPD2     N 1669   1.253   1.139   2.085 -0.4247  0.0611 -0.0804
  109MPD2    H5 1670   1.290   1.212   2.023  0.1873  1.0839  1.4904
  109MPD2    N1 1671   0.827   1.339   1.982  0.2372 -0.4501  0.0561
  109MPD2    H7 1672   0.727   1.349   1.995  0.3228  2.2072 -1.2201
  110TCq2    C1 1673   1.350   1.058   2.140  0.3893 -0.2334  0.0613
  110TCq2    O2 1674   1.328   0.961   2.218  0.1516  1.0021 -0.7451
  110TCq2    C2 1675   1.481   1.098   2.105  0.1607 -0.3654  0.0827
  110TCq2    C3 1676   1.590   1.025   2.151  0.0193  0.6190  0.2083
  110TCq2    C4 1677   1.720   1.063   2.114  0.0902 -0.5375 -0.5341
  110TCq2    C5 1678   1.746   1.189   2.052 -0.2928  0.5161 -0.6478
  110TCq2    C6 1679   1.633   1.259   2.011 -0.6204  0.5126 -0.2129
  110TCq2    C7 1680   1.502   1.220   2.039  0.4462  0.1773  0.7665
  110TCq2    C8 1681   1.641   1.395   1.962  0.9277  1.1813  0.1451
  110TCq2    O4 1682   1.538   1.447   1.916  0.2803  0.1067 -0.0141
  110TCq2    C9 1683   1.829   0.981   2.161 -0.1530 -0.7587  0.3295
  110TCq2    O5 1684   1.803   0.871   2.222  0.2563  0.2339  0.0830
  110TCq2    O6 1685   1.945   1.036   2.164 -0.5208 -0.0525 -0.1995
  110TCq2    H2 1686   1.580   0.931   2.204 -0.8830  1.1775  1.0546
  110TCq2    H3 1687   1.846   1.227   2.037 -0.4909  1.3650  0.1462
  110TCq2    H4 1688   1.424   1.294   2.028 -0.5928 -0.9424  0.5646
  111TMC2    C1 1689   0.728   1.366  11.851 -0.7371  0.6410 -0.2221
  111TMC2    C2 1690   0.624   1.347  11.941 -0.5393 -0.1971  0.0325
  111TMC2    C3 1691   0.662   1.321  12.069  0.0814  0.5298  0.4073
  111TMC2    C4 1692   0.858   1.345  11.872 -0.1643 -0.0806  0.0055
  111TMC2    C5 1693   0.886   1.321  12.005  0.8680 -0.2088 -0.9204
  111TMC2    C6 1694   0.794   1.314  12.105 -0.0263  0.1537 -0.2440
  111TMC2     C 1695   0.689   1.418  11.719  0.1188  0.2100 -0.5322
  111TMC2     O 1696   0.773   1.493  11.662 -0.7857  0.1255  0.5151
  111TMC2     H 1697   0.522   1.374  11.913 -0.3633  0.4718  0.0237
  111TMC2    H1 1698   0.931   1.371  11.795  0.2466  0.3196  0.5243
  111TMC2    H2 1699   0.817   1.308  12.210  1.2876  1.2499 -0.4706
  111TMC2    C7 1700   1.019   1.284  12.046 -0.2523  0.3149  0.1860
  111TMC2    C8 1701   0.558   1.312  12.160  0.2711  0.3827  0.2639
  111TMC2    O1 1702   1.034   1.251  12.162 -0.2822 -0.1444 -0.6881
  111TMC2    O2 1703   0.450   1.354  12.129  0.0804 -0.0087 -0.2301
  111TMC2    O5 1704   0.599   1.255  12.276 -0.0400  0.3283 -0.6941
  111TMC2    H5 1705   0.666   1.187  12.253 -0.7468 -0.2852 -0.9093
  112MPD2     C 1706   0.336   1.517  11.359  0.1757 -0.1820  0.6039
  112MPD2    C1 1707   0.455   1.586  11.383  0.7928 -0.0777 -0.2336
  112MPD2    C2 1708   0.533   1.543  11.488 -0.3055 -0.6136 -0.0810
  112MPD2    C3 1709   0.491   1.435  11.572  0.9037  0.7892  0.2019
  112MPD2    C4 1710   0.366   1.372  11.547  0.5661 -0.2057 -0.0754
  112MPD2    C5 1711   0.294   1.412  11.440  0.2531  0.0495  0.0187
  112MPD2     H 1712   0.630   1.587  11.508  0.2410 -1.1290 -1.5815
  112MPD2    H1 1713   0.326   1.297  11.615 -0.0093 -1.7073 -2.0874
  112MPD2    H2 1714   0.275   1.552  11.277  0.1293  0.7719  1.0456
  112MPD2    H3 1715   0.194   1.373  11.423  0.0482  0.5420  0.0663
  112MPD2     N 1716   0.559   1.383  11.682  0.0964 -1.0233 -0.5877
  112MPD2    H5 1717   0.522   1.305  11.735  1.9760 -2.0812 -0.8125
  112MPD2    N1 1718   0.504   1.683  11.301  0.0110 -0.5883 -0.4723
  112MPD2    H7 1719   0.597   1.712  11.329 -0.0372 -0.0700 -0.8334
  113MPD2     C 1720   4.279   4.137   1.717 -0.5301  0.5307 -0.7900
  113MPD2    C1 1721   4.184   4.205   1.640  0.2873 -0.5932  0.3666
  113MPD2    C2 1722   4.165   4.163   1.512  0.5248 -0.8698 -0.8648
  113MPD2    C3 1723   4.232   4.048   1.464  0.2489 -0.2577 -0.8230
  113MPD2    C4 1724   4.328   3.984   1.540  0.0383 -0.3558 -0.1643
  113MPD2    C5 1725   4.352   4.037   1.662  0.0997 -0.3257 -0.7520
  113MPD2     H 1726   4.100   4.223   1.450 -1.0778 -0.7650  0.9158
  113MPD2    H1 1727   4.375   3.891   1.510  0.7447 -0.1667  0.3358
  113MPD2    H2 1728   4.293   4.154   1.824  0.1918  0.2459 -0.8442
  113MPD2    H3 1729   4.421   3.984   1.727  0.4761  1.6647  0.4866
  113MPD2     N 1730   4.193   4.017   1.329  0.7711 -0.4046 -0.3637
  113MPD2    H5 1731   4.123   4.076   1.285  1.5174 -0.7987 -2.0694
  113MPD2    N1 1732   4.109   4.319   1.686 -0.0956  0.1147 -0.6526
  113MPD2    H7 1733   4.045   4.359   1.617 -0.3492  0.1907 -0.3726
  114TCq2    C1 1734   4.244   3.906   1.265 -0.1868 -0.4260 -0.2311
  114TCq2    O2 1735   4.328   3.823   1.297 -0.0946 -0.0149  0.6004
  114TCq2    C2 1736   4.188   3.882   1.134  0.5194 -0.2454  0.2124
  114TCq2    C3 1737   4.110   3.990   1.089 -0.3154  0.4556 -0.0555
  114TCq2    C4 1738   3.999   3.954   1.013  0.1531  0.3899  0.0922
  114TCq2    C5 1739   3.965   3.821   0.985 -0.2790  0.8472  0.0989
  114TCq2    C6 1740   4.036   3.723   1.039  0.7369  0.0957  0.0470
  114TCq2    C7 1741   4.153   3.756   1.114  0.1371 -0.1535 -0.1770
  114TCq2    C8 1742   4.004   3.580   1.024  0.1396 -0.2872  0.1978
  114TCq2    O4 1743   4.091   3.490   1.046 -0.0910 -0.3578 -0.0678
  114TCq2    C9 1744   3.934   4.063   0.939 -0.3348  0.4920  0.1514
  114TCq2    O5 1745   3.978   4.170   0.982  0.3545  0.7888  0.2803
  114TCq2    O6 1746   3.886   4.038   0.825 -0.2019 -0.2255 -0.4869
  114TCq2    H2 1747   4.147   4.091   1.095  3.0953 -0.7512 -1.1184
  114TCq2    H3 1748   3.895   3.805   0.904 -0.6320  0.5321  0.4679
  114TCq2    H4 1749   4.205   3.677   1.168 -1.5489 -2.0305 -1.2859
  115TMC2    C1 1750   0.141   1.851  17.628 -0.5272  0.2539 -0.2665
  115TMC2    C2 1751   0.253   1.847   0.001 -0.3240  0.2189 -0.3559
  115TMC2    C3 1752   0.334   1.960   0.000  0.4315  0.4765  0.0851
  115TMC2    C4 1753   0.106   1.963  17.555 -0.3898  0.1476  0.2024
  115TMC2    C5 1754   0.197   2.067  17.552  0.3026 -0.8317 -0.7882
  115TMC2    C6 1755   0.313   2.068  17.625  0.6961 -0.3824  0.3205
  115TMC2     C 1756   0.068   1.732  17.604  0.6638 -0.1818 -0.0234
  115TMC2     O 1757   0.102   1.634  17.669  0.1434 -0.4115 -0.2614
  115TMC2     H 1758   0.284   1.757   0.053  0.6018  1.8754  1.9889
  115TMC2    H1 1759   0.026   1.969  17.482 -1.0415  0.2223  0.9391
  115TMC2    H2 1760   0.372   2.157  17.638 -5.2883  3.1195  3.1783
  115TMC2    C7 1761   0.160   2.198  17.508  0.1862 -0.0003 -0.5130
  115TMC2    C8 1762   0.467   1.933   0.045 -0.1042 -0.1663  0.2513
  115TMC2    O1 1763   0.042   2.216  17.506 -0.5925 -0.0336 -0.3145
  115TMC2    O2 1764   0.494   1.921   0.164 -0.3805  0.6241 -0.4216
  115TMC2    O5 1765   0.518   1.847  17.660  0.5628 -0.5608  0.8718
  115TMC2    H5 1766   0.458   1.844  17.583  0.7299  0.7015  0.6823
  116MPD2     C 1767   4.412   1.469  17.380  0.1649  0.4720  0.7880
  116MPD2    C1 1768   4.526   1.420  17.435 -0.0680  0.1855  0.0115
  116MPD2    C2 1769   4.617   1.513  17.498  0.1278 -0.1783  0.9911
  116MPD2    C3 1770   4.591   1.651  17.497 -0.8152  0.2186  0.3593
  116MPD2    C4 1771   4.478   1.695  17.429  0.0732 -0.7200 -0.4658
  116MPD2    C5 1772   4.392   1.604  17.370 -0.3476  0.4555  0.1433
  116MPD2     H 1773   4.713   1.471  17.524 -0.3486 -1.5499  0.5612
  116MPD2    H1 1774   4.456   1.800  17.417 -0.3577 -0.7547  0.0504
  116MPD2    H2 1775   4.324   1.409  17.358 -0.1202  0.9441  0.6398
  116MPD2    H3 1776   4.300   1.636  17.323 -0.8430 -1.1829 -0.0219
  116MPD2     N 1777   4.673   1.755  17.547  0.2405  0.1076 -0.1611
  116MPD2    H5 1778   4.645   1.849  17.520 -1.3365 -0.5579 -0.8218
  116MPD2    N1 1779   4.547   1.275  17.432 -0.5121  0.0050  0.0581
  116MPD2    H7 1780   4.465   1.223  17.401 -1.3071  1.9161 -1.0998
  117TMC2    C1 1781   3.461   3.579  14.019 -0.2952 -0.4421 -0.0594
  117TMC2    C2 1782   3.459   3.465  14.093 -0.4492  0.3207 -0.8792
  117TMC2    C3 1783   3.578   3.419  14.139  0.3388 -0.0844  0.6848
  117TMC2    C4 1784   3.571   3.647  13.974  0.1720 -0.2149  0.2528
  117TMC2    C5 1785   3.691   3.586  14.010 -0.3717 -0.1235 -0.2587
  117TMC2    C6 1786   3.696   3.483  14.095 -0.1743  0.2305  0.4326
  117TMC2     C 1787   3.334   3.597  13.950 -0.9021  0.0876  0.1227
  117TMC2     O 1788   3.272   3.501  13.901  0.2089  0.5563 -0.3617
  117TMC2     H 1789   3.364   3.420  14.120  0.1987  0.3958  1.4596
  117TMC2    H1 1790   3.563   3.732  13.906  0.7535  0.6078  1.2041
  117TMC2    H2 1791   3.791   3.440  14.125 -0.5405  0.0699  1.3590
  117TMC2    C7 1792   3.816   3.640  13.951 -0.4325  0.3206 -0.1706
  117TMC2    C8 1793   3.582   3.293  14.216 -0.7487  0.3582 -0.2636
  117TMC2    O1 1794   3.830   3.761  13.932 -0.2678 -0.0838 -0.2411
  117TMC2    O2 1795   3.503   3.202  14.206 -0.0926  0.2230 -0.6862
  117TMC2    O5 1796   3.640   3.339  14.331  0.1094 -0.7157 -0.5051
  117TMC2    H5 1797   3.681   3.426  14.315  1.7999 -1.5986 -0.9496
  118MPD2     C 1798   4.074   3.436  13.802  0.2396  0.1503 -0.1301
  118MPD2    C1 1799   4.031   3.550  13.860  0.7984  0.3486 -0.1809
  118MPD2    C2 1800   4.105   3.663  13.849 -0.7625  0.2880 -0.9800
  118MPD2    C3 1801   4.220   3.664  13.766 -0.5913  0.5021  0.2930
  118MPD2    C4 1802   4.264   3.544  13.713 -0.6126 -0.4228  0.6098
  118MPD2    C5 1803   4.188   3.428  13.734 -0.2383  0.1569  0.5806
  118MPD2     H 1804   4.066   3.759  13.881  0.0765  0.1168  0.5671
  118MPD2    H1 1805   4.354   3.541  13.653 -0.8628  0.3232  0.1930
  118MPD2    H2 1806   4.023   3.341  13.798 -0.4363  0.5898 -2.0556
  118MPD2    H3 1807   4.222   3.333  13.696 -1.7731  0.6527 -2.0248
  118MPD2     N 1808   4.300   3.780  13.732 -0.4354  0.0741 -0.3709
  118MPD2    H5 1809   4.389   3.768  13.684  1.4862  0.6064  3.0171
  118MPD2    N1 1810   3.898   3.536  13.916 -0.1664  0.0986  0.2771
  118MPD2    H7 1811   3.857   3.443  13.924  2.1421 -0.6651  2.8959
  119MPD2     C 1812   1.908   0.161  13.803 -0.2983  0.1237  0.5262
  119MPD2    C1 1813   1.772   0.162  13.772  0.2147  0.4800  0.4339
  119MPD2    C2 1814   1.743   0.149  13.638  0.5313  0.3537 -0.1860
  119MPD2    C3 1815   1.837   0.121  13.538 -0.3875  0.4316  0.5648
  119MPD2    C4 1816   1.975   0.128  13.571 -0.3948  1.0772 -0.0130
  119MPD2    C5 1817   2.008   0.149  13.709  0.7436 -0.0641 -0.5571
  119MPD2     H 1818   1.637   0.159  13.614 -0.2295 -0.9416  2.6740
  119MPD2    H1 1819   2.058   0.105  13.505 -2.1619  2.0285 -2.5638
  119MPD2    H2 1820   1.934   0.185  13.905 -0.6050 -2.4390  1.1927
  119MPD2    H3 1821   2.111   0.145  13.742  0.3099  0.2191  0.8349
  119MPD2     N 1822   1.805   0.080  13.410  0.4862  0.4702  0.0677
  119MPD2    H5 1823   1.876   0.054  13.342 -1.0192 -2.5863 -0.3459
  119MPD2    N1 1824   1.679   0.177  13.876  0.1021  0.8367 -0.2953
  119MPD2    H7 1825   1.710   0.214  13.966  1.2328  0.9021 -0.7229
  120TCq2    C1 1826   1.677   0.049  13.366  0.4051  0.0279 -0.3604
  120TCq2    O2 1827   1.568   0.060  13.421 -0.1424 -0.7626 -0.2678
  120TCq2    C2 1828   1.680   4.701  13.234  0.0642  0.6123 -0.1281
  120TCq2    C3 1829   1.796   4.669  13.179 -0.1544  0.1312  0.6373
  120TCq2    C4 1830   1.805   4.553  13.107 -0.7072  1.6527  0.9838
  120TCq2    C5 1831   1.696   4.478  13.085  0.2154  0.1733 -0.2171
  120TCq2    C6 1832   1.581   4.505  13.153 -0.6370 -0.3852 -0.4422
  120TCq2    C7 1833   1.569   4.622  13.222 -0.2291 -0.3153 -0.5025
  120TCq2    C8 1834   1.462   4.429  13.129 -0.2973  0.1311  0.0940
  120TCq2    O4 1835   1.458   4.367  13.022 -0.6225 -0.1163 -0.4221
  120TCq2    C9 1836   1.938   4.506  13.075  0.2481  0.1191  0.6805
  120TCq2    O5 1837   1.955   4.404  13.003 -0.3987 -0.9559  0.1686
  120TCq2    O6 1838   2.040   4.567  13.117 -0.4802  0.1143  0.3279
  120TCq2    H2 1839   1.887   0.001  13.184 -0.0863  0.0251  0.6535
  120TCq2    H3 1840   1.710   4.393  13.019  0.5622 -0.3324  0.5054
  120TCq2    H4 1841   1.483   4.641  13.285  0.0894 -0.9726  0.1371
  121TMC2    C1 1842   3.082   1.934  14.233  0.3167 -0.5354  0.9919
  121TMC2    C2 1843   2.993   1.956  14.332  0.3663  0.2443 -0.1547
  121TMC2    C3 1844   2.870   1.904  14.331 -0.3966 -0.4815 -0.0353
  121TMC2    C4 1845   3.061   1.835  14.142  0.4030 -0.2709  0.0547
  121TMC2    C5 1846   2.932   1.807  14.130  0.1012 -0.7581 -0.2307
  121TMC2    C6 1847   2.830   1.838  14.216 -0.3585  0.0716  0.3290
  121TMC2     C 1848   3.170   2.052  14.206 -0.0851  0.1348  0.6104
  121TMC2     O 1849   3.165   2.137  14.292  0.0609 -0.4216 -0.2853
  121TMC2     H 1850   3.026   2.007  14.421  0.0008  1.3217 -0.6306
  121TMC2    H1 1851   3.135   1.800  14.070  1.9999  0.6471  1.2408
  121TMC2    H2 1852   2.728   1.822  14.184  0.1628 -1.4725 -0.5717
  121TMC2    C7 1853   2.894   1.733  14.018 -0.3337 -0.0080  0.5693
  121TMC2    C8 1854   2.778   1.959  14.427  0.6561 -0.0314  0.3507
  121TMC2    O1 1855   2.969   1.651  13.967  0.3231  0.6124  0.2325
  121TMC2    O2 1856   2.806   2.059  14.494 -0.6328  0.2470  0.0117
  121TMC2    O5 1857   2.652   1.903  14.417  0.1154  0.9892 -0.0264
  121TMC2    H5 1858   2.643   1.810  14.387  1.2907  0.6579  0.6537
  122MPD2     C 1859   3.313   2.272  14.075 -0.9532  0.1577  0.3461
  122MPD2    C1 1860   3.301   2.148  14.018 -0.5032 -0.4045  0.2805
  122MPD2    C2 1861   3.364   2.127  13.896 -0.0218 -0.0124  0.4645
  122MPD2    C3 1862   3.439   2.219  13.830  0.0841 -0.9112  0.0722
  122MPD2    C4 1863   3.469   2.334  13.900 -0.0673  0.4837  0.4345
  122MPD2    C5 1864   3.401   2.360  14.019  0.1949  0.0768 -0.0523
  122MPD2     H 1865   3.361   2.027  13.855  1.3839 -0.3739  1.2564
  122MPD2    H1 1866   3.527   2.413  13.855 -0.1264  1.2008  1.6257
  122MPD2    H2 1867   3.264   2.301  14.167 -0.4244  1.0715  0.3456
  122MPD2    H3 1868   3.409   2.459  14.064  0.5791 -0.3131  0.7418
  122MPD2     N 1869   3.485   2.202  13.696  0.5298  0.2303  0.0486
  122MPD2    H5 1870   3.465   2.114  13.649  0.5020 -0.4450  1.3335
  122MPD2    N1 1871   3.226   2.048  14.081 -0.2859  0.1480  0.4386
  122MPD2    H7 1872   3.216   1.965  14.023  2.2210  0.6415 -0.6688
  123MPD2     C 1873   2.407   4.356  10.717  1.0345 -0.3948 -0.2023
  123MPD2    C1 1874   2.457   4.327  10.592  0.3876 -0.3382 -0.6494
  123MPD2    C2 1875   2.404   4.210  10.535 -0.1340  0.3203  0.1990
  123MPD2    C3 1876   2.302   4.138  10.594  0.1628  0.5146 -0.1265
  123MPD2    C4 1877   2.253   4.176  10.719 -0.2592  0.4860 -0.5838
  123MPD2    C5 1878   2.309   4.282  10.782  0.0678 -0.2204 -0.4446
  123MPD2     H 1879   2.444   4.185  10.438 -1.3112  1.1297 -0.4979
  123MPD2    H1 1880   2.183   4.119  10.779 -1.3503  0.1451 -2.1669
  123MPD2    H2 1881   2.447   4.436  10.778  1.6567 -0.5598 -0.3932
  123MPD2    H3 1882   2.265   4.314  10.876 -1.4276 -1.0676 -0.8544
  123MPD2     N 1883   2.252   4.028  10.524 -0.1557  0.2405  0.0433
  123MPD2    H5 1884   2.284   4.014  10.429  2.3792 -1.2246  1.1452
  123MPD2    N1 1885   2.549   4.421  10.534  0.4251 -0.0292  0.4015
  123MPD2    H7 1886   2.559   4.515  10.571  0.7694  0.0038  0.2225
  124TCq2    C1 1887   2.140   3.950  10.554  0.2211  0.0929  0.3372
  124TCq2    O2 1888   2.059   3.983  10.638  0.4448  0.0768 -0.2619
  124TCq2    C2 1889   2.117   3.833  10.472 -0.1613  0.1950  0.2496
  124TCq2    C3 1890   2.215   3.785  10.390  0.6920  0.2208 -0.1628
  124TCq2    C4 1891   2.178   3.692  10.299 -0.1858  0.3176 -0.3185
  124TCq2    C5 1892   2.048   3.652  10.288 -0.6630  1.1182 -0.0330
  124TCq2    C6 1893   1.955   3.694  10.379 -0.3761  0.6964  0.1967
  124TCq2    C7 1894   1.988   3.786  10.471 -0.2763  0.1898  0.3118
  124TCq2    C8 1895   1.816   3.662  10.353 -0.2483 -0.0812  0.1574
  124TCq2    O4 1896   1.796   3.550  10.301  0.1393 -0.2552 -0.2603
  124TCq2    C9 1897   2.282   3.635  10.208  0.1837 -1.0451 -0.6785
  124TCq2    O5 1898   2.260   3.517  10.164 -0.3262 -0.7582 -0.7538
  124TCq2    O6 1899   2.392   3.690  10.194  0.1262  0.0954 -0.0927
  124TCq2    H2 1900   2.317   3.822  10.392  0.3693  1.0320  1.1894
  124TCq2    H3 1901   2.027   3.574  10.215 -2.7688  0.3576  1.4003
  124TCq2    H4 1902   1.910   3.807  10.542 -0.5370  0.0545  0.0664
  125TMC2    C1 1903   1.878   2.017   9.760 -0.5574  0.2289  0.1119
  125TMC2    C2 1904   1.856   2.083   9.873  0.5879  0.6909 -0.2960
  125TMC2    C3 1905   1.943   2.061   9.975  0.7792 -0.3316 -0.9851
  125TMC2    C4 1906   1.986   1.938   9.732  0.5434 -0.0947  0.0154
  125TMC2    C5 1907   2.074   1.912   9.838 -0.6620 -0.8213  0.0418
  125TMC2    C6 1908   2.052   1.981   9.958 -0.0179 -0.6829 -0.5367
  125TMC2     C 1909   1.793   2.053   9.641  0.1030  0.1169  0.0948
  125TMC2     O 1910   1.705   2.132   9.660  0.1682  0.2060 -0.3107
  125TMC2     H 1911   1.768   2.142   9.896 -0.7909 -1.6657  0.4928
  125TMC2    H1 1912   1.996   1.862   9.654 -1.6948 -1.5385  1.1505
  125TMC2    H2 1913   2.118   1.968  10.043  1.7090  0.4466 -1.7167
  125TMC2    C7 1914   2.178   1.817   9.828 -0.8646  0.7608 -0.9270
  125TMC2    C8 1915   1.918   2.132  10.097 -0.1868 -0.7491  0.4252
  125TMC2    O1 1916   2.227   1.763   9.922 -0.3859  0.1469 -0.8411
  125TMC2    O2 1917   1.808   2.163  10.136  0.4197  0.0933 -0.2589
  125TMC2    O5 1918   2.025   2.216  10.109  0.2337  0.4157 -0.8043
  125TMC2    H5 1919   2.100   2.176  10.060 -0.8727 -3.0464  0.3290
  126MPD1     C 1920   1.701   1.990   9.150 -0.5220  0.5871 -0.2161
  126MPD1    C1 1921   1.804   1.908   9.192 -0.2694 -0.2797  0.3365
  126MPD1    C2 1922   1.855   1.930   9.315 -0.0379 -0.5054  0.0190
  126MPD1    C3 1923   1.788   1.996   9.404  0.2598  0.5026  0.1652
  126MPD1    C4 1924   1.677   2.075   9.372  0.0667  0.6185 -0.3628
  126MPD1    C5 1925   1.641   2.081   9.235 -0.0504 -0.1626 -0.0503
  126MPD1     H 1926   1.951   1.885   9.342 -0.2404  0.6604  2.7282
  126MPD1    H1 1927   1.631   2.143   9.442  1.3729  0.2540  0.8420
  126MPD1    H2 1928   1.657   1.976   9.052  1.4957  3.9251 -1.6139
  126MPD1    H3 1929   1.565   2.152   9.204 -1.0329  0.1727  3.0511
  126MPD1     N 1930   1.851   2.002   9.530 -0.0151 -0.2642 -0.0501
  126MPD1    H5 1931   1.940   1.954   9.531 -0.1719 -0.5907 -1.8301
  126MPD1    N1 1932   1.857   1.815   9.105 -0.2430 -0.2952 -0.3566
  126MPD1    H6 1933   1.886   1.725   9.144 -0.0354  0.0303  0.2270
  126MPD1    H7 1934   1.796   1.797   9.025  2.1036 -1.3290 -1.9388
  127MPD2     C 1935   3.139   0.333   9.291 -0.3145 -1.1659  0.3234
  127MPD2    C1 1936   3.230   0.358   9.390 -0.1166 -0.8242 -0.3987
  127MPD2    C2 1937   3.297   0.482   9.388  0.0037  0.2219  0.2406
  127MPD2    C3 1938   3.289   0.572   9.283 -1.1349  0.7231 -0.6219
  127MPD2    C4 1939   3.200   0.537   9.185  0.0706 -1.0534 -0.3059
  127MPD2    C5 1940   3.126   0.428   9.193 -0.5272  0.4740  0.0100
  127MPD2     H 1941   3.370   0.510   9.463  2.5590  0.9184 -2.4855
  127MPD2    H1 1942   3.197   0.599   9.097 -1.5513  0.4758  0.8306
  127MPD2    H2 1943   3.086   0.239   9.291 -2.5240  0.0593 -2.3083
  127MPD2    H3 1944   3.066   0.399   9.108 -0.5838  0.8083 -0.0654
  127MPD2     N 1945   3.365   0.690   9.287 -0.1011 -0.0788 -0.1537
  127MPD2    H5 1946   3.443   0.699   9.352 -0.1678  1.8417 -0.3268
  127MPD2    N1 1947   3.261   0.256   9.485 -0.3679 -0.4582 -0.1383
  127MPD2    H7 1948   3.219   0.166   9.469  0.4726 -1.3283  2.6059
  128TCq2    C1 1949   3.357   0.264   9.582 -0.3794 -0.3803  0.3102
  128TCq2    O2 1950   3.434   0.356   9.607 -0.0042  0.1828 -0.1300
  128TCq2    C2 1951   3.392   0.133   9.647 -0.1554 -0.1920  0.1895
  128TCq2    C3 1952   3.517   0.112   9.701 -0.0202  0.1949  0.5964
  128TCq2    C4 1953   3.539   4.722   9.774 -0.0822  0.1491 -0.7105
  128TCq2    C5 1954   3.440   4.630   9.790 -0.3880  0.4264 -0.1050
  128TCq2    C6 1955   3.314   4.675   9.751 -0.3593 -0.7736 -0.0667
  128TCq2    C7 1956   3.291   0.050   9.670 -0.5874  0.0662  0.1696
  128TCq2    C8 1957   3.199   4.598   9.792  0.1938  0.3289 -0.3656
  128TCq2    O4 1958   3.089   4.644   9.775  0.0039 -0.1298 -0.3995
  128TCq2    C9 1959   3.670   4.700   9.825  0.1309 -0.6900 -0.4537
  128TCq2    O5 1960   3.676   4.594   9.888  0.0505  0.3651 -0.4568
  128TCq2    O6 1961   3.743   0.077   9.830 -0.1826  0.0323 -0.1607
  128TCq2    H2 1962   3.601   0.179   9.691  0.5005 -0.0121  3.4111
  128TCq2    H3 1963   3.455   4.551   9.862  0.0605  0.3720 -0.2603
  128TCq2    H4 1964   3.191   0.088   9.649 -0.0981  1.6522  0.6888
  129MPD2     C 1965   2.406   1.461   1.712  0.0227 -0.2337  0.0886
  129MPD2    C1 1966   2.353   1.555   1.623 -0.3337  0.5651 -0.5474
  129MPD2    C2 1967   2.442   1.632   1.548  0.4626 -0.0443 -0.4013
  129MPD2    C3 1968   2.576   1.612   1.556  0.0151  0.4131 -0.0636
  129MPD2    C4 1969   2.624   1.522   1.648 -0.4721  0.3158 -0.1301
  129MPD2    C5 1970   2.543   1.452   1.728  0.0688 -0.2394 -0.3537
  129MPD2     H 1971   2.400   1.708   1.483  0.9189 -0.5114 -1.2391
  129MPD2    H1 1972   2.729   1.519   1.675 -0.9842  2.3559  2.0526
  129MPD2    H2 1973   2.339   1.395   1.766  1.1735  0.5582  2.4707
  129MPD2    H3 1974   2.592   1.386   1.799  0.8130 -0.0133 -0.6519
  129MPD2     N 1975   2.653   1.682   1.465 -0.2364  0.0426  0.3535
  129MPD2    H5 1976   2.603   1.743   1.401 -0.6679 -0.4694  0.2049
  129MPD2    N1 1977   2.215   1.557   1.588 -0.0773  0.4202 -0.1053
  129MPD2    H7 1978   2.181   1.628   1.523 -0.4736  0.4519  0.1345
  130TCq2    C1 1979   2.116   1.479   1.643 -0.5321  0.0186  0.0084
  130TCq2    O2 1980   2.127   1.390   1.728  0.0871  0.4282 -0.0060
  130TCq2    C2 1981   1.984   1.495   1.581  0.3606  0.5158 -0.3232
  130TCq2    C3 1982   1.963   1.592   1.487 -0.4341 -0.4207  0.6101
  130TCq2    C4 1983   1.842   1.596   1.422 -0.1575 -0.4194  0.6494
  130TCq2    C5 1984   1.738   1.511   1.455 -0.0958 -0.2402 -0.1523
  130TCq2    C6 1985   1.766   1.409   1.539 -0.9458 -0.3694  0.2656
  130TCq2    C7 1986   1.889   1.399   1.608 -0.4304 -0.2335 -0.4188
  130TCq2    C8 1987   1.659   1.313   1.588  0.1428  0.3775 -0.1265
  130TCq2    O4 1988   1.548   1.356   1.596 -0.2714 -0.0781  0.4192
  130TCq2    C9 1989   1.811   1.694   1.315 -0.7937 -0.0499 -0.4451
  130TCq2    O5 1990   1.696   1.699   1.256  0.2188 -0.8433 -0.4225
  130TCq2    O6 1991   1.909   1.770   1.291 -0.2210 -0.2368 -0.6257
  130TCq2    H2 1992   2.033   1.669   1.459 -0.0849 -0.5447  1.1312
  130TCq2    H3 1993   1.643   1.527   1.404 -0.4808  0.5655  0.8074
  130TCq2    H4 1994   1.906   1.341   1.699  0.1776  1.1193  0.3327
  131MPD2     C 1995   2.546   0.542  10.683 -0.1756  0.0403  0.1665
  131MPD2    C1 1996   2.454   0.437  10.721  0.0400  0.6870  0.5484
  131MPD2    C2 1997   2.475   0.314  10.668  0.1284 -0.1107  0.3474
  131MPD2    C3 1998   2.581   0.295  10.578 -0.4365 -0.6482 -0.3330
  131MPD2    C4 1999   2.673   0.393  10.554  0.3461  0.5022  0.1359
  131MPD2    C5 2000   2.649   0.520  10.594 -0.6444  0.1157  0.2556
  131MPD2     H 2001   2.410   0.230  10.689 -0.6466 -0.2486 -2.6116
  131MPD2    H1 2002   2.768   0.370  10.505 -0.6524 -1.3297 -0.9353
  131MPD2    H2 2003   2.532   0.642  10.722 -2.1613 -0.0523 -0.3081
  131MPD2    H3 2004   2.712   0.602  10.562 -2.2123  0.7577 -1.1766
  131MPD2     N 2005   2.603   0.169  10.517  0.0720  0.0044 -0.1542
  131MPD2    H5 2006   2.573   0.088  10.571 -0.2375 -0.1796 -0.6024
  131MPD2    N1 2007   2.344   0.474  10.800 -0.1837  0.4561  0.5866
  131MPD2    H7 2008   2.335   0.573  10.820 -1.9939  0.3773  0.1991
  132TCq2    C1 2009   2.183   0.783  10.728 -0.1063 -0.7842  0.5586
  132TCq2    O2 2010   2.303   0.758  10.722 -0.2764 -0.7647  0.0064
  132TCq2    C2 2011   2.092   0.703  10.802  0.9009 -0.4007  0.0443
  132TCq2    C3 2012   1.992   0.656  10.724 -0.1804 -0.5731 -0.0302
  132TCq2    C4 2013   1.957   0.529  10.727 -0.0362 -0.1126 -0.4201
  132TCq2    C5 2014   2.019   0.442  10.815 -0.6876 -0.2278 -0.9156
  132TCq2    C6 2015   2.129   0.485  10.880 -0.2915  0.5492 -0.4090
  132TCq2    C7 2016   2.156   0.617  10.887  0.4886 -0.3398  0.6376
  132TCq2    C8 2017   2.234   0.396  10.841 -0.3439  0.0924  0.7020
  132TCq2    O4 2018   2.210   0.274  10.833  0.1052  0.4108  0.2274
  132TCq2    C9 2019   1.855   0.479  10.638  0.1968  0.0333 -0.3502
  132TCq2    O5 2020   1.825   0.354  10.643  0.4653 -0.7613 -0.3427
  132TCq2    O6 2021   1.813   0.559  10.553 -0.0576  0.1795 -0.4696
  132TCq2    H2 2022   1.943   0.711  10.644 -1.1547 -2.6092 -0.8548
  132TCq2    H3 2023   1.994   0.337  10.808 -2.2205  0.2337 -2.3241
  132TCq2    H4 2024   2.244   0.654  10.938  2.6285 -0.9606 -2.6133
  133MPD2     C 2025   1.499   1.024   9.643  0.2781 -0.0961  0.3334
  133MPD2    C1 2026   1.368   1.064   9.619 -0.3283 -0.2864  0.0639
  133MPD2    C2 2027   1.270   0.999   9.690  0.1678 -0.5570  0.2033
  133MPD2    C3 2028   1.296   0.905   9.789 -1.1623 -0.3432 -0.9512
  133MPD2    C4 2029   1.431   0.881   9.813 -0.3169  0.0013  0.3411
  133MPD2    C5 2030   1.530   0.938   9.742  0.6617  0.1587  0.3817
  133MPD2     H 2031   1.167   1.027   9.674  0.6039  0.6056 -0.6300
  133MPD2    H1 2032   1.465   0.804   9.880  0.8947 -2.3459 -2.9550
  133MPD2    H2 2033   1.578   1.068   9.583  0.1699 -1.3871 -0.7588
  133MPD2    H3 2034   1.635   0.918   9.762  0.6877 -0.4397 -0.3245
  133MPD2     N 2035   1.203   0.828   9.869  0.2606 -0.1340 -0.9603
  133MPD2    H5 2036   1.237   0.767   9.943 -0.0027  1.5984  0.5864
  133MPD2    N1 2037   1.354   1.163   9.525  0.5285 -0.2505  0.0679
  133MPD2    H7 2038   1.437   1.208   9.486 -0.0527  0.8538  0.1203
  134TCq2    C1 2039   1.235   1.208   9.482 -0.0619  0.3753  0.3818
  134TCq2    O2 2040   1.123   1.167   9.508  0.3720 -0.0490 -0.3310
  134TCq2    C2 2041   1.250   1.311   9.383  0.2061 -0.4572 -1.3165
  134TCq2    C3 2042   1.343   1.307   9.286 -0.7677  0.2950 -0.6292
  134TCq2    C4 2043   1.333   1.373   9.171 -0.0594 -0.1971  0.0253
  134TCq2    C5 2044   1.236   1.453   9.142 -0.6480 -0.0223 -0.3117
  134TCq2    C6 2045   1.130   1.447   9.229 -0.2894 -0.0199 -0.8962
  134TCq2    C7 2046   1.135   1.380   9.349  0.7480  0.7920 -0.5709
  134TCq2    C8 2047   1.004   1.504   9.187 -0.3427  0.4840  0.2561
  134TCq2    O4 2048   0.909   1.461   9.245 -0.3671 -0.0944  0.4757
  134TCq2    C9 2049   1.433   1.340   9.073 -0.4744 -0.7216  0.3615
  134TCq2    O5 2050   1.439   1.421   8.975  0.6474  0.6132  0.2171
  134TCq2    O6 2051   1.518   1.252   9.091 -0.0626 -0.6959 -0.0354
  134TCq2    H2 2052   1.429   1.241   9.298 -1.6323 -0.6417  0.4310
  134TCq2    H3 2053   1.227   1.495   9.042  1.2116  0.8303 -0.1150
  134TCq2    H4 2054   1.057   1.387   9.424  0.3611  2.8630 -1.1703
  135MPD2     C 2055   3.250   1.909   9.434 -0.3239 -0.5509  0.4968
  135MPD2    C1 2056   3.283   1.869   9.309  0.3177 -0.0262 -0.5826
  135MPD2    C2 2057   3.406   1.811   9.283 -0.2835  0.3193 -0.6933
  135MPD2    C3 2058   3.497   1.788   9.383  0.6036  0.5421 -0.0226
  135MPD2    C4 2059   3.460   1.824   9.513 -0.2046  0.6121  0.3171
  135MPD2    C5 2060   3.342   1.892   9.538 -0.2894  1.0618 -0.2490
  135MPD2     H 2061   3.428   1.784   9.181 -0.2408  1.0887 -0.8911
  135MPD2    H1 2062   3.538   1.815   9.588  0.5117  1.0055 -0.3774
  135MPD2    H2 2063   3.158   1.964   9.451  0.0940  0.0324  0.8876
  135MPD2    H3 2064   3.326   1.938   9.634 -0.1268 -0.6557  0.6066
  135MPD2     N 2065   3.627   1.733   9.368 -0.0973 -0.1027  0.1347
  135MPD2    H5 2066   3.674   1.711   9.455  3.1539  0.2530 -1.5411
  135MPD2    N1 2067   3.180   1.884   9.220 -0.1259 -0.2208  1.0408
  135MPD2    H7 2068   3.090   1.901   9.262 -0.7434  1.6314 -1.0052
  136TCq2    C1 2069   3.196   1.880   9.084 -0.3157 -0.6180  0.2228
  136TCq2    O2 2070   3.299   1.870   9.023  0.0502  0.3280  0.5949
  136TCq2    C2 2071   3.073   1.932   9.014  0.2460  0.4333 -0.6330
  136TCq2    C3 2072   3.085   1.944   8.878  0.2601 -0.1018 -0.1139
  136TCq2    C4 2073   2.966   1.954   8.808  0.7682 -0.4236 -0.0974
  136TCq2    C5 2074   2.845   1.944   8.866  0.1711  0.3753  0.0565
  136TCq2    C6 2075   2.837   1.943   9.005  0.4313 -0.2008 -0.2959
  136TCq2    C7 2076   2.951   1.944   9.083  0.5390 -0.3479 -0.1174
  136TCq2    C8 2077   2.709   1.969   9.067  1.1030  0.6667 -0.0779
  136TCq2    O4 2078   2.622   2.018   8.996  0.1660  0.2578  0.8294
  136TCq2    C9 2079   2.971   1.948   8.668 -0.5093  0.6882  0.1519
  136TCq2    O5 2080   2.860   1.924   8.608 -0.1156 -0.2851 -0.7397
  136TCq2    O6 2081   3.088   1.956   8.620  0.6250  0.3547 -0.0500
  136TCq2    H2 2082   3.182   1.953   8.830  0.4515 -0.4656  0.2093
  136TCq2    H3 2083   2.752   1.948   8.811  0.1055  0.2659  0.1591
  136TCq2    H4 2084   2.950   1.989   9.182 -1.3988 -0.3403 -0.1390
  137MPD2     C 2085   2.469   0.874   9.333 -0.0956 -0.0037 -0.0373
  137MPD2    C1 2086   2.486   0.993   9.400 -0.2318  0.0777 -0.0525
  137MPD2    C2 2087   2.556   1.000   9.521  1.0419 -0.3495  0.2918
  137MPD2    C3 2088   2.612   0.884   9.571 -0.4860 -0.1723  0.7475
  137MPD2    C4 2089   2.605   0.761   9.505  0.0216 -0.2810  0.5873
  137MPD2    C5 2090   2.534   0.757   9.385 -0.4180  0.0590 -0.2018
  137MPD2     H 2091   2.585   1.097   9.561  1.1728 -0.4678  0.4853
  137MPD2    H1 2092   2.654   0.673   9.544  3.7430  2.0657  1.1823
  137MPD2    H2 2093   2.421   0.872   9.236  0.1534 -1.6440 -0.1156
  137MPD2    H3 2094   2.524   0.662   9.336 -0.5626  0.8981 -1.7825
  137MPD2     N 2095   2.704   0.905   9.678  0.2946 -0.4200 -0.0946
  137MPD2    H5 2096   2.717   1.003   9.704  2.0038 -1.3566  2.6151
  137MPD2    N1 2097   2.429   1.113   9.335 -0.5685 -0.2062 -0.0696
  137MPD2    H7 2098   2.386   1.100   9.244 -0.5349 -1.9980  0.1556
  138TCq2    C1 2099   2.398   1.228   9.403  0.1004 -0.1025  0.4272
  138TCq2    O2 2100   2.385   1.247   9.521  0.0534 -0.5242  0.3934
  138TCq2    C2 2101   2.323   1.324   9.321 -0.3534  0.3801  0.0799
  138TCq2    C3 2102   2.340   1.322   9.185 -0.1401 -0.7347  0.3875
  138TCq2    C4 2103   2.251   1.386   9.103  0.1394 -0.4124 -0.2630
  138TCq2    C5 2104   2.151   1.446   9.160 -0.1519 -0.8251 -0.1591
  138TCq2    C6 2105   2.133   1.459   9.294 -0.0410 -0.3117 -0.2511
  138TCq2    C7 2106   2.226   1.404   9.376 -0.7302 -0.0547  0.1936
  138TCq2    C8 2107   2.019   1.545   9.342  0.0698  1.1355  0.6600
  138TCq2    O4 2108   1.945   1.592   9.260  0.4522  0.0626  0.6656
  138TCq2    C9 2109   2.267   1.402   8.955 -0.8516 -0.4267  0.4462
  138TCq2    O5 2110   2.317   1.301   8.889  0.0859  0.0457  0.7059
  138TCq2    O6 2111   2.216   1.508   8.910 -0.2070 -0.0975  0.0541
  138TCq2    H2 2112   2.425   1.271   9.140  1.5320  1.0519  1.5290
  138TCq2    H3 2113   2.085   1.492   9.087  1.3036  0.3899 -0.7072
  138TCq2    H4 2114   2.219   1.409   9.484 -1.0429 -2.2555  0.2761
  139TMC2    C1 2115   3.056   4.309  13.402 -0.5287  0.2416 -0.4912
  139TMC2    C2 2116   2.967   4.230  13.332 -0.1019  0.3049 -0.0362
  139TMC2    C3 2117   2.835   4.277  13.326  0.3318  0.0780  0.4907
  139TMC2    C4 2118   3.014   4.417  13.475 -0.3329 -0.3780 -0.5508
  139TMC2    C5 2119   2.890   4.460  13.461  0.5419 -0.2674  0.0761
  139TMC2    C6 2120   2.789   4.384  13.400 -0.1387 -0.1922 -0.0234
  139TMC2     C 2121   3.182   4.256  13.446  0.3502 -0.0271  0.5172
  139TMC2     O 2122   3.278   4.331  13.451 -0.4937  0.0995  0.3143
  139TMC2     H 2123   3.004   4.151  13.267  0.4036  0.1759  0.4142
  139TMC2    H1 2124   3.098   4.465  13.524 -1.2509  0.1306  0.5293
  139TMC2    H2 2125   2.685   4.414  13.402  0.1238  0.6526  1.3974
  139TMC2    C7 2126   2.848   4.580  13.530  0.3859  0.0667 -0.3267
  139TMC2    C8 2127   2.734   4.206  13.257  0.3140  0.0402 -0.5047
  139TMC2    O1 2128   2.725   4.603  13.522  0.4637  0.0798  0.0387
  139TMC2    O2 2129   2.620   4.205  13.301  0.5902  0.3391  0.0294
  139TMC2    O5 2130   2.777   4.123  13.162  0.3822 -0.4006  0.1138
  139TMC2    H5 2131   2.864   4.146  13.124  1.1071  0.6311  2.3975
  140MPD2     C 2132   3.259   3.906  13.563  0.5986 -0.3034 -0.2851
  140MPD2    C1 2133   3.283   4.041  13.528 -0.2917  0.0398 -0.1603
  140MPD2    C2 2134   3.412   4.088  13.546  0.3943 -0.3326 -0.3650
  140MPD2    C3 2135   3.513   4.002  13.593 -0.1430  0.2999 -0.5608
  140MPD2    C4 2136   3.491   3.867  13.619 -0.0550  0.1991  0.5057
  140MPD2    C5 2137   3.361   3.819  13.598  0.0825  0.3963 -0.7457
  140MPD2     H 2138   3.433   4.191  13.520 -2.8117  1.4591  4.0677
  140MPD2    H1 2139   3.564   3.797  13.660  1.0020  1.1934  0.3368
  140MPD2    H2 2140   3.163   3.856  13.552  0.8399 -1.4133  2.4461
  140MPD2    H3 2141   3.335   3.715  13.615  0.9918  0.1489 -0.8250
  140MPD2     N 2142   3.644   4.065  13.600  0.2086 -0.1021 -0.2386
  140MPD2    H5 2143   3.655   4.163  13.578 -0.1334 -0.0200 -0.0452
  140MPD2    N1 2144   3.176   4.118  13.475  0.1871 -0.8917  0.4086
  140MPD2    H7 2145   3.087   4.068  13.472 -0.1713 -0.2089 -0.4318
  141TCq2    C1 2146   3.666   0.758  15.014  0.7395  0.9251  0.7745
  141TCq2    O2 2147   3.635   0.810  14.905 -0.3536 -0.3116  0.1730
  141TCq2    C2 2148   3.562   0.743  15.114  0.8300 -0.6389 -0.9479
  141TCq2    C3 2149   3.598   0.754  15.246 -0.2990  0.4689  0.4673
  141TCq2    C4 2150   3.515   0.824  15.330  0.1647  0.2787  0.2923
  141TCq2    C5 2151   3.398   0.881  15.280  0.1577 -0.0011 -0.8942
  141TCq2    C6 2152   3.371   0.862  15.149  0.2262  0.1313 -0.0816
  141TCq2    C7 2153   3.438   0.779  15.068 -0.1993 -0.4756  0.1238
  141TCq2    C8 2154   3.314   0.969  15.079 -0.1189 -0.2376  0.3039
  141TCq2    O4 2155   3.215   1.030  15.124 -0.2812 -0.2692  0.7932
  141TCq2    C9 2156   3.547   0.824  15.470 -0.0288  0.2063 -0.1072
  141TCq2    O5 2157   3.462   0.875  15.551 -0.4642  0.1437 -0.4182
  141TCq2    O6 2158   3.645   0.757  15.511  0.4058 -0.5318  0.3714
  141TCq2    H2 2159   3.692   0.719  15.286  1.6970  1.1569 -3.5561
  141TCq2    H3 2160   3.335   0.939  15.347  1.7918  2.0459 -1.1303
  141TCq2    H4 2161   3.397   0.758  14.970 -1.8840  2.5892  0.1807
  142MPD2     C 2162   0.476   3.127   9.858  0.1154 -0.0418  0.1507
  142MPD2    C1 2163   0.536   3.032   9.925 -0.0044  0.2711  0.4496
  142MPD2    C2 2164   0.672   3.046   9.970 -0.1412  0.5587  0.0822
  142MPD2    C3 2165   0.739   3.172   9.971 -0.4776 -0.6737  0.4303
  142MPD2    C4 2166   0.677   3.263   9.890 -0.0178 -0.1159 -0.3291
  142MPD2    C5 2167   0.558   3.240   9.840  0.0613  0.3645  0.6945
  142MPD2     H 2168   0.706   2.968  10.037 -0.4505  0.9418  0.6877
  142MPD2    H1 2169   0.721   3.361   9.881 -1.6954  0.6594 -0.0651
  142MPD2    H2 2170   0.384   3.120   9.801  0.5182 -0.0008 -0.4969
  142MPD2    H3 2171   0.508   3.328   9.803  1.6264  1.3606  0.9685
  142MPD2     N 2172   0.858   3.204  10.042 -0.7430 -0.3185 -0.4516
  142MPD2    H5 2173   0.897   3.293  10.012  0.2370 -0.4303  0.4742
  142MPD2    N1 2174   0.462   2.909   9.935 -0.0892  0.0965 -0.1109
  142MPD2    H7 2175   0.364   2.915   9.907 -0.1086  2.3086  0.4563
  143TCq2    C1 2176   0.927   3.122  10.126  0.7172  0.2226 -0.4534
  143TCq2    O2 2177   0.907   3.005  10.154  0.3413  0.2801 -0.2175
  143TCq2    C2 2178   1.039   3.179  10.197  0.2989  0.8983  0.5301
  143TCq2    C3 2179   1.119   3.081  10.248 -0.3456  0.8625  0.7103
  143TCq2    C4 2180   1.215   3.119  10.340  0.2377  0.2289 -0.3654
  143TCq2    C5 2181   1.227   3.249  10.377 -0.1213  0.5596 -0.2071
  143TCq2    C6 2182   1.154   3.347  10.315  0.1463 -0.0313 -0.1993
  143TCq2    C7 2183   1.057   3.309  10.222 -0.6295 -0.6521  0.5343
  143TCq2    C8 2184   1.199   3.483  10.322  0.8054 -0.4346 -0.0282
  143TCq2    O4 2185   1.126   3.561  10.256 -0.0975 -0.2058  0.6269
  143TCq2    C9 2186   1.304   3.018  10.390 -0.4005 -0.0635  0.1544
  143TCq2    O5 2187   1.395   3.057  10.467  0.4401 -0.3933  0.0609
  143TCq2    O6 2188   1.281   2.901  10.365  0.2751  0.0744  0.6970
  143TCq2    H2 2189   1.116   2.975  10.227  1.7141  0.3734  2.8539
  143TCq2    H3 2190   1.289   3.272  10.463 -0.1714  0.8500 -0.2497
  143TCq2    H4 2191   0.992   3.379  10.172 -1.1807 -0.7015  1.1894
  144MPD2     C 2192   4.063   3.157   0.675 -0.3070  0.2929 -1.2722
  144MPD2    C1 2193   4.168   3.065   0.663 -0.1670  0.2469 -0.2051
  144MPD2    C2 2194   4.266   3.054   0.756 -0.6709  0.3611 -0.0629
  144MPD2    C3 2195   4.262   3.144   0.864  0.4115  0.0237  0.2093
  144MPD2    C4 2196   4.153   3.225   0.885  0.6725  0.8568 -0.1579
  144MPD2    C5 2197   4.052   3.231   0.788  0.0325 -0.1531 -0.3492
  144MPD2     H 2198   4.347   2.986   0.732 -1.5047 -0.4170 -0.6986
  144MPD2    H1 2199   4.154   3.283   0.977  1.0355 -0.3999  0.6243
  144MPD2    H2 2200   3.975   3.161   0.612 -2.1763 -0.9116  1.2884
  144MPD2    H3 2201   3.959   3.283   0.812  1.0498  0.7975  1.5500
  144MPD2     N 2202   4.352   3.143   0.970  0.0931 -0.1676 -0.0333
  144MPD2    H5 2203   4.341   3.207   1.048 -0.2897  0.7419 -0.8242
  144MPD2    N1 2204   4.168   2.976   0.555 -0.0016  0.4643 -0.3842
  144MPD2    H7 2205   4.242   2.908   0.540  0.6440  0.9616  0.5138
  145TCq2    C1 2206   4.471   3.070   0.969 -0.5424 -0.3717  0.6804
  145TCq2    O2 2207   4.526   3.006   0.882 -0.0760 -0.5286  0.3730
  145TCq2    C2 2208   4.538   3.074   1.097 -0.1787  0.4534  0.0210
  145TCq2    C3 2209   4.657   3.011   1.098  0.5891 -0.6320 -0.5763
  145TCq2    C4 2210   0.002   3.012   1.210  0.5926  0.2662 -0.5538
  145TCq2    C5 2211   4.686   3.082   1.318  0.1385  0.3684  0.3906
  145TCq2    C6 2212   4.559   3.142   1.317 -0.0821  0.4510 -0.2816
  145TCq2    C7 2213   4.479   3.129   1.207 -0.5046 -0.0697 -0.0913
  145TCq2    C8 2214   4.535   3.234   1.417 -0.5010 -0.5304  0.8470
  145TCq2    O4 2215   4.619   3.244   1.509  0.3310  0.0400 -0.0964
  145TCq2    C9 2216   0.141   2.970   1.205 -0.2096  0.4076  0.1314
  145TCq2    O5 2217   0.191   2.953   1.091  0.3660  0.0298  0.4577
  145TCq2    O6 2218   0.200   2.971   1.318 -0.1293 -0.3996  1.0209
  145TCq2    H2 2219   4.704   2.968   1.011 -0.4207  0.0344 -1.4482
  145TCq2    H3 2220   0.022   3.085   1.406  1.7984  1.6728 -0.8360
  145TCq2    H4 2221   4.373   3.148   1.217 -0.4341  0.5929 -0.6149
  146TMC2    C1 2222   0.945   1.924  11.863  0.0408  0.3512  0.1545
  146TMC2    C2 2223   0.865   1.901  11.757 -0.1440 -0.3016 -0.6299
  146TMC2    C3 2224   0.909   1.825  11.651 -0.3773 -0.2190  0.5454
  146TMC2    C4 2225   1.068   1.863  11.870 -0.3161 -0.1120  0.9554
  146TMC2    C5 2226   1.112   1.799  11.759 -0.6909  0.8235  0.3585
  146TMC2    C6 2227   1.038   1.785  11.644  0.8314 -0.2397  0.1087
  146TMC2     C 2228   0.900   2.001  11.978 -0.3560  1.4731 -0.2771
  146TMC2     O 2229   0.802   2.074  11.959 -0.4925  0.0035  0.2267
  146TMC2     H 2230   0.772   1.955  11.757  1.2291  2.0693  2.1331
  146TMC2    H1 2231   1.138   1.888  11.948  1.5142 -1.4318 -0.2904
  146TMC2    H2 2232   1.067   1.731  11.555 -1.4631 -0.2350 -0.6380
  146TMC2    C7 2233   1.225   1.719  11.759  0.1880  0.2713  0.7208
  146TMC2    C8 2234   0.821   1.828  11.537  0.1622 -0.3796 -0.0912
  146TMC2    O1 2235   1.263   1.670  11.654 -0.2427  0.3212  0.5723
  146TMC2    O2 2236   0.851   1.845  11.421  0.6314  0.0926 -0.1934
  146TMC2    O5 2237   0.699   1.819  11.588 -0.4135  0.5424 -0.0113
  146TMC2    H5 2238   0.693   1.790  11.681  0.8919 -1.8859 -0.6915
  147MPD2     C 2239   1.633   1.505  11.957  0.2586  0.2254  0.5906
  147MPD2    C1 2240   1.554   1.541  12.062 -0.4649 -0.0740 -0.0666
  147MPD2    C2 2241   1.435   1.612  12.036 -0.0736  0.2404 -0.4039
  147MPD2    C3 2242   1.403   1.646  11.904  0.5865 -0.3246  0.0835
  147MPD2    C4 2243   1.498   1.627  11.804 -0.0945 -0.7383 -0.5861
  147MPD2    C5 2244   1.618   1.556  11.830 -0.1396  0.4876 -0.1968
  147MPD2     H 2245   1.361   1.634  12.111  0.7709  1.3951  0.0982
  147MPD2    H1 2246   1.481   1.648  11.700  1.7361 -1.2903 -0.9935
  147MPD2    H2 2247   1.728   1.462  11.988  1.1684  0.8397 -1.2940
  147MPD2    H3 2248   1.691   1.536  11.752 -0.8812  0.5042 -0.9016
  147MPD2     N 2249   1.279   1.705  11.885 -0.2586 -0.4705 -0.3133
  147MPD2    H5 2250   1.229   1.746  11.963 -1.2318  2.4898 -2.5036
  147MPD2    N1 2251   1.595   1.487  12.187 -0.3847 -0.3421  0.1067
  147MPD2    H7 2252   1.679   1.430  12.179 -0.4260 -0.1023 -2.1090
  148MPD2     C 2253   0.676   0.920  10.544  0.1217 -0.1757 -0.0030
  148MPD2    C1 2254   0.734   0.810  10.610 -0.2743  0.2255  0.2246
  148MPD2    C2 2255   0.687   0.683  10.580  0.2435  0.1029  0.2465
  148MPD2    C3 2256   0.582   0.655  10.493  0.3033 -0.1360 -0.1726
  148MPD2    C4 2257   0.532   0.759  10.430 -0.1024  0.3981 -0.0971
  148MPD2    C5 2258   0.583   0.889  10.449  0.2833  0.5528 -0.2378
  148MPD2     H 2259   0.735   0.601  10.633  0.0540  1.2213  2.1651
  148MPD2    H1 2260   0.468   0.749  10.343  0.4062  1.0639 -0.5467
  148MPD2    H2 2261   0.707   1.023  10.550 -0.1786 -0.1613  1.2492
  148MPD2    H3 2262   0.558   0.973  10.385  1.1640 -0.2135 -1.5949
  148MPD2     N 2263   0.530   0.526  10.462  0.4186 -0.4142  0.6935
  148MPD2    H5 2264   0.467   0.525  10.382 -0.6438 -1.3712  1.5569
  148MPD2    N1 2265   0.831   0.825  10.718 -0.1107  0.2144  0.2613
  148MPD2    H7 2266   0.865   0.737  10.755  0.5907 -0.4131 -1.8587
  149TCq2    C1 2267   0.901   0.937  10.750 -0.6897  0.4037  0.2866
  149TCq2    O2 2268   0.877   1.053  10.725  0.7165 -0.3413 -0.1297
  149TCq2    C2 2269   1.019   0.921  10.837 -0.0338  0.4035 -0.7407
  149TCq2    C3 2270   1.083   1.035  10.888  0.9927 -0.3765 -0.7051
  149TCq2    C4 2271   1.179   1.013  10.986  0.7918 -0.1080 -0.4937
  149TCq2    C5 2272   1.214   0.887  11.030  0.3005 -0.7822  0.1868
  149TCq2    C6 2273   1.140   0.781  10.981 -0.2759 -0.1096 -0.6195
  149TCq2    C7 2274   1.037   0.802  10.889  0.9261 -0.1954 -0.3007
  149TCq2    C8 2275   1.175   0.645  11.003  0.0831 -0.0256  0.6164
  149TCq2    O4 2276   1.156   0.564  10.918  0.2981  0.1631 -0.2489
  149TCq2    C9 2277   1.268   1.123  11.014 -0.2036 -0.2194 -0.2658
  149TCq2    O5 2278   1.380   1.097  11.060  0.2692  0.2494  0.1240
  149TCq2    O6 2279   1.259   1.224  10.938 -0.7308  0.3284  0.3801
  149TCq2    H2 2280   1.049   1.137  10.872  1.3435 -0.5678 -2.6747
  149TCq2    H3 2281   1.295   0.889  11.103  1.2514  0.6553 -0.8998
  149TCq2    H4 2282   0.975   0.717  10.861  1.3055 -1.3608  2.4161
  150MPD2     C 2283   2.577   4.121  12.238 -0.6163  0.0279 -0.1856
  150MPD2    C1 2284   2.555   4.227  12.154 -0.3825 -0.1314 -0.0227
  150MPD2    C2 2285   2.637   4.336  12.166 -1.1119 -0.4063 -0.5678
  150MPD2    C3 2286   2.738   4.338  12.259  0.0641  0.1156 -0.2257
  150MPD2    C4 2287   2.756   4.231  12.346 -0.1277  0.0316 -0.3980
  150MPD2    C5 2288   2.663   4.135  12.343 -1.0033 -0.1225 -0.0988
  150MPD2     H 2289   2.610   4.425  12.110 -0.1652  0.1067 -0.2148
  150MPD2    H1 2290   2.829   4.227  12.427 -0.2834  2.2059 -0.1460
  150MPD2    H2 2291   2.512   4.034  12.238 -1.6804  0.8291  3.3673
  150MPD2    H3 2292   2.671   4.056  12.416  0.4993  0.7505  0.6792
  150MPD2     N 2293   2.816   4.458  12.273 -0.0198  0.5664 -0.4368
  150MPD2    H5 2294   2.779   4.541  12.227 -1.0176  0.4679  0.1720
  150MPD2    N1 2295   2.463   4.206  12.053 -0.1884 -0.3033 -0.4434
  150MPD2    H7 2296   2.412   4.118  12.053  0.2055 -0.5355  2.6028
  151TCq2    C1 2297   2.934   4.467  12.348  0.6818 -0.6691  0.0334
  151TCq2    O2 2298   3.005   4.374  12.385 -0.0338 -0.1023 -0.0103
  151TCq2    C2 2299   2.987   4.603  12.363 -0.2335 -0.6377  0.0292
  151TCq2    C3 2300   2.935   4.704  12.289  0.3919 -0.5424 -0.0198
  151TCq2    C4 2301   3.002   0.096  12.283 -0.1899 -0.5479 -0.4306
  151TCq2    C5 2302   3.120   0.108  12.347 -0.3744  0.4924 -0.2089
  151TCq2    C6 2303   3.177   0.004  12.418  0.8214 -0.1193 -0.6381
  151TCq2    C7 2304   3.103   4.614  12.437 -0.3582  0.0188 -0.6391
  151TCq2    C8 2305   3.312   0.016  12.468 -0.2110 -0.2557 -0.2944
  151TCq2    O4 2306   3.373   0.122  12.462  0.7104  0.0191  0.0335
  151TCq2    C9 2307   2.961   0.202  12.197  0.3450 -0.0636 -0.2920
  151TCq2    O5 2308   2.862   0.180  12.125 -0.4415 -0.6020 -0.2457
  151TCq2    O6 2309   3.034   0.310  12.203 -0.2411  0.4298  0.4265
  151TCq2    H2 2310   2.838   4.688  12.243 -0.2055 -0.5217  1.2164
  151TCq2    H3 2311   3.175   0.201  12.339  1.1988 -0.6110 -1.9896
  151TCq2    H4 2312   3.139   4.527  12.491  0.8801 -0.2274 -1.8495
  152MPD2     C 2313   2.242   3.944  12.827  0.1748  0.0253  0.3594
  152MPD2    C1 2314   2.266   4.056  12.748 -0.0215 -0.3689 -0.4356
  152MPD2    C2 2315   2.160   4.123  12.692  0.3988  0.3214  0.5372
  152MPD2    C3 2316   2.033   4.083  12.721  0.0087 -0.5938  0.2821
  152MPD2    C4 2317   2.006   3.970  12.797 -0.3318 -0.2414  0.4191
  152MPD2    C5 2318   2.116   3.895  12.845  0.3903 -0.1697 -0.0839
  152MPD2     H 2319   2.180   4.217  12.644  0.2822  0.8235  1.4698
  152MPD2    H1 2320   1.905   3.938  12.821 -0.2342 -0.8076  0.0841
  152MPD2    H2 2321   2.326   3.893  12.873  1.3949  2.0837  0.4659
  152MPD2    H3 2322   2.106   3.804  12.903  1.6278 -0.8132 -0.8810
  152MPD2     N 2323   1.931   4.164  12.670 -0.2460 -0.4253 -0.5708
  152MPD2    H5 2324   1.964   4.241  12.612  0.0502 -1.2492 -1.4894
  152MPD2    N1 2325   2.397   4.096  12.728  0.6669  0.1028  0.1182
  152MPD2    H7 2326   2.466   4.041  12.777 -0.6237  0.0077  1.8172
  153TCq2    C1 2327   2.440   4.219  12.678 -0.4150 -0.9326  0.5979
  153TCq2    O2 2328   2.374   4.312  12.633  0.1950  0.4618 -0.2485
  153TCq2    C2 2329   2.586   4.245  12.684  0.0601  0.3111 -0.0215
  153TCq2    C3 2330   2.680   4.153  12.716  0.2821  0.0709  0.0720
  153TCq2    C4 2331   2.809   4.186  12.730  0.5936  0.3480 -0.0139
  153TCq2    C5 2332   2.846   4.314  12.715 -1.0052  0.9490  0.2978
  153TCq2    C6 2333   2.755   4.414  12.692  0.4161  0.2211  0.4004
  153TCq2    C7 2334   2.625   4.381  12.672 -0.6350  0.5245 -0.1326
  153TCq2    C8 2335   2.797   4.552  12.689 -0.6230  0.7404  0.1859
  153TCq2    O4 2336   2.714   4.641  12.658  0.6508  0.2486 -0.3949
  153TCq2    C9 2337   2.903   4.085  12.775  0.4711  0.5367  0.3877
  153TCq2    O5 2338   3.020   4.125  12.795 -0.2509 -0.1025 -0.1045
  153TCq2    O6 2339   2.864   3.963  12.779 -0.3725 -0.5949  1.0794
  153TCq2    H2 2340   2.655   4.053  12.749 -0.2105  0.1248 -0.1393
  153TCq2    H3 2341   2.953   4.328  12.726 -0.9228 -0.1088  0.8549
  153TCq2    H4 2342   2.554   4.457  12.644  1.2781  1.2025 -3.0793
  154MPD2     C 2343   4.301   4.365   0.300  0.7758  0.0792 -0.0371
  154MPD2    C1 2344   4.323   4.490   0.354 -0.5215  0.6308 -0.1323
  154MPD2    C2 2345   4.236   4.533   0.453  0.7953 -0.2273  0.1494
  154MPD2    C3 2346   4.128   4.457   0.491 -0.0330 -0.6979  0.0290
  154MPD2    C4 2347   4.115   4.333   0.437  0.4290 -0.1648  0.0906
  154MPD2    C5 2348   4.199   4.286   0.348  0.4095  0.9178  0.0592
  154MPD2     H 2349   4.261   4.620   0.513  0.4493  0.7380 -1.1227
  154MPD2    H1 2350   4.028   4.273   0.461 -1.4910  2.6610  0.2096
  154MPD2    H2 2351   4.363   4.316   0.226 -2.1305  0.5123 -2.7492
  154MPD2    H3 2352   4.163   4.201   0.292  3.0156 -1.5347  2.1297
  154MPD2     N 2353   4.035   4.511   0.587  0.0905 -0.5441  0.0498
  154MPD2    H5 2354   4.038   4.610   0.611  2.3699 -0.4788 -0.5140
  154MPD2    N1 2355   4.438   4.562   0.309  0.0589 -0.5606  0.4088
  154MPD2    H7 2356   4.493   4.527   0.232 -0.7072 -1.2148  0.1560
  155TCq2    C1 2357   4.475   4.687   0.353 -0.0071 -0.1767 -0.1998
  155TCq2    O2 2358   4.414   0.038   0.421 -0.0490  0.4573 -0.1833
  155TCq2    C2 2359   4.601   0.004   0.297  0.2280 -0.0920 -0.0494
  155TCq2    C3 2360   4.672   4.650   0.209 -0.1727 -0.2889  0.4645
  155TCq2    C4 2361   0.055   4.704   0.148  0.1108 -0.1564 -0.2245
  155TCq2    C5 2362   0.103   0.104   0.185  0.7273 -0.0183 -0.2757
  155TCq2    C6 2363   0.033   0.175   0.279 -0.0468 -0.0173  0.1713
  155TCq2    C7 2364   4.644   0.127   0.336  0.2454  0.4349 -0.1777
  155TCq2    C8 2365   0.096   0.294   0.334  0.5267 -0.3067 -0.9803
  155TCq2    O4 2366   0.219   0.285   0.351  0.4375 -0.8230 -0.2413
  155TCq2    C9 2367   0.132   4.630   0.054  0.2679  0.1646  0.5804
  155TCq2    O5 2368   0.092   4.524   0.003 -0.0490  0.5494 -0.2157
  155TCq2    O6 2369   0.230   4.693   0.008  0.0336 -0.6306  0.5506
  155TCq2    H2 2370   4.636   4.556   0.167  2.3557 -0.5741 -1.0148
  155TCq2    H3 2371   0.192   0.144   0.137  0.1039  1.6212 -0.0539
  155TCq2    H4 2372   4.583   0.199   0.387  1.0249 -0.0031  1.3787
  156MPD2     C 2373   2.704   1.466  12.235  0.9458 -0.3460 -0.0201
  156MPD2    C1 2374   2.679   1.580  12.157 -0.4718 -1.4093  0.1864
  156MPD2    C2 2375   2.741   1.694  12.193 -0.2250  0.1677  0.2957
  156MPD2    C3 2376   2.844   1.693  12.292 -0.0541  0.1534 -0.0802
  156MPD2    C4 2377   2.860   1.583  12.367  0.4218 -0.1062  0.0966
  156MPD2    C5 2378   2.779   1.470  12.347 -0.1536 -0.1248 -0.5935
  156MPD2     H 2379   2.707   1.787  12.150 -1.1836 -0.7912 -1.0058
  156MPD2    H1 2380   2.927   1.583  12.452 -2.2556 -1.2760  2.2180
  156MPD2    H2 2381   2.655   1.375  12.202  1.0883 -0.4385  0.0238
  156MPD2    H3 2382   2.797   1.382  12.408  0.7138  1.4284  1.3790
  156MPD2     N 2383   2.910   1.811  12.316  0.0391 -0.3677 -0.2164
  156MPD2    H5 2384   2.890   1.881  12.245  1.0175  0.7839  0.6395
  156MPD2    N1 2385   2.588   1.570  12.041 -0.0159 -0.2846  0.4134
  156MPD2    H7 2386   2.537   1.483  12.037  0.0201 -0.1865 -2.2627
  157TCq2    C1 2387   2.561   1.669  11.949 -0.2435  0.2869 -0.3695
  157TCq2    O2 2388   2.623   1.773  11.931 -0.2206 -0.1852  0.3498
  157TCq2    C2 2389   2.458   1.636  11.852  0.2173 -1.1037  0.3495
  157TCq2    C3 2390   2.341   1.578  11.887  0.0972 -0.5046 -0.1598
  157TCq2    C4 2391   2.243   1.570  11.794 -0.2085 -0.2092 -0.2025
  157TCq2    C5 2392   2.259   1.634  11.667  0.5436 -0.9569 -0.6663
  157TCq2    C6 2393   2.385   1.684  11.630 -0.4029 -0.1225  0.1630
  157TCq2    C7 2394   2.475   1.698  11.733 -0.4150  0.0675  0.0482
  157TCq2    C8 2395   2.418   1.766  11.514 -0.2217  0.3685 -0.7117
  157TCq2    O4 2396   2.515   1.836  11.527 -0.3546 -0.0344 -0.1983
  157TCq2    C9 2397   2.112   1.505  11.825  0.5371  0.3726  0.0636
  157TCq2    O5 2398   2.111   1.443  11.934 -0.0221  0.3955 -0.5273
  157TCq2    O6 2399   2.027   1.510  11.740 -0.1123 -0.1862 -0.5239
  157TCq2    H2 2400   2.321   1.540  11.987  2.2116  2.2917  1.3426
  157TCq2    H3 2401   2.175   1.656  11.602 -0.4754  1.9020  1.6243
  157TCq2    H4 2402   2.580   1.725  11.722 -0.7197  1.7748  1.3012
  158TMC2    C1 2403   2.975   0.872  13.232  0.1922  0.0442 -0.2138
  158TMC2    C2 2404   3.021   0.962  13.138  0.1271 -0.1486 -0.5249
  158TMC2    C3 2405   2.937   1.058  13.095  1.1244  0.4342  0.9726
  158TMC2    C4 2406   2.847   0.884  13.289  0.8240  0.0279  0.0318
  158TMC2    C5 2407   2.761   0.976  13.234 -0.0715  0.2246  0.2498
  158TMC2    C6 2408   2.808   1.065  13.139  0.1118  0.3847  0.0265
  158TMC2     C 2409   3.069   0.818  13.315  0.4868 -0.1140  0.3791
  158TMC2     O 2410   3.176   0.793  13.260 -0.0394 -0.4268 -0.3502
  158TMC2     H 2411   3.124   0.967  13.105 -0.3451  0.0116 -1.9895
  158TMC2    H1 2412   2.817   0.800  13.351  1.1082 -0.4126 -0.4306
  158TMC2    H2 2413   2.744   1.123  13.074 -1.4730  0.8761  2.0231
  158TMC2    C7 2414   2.618   0.975  13.256 -0.3236  0.6605  0.3636
  158TMC2    C8 2415   2.981   1.156  13.003 -0.6368  0.3370  1.1720
  158TMC2    O1 2416   2.542   1.036  13.184 -0.1509  0.6635  0.5267
  158TMC2    O2 2417   2.936   1.268  12.992 -0.0542  0.3238 -0.1580
  158TMC2    O5 2418   3.044   1.083  12.916  0.1718 -0.1386 -0.5387
  158TMC2    H5 2419   3.051   0.991  12.947  1.0136  0.1119  0.0295
  159MPD2     C 2420   3.298   0.744  13.758 -0.0600  0.0105 -0.0331
  159MPD2    C1 2421   3.183   0.821  13.785  0.5824 -0.1673  0.6930
  159MPD2    C2 2422   3.098   0.842  13.677  0.2027  0.2466  0.2356
  159MPD2    C3 2423   3.127   0.795  13.550 -0.0138 -0.0141 -0.1034
  159MPD2    C4 2424   3.246   0.736  13.534  0.5079 -0.2148 -0.0808
  159MPD2    C5 2425   3.329   0.702  13.632  0.0422 -0.6813  0.1746
  159MPD2     H 2426   3.012   0.907  13.693 -2.1223 -2.6260 -0.5866
  159MPD2    H1 2427   3.271   0.693  13.437 -0.6305 -0.5724 -0.2199
  159MPD2    H2 2428   3.363   0.718  13.840  2.3131  1.7508 -1.3768
  159MPD2    H3 2429   3.421   0.646  13.618  0.7988  0.5908 -0.0010
  159MPD2     N 2430   3.038   0.826  13.452  0.1056  0.0147 -0.1270
  159MPD2    H5 2431   2.949   0.865  13.480  0.0701 -0.1326 -0.0402
  159MPD2    N1 2432   3.166   0.871  13.917 -0.1730  0.0237  0.1156
  159MPD2    H7 2433   3.238   0.844  13.984 -0.2005  0.4843  0.3335
  160TMC2    C1 2434   2.188   4.448   0.287  0.7015  0.2342  0.2922
  160TMC2    C2 2435   2.214   4.534   0.392 -0.4235  0.7283  1.1194
  160TMC2    C3 2436   2.345   4.595   0.397  0.1245  0.2955  0.0818
  160TMC2    C4 2437   2.283   4.414   0.195  0.3177 -0.0407 -0.5327
  160TMC2    C5 2438   2.406   4.475   0.207  0.4020  0.1541  0.1057
  160TMC2    C6 2439   2.437   4.570   0.305 -0.5530  0.0361 -0.5446
  160TMC2     C 2440   2.045   4.396   0.270  0.2089  1.1405 -0.1375
  160TMC2     O 2441   2.021   4.331   0.168 -0.1209  0.1042  0.0185
  160TMC2     H 2442   2.140   4.571   0.463  1.1900  3.3020  1.4475
  160TMC2    H1 2443   2.268   4.348   0.111  0.4919 -0.6276 -0.1074
  160TMC2    H2 2444   2.537   4.611   0.312 -0.5441 -0.4803  2.2766
  160TMC2    C7 2445   2.515   4.412   0.135  0.1418 -0.0340 -0.2337
  160TMC2    C8 2446   2.374   4.702   0.492 -0.4553 -0.3965  0.3793
  160TMC2    O1 2447   2.498   4.361   0.023  0.2294 -0.1759  0.4672
  160TMC2    O2 2448   2.447   0.067   0.465 -0.0462  0.0936  0.1591
  160TMC2    O5 2449   2.345   4.651   0.616 -0.2761 -0.2545 -0.3540
  160TMC2    H5 2450   2.287   4.572   0.618  1.2653 -1.3750  0.3954
  161MPD2     C 2451   1.828   4.241   0.386  0.3355  0.7801 -0.5648
  161MPD2    C1 2452   1.845   4.375   0.414 -0.4411  0.1258 -0.0337
  161MPD2    C2 2453   1.754   4.447   0.492  0.1835  0.0952  0.0930
  161MPD2    C3 2454   1.651   4.387   0.553 -0.6305  0.1369 -0.2829
  161MPD2    C4 2455   1.630   4.258   0.530  0.4499  0.0152 -0.0389
  161MPD2    C5 2456   1.721   4.190   0.445  1.0401  0.3376 -0.4554
  161MPD2     H 2457   1.781   4.551   0.511 -0.8899  0.2288  0.9264
  161MPD2    H1 2458   1.550   4.198   0.571 -0.3085  0.9111 -0.2217
  161MPD2    H2 2459   1.895   4.177   0.329 -0.0740 -0.3380  0.1931
  161MPD2    H3 2460   1.707   4.084   0.427  1.2526 -0.1062  1.9167
  161MPD2     N 2461   1.559   4.454   0.639  0.0289  0.4566  0.6771
  161MPD2    H5 2462   1.490   4.403   0.694  1.5978 -0.1946  2.0318
  161MPD2    N1 2463   1.966   4.446   0.371  0.0081 -0.2344 -0.3556
  161MPD2    H7 2464   1.993   4.537   0.405 -2.2464 -0.6257  2.5582
  162TMC2    C1 2465   0.836   1.664   0.954  0.0098 -0.3212  0.0621
  162TMC2    C2 2466   0.782   1.775   0.895 -0.0328 -0.1464 -0.5374
  162TMC2    C3 2467   0.689   1.848   0.960 -0.3678 -0.6889  0.7477
  162TMC2    C4 2468   0.800   1.628   1.083 -0.1953  0.7748 -1.1712
  162TMC2    C5 2469   0.714   1.710   1.150 -0.1736 -0.5115  0.1512
  162TMC2    C6 2470   0.656   1.820   1.088  0.2052 -0.1575  1.1122
  162TMC2     C 2471   0.961   1.609   0.907 -0.1099 -0.1029  0.4496
  162TMC2     O 2472   1.017   1.531   0.986 -0.0400 -0.5193 -0.1009
  162TMC2     H 2473   0.798   1.783   0.788  0.1263 -1.1840 -0.5911
  162TMC2    H1 2474   0.820   1.528   1.118  1.1708  0.7364 -2.0425
  162TMC2    H2 2475   0.592   1.881   1.151  2.2699  1.7936  1.3257
  162TMC2    C7 2476   0.634   1.652   1.259 -0.3185  0.1124 -0.2619
  162TMC2    C8 2477   0.626   1.966   0.899  0.0587  0.3154 -0.2896
  162TMC2    O1 2478   0.525   1.705   1.280  0.2800  0.8962 -0.1092
  162TMC2    O2 2479   0.533   2.025   0.954 -0.2217  0.0700 -0.5266
  162TMC2    O5 2480   0.726   2.036   0.843 -0.2210  0.1387 -0.0351
  162TMC2    H5 2481   0.803   1.980   0.820 -1.2037 -0.6802 -1.3206
  163MPD2     C 2482   1.270   1.528   0.513  0.4741 -0.1633 -0.0608
  163MPD2    C1 2483   1.234   1.442   0.615  0.7105  0.3442  0.1997
  163MPD2    C2 2484   1.156   1.488   0.716  0.5065  0.0668  0.6452
  163MPD2    C3 2485   1.104   1.619   0.709  0.0862  1.0343  0.0046
  163MPD2    C4 2486   1.135   1.699   0.603 -0.2750  0.7060 -0.2115
  163MPD2    C5 2487   1.217   1.654   0.502  0.1424 -0.0185 -0.8197
  163MPD2     H 2488   1.129   1.423   0.798  3.1156 -1.1223  0.5590
  163MPD2    H1 2489   1.083   1.792   0.581  0.5331  1.0398 -0.7245
  163MPD2    H2 2490   1.340   1.496   0.437  0.8051  1.6812 -0.5430
  163MPD2    H3 2491   1.246   1.721   0.422  0.4245  0.9706  0.1094
  163MPD2     N 2492   1.007   1.670   0.797  0.0887  0.1023  0.1014
  163MPD2    H5 2493   0.963   1.759   0.779 -0.1328 -0.2740 -1.2171
  163MPD2    N1 2494   1.282   1.306   0.618  0.2594 -0.0708 -0.8122
  163MPD2    H7 2495   1.333   1.288   0.532  1.8816  0.5168  0.0303
  164TCq2    C1 2496   1.535   0.626  11.558  0.0978  0.7721 -0.0967
  164TCq2    O2 2497   1.457   0.594  11.650  1.0614  0.3410  0.2554
  164TCq2    C2 2498   1.487   0.742  11.484  0.6235  1.1028  0.4452
  164TCq2    C3 2499   1.562   0.801  11.383 -0.2220 -0.1559  0.2025
  164TCq2    C4 2500   1.533   0.928  11.348 -0.5455 -0.0230  0.5156
  164TCq2    C5 2501   1.454   1.012  11.419  0.2208  0.0542 -0.0902
  164TCq2    C6 2502   1.383   0.953  11.522 -0.5963 -1.0759 -0.2336
  164TCq2    C7 2503   1.396   0.818  11.555  0.0034  0.9655 -0.0456
  164TCq2    C8 2504   1.279   1.032  11.586 -0.2218 -0.4927  0.1741
  164TCq2    O4 2505   1.248   1.139  11.541 -0.0168  0.3699 -0.4075
  164TCq2    C9 2506   1.621   0.992  11.242  0.1819  0.0336 -0.0872
  164TCq2    O5 2507   1.633   1.115  11.249 -0.3699 -0.0719 -0.1213
  164TCq2    O6 2508   1.680   0.928  11.152 -0.0199 -0.2079 -0.6926
  164TCq2    H2 2509   1.629   0.737  11.326  0.5098  2.0164 -1.3444
  164TCq2    H3 2510   1.454   1.120  11.404 -2.8388 -0.0432 -0.8665
  164TCq2    H4 2511   1.325   0.771  11.623  2.2126 -0.9929  0.9517
  165MPD2     C 2512   1.556   2.849   1.191 -0.2394  0.4651  0.5242
  165MPD2    C1 2513   1.695   2.852   1.198  0.3111  0.7630  0.4023
  165MPD2    C2 2514   1.764   2.962   1.152 -0.0295  0.1248  0.7829
  165MPD2    C3 2515   1.699   3.071   1.103 -0.2908 -0.0039 -0.1904
  165MPD2    C4 2516   1.565   3.062   1.091 -0.2857  0.7362  1.1219
  165MPD2    C5 2517   1.495   2.957   1.137 -0.0444  0.8421  0.3003
  165MPD2     H 2518   1.871   2.969   1.170  0.3440 -0.1184 -1.3047
  165MPD2    H1 2519   1.520   3.153   1.051  0.9388  0.8104 -0.0883
  165MPD2    H2 2520   1.514   2.769   1.251  3.3000 -2.7702 -1.3177
  165MPD2    H3 2521   1.386   2.956   1.132  0.0271  0.3582 -1.2149
  165MPD2     N 2522   1.764   3.188   1.061  0.1141  0.2718  0.0951
  165MPD2    H5 2523   1.706   3.268   1.038 -0.7647 -0.8879 -1.7251
  165MPD2    N1 2524   1.750   2.729   1.244 -0.6655  0.1151 -0.2854
  165MPD2    H7 2525   1.683   2.662   1.279 -0.6604  0.6162  0.6685
  166TCq2    C1 2526   1.901   3.207   1.042 -0.5511 -0.4178 -0.0551
  166TCq2    O2 2527   2.000   3.139   1.075  0.3715 -0.1515  0.9597
  166TCq2    C2 2528   1.937   3.329   0.971 -0.2233  0.3605  0.3545
  166TCq2    C3 2529   1.839   3.415   0.929 -0.0812  0.5855  0.2250
  166TCq2    C4 2530   1.878   3.529   0.862 -0.0758 -0.1071  0.1152
  166TCq2    C5 2531   2.013   3.553   0.837 -0.1400 -0.1197  0.2432
  166TCq2    C6 2532   2.101   3.455   0.866  0.4329  0.3840  0.1970
  166TCq2    C7 2533   2.063   3.341   0.937 -0.0068  0.3729 -0.2715
  166TCq2    C8 2534   2.244   3.472   0.839 -0.0297  0.0632 -0.6289
  166TCq2    O4 2535   2.313   3.374   0.855  0.2161 -0.5188 -0.0615
  166TCq2    C9 2536   1.775   3.620   0.813 -0.4273  0.0386  0.2558
  166TCq2    O5 2537   1.805   3.713   0.732 -0.8104 -0.3141  0.2951
  166TCq2    O6 2538   1.659   3.598   0.860 -0.1870 -0.0811 -0.3330
  166TCq2    H2 2539   1.732   3.404   0.947 -0.1192 -1.0804 -1.0211
  166TCq2    H3 2540   2.041   3.651   0.799  0.4906  0.2213  1.6016
  166TCq2    H4 2541   2.139   3.264   0.947 -0.7955 -0.6307 -1.9671
  167TMC2    C1 2542   1.115   0.694  12.742  0.2492  0.3896  0.5657
  167TMC2    C2 2543   1.034   0.786  12.807 -0.2561  0.2671 -0.3608
  167TMC2    C3 2544   0.974   0.739  12.923  0.3458  0.0949 -0.2996
  167TMC2    C4 2545   1.114   0.559  12.777 -0.5735 -0.6714 -0.4733
  167TMC2    C5 2546   1.053   0.526  12.895 -0.2522  0.9030  0.1742
  167TMC2    C6 2547   0.975   0.611  12.962 -0.7007  0.6691 -0.1456
  167TMC2     C 2548   1.142   0.706  12.597 -0.4243  0.1174  0.2872
  167TMC2     O 2549   1.159   0.821  12.566 -0.3795  0.2377  0.2512
  167TMC2     H 2550   1.035   0.894  12.792  0.2142 -0.0099 -2.3376
  167TMC2    H1 2551   1.181   0.488  12.731 -1.6559 -1.8843 -0.1701
  167TMC2    H2 2552   0.921   0.595  13.055 -1.6822 -0.7020 -0.9601
  167TMC2    C7 2553   1.007   0.385  12.898  0.0466 -0.1650  0.6218
  167TMC2    C8 2554   0.859   0.815  12.961 -0.4556 -0.4947  0.5602
  167TMC2    O1 2555   0.928   0.363  12.984  0.4090 -0.4100  0.2629
  167TMC2    O2 2556   0.825   0.794  13.077 -0.1319  0.6797  0.0166
  167TMC2    O5 2557   0.774   0.826  12.854 -1.1872  0.4031  0.2644
  167TMC2    H5 2558   0.815   0.826  12.765  0.3728  1.5221  0.9733
  168MPD2     C 2559   1.183   0.687  12.304 -0.6787  0.4386  0.3652
  168MPD2    C1 2560   1.140   0.586  12.392 -1.0209 -0.0863  0.4289
  168MPD2    C2 2561   1.100   0.469  12.329 -0.4327  0.5918 -0.0627
  168MPD2    C3 2562   1.101   0.450  12.193  0.1277 -0.0391 -0.8373
  168MPD2    C4 2563   1.164   0.549  12.115  0.3833 -0.6487  0.4775
  168MPD2    C5 2564   1.200   0.669  12.173  0.2122 -1.0463 -0.6023
  168MPD2     H 2565   1.053   0.395  12.392 -2.9138  2.8099  0.6982
  168MPD2    H1 2566   1.179   0.548  12.007 -3.0320  1.9474 -0.0111
  168MPD2    H2 2567   1.226   0.774  12.354 -1.0339 -0.0152  1.4686
  168MPD2    H3 2568   1.241   0.748  12.111 -2.6523 -1.6598 -3.3199
  168MPD2     N 2569   1.030   0.347  12.120  0.4633 -0.2775  0.0881
  168MPD2    H5 2570   1.020   0.369  12.021 -0.9986 -0.2088  0.2453
  168MPD2    N1 2571   1.127   0.594  12.526 -0.2611 -0.0981 -0.4756
  168MPD2    H7 2572   1.104   0.507  12.573  3.9015 -1.1745 -0.4197
  169MPD1     C 2573   3.644   0.841   8.977  0.6299  0.6767 -0.1536
  169MPD1    C1 2574   3.759   0.827   9.050 -0.1667 -0.2771 -0.7018
  169MPD1    C2 2575   3.794   0.705   9.110  0.5395  0.4043 -0.3804
  169MPD1    C3 2576   3.698   0.605   9.102  0.1025  0.2026 -0.4012
  169MPD1    C4 2577   3.586   0.618   9.021 -1.0364 -0.5983 -0.2699
  169MPD1    C5 2578   3.560   0.735   8.956  0.5132  0.1473 -0.2810
  169MPD1     H 2579   3.893   0.681   9.145  1.7540  2.5401 -2.3374
  169MPD1    H1 2580   3.521   0.533   9.000  2.2461 -3.3086  0.5183
  169MPD1    H2 2581   3.612   0.929   8.921  1.9099  0.0856 -1.8192
  169MPD1    H3 2582   3.471   0.732   8.894 -0.4875  2.6699  1.0588
  169MPD1     N 2583   3.722   0.481   9.171 -0.2714  0.0216 -0.0351
  169MPD1    H5 2584   3.798   0.488   9.239 -0.6514  0.2739  0.3647
  169MPD1    N1 2585   3.851   0.934   9.032 -0.1714  0.3679 -0.3223
  169MPD1    H6 2586   3.918   0.932   9.109 -1.5587  1.8547  0.9404
  169MPD1    H7 2587   3.807   1.026   9.026 -1.1657 -0.1276 -0.6061
  170MPD1     C 2588   1.232   2.327  13.403 -0.0153  0.4837 -0.4297
  170MPD1    C1 2589   1.343   2.280  13.465 -0.7867 -0.7517  0.7623
  170MPD1    C2 2590   1.428   2.365  13.528 -0.0462  0.3697  0.2581
  170MPD1    C3 2591   1.386   2.495  13.551 -0.0268 -0.1587  0.2193
  170MPD1    C4 2592   1.278   2.550  13.477 -0.0397  0.3420  0.7449
  170MPD1    C5 2593   1.199   2.463  13.412  0.0241  0.1161  0.1586
  170MPD1     H 2594   1.517   2.323  13.573  0.7119  1.7544  0.0457
  170MPD1    H1 2595   1.250   2.654  13.489  2.8051  1.2901 -0.9490
  170MPD1    H2 2596   1.166   2.256  13.354 -0.2040  0.8528 -0.7043
  170MPD1    H3 2597   1.102   2.491  13.373  0.5625  0.3670 -0.9675
  170MPD1     N 2598   1.475   2.571  13.628 -0.1740  0.5301  0.8265
  170MPD1    H5 2599   1.552   2.517  13.667 -0.2257  0.5184  0.9117
  170MPD1    N1 2600   1.376   2.144  13.463  0.1132 -1.1917  0.2373
  170MPD1    H6 2601   1.349   2.106  13.372 -0.8748 -1.4521  0.6330
  170MPD1    H7 2602   1.477   2.133  13.470  0.3393  0.4691 -0.3452
  171MPD1     C 2603   0.075   3.965  16.190  0.2855  0.6736  0.5646
  171MPD1    C1 2604   0.052   3.836  16.147 -0.1485 -0.6545  0.9351
  171MPD1    C2 2605   0.145   3.747  16.189 -0.4662 -0.1403 -0.2565
  171MPD1    C3 2606   0.265   3.784  16.254 -0.4181 -0.4846 -0.3291
  171MPD1    C4 2607   0.277   3.913  16.301 -0.1276  0.2159  0.1822
  171MPD1    C5 2608   0.179   4.000  16.263 -0.2661  0.2882  0.0987
  171MPD1     H 2609   0.144   3.644  16.154 -2.3427 -0.5776  1.0756
  171MPD1    H1 2610   0.368   3.941  16.353  0.0628 -0.2073  0.0790
  171MPD1    H2 2611   4.726   4.039  16.164 -0.8663 -0.3828  0.9302
  171MPD1    H3 2612   0.202   4.102  16.291 -0.9609  0.5104 -0.1381
  171MPD1     N 2613   0.368   3.697  16.295  0.2990 -0.3795 -0.1192
  171MPD1    H5 2614   0.439   3.747  16.346 -1.9147  3.5159 -0.8791
  171MPD1    N1 2615   4.657   3.803  16.083  0.4097  0.0584 -0.2229
  171MPD1    H6 2616   4.627   3.868  16.012  2.4818  0.0343 -1.1200
  171MPD1    H7 2617   4.675   3.711  16.044  0.0222  1.0685 -2.7821
  172MPD1     C 2618   0.005   3.582   1.402  0.7951  0.4254  0.0818
  172MPD1    C1 2619   4.620   3.637   1.342  0.0009 -0.0410 -0.5032
  172MPD1    C2 2620   4.591   3.594   1.218 -0.3016 -0.4924 -0.7513
  172MPD1    C3 2621   4.655   3.485   1.156 -0.2308  0.0167  0.2714
  172MPD1    C4 2622   0.033   3.431   1.215  0.2023 -0.2715 -0.0183
  172MPD1    C5 2623   0.075   3.474   1.337 -0.3681 -0.2352 -0.3895
  172MPD1     H 2624   4.518   3.646   1.156  1.6113  1.7821 -1.0811
  172MPD1    H1 2625   0.088   3.348   1.172  0.2298  0.3954 -1.2672
  172MPD1    H2 2626   0.042   3.616   1.498  0.0159  3.1828 -0.5913
  172MPD1    H3 2627   0.156   3.420   1.385  1.0848  1.7030 -0.6720
  172MPD1     N 2628   4.619   3.433   1.030  0.5555  0.4186  0.7129
  172MPD1    H5 2629   4.678   3.359   0.994 -1.4129 -0.8716  0.1014
  172MPD1    N1 2630   4.564   3.752   1.392  0.5903  0.2470  0.2815
  172MPD1    H6 2631   4.547   3.736   1.491  0.6596  3.1234  0.7595
  172MPD1    H7 2632   4.469   3.756   1.358  0.0119 -1.4392  1.6944
  173MPD1     C 2633   1.203   2.878  14.494  0.0769 -0.8528  0.9280
  173MPD1    C1 2634   1.077   2.838  14.455  0.2287 -0.4258 -0.2212
  173MPD1    C2 2635   1.010   2.745  14.527  0.2946 -0.1166 -0.5222
  173MPD1    C3 2636   1.069   2.681  14.632  0.5104 -0.0326 -0.4569
  173MPD1    C4 2637   1.196   2.719  14.677 -0.1992 -0.2454  0.6745
  173MPD1    C5 2638   1.264   2.809  14.600  0.0960  0.3650 -0.4264
  173MPD1     H 2639   0.907   2.728  14.498  0.5165 -1.6192 -0.4103
  173MPD1    H1 2640   1.240   2.679  14.767  2.8966  3.0336  0.5937
  173MPD1    H2 2641   1.261   2.952  14.439  0.8927 -3.1783 -1.3699
  173MPD1    H3 2642   1.366   2.831  14.632  0.5354  0.3817 -1.8189
  173MPD1     N 2643   0.986   2.586  14.703 -0.1872 -0.6394  0.2516
  173MPD1    H5 2644   0.891   2.563  14.675 -0.6605 -0.9264  2.0929
  173MPD1    N1 2645   1.001   2.922  14.366 -0.1767 -0.0937  0.6964
  173MPD1    H6 2646   0.921   2.873  14.327  0.0628 -0.0932  0.2030
  173MPD1    H7 2647   1.061   2.969  14.298 -0.2036  1.0344  1.4433
  174MPD1     C 2648   1.380   2.308  15.423  0.2102 -0.2097 -0.4780
  174MPD1    C1 2649   1.253   2.276  15.469  0.1190  0.1507 -0.9530
  174MPD1    C2 2650   1.144   2.251  15.383  0.4193  0.2765  0.3135
  174MPD1    C3 2651   1.171   2.271  15.244 -0.5784  0.3220 -0.0548
  174MPD1    C4 2652   1.303   2.302  15.200 -0.4658  0.0309 -0.0441
  174MPD1    C5 2653   1.402   2.326  15.288  0.1110 -0.0459  0.5665
  174MPD1     H 2654   1.045   2.236  15.424  0.2526 -0.0018 -0.1960
  174MPD1    H1 2655   1.331   2.308  15.096 -0.3037 -0.7547 -0.0450
  174MPD1    H2 2656   1.456   2.343  15.493 -0.9680  1.0937  0.1724
  174MPD1    H3 2657   1.501   2.352  15.254  0.3353 -0.5620  0.8247
  174MPD1     N 2658   1.082   2.260  15.141  0.4669  0.7280 -0.2068
  174MPD1    H5 2659   1.127   2.262  15.051  1.7661  1.8714  0.4653
  174MPD1    N1 2660   1.232   2.286  15.609 -0.3499  0.0737  0.0019
  174MPD1    H6 2661   1.176   2.206  15.638  0.3331 -0.5898 -0.5165
  174MPD1    H7 2662   1.319   2.285  15.662  0.5489  1.3542 -1.4660
  175MPD1     C 2663   0.242   3.108  16.175 -0.1171 -0.0042 -0.4906
  175MPD1    C1 2664   0.115   3.156  16.126  0.1079  0.2714 -0.4003
  175MPD1    C2 2665   0.016   3.185  16.211 -0.4297  0.1063 -0.0689
  175MPD1    C3 2666   0.027   3.154  16.346 -0.0312 -0.0049 -0.2905
  175MPD1    C4 2667   0.146   3.106  16.399  0.1177 -0.8168 -0.3958
  175MPD1    C5 2668   0.254   3.082  16.309 -0.0951 -0.0176 -0.1533
  175MPD1     H 2669   4.648   3.211  16.166 -0.1269  1.1080 -0.1233
  175MPD1    H1 2670   0.170   3.059  16.493  0.8834  1.6319  0.6195
  175MPD1    H2 2671   0.325   3.085  16.109  0.1971 -0.9199  0.2294
  175MPD1    H3 2672   0.346   3.042  16.349 -0.4335  0.5262  1.1394
  175MPD1     N 2673   4.641   3.171  16.428  0.5393  0.7080 -0.5541
  175MPD1    H5 2674   4.666   3.153  16.525 -0.9288  3.4263  0.3117
  175MPD1    N1 2675   0.084   3.148  15.989 -0.2251 -0.3900 -0.3248
  175MPD1    H6 2676   0.007   3.203  15.952  0.8744  0.1574 -1.8085
  175MPD1    H7 2677   0.157   3.178  15.926  0.5379  1.5588  1.4935
  176MPD1     C 2678   4.720   1.938  17.148 -0.8321  0.4062 -0.3936
  176MPD1    C1 2679   0.112   1.978  17.189 -0.1786 -0.8742  0.3866
  176MPD1    C2 2680   0.197   1.884  17.238 -0.1111 -0.0487  0.2046
  176MPD1    C3 2681   0.166   1.747  17.231 -0.2472 -0.1789 -0.1076
  176MPD1    C4 2682   0.047   1.709  17.180 -0.3714 -0.1001 -0.6025
  176MPD1    C5 2683   4.681   1.807  17.145  0.0516 -0.8637 -0.0516
  176MPD1     H 2684   0.296   1.910  17.276 -0.0937  1.6487 -1.0164
  176MPD1    H1 2685   0.012   1.606  17.189  2.3227 -1.0108 -0.5894
  176MPD1    H2 2686   4.657   2.014  17.103 -1.7655 -1.0230 -1.4819
  176MPD1    H3 2687   4.580   1.770  17.134 -0.0886 -1.2099  2.5408
  176MPD1     N 2688   0.259   1.647  17.274 -0.4469  0.5728  0.2085
  176MPD1    H5 2689   0.251   1.550  17.246 -2.2530  0.2222  1.9898
  176MPD1    N1 2690   0.148   2.115  17.192 -0.4672 -0.3013 -0.2632
  176MPD1    H6 2691   0.110   2.171  17.117  1.9324  0.3448 -1.0088
  176MPD1    H7 2692   0.248   2.133  17.186 -0.2742 -1.1281  0.4000
  177MPD1     C 2693   4.120   0.753   9.600 -1.0153 -0.7967 -0.1114
  177MPD1    C1 2694   4.009   0.675   9.616  0.0273 -0.6262 -0.0784
  177MPD1    C2 2695   3.894   0.728   9.574 -0.2575 -0.1390 -0.3732
  177MPD1    C3 2696   3.889   0.850   9.503 -0.5670 -1.3435 -0.6267
  177MPD1    C4 2697   4.007   0.921   9.475  0.3786  0.5984  0.3103
  177MPD1    C5 2698   4.119   0.867   9.528  0.5203  0.1330 -0.0818
  177MPD1     H 2699   3.802   0.677   9.601  0.3099  0.9210  3.6735
  177MPD1    H1 2700   4.007   1.009   9.412 -0.4528  0.2796 -0.1296
  177MPD1    H2 2701   4.216   0.722   9.638 -0.5668  1.0494  0.2879
  177MPD1    H3 2702   4.214   0.911   9.498  0.8789 -1.1143 -0.7575
  177MPD1     N 2703   3.758   0.888   9.469  0.3348  0.7105  0.4968
  177MPD1    H5 2704   3.681   0.826   9.492 -0.7547  0.7632 -2.8785
  177MPD1    N1 2705   4.015   0.547   9.678 -0.6605 -0.1278 -0.5360
  177MPD1    H6 2706   4.110   0.511   9.679 -0.1138  1.3325 -0.4974
  177MPD1    H7 2707   3.940   0.487   9.644 -2.0130  1.3446 -0.1473
  178MPD1     C 2708   1.178   1.655   0.050 -0.7985  0.3987  0.1357
  178MPD1    C1 2709   1.105   1.695  17.654 -0.2687 -0.4752 -0.2809
  178MPD1    C2 2710   1.171   1.732  17.540  0.2258 -0.6435 -0.0284
  178MPD1    C3 2711   1.305   1.707  17.519 -0.0776 -0.0038 -0.5414
  178MPD1    C4 2712   1.367   1.653  17.632 -0.1300  0.7448 -0.1343
  178MPD1    C5 2713   1.307   1.630   0.045 -0.6191  0.3892 -0.0656
  178MPD1     H 2714   1.117   1.775  17.456  0.2477  2.1694  1.4136
  178MPD1    H1 2715   1.470   1.623  17.615  0.2576  1.6513  0.6166
  178MPD1    H2 2716   1.128   1.642   0.146 -1.6145 -0.1370 -0.3594
  178MPD1    H3 2717   1.349   1.582   0.134 -0.4283  1.6926  0.5389
  178MPD1     N 2718   1.385   1.741  17.401 -0.2753  0.3092  0.0184
  178MPD1    H5 2719   1.485   1.740  17.422 -0.6429 -1.9210  1.6601
  178MPD1    N1 2720   0.968   1.734  17.671 -0.1640 -0.0896  0.1284
  178MPD1    H6 2721   0.921   1.667   0.022  0.4191 -2.1806 -1.7701
  178MPD1    H7 2722   0.919   1.729  17.581  3.5234  1.6951 -1.9823
  179MPD1     C 2723   1.629   0.592  16.049 -0.1228 -0.0462 -1.1291
  179MPD1    C1 2724   1.560   0.545  15.940  0.5037  0.6783  0.3807
  179MPD1    C2 2725   1.462   0.447  15.958  0.2620 -1.0478  0.0765
  179MPD1    C3 2726   1.441   0.396  16.087 -0.3316  0.1656 -0.3831
  179MPD1    C4 2727   1.509   0.446  16.191  0.0962  0.2500  0.1504
  179MPD1    C5 2728   1.607   0.545  16.172 -0.8108 -0.3973  0.6676
  179MPD1     H 2729   1.424   0.399  15.869 -1.2071 -1.3771  0.8698
  179MPD1    H1 2730   1.493   0.419  16.294  3.4534 -1.6561  0.1921
  179MPD1    H2 2731   1.702   0.672  16.046 -0.0373 -0.0041  2.0829
  179MPD1    H3 2732   1.666   0.584  16.254  0.0751 -0.7644  0.2066
  179MPD1     N 2733   1.365   0.277  16.109  0.3869 -0.0605  0.6680
  179MPD1    H5 2734   1.382   0.232  16.198  1.5411 -0.5792  0.1886
  179MPD1    N1 2735   1.601   0.590  15.813 -0.4695 -0.0065  0.3847
  179MPD1    H6 2736   1.644   0.683  15.817 -2.5740  0.9865 -0.0368
  179MPD1    H7 2737   1.537   0.590  15.734 -0.2096 -0.4969  0.1797
  180MPD1     C 2738   0.495   2.090  14.676 -0.0616 -0.6379  0.7802
  180MPD1    C1 2739   0.440   1.963  14.689 -0.2520  0.0159 -0.5690
  180MPD1    C2 2740   0.530   1.859  14.674  0.9197 -0.3031  0.1025
  180MPD1    C3 2741   0.663   1.885  14.635 -0.1715  0.4367  0.0938
  180MPD1    C4 2742   0.709   2.018  14.627 -0.0480  0.0683  0.3648
  180MPD1    C5 2743   0.627   2.115  14.642 -0.9342  0.3280 -0.7399
  180MPD1     H 2744   0.490   1.760  14.696 -1.5182  0.0611 -2.6731
  180MPD1    H1 2745   0.810   2.047  14.600 -1.1364 -0.0535 -3.8593
  180MPD1    H2 2746   0.419   2.167  14.679 -0.5355 -1.0729  0.0165
  180MPD1    H3 2747   0.651   2.219  14.622  0.6712  0.1707  0.3734
  180MPD1     N 2748   0.755   1.780  14.614 -0.0505 -0.2788 -0.4194
  180MPD1    H5 2749   0.718   1.687  14.627  0.5970 -0.2267  1.7521
  180MPD1    N1 2750   0.316   1.947  14.753 -0.1944 -0.2151  0.4034
  180MPD1    H6 2751   0.256   2.029  14.748 -0.5242 -0.4295  0.8955
  180MPD1    H7 2752   0.263   1.863  14.726  0.0420 -0.5136  0.8704
  181MPD1     C 2753   2.915   2.476  10.411 -0.0508  0.7877  0.2783
  181MPD1    C1 2754   2.974   2.583  10.475 -0.5464  0.5451  0.6125
  181MPD1    C2 2755   3.094   2.636  10.432 -0.2043 -0.4638 -0.5378
  181MPD1    C3 2756   3.154   2.583  10.320  0.1324  0.2978 -0.1149
  181MPD1    C4 2757   3.096   2.474  10.256 -0.6848  0.0158  0.1328
  181MPD1    C5 2758   2.972   2.424  10.295  0.4776 -0.2611  0.3225
  181MPD1     H 2759   3.140   2.719  10.485 -1.3130 -0.4917  0.4778
  181MPD1    H1 2760   3.135   2.444  10.160  0.9603  1.6913  0.2672
  181MPD1    H2 2761   2.816   2.444  10.443  0.3037 -0.4319  0.1692
  181MPD1    H3 2762   2.935   2.338  10.240  1.1002 -1.9306  2.5310
  181MPD1     N 2763   3.261   2.649  10.252  0.5030  0.2823 -0.1979
  181MPD1    H5 2764   3.294   2.613  10.163 -1.3273 -1.5523 -0.1181
  181MPD1    N1 2765   2.917   2.625  10.595 -0.3284 -0.5891  0.5720
  181MPD1    H6 2766   2.815   2.615  10.593 -0.4371  0.3244  2.0002
  181MPD1    H7 2767   2.926   2.726  10.599  0.4553 -0.6362 -0.0567
  182MPD1     C 2768   3.652   1.606   1.565 -0.3269 -0.2400  0.0776
  182MPD1    C1 2769   3.602   1.719   1.627  0.4227  0.4762 -0.6346
  182MPD1    C2 2770   3.557   1.820   1.547  0.3805  1.1405  1.1241
  182MPD1    C3 2771   3.546   1.794   1.412 -0.1649  0.4858  0.4061
  182MPD1    C4 2772   3.597   1.680   1.351 -0.1460  0.6119 -0.2128
  182MPD1    C5 2773   3.645   1.579   1.431 -0.3464  0.1078 -0.1734
  182MPD1     H 2774   3.522   1.913   1.591 -1.6942 -0.8128  3.5531
  182MPD1    H1 2775   3.597   1.654   1.246  2.1377 -2.4847  0.5385
  182MPD1    H2 2776   3.708   1.530   1.618  1.7036  1.1462 -0.0869
  182MPD1    H3 2777   3.689   1.489   1.387  2.6179  0.7553  1.4698
  182MPD1     N 2778   3.485   1.889   1.327 -0.1499 -0.3177  0.3272
  182MPD1    H5 2779   3.453   1.855   1.237 -0.1523  0.5319  0.0064
  182MPD1    N1 2780   3.612   1.741   1.763 -0.1790 -0.3247 -0.4079
  182MPD1    H6 2781   3.606   1.651   1.809  0.9966 -0.4408 -0.4825
  182MPD1    H7 2782   3.527   1.789   1.794  0.0188 -1.6845  2.2654
  183MPD1     C 2783   4.328   2.005   8.378 -0.0472 -0.3890 -0.5085
  183MPD1    C1 2784   4.368   2.004   8.509  0.6725 -0.1155  0.7093
  183MPD1    C2 2785   4.270   2.039   8.600  0.7972 -0.1729 -0.4374
  183MPD1    C3 2786   4.140   2.087   8.564  0.6182  0.3876  0.2305
  183MPD1    C4 2787   4.108   2.093   8.428 -0.4952  0.0106  0.5557
  183MPD1    C5 2788   4.208   2.059   8.332  0.5538 -0.3761  0.4652
  183MPD1     H 2789   4.307   2.021   8.700  1.1851  0.4313 -0.4737
  183MPD1    H1 2790   4.017   2.138   8.391  0.2863 -0.5324 -2.0017
  183MPD1    H2 2791   4.394   1.968   8.300  1.4419  0.4702  0.3423
  183MPD1    H3 2792   4.193   2.066   8.225  0.9390  1.1479  0.5229
  183MPD1     N 2793   4.048   2.128   8.667 -0.5060 -0.3464  0.4489
  183MPD1    H5 2794   4.081   2.123   8.763 -0.2144  0.0038  0.3679
  183MPD1    N1 2795   4.484   1.930   8.546  0.2424 -0.3466  0.2461
  183MPD1    H6 2796   4.565   1.943   8.486 -0.7161  0.4509 -0.8734
  183MPD1    H7 2797   4.512   1.939   8.644  2.7040 -1.6541 -0.3637
  184MPD1     C 2798   2.661   0.147   9.937 -0.0148 -0.3481  0.1517
  184MPD1    C1 2799   2.800   0.123   9.913  0.8809  0.2977  1.4276
  184MPD1    C2 2800   2.876   0.222   9.857  0.9668 -0.4857 -0.0669
  184MPD1    C3 2801   2.814   0.329   9.800  0.1245  0.1552  0.0507
  184MPD1    C4 2802   2.676   0.332   9.807 -0.1169  0.3199  0.0739
  184MPD1    C5 2803   2.602   0.250   9.880 -0.1517  0.4164 -0.6172
  184MPD1     H 2804   2.984   0.213   9.854  1.1454  1.3380  1.1805
  184MPD1    H1 2805   2.617   0.404   9.751  0.8142  0.8881 -0.1880
  184MPD1    H2 2806   2.610   0.077  10.002 -0.9809 -1.4046 -1.7287
  184MPD1    H3 2807   2.498   0.275   9.900  0.0571  0.7065  0.1270
  184MPD1     N 2808   2.872   0.428   9.719 -0.3916 -0.0406  0.0905
  184MPD1    H5 2809   2.816   0.503   9.679  0.2755 -1.2893 -3.1725
  184MPD1    N1 2810   2.856   0.004   9.960  0.1029 -0.2071 -0.0067
  184MPD1    H6 2811   2.789   4.656   9.975 -1.9091  1.2763 -1.6071
  184MPD1    H7 2812   2.930   4.706   9.895  0.6186 -1.2832  1.0125
  185MPD1     C 2813   2.853   0.962   8.868  0.9409 -0.7375 -0.2280
  185MPD1    C1 2814   2.780   0.864   8.936 -0.0733  0.0819  0.0514
  185MPD1    C2 2815   2.815   0.811   9.056  0.2893 -0.0199 -0.4689
  185MPD1    C3 2816   2.919   0.868   9.126  0.4585 -0.1522 -0.4163
  185MPD1    C4 2817   2.994   0.968   9.063  0.1440  0.3495 -0.3124
  185MPD1    C5 2818   2.957   1.015   8.939 -0.6726  0.0663  0.5766
  185MPD1     H 2819   2.755   0.728   9.091  0.7931 -0.3243 -0.3291
  185MPD1    H1 2820   3.083   1.006   9.112  0.3280 -1.4089  0.7146
  185MPD1    H2 2821   2.827   1.002   8.771  0.9097 -0.7978 -0.2448
  185MPD1    H3 2822   3.016   1.092   8.891 -2.5131  1.0577 -0.0609
  185MPD1     N 2823   2.968   0.836   9.253  0.4039  0.1195 -0.6224
  185MPD1    H5 2824   3.037   0.897   9.296 -0.0806  1.6274 -2.0068
  185MPD1    N1 2825   2.682   0.800   8.868 -0.2686  0.0192  0.3993
  185MPD1    H6 2826   2.639   0.859   8.797  0.7396  2.1986  1.5939
  185MPD1    H7 2827   2.605   0.767   8.926  0.2196 -1.1204  0.3962
  186MPD1     C 2828   1.929   4.579  15.653  0.9090 -0.1037 -0.1381
  186MPD1    C1 2829   1.913   4.519  15.778 -0.0442 -0.6400 -0.0477
  186MPD1    C2 2830   1.919   4.610  15.888  0.1137  0.6029 -0.4296
  186MPD1    C3 2831   1.898   0.018  15.872  0.2682 -0.1060  0.4270
  186MPD1    C4 2832   1.902   0.074  15.749 -0.2999  0.1394  0.8086
  186MPD1    C5 2833   1.920   4.716  15.643  0.0901 -0.5341 -0.0748
  186MPD1     H 2834   1.942   4.576  15.989 -1.2957  0.2194 -0.2329
  186MPD1    H1 2835   1.887   0.178  15.725 -1.7810  0.0249  1.2643
  186MPD1    H2 2836   1.945   4.512  15.569  2.1580 -0.7689  0.6122
  186MPD1    H3 2837   1.917   0.039  15.547 -1.3951 -0.1308  0.1811
  186MPD1     N 2838   1.875   0.104  15.982  0.1431 -0.1928  0.0347
  186MPD1    H5 2839   1.868   0.200  15.951  0.4030  0.5933  2.4264
  186MPD1    N1 2840   1.927   4.378  15.797  0.0654  0.5046 -0.2767
  186MPD1    H6 2841   1.891   4.344  15.886  0.3625  1.7751  0.3260
  186MPD1    H7 2842   1.874   4.341  15.718  1.4186  0.8199 -1.3312
  187MPD1     C 2843   1.176   1.989   0.460 -0.0827 -0.3586 -0.2298
  187MPD1    C1 2844   1.089   2.086   0.504 -0.0684 -0.3296 -0.8801
  187MPD1    C2 2845   0.991   2.128   0.419  0.2227  0.5403 -0.0889
  187MPD1    C3 2846   0.973   2.078   0.291 -0.0222  0.7596 -0.1766
  187MPD1    C4 2847   1.066   1.986   0.252  0.3924  0.3106  0.2190
  187MPD1    C5 2848   1.173   1.948   0.327 -0.5800 -0.2019  0.0076
  187MPD1     H 2849   0.928   2.209   0.453  1.5413  1.9093 -0.8724
  187MPD1    H1 2850   1.069   1.938   0.155 -1.5621 -0.2012  0.4135
  187MPD1    H2 2851   1.259   1.962   0.525 -0.5797  1.5040  1.1941
  187MPD1    H3 2852   1.233   1.876   0.274 -1.0355 -0.7797  0.2709
  187MPD1     N 2853   0.869   2.123   0.196 -0.6034 -0.0077  0.2066
  187MPD1    H5 2854   0.879   2.093   0.100 -0.6762  0.3221  0.0954
  187MPD1    N1 2855   1.099   2.135   0.632  0.1446 -0.1744 -0.4856
  187MPD1    H6 2856   1.064   2.231   0.630  1.0542  0.1465 -0.7689
  187MPD1    H7 2857   1.193   2.139   0.671  0.8099 -0.5822 -2.0535
  188MPD1     C 2858   1.940   1.049   9.190 -0.1152 -0.1264 -0.4611
  188MPD1    C1 2859   1.808   1.086   9.205  0.1502 -0.6746  0.5022
  188MPD1    C2 2860   1.765   1.147   9.318 -0.2425 -0.3709  0.3540
  188MPD1    C3 2861   1.847   1.186   9.418  0.3239  0.7463 -0.3515
  188MPD1    C4 2862   1.985   1.170   9.396 -0.5431  0.4672  0.6607
  188MPD1    C5 2863   2.027   1.107   9.282 -0.4363 -0.2006  0.0394
  188MPD1     H 2864   1.657   1.154   9.330 -0.1184  1.4884  0.3856
  188MPD1    H1 2865   2.054   1.197   9.475  1.9718  1.3284 -1.8282
  188MPD1    H2 2866   1.981   1.018   9.094 -1.1418 -0.7201 -0.7111
  188MPD1    H3 2867   2.134   1.095   9.270 -0.6225  1.2074 -3.0636
  188MPD1     N 2868   1.805   1.248   9.538  0.5763  0.4471 -0.4056
  188MPD1    H5 2869   1.868   1.252   9.617 -1.4850 -1.2464  1.3255
  188MPD1    N1 2870   1.716   1.047   9.112  0.4859 -0.3466  0.4793
  188MPD1    H6 2871   1.648   1.122   9.107  2.6699  1.5182 -0.8735
  188MPD1    H7 2872   1.757   1.029   9.021  2.2912  0.2094  1.1917
  189MPD1     C 2873   3.434   2.349   0.061 -0.1973  0.4389  0.2266
  189MPD1    C1 2874   3.349   2.350   0.168 -0.6398  0.1326  0.0636
  189MPD1    C2 2875   3.245   2.434   0.161  0.3809  0.9740 -0.5880
  189MPD1    C3 2876   3.209   2.495   0.042  0.4382  0.2392 -0.0022
  189MPD1    C4 2877   3.285   2.481  17.638 -0.0104 -0.0078  0.5323
  189MPD1    C5 2878   3.397   2.401  17.651 -0.0730  0.0902 -0.6251
  189MPD1     H 2879   3.194   2.467   0.252  1.1872 -0.3724  0.3569
  189MPD1    H1 2880   3.276   2.547  17.552  0.7311 -0.5900  0.0079
  189MPD1    H2 2881   3.527   2.295   0.069 -1.2410 -1.1832  1.3222
  189MPD1    H3 2882   3.463   2.381  17.568 -0.1216  1.1286 -0.9230
  189MPD1     N 2883   3.092   2.572   0.048 -0.3659  0.4924  0.3578
  189MPD1    H5 2884   3.047   2.583   0.139 -1.9385  1.1481 -0.5025
  189MPD1    N1 2885   3.395   2.305   0.295  0.4995 -0.7004 -0.1666
  189MPD1    H6 2886   3.319   2.290   0.362  0.7885  1.4342  0.6310
  189MPD1    H7 2887   3.445   2.217   0.284  1.3671 -0.3079  0.6625
  190MPD1     C 2888   1.508   0.429  15.199  0.2030  0.8928  0.2910
  190MPD1    C1 2889   1.481   0.544  15.125  0.0188 -1.0902 -0.0294
  190MPD1    C2 2890   1.453   0.664  15.195 -0.8717  0.0574 -0.1823
  190MPD1    C3 2891   1.463   0.670  15.334 -0.1239  0.0490 -0.9486
  190MPD1    C4 2892   1.494   0.553  15.408 -0.1723  0.0121 -0.7017
  190MPD1    C5 2893   1.509   0.436  15.339  0.2975  0.4112  0.4534
  190MPD1     H 2894   1.421   0.746  15.132 -0.2303 -2.0456 -3.2762
  190MPD1    H1 2895   1.505   0.544  15.515 -0.1370  0.9910 -0.6262
  190MPD1    H2 2896   1.526   0.332  15.153 -0.6627 -0.2323  2.3457
  190MPD1    H3 2897   1.536   0.349  15.398  0.6231 -2.0811 -3.3827
  190MPD1     N 2898   1.445   0.794  15.395 -0.7499 -0.3316  0.0357
  190MPD1    H5 2899   1.409   0.867  15.334  0.3499 -0.3201 -0.5831
  190MPD1    N1 2900   1.467   0.536  14.988  0.2348 -0.2128 -0.4390
  190MPD1    H6 2901   1.484   0.630  14.954 -1.9659 -0.6628 -2.7582
  190MPD1    H7 2902   1.518   0.458  14.948 -0.0096  0.6842 -2.4682
  191MPD1     C 2903   1.262   2.640  13.036 -0.1852 -0.4680 -0.2248
  191MPD1    C1 2904   1.285   2.650  12.898  1.0944 -0.2660 -0.0293
  191MPD1    C2 2905   1.179   2.697  12.816 -0.3383 -0.1804  0.6811
  191MPD1    C3 2906   1.049   2.712  12.869  0.1498  0.4609 -0.8473
  191MPD1    C4 2907   1.044   2.717  13.005 -1.1881  0.3455  0.1549
  191MPD1    C5 2908   1.147   2.683  13.088 -0.4738 -0.0650 -0.0310
  191MPD1     H 2909   1.203   2.719  12.712  0.4856 -2.6355  0.3586
  191MPD1    H1 2910   0.955   2.735  13.064 -0.9282  0.6221  0.4601
  191MPD1    H2 2911   1.346   2.617  13.101  0.3239 -0.1787 -0.7833
  191MPD1    H3 2912   1.132   2.688  13.195 -0.6678  0.0502 -0.0649
  191MPD1     N 2913   0.954   2.744  12.772 -0.5779 -0.4689  0.4637
  191MPD1    H5 2914   0.981   2.755  12.674  0.6318 -2.3758  0.5840
  191MPD1    N1 2915   1.417   2.670  12.850 -0.0437 -0.5083  0.0608
  191MPD1    H6 2916   1.431   2.661  12.750 -1.3633  1.0827 -0.2693
  191MPD1    H7 2917   1.497   2.644  12.909 -0.6978 -2.1553  0.2129
  192MPD1     C 2918   4.647   2.956  12.794 -0.3927  0.0410 -0.1229
  192MPD1    C1 2919   4.710   2.835  12.780  0.1536  0.0037  0.0935
  192MPD1    C2 2920   0.109   2.832  12.726  0.8401  0.2912 -0.1550
  192MPD1    C3 2921   0.181   2.942  12.724  0.5282  0.5644  0.2888
  192MPD1    C4 2922   0.125   3.061  12.758 -0.4671 -0.6896  0.7471
  192MPD1    C5 2923   4.720   3.069  12.795  0.0228 -0.4689  0.6513
  192MPD1     H 2924   0.141   2.733  12.696 -1.9988 -0.5340 -0.5197
  192MPD1    H1 2925   0.177   3.156  12.753  0.4417 -1.2449 -0.3853
  192MPD1    H2 2926   4.543   2.960  12.826 -0.5080  0.0865 -0.4970
  192MPD1    H3 2927   4.662   3.158  12.814  2.4245  1.0931  0.6136
  192MPD1     N 2928   0.318   2.942  12.690  0.2826 -0.2399  0.2160
  192MPD1    H5 2929   0.366   3.028  12.712  1.2340 -0.2677 -1.7632
  192MPD1    N1 2930   4.636   2.718  12.778 -0.5238  0.4944 -0.2634
  192MPD1    H6 2931   4.564   2.725  12.849  0.8223 -0.3482  1.1851
  192MPD1    H7 2932   4.698   2.642  12.803 -1.7217 -0.2111  0.5395
  193MPD1     C 2933   0.199   3.321  16.880  0.2723 -0.2181 -0.2558
  193MPD1    C1 2934   0.307   3.294  16.815  0.0636 -0.8511  0.2487
  193MPD1    C2 2935   0.421   3.366  16.838 -0.1437 -0.0214  0.8809
  193MPD1    C3 2936   0.423   3.467  16.935  0.5555  0.2577  0.2181
  193MPD1    C4 2937   0.308   3.488  17.006 -1.2664  0.6119 -0.0330
  193MPD1    C5 2938   0.200   3.418  16.969  0.1309 -0.2308 -0.1283
  193MPD1     H 2939   0.499   3.341  16.768 -0.7266 -1.1180  0.6255
  193MPD1    H1 2940   0.308   3.565  17.082 -0.1220 -0.9311  1.5086
  193MPD1    H2 2941   0.102   3.277  16.862 -0.0985 -0.6460  2.7953
  193MPD1    H3 2942   0.105   3.442  17.015 -0.1590  2.3445 -2.0732
  193MPD1     N 2943   0.533   3.543  16.964  0.6703  0.3561  0.2005
  193MPD1    H5 2944   0.516   3.617  17.032  0.8549  1.2055 -0.6836
  193MPD1    N1 2945   0.296   3.225  16.694  0.0414  0.0609 -0.0991
  193MPD1    H6 2946   0.374   3.161  16.678 -0.9071 -1.4143  1.1676
  193MPD1    H7 2947   0.212   3.167  16.691  1.3493 -1.6880 -3.0173
  194MPD1     C 2948   4.607   0.224  15.896 -0.0230  0.4083 -0.4345
  194MPD1    C1 2949   4.560   0.349  15.919 -0.2086  0.2382  0.8857
  194MPD1    C2 2950   4.458   0.363  16.018 -0.2910  0.2065 -0.2826
  194MPD1    C3 2951   4.425   0.255  16.099  0.1013  0.6075 -0.9523
  194MPD1    C4 2952   4.485   0.136  16.081  0.2207  0.0762 -0.0309
  194MPD1    C5 2953   4.579   0.122  15.982 -0.0086 -0.0700  0.6961
  194MPD1     H 2954   4.401   0.454  16.033 -1.5848 -0.9263  1.7219
  194MPD1    H1 2955   4.464   0.053  16.148  1.5268  1.0586  1.6043
  194MPD1    H2 2956   4.673   0.195  15.815  0.5661 -1.8879  0.8914
  194MPD1    H3 2957   4.637   0.031  15.976 -0.4485 -0.3466  0.6651
  194MPD1     N 2958   4.326   0.265  16.193  0.4952 -0.0293  0.4319
  194MPD1    H5 2959   4.295   0.176  16.230  0.0261  0.5942  1.5289
  194MPD1    N1 2960   4.592   0.458  15.839 -0.0614  0.2225 -0.4731
  194MPD1    H6 2961   4.586   0.544  15.893  2.5286  0.6011 -0.8122
  194MPD1    H7 2962   4.686   0.446  15.802  0.1975  0.4625  0.1257
  195MPD1     C 2963   0.798   2.593   0.972  0.4028 -0.8703  0.3467
  195MPD1    C1 2964   0.751   2.635   0.852  0.0819  0.3475  1.1207
  195MPD1    C2 2965   0.693   2.542   0.766 -0.6801 -0.2958 -0.0767
  195MPD1    C3 2966   0.721   2.408   0.787 -0.4427  0.6281 -0.5798
  195MPD1    C4 2967   0.785   2.373   0.900  0.5095 -0.9107 -0.2608
  195MPD1    C5 2968   0.823   2.463   0.997 -0.1879  0.5881  0.1834
  195MPD1     H 2969   0.634   2.576   0.683  1.8371 -1.9805 -2.5684
  195MPD1    H1 2970   0.804   2.270   0.926 -0.6046 -1.4237 -1.5199
  195MPD1    H2 2971   0.803   2.678   1.039  0.3935 -1.0876  0.6270
  195MPD1    H3 2972   0.866   2.424   1.088 -0.4743 -0.0937  0.0243
  195MPD1     N 2973   0.682   2.296   0.706  0.0438 -0.0974 -0.3175
  195MPD1    H5 2974   0.711   2.204   0.737 -0.3276 -0.7456 -1.8465
  195MPD1    N1 2975   0.725   2.771   0.836 -0.3334 -0.0957  0.9222
  195MPD1    H6 2976   0.793   2.830   0.884  0.5082 -2.0817  2.1402
  195MPD1    H7 2977   0.721   2.804   0.740 -1.6822 -1.9084  0.3723
  196MPD1     C 2978   3.985   1.360   0.014  0.1012 -0.6959  0.5825
  196MPD1    C1 2979   4.044   1.478   0.045  0.0174 -0.4088 -0.1447
  196MPD1    C2 2980   4.046   1.509   0.179  0.3192  0.1116  0.5139
  196MPD1    C3 2981   3.984   1.431   0.271  0.5021  0.5981 -0.4164
  196MPD1    C4 2982   3.917   1.318   0.235 -0.2251 -0.1202  0.1562
  196MPD1    C5 2983   3.914   1.283   0.103 -0.0085 -0.0324 -0.5461
  196MPD1     H 2984   4.097   1.602   0.204 -1.7002  0.6252  2.8139
  196MPD1    H1 2985   3.851   1.265   0.303 -1.3824  1.3542  0.1844
  196MPD1    H2 2986   3.981   1.343  17.615  0.0315 -0.7097  0.5875
  196MPD1    H3 2987   3.858   1.196   0.072  0.2160  0.3811 -2.1322
  196MPD1     N 2988   3.984   1.458   0.415  0.0571 -0.3506 -0.0257
  196MPD1    H5 2989   3.945   1.393   0.483 -0.7428  0.5814  0.4029
  196MPD1    N1 2990   4.118   1.549  17.662  0.3454  0.8226  1.1922
  196MPD1    H6 2991   4.126   1.647  17.689  1.3925  1.1838 -0.4258
  196MPD1    H7 2992   4.074   1.545  17.571  2.7258 -0.0898  0.0864
  197MPD1     C 2993   4.202   3.462  17.608  0.9037 -0.5923 -0.9904
  197MPD1    C1 2994   4.214   3.579  17.677  0.3218  0.0288  0.3441
  197MPD1    C2 2995   4.244   3.696  17.604  0.1895 -0.5529 -0.4553
  197MPD1    C3 2996   4.273   3.694  17.467  0.2641 -0.5850 -0.7418
  197MPD1    C4 2997   4.258   3.576  17.402 -0.7497 -0.2475  0.3829
  197MPD1    C5 2998   4.224   3.464  17.472  0.2199  0.4130 -0.2051
  197MPD1     H 2999   4.247   3.794  17.650  1.6197 -0.2943 -1.0982
  197MPD1    H1 3000   4.278   3.565  17.296  0.8210  0.7279  0.5684
  197MPD1    H2 3001   4.174   3.374  17.663  3.0621 -1.3519 -1.1020
  197MPD1    H3 3002   4.211   3.371  17.418  0.1677  0.1543  0.2456
  197MPD1     N 3003   4.305   3.806  17.391 -0.1135  0.3070 -0.8196
  197MPD1    H5 3004   4.313   3.788  17.291  0.3909  0.1570 -0.7518
  197MPD1    N1 3005   4.185   3.579   0.106  0.4429  0.9379  0.1905
  197MPD1    H6 3006   4.219   3.668   0.144 -1.2625  2.1530 -1.1449
  197MPD1    H7 3007   4.221   3.494   0.148  1.0853  1.2880  0.3538
  198MPD1     C 3008   0.684   2.462  15.656 -0.0381  0.3204 -1.6693
  198MPD1    C1 3009   0.788   2.367  15.636  0.0790  0.0647 -0.5180
  198MPD1    C2 3010   0.911   2.413  15.626  0.0012 -0.0830  0.2002
  198MPD1    C3 3011   0.942   2.545  15.662 -0.0896 -0.4696  0.1590
  198MPD1    C4 3012   0.839   2.623  15.704 -0.1263  0.0684 -0.1101
  198MPD1    C5 3013   0.707   2.582  15.704 -0.5387  0.2966 -0.1306
  198MPD1     H 3014   0.993   2.345  15.603  0.1908  0.3642 -0.4575
  198MPD1    H1 3015   0.865   2.719  15.745 -1.1440 -0.2467  1.2871
  198MPD1    H2 3016   0.581   2.439  15.629 -0.4889 -0.1833  0.4964
  198MPD1    H3 3017   0.634   2.651  15.745 -0.4427 -0.8296  1.9872
  198MPD1     N 3018   1.078   2.578  15.660  0.2444  0.4135 -0.3922
  198MPD1    H5 3019   1.133   2.502  15.621  0.5392  0.9695 -1.0638
  198MPD1    N1 3020   0.756   2.243  15.579 -0.3700  0.1156 -0.0364
  198MPD1    H6 3021   0.672   2.208  15.623  0.7092 -0.5836  1.4812
  198MPD1    H7 3022   0.828   2.171  15.573 -0.9033 -0.4670  0.5370
  199MPD1     C 3023   4.569   4.169   9.900 -0.8072  0.6723  0.3961
  199MPD1    C1 3024   4.512   4.116  10.011 -0.0264  0.2925  0.1636
  199MPD1    C2 3025   4.380   4.093  10.016  0.2714 -0.2425  0.1762
  199MPD1    C3 3026   4.304   4.135   9.906  0.7084  0.7320 -0.4125
  199MPD1    C4 3027   4.360   4.202   9.791  0.0045  0.0502 -0.3235
  199MPD1    C5 3028   4.496   4.225   9.797  0.6362  0.0933  0.0660
  199MPD1     H 3029   4.334   4.043  10.101  0.8987  1.4573  1.5332
  199MPD1    H1 3030   4.294   4.220   9.707 -3.2600 -0.1448  2.1983
  199MPD1    H2 3031   4.676   4.176   9.886 -0.6111  1.6009  2.2976
  199MPD1    H3 3032   4.548   4.291   9.729 -0.8097  0.4618 -0.6879
  199MPD1     N 3033   4.163   4.118   9.889 -0.0313 -0.3982 -0.9334
  199MPD1    H5 3034   4.115   4.159   9.810 -1.7534 -0.3262  0.1374
  199MPD1    N1 3035   4.596   4.066  10.109  0.4355  0.3176 -0.0127
  199MPD1    H6 3036   4.557   4.063  10.203  0.3870 -0.3100 -0.0491
  199MPD1    H7 3037   4.682   4.118  10.121  0.7615  0.0283 -1.0910
  200MPD1     C 3038   1.649   3.493  14.765 -0.5174  0.0899  0.1927
  200MPD1    C1 3039   1.611   3.603  14.700  0.4566  0.3865 -0.2353
  200MPD1    C2 3040   1.714   3.684  14.651  0.1753  0.5298  0.1263
  200MPD1    C3 3041   1.849   3.659  14.678 -0.5350  0.4554 -0.0070
  200MPD1    C4 3042   1.877   3.559  14.767  0.5394  0.6932  0.2570
  200MPD1    C5 3043   1.780   3.469  14.803 -0.1793  0.5132 -0.1651
  200MPD1     H 3044   1.693   3.767  14.584 -0.8670 -0.6947 -1.0816
  200MPD1    H1 3045   1.978   3.529  14.792  0.2562  0.5073  1.1739
  200MPD1    H2 3046   1.578   3.420  14.802  1.3683 -0.5642  2.5299
  200MPD1    H3 3047   1.806   3.378  14.856  2.8706  1.7529  0.4692
  200MPD1     N 3048   1.945   3.754  14.631 -0.4993  0.7001 -0.0322
  200MPD1    H5 3049   1.918   3.830  14.568 -1.1871  1.3159  1.0089
  200MPD1    N1 3050   1.474   3.619  14.660  0.5692  0.1773  0.3043
  200MPD1    H6 3051   1.402   3.582  14.721 -1.1391 -0.6695 -2.1978
  200MPD1    H7 3052   1.462   3.707  14.610 -2.2935 -1.4870 -1.9928
  201MPD1     C 3053   4.478   2.780  13.729 -1.1987  0.3648  0.7613
  201MPD1    C1 3054   4.609   2.740  13.703 -0.4574 -0.6568 -0.0388
  201MPD1    C2 3055   4.635   2.600  13.700  0.0609  0.1232  1.0365
  201MPD1    C3 3056   4.533   2.501  13.724  0.6364  0.7687  0.3826
  201MPD1    C4 3057   4.412   2.550  13.765  0.0673  0.4834  0.6938
  201MPD1    C5 3058   4.387   2.684  13.767  0.4790 -0.9035  0.8433
  201MPD1     H 3059   0.006   2.566  13.669  0.4607  1.2162  1.1023
  201MPD1    H1 3060   4.323   2.495  13.791  0.1020  0.0477 -0.1082
  201MPD1    H2 3061   4.445   2.883  13.718 -0.9832  0.3949  0.3967
  201MPD1    H3 3062   4.281   2.703  13.775  0.3835 -1.2435  0.3948
  201MPD1     N 3063   4.569   2.364  13.715 -0.2292  0.0660 -0.3559
  201MPD1    H5 3064   4.661   2.340  13.679  0.2521 -0.4102  1.2117
  201MPD1    N1 3065   4.700   2.837  13.662 -0.7993  0.4478 -0.1713
  201MPD1    H6 3066   4.684   2.928  13.704  0.0725 -0.0274  1.1847
  201MPD1    H7 3067   0.065   2.815  13.701 -0.5366  0.4673 -0.7756
  202MPD1     C 3068   4.272   1.225   9.321 -0.0013 -0.0007 -1.2811
  202MPD1    C1 3069   4.285   1.308   9.218  0.1535  1.2048  0.0483
  202MPD1    C2 3070   4.351   1.430   9.258  0.0328 -0.3825  0.4017
  202MPD1    C3 3071   4.350   1.472   9.389 -0.0879  0.2283 -0.0398
  202MPD1    C4 3072   4.300   1.386   9.485 -0.4005 -0.2853 -0.3974
  202MPD1    C5 3073   4.268   1.259   9.450  0.3622  0.2658  0.1935
  202MPD1     H 3074   4.399   1.492   9.183 -0.9416  0.4615  0.4783
  202MPD1    H1 3075   4.300   1.417   9.589  0.3312  0.3914 -0.6040
  202MPD1    H2 3076   4.241   1.121   9.313 -0.6110 -0.0564  1.8102
  202MPD1    H3 3077   4.237   1.193   9.530 -2.9568 -0.4979 -1.7442
  202MPD1     N 3078   4.417   1.590   9.424  0.3592  0.5883 -0.3021
  202MPD1    H5 3079   4.438   1.595   9.523 -2.5903  0.8906  0.2812
  202MPD1    N1 3080   4.315   1.259   9.091 -0.4241  0.3537  0.1160
  202MPD1    H6 3081   4.254   1.182   9.064  0.0529 -0.1926  0.6128
  202MPD1    H7 3082   4.290   1.331   9.023 -0.3919 -0.5845 -0.8906
  203MPD1     C 3083   2.909   3.306  12.182  0.3754 -0.1983  0.0814
  203MPD1    C1 3084   3.007   3.256  12.100  0.8720 -0.0495 -0.5865
  203MPD1    C2 3085   3.079   3.144  12.143 -0.3466 -0.5035 -0.2291
  203MPD1    C3 3086   3.067   3.093  12.273 -0.3218  0.2507 -0.0776
  203MPD1    C4 3087   2.972   3.147  12.353 -0.0962  0.3651  0.0835
  203MPD1    C5 3088   2.891   3.247  12.308 -0.1634  0.2510 -0.6433
  203MPD1     H 3089   3.150   3.091  12.080  0.4720 -0.4116  0.6258
  203MPD1    H1 3090   2.959   3.107  12.453 -1.2277 -0.7620 -0.5156
  203MPD1    H2 3091   2.840   3.383  12.150  0.0165 -1.1356 -1.3766
  203MPD1    H3 3092   2.823   3.291  12.379  2.3244  0.1323  1.8462
  203MPD1     N 3093   3.161   2.998  12.325  0.1492 -0.1652  0.2323
  203MPD1    H5 3094   3.237   2.969  12.265 -0.0543  1.2568 -0.7013
  203MPD1    N1 3095   3.008   3.296  11.959 -0.1458 -0.8933 -0.1274
  203MPD1    H6 3096   3.094   3.272  11.910 -0.0428 -1.9793  0.5851
  203MPD1    H7 3097   2.992   3.396  11.949  3.4639 -0.4683 -1.6815
  204MPD1     C 3098   3.357   4.302  17.484  0.3673  0.2743  0.4638
  204MPD1    C1 3099   3.412   4.246  17.371 -1.0041 -0.3118  0.3886
  204MPD1    C2 3100   3.327   4.178  17.284  0.5745  0.6339 -0.4390
  204MPD1    C3 3101   3.194   4.179  17.295  0.0978 -0.6285 -0.4476
  204MPD1    C4 3102   3.140   4.236  17.406 -0.1258  0.4526  0.1983
  204MPD1    C5 3103   3.225   4.291  17.504  0.3934 -0.3676  0.3165
  204MPD1     H 3104   3.366   4.111  17.208 -0.1826 -0.0974 -0.1848
  204MPD1    H1 3105   3.034   4.232  17.426  0.4483  3.5770  3.8533
  204MPD1    H2 3106   3.432   4.341  17.552  0.0495 -0.4352  1.2285
  204MPD1    H3 3107   3.192   4.322  17.602  0.4917  0.4754  0.0824
  204MPD1     N 3108   3.123   4.095  17.202 -0.0225 -1.2802  0.0500
  204MPD1    H5 3109   3.187   4.034  17.152 -0.5239 -2.3561  0.7180
  204MPD1    N1 3110   3.552   4.229  17.362  0.4709 -0.4271 -0.2138
  204MPD1    H6 3111   3.577   4.216  17.264  0.6668 -0.6132 -0.1375
  204MPD1    H7 3112   3.604   4.306  17.402 -0.4871 -0.4628  1.1211
  205MPD1     C 3113   2.558   2.290  16.598  0.3091  0.5662  0.1523
  205MPD1    C1 3114   2.640   2.398  16.563 -0.4171 -0.7776 -0.6250
  205MPD1    C2 3115   2.682   2.492  16.651  0.3428  0.6692 -0.3384
  205MPD1    C3 3116   2.626   2.497  16.778  0.4259 -0.9229  0.2861
  205MPD1    C4 3117   2.554   2.385  16.818  0.0975  0.2241 -0.3831
  205MPD1    C5 3118   2.513   2.288  16.728  0.2809  0.2729 -0.0671
  205MPD1     H 3119   2.757   2.561  16.615  2.1563 -0.9408  0.3858
  205MPD1    H1 3120   2.505   2.377  16.915  1.1835 -0.3060  0.1179
  205MPD1    H2 3121   2.524   2.209  16.534  1.2308  1.2288 -1.1933
  205MPD1    H3 3122   2.446   2.209  16.760  1.3824 -0.9199 -0.7049
  205MPD1     N 3123   2.641   2.599  16.879 -0.2956 -0.9936 -0.0225
  205MPD1    H5 3124   2.594   2.591  16.968 -0.9314 -1.2945 -0.3819
  205MPD1    N1 3125   2.693   2.381  16.429  0.5927  0.1174 -0.1914
  205MPD1    H6 3126   2.617   2.347  16.370 -0.9650  1.8078  0.8246
  205MPD1    H7 3127   2.736   2.466  16.395  0.0743  0.1391 -0.7937
  206MPD1     C 3128   3.000   0.568  16.350 -0.2875 -0.3809  0.5132
  206MPD1    C1 3129   3.107   0.654  16.357 -0.3724 -0.1020  0.1393
  206MPD1    C2 3130   3.097   0.754  16.261  0.1663 -0.7138  0.2568
  206MPD1    C3 3131   2.995   0.760  16.165  0.3718  0.9502  0.7461
  206MPD1    C4 3132   2.891   0.670  16.172  0.3322 -0.4787  0.2226
  206MPD1    C5 3133   2.892   0.576  16.267 -0.1999 -0.0269  0.1169
  206MPD1     H 3134   3.176   0.828  16.262 -1.2621  0.8053  0.7973
  206MPD1    H1 3135   2.812   0.662  16.098  0.5570 -0.6347 -0.0015
  206MPD1    H2 3136   3.006   0.485  16.420  0.1097 -0.9265 -0.1629
  206MPD1    H3 3137   2.817   0.498  16.274 -1.6074  1.1939 -1.2083
  206MPD1     N 3138   2.990   0.856  16.066 -0.2017 -0.1410  0.4870
  206MPD1    H5 3139   2.900   0.853  16.018 -0.8392  0.5799  1.6442
  206MPD1    N1 3140   3.201   0.655  16.459  0.0751  0.2047  0.1691
  206MPD1    H6 3141   3.213   0.560  16.494 -1.0131 -0.9661 -2.6847
  206MPD1    H7 3142   3.294   0.678  16.425 -0.3202  0.6451 -0.5993
  207MPD1     C 3143   4.315   2.777  10.001 -0.0020  0.1339 -0.8385
  207MPD1    C1 3144   4.362   2.653  10.045 -0.0254 -0.5618 -0.1851
  207MPD1    C2 3145   4.495   2.631  10.005  0.1858 -0.4766 -0.0999
  207MPD1    C3 3146   4.582   2.724   9.958  0.3334 -0.1048 -0.6088
  207MPD1    C4 3147   4.529   2.847   9.923  0.3066 -0.3935  0.0207
  207MPD1    C5 3148   4.400   2.873   9.949 -0.2192 -0.5671  0.7448
  207MPD1     H 3149   4.544   2.538  10.029  1.2649 -0.0100 -0.4794
  207MPD1    H1 3150   4.593   2.920   9.874 -0.4284 -0.2971 -0.7970
  207MPD1    H2 3151   4.211   2.806  10.007  0.3064  1.2925 -1.1900
  207MPD1    H3 3152   4.357   2.970   9.926  1.0198  0.0379  0.9499
  207MPD1     N 3153   4.725   2.701   9.944 -0.5210  0.2139  0.5000
  207MPD1    H5 3154   0.061   2.777   9.917 -1.1501  0.2232 -0.9393
  207MPD1    N1 3155   4.279   2.548  10.093 -0.6555 -0.3671 -0.0431
  207MPD1    H6 3156   4.195   2.574  10.145 -0.2060  4.0544 -1.5582
  207MPD1    H7 3157   4.327   2.476  10.148 -1.3286  0.5385  1.7326
  208MPD1     C 3158   3.630   2.100  17.326  0.0089 -0.3608 -0.3622
  208MPD1    C1 3159   3.658   2.122  17.459 -0.3279 -0.1890  0.2388
  208MPD1    C2 3160   3.568   2.096  17.560  0.3508 -0.3683  0.3066
  208MPD1    C3 3161   3.437   2.061  17.527 -0.8593  0.5173  0.4195
  208MPD1    C4 3162   3.403   2.040  17.396 -0.3887  0.2899 -0.3793
  208MPD1    C5 3163   3.500   2.052  17.300 -0.4466  0.1207 -0.2444
  208MPD1     H 3164   3.596   2.121  17.661  2.4906 -2.0133  0.1173
  208MPD1    H1 3165   3.316   1.984  17.362  0.4402 -0.9729 -0.4409
  208MPD1    H2 3166   3.709   2.113  17.252  0.5976 -1.1021  0.1463
  208MPD1    H3 3167   3.472   2.024  17.199  0.3378 -1.5176 -0.0207
  208MPD1     N 3168   3.344   2.047  17.632  0.6449  0.2345 -0.6789
  208MPD1    H5 3169   3.367   2.071   0.020 -2.2142  0.6698 -0.0786
  208MPD1    N1 3170   3.780   2.178  17.499  0.0916  0.2522 -0.4140
  208MPD1    H6 3171   3.855   2.149  17.436  1.0600 -2.2456  1.8661
  208MPD1    H7 3172   3.798   2.135  17.589  1.5501  2.2542  0.2351
  209MPD1     C 3173   0.138   1.060   9.593 -0.0892  0.3345  0.4182
  209MPD1    C1 3174   0.124   1.196   9.562  0.0453  0.1154  0.4779
  209MPD1    C2 3175   0.193   1.283   9.640  0.9571 -0.9140 -0.3758
  209MPD1    C3 3176   0.305   1.257   9.711 -0.6059 -0.2799 -0.5382
  209MPD1    C4 3177   0.333   1.120   9.713 -0.3317  0.5580  0.0491
  209MPD1    C5 3178   0.255   1.024   9.657 -0.5844 -0.0225 -0.5182
  209MPD1     H 3179   0.165   1.387   9.626  0.5955 -0.8569  0.7762
  209MPD1    H1 3180   0.427   1.096   9.762 -0.5695 -0.2988  0.0908
  209MPD1    H2 3181   0.072   0.983   9.554  1.5771  0.1464 -2.0810
  209MPD1    H3 3182   0.281   0.918   9.660 -0.8481 -0.0628  0.2229
  209MPD1     N 3183   0.389   1.362   9.750 -0.0048 -0.2286 -0.4474
  209MPD1    H5 3184   0.349   1.455   9.741  0.3914 -0.0689 -0.5532
  209MPD1    N1 3185   4.723   1.232   9.513 -0.1658 -0.3217  0.1550
  209MPD1    H6 3186   4.716   1.321   9.463  0.2764  0.9512  2.3814
  209MPD1    H7 3187   4.703   1.164   9.439  2.3988 -0.5349 -0.3410
  210MPD1     C 3188   0.987   1.327  10.563 -0.5670  0.2680 -0.2935
  210MPD1    C1 3189   0.983   1.458  10.532 -0.3333  0.1296  0.1140
  210MPD1    C2 3190   0.912   1.494  10.418 -0.6728  1.4575  0.4445
  210MPD1    C3 3191   0.841   1.400  10.346  0.6834  0.2201  0.5891
  210MPD1    C4 3192   0.842   1.274  10.385  0.3339  0.2386  0.1523
  210MPD1    C5 3193   0.919   1.231  10.487 -0.6377 -0.1629 -0.2756
  210MPD1     H 3194   0.909   1.598  10.388 -1.9719  0.4802 -2.7402
  210MPD1    H1 3195   0.782   1.198  10.336 -0.2125 -1.0790  2.8522
  210MPD1    H2 3196   1.043   1.285  10.645 -1.3166 -0.4444 -0.1398
  210MPD1    H3 3197   0.939   1.126  10.505  0.7236  0.1119 -0.1860
  210MPD1     N 3198   0.770   1.431  10.223 -0.4467 -0.0724  0.2000
  210MPD1    H5 3199   0.749   1.349  10.166 -0.2718  0.7790 -1.0922
  210MPD1    N1 3200   1.070   1.546  10.600 -0.1087 -0.0309  0.4163
  210MPD1    H6 3201   1.080   1.529  10.700 -0.4441  0.0439  0.4633
  210MPD1    H7 3202   1.031   1.640  10.597 -0.2248 -0.0276  1.9460
  211MPD1     C 3203   3.613   2.795  15.502  0.1844 -0.0947  0.9309
  211MPD1    C1 3204   3.554   2.918  15.528 -0.3346  0.5019 -0.1561
  211MPD1    C2 3205   3.486   2.930  15.647  0.3303  0.4224  0.5515
  211MPD1    C3 3206   3.490   2.823  15.741 -0.1617 -0.2016  0.2420
  211MPD1    C4 3207   3.564   2.711  15.721 -0.4219  0.5346 -0.0278
  211MPD1    C5 3208   3.615   2.695  15.601 -0.0584  0.8305 -1.0444
  211MPD1     H 3209   3.432   3.022  15.662 -1.1279 -0.4272  0.4629
  211MPD1    H1 3210   3.565   2.626  15.789 -0.0693  1.4028  1.0407
  211MPD1    H2 3211   3.665   2.777  15.409 -0.3226  0.9892  0.4357
  211MPD1    H3 3212   3.656   2.597  15.579 -2.0331 -0.8937  3.0432
  211MPD1     N 3213   3.433   2.849  15.868  0.6322 -0.5443  0.0936
  211MPD1    H5 3214   3.391   2.939  15.885 -0.2356 -1.1262  1.0558
  211MPD1    N1 3215   3.542   3.012  15.425 -0.0372  0.1258  0.5447
  211MPD1    H6 3216   3.517   3.105  15.458 -2.8881 -0.0686 -1.0013
  211MPD1    H7 3217   3.622   3.010  15.363 -0.4554 -0.2503  0.0170
  212MPD1     C 3218   2.774   1.084  16.298  0.2080  0.4908 -0.2432
  212MPD1    C1 3219   2.756   1.150  16.415 -0.4704  0.0258  0.0580
  212MPD1    C2 3220   2.661   1.100  16.495  0.6700  0.1479 -0.1486
  212MPD1    C3 3221   2.583   0.991  16.465  0.3133 -0.5135 -0.0453
  212MPD1    C4 3222   2.609   0.923  16.340 -0.1131  0.1111 -0.7379
  212MPD1    C5 3223   2.701   0.974  16.254  0.1813 -0.4203 -0.3811
  212MPD1     H 3224   2.627   1.144  16.588 -1.2407 -0.7899 -0.4090
  212MPD1    H1 3225   2.544   0.841  16.311  1.2086 -1.0754 -0.3196
  212MPD1    H2 3226   2.841   1.131  16.227  2.1662 -1.5194  0.2944
  212MPD1    H3 3227   2.718   0.931  16.156  1.0344 -1.6507  0.3017
  212MPD1     N 3228   2.489   0.933  16.556  0.1682  0.3867  0.3942
  212MPD1    H5 3229   2.454   0.848  16.512 -0.6780  1.3037 -0.7229
  212MPD1    N1 3230   2.818   1.274  16.437 -0.5575  0.4618 -0.8269
  212MPD1    H6 3231   2.822   1.301  16.535 -3.3068 -1.6926 -0.1156
  212MPD1    H7 3232   2.900   1.295  16.380  1.6171 -0.6072  1.9447
  213MPD1     C 3233   1.446   1.852  15.609 -0.1270  0.7339  0.6773
  213MPD1    C1 3234   1.423   1.739  15.528 -0.6675  0.8651 -0.5731
  213MPD1    C2 3235   1.287   1.714  15.512  1.2247 -1.0718  0.6515
  213MPD1    C3 3236   1.190   1.818  15.501  0.1945  0.2396  0.5022
  213MPD1    C4 3237   1.241   1.944  15.511  0.7843  0.5531  0.2587
  213MPD1    C5 3238   1.353   1.956  15.588  0.0858  0.1590  0.3353
  213MPD1     H 3239   1.260   1.610  15.494  1.3137 -1.1992  1.2399
  213MPD1    H1 3240   1.181   2.035  15.511 -0.6571 -0.3872 -0.4354
  213MPD1    H2 3241   1.543   1.886  15.642  0.1812 -0.4340  0.9571
  213MPD1    H3 3242   1.372   2.058  15.621 -0.0062  0.3708 -0.2561
  213MPD1     N 3243   1.057   1.792  15.466 -0.6886 -0.3520  0.0737
  213MPD1    H5 3244   1.029   1.705  15.422 -2.3500 -0.1632  0.7743
  213MPD1    N1 3245   1.504   1.625  15.550  0.1929  0.3131  0.5396
  213MPD1    H6 3246   1.495   1.571  15.464 -0.3188  0.5619  0.4360
  213MPD1    H7 3247   1.602   1.652  15.555  0.7892 -1.5760 -0.9448
  214MPD1     C 3248   0.705   1.037  15.227  0.1968  0.7422 -0.0307
  214MPD1    C1 3249   0.601   1.109  15.284  0.1750 -0.0816  0.2953
  214MPD1    C2 3250   0.613   1.243  15.299 -0.2306  0.2576  0.0880
  214MPD1    C3 3251   0.725   1.309  15.258 -0.2850  0.1468  0.3614
  214MPD1    C4 3252   0.827   1.234  15.195 -0.3077  0.5218 -0.8547
  214MPD1    C5 3253   0.818   1.099  15.183  0.2875 -0.2085  0.3051
  214MPD1     H 3254   0.520   1.282  15.339  0.5768 -0.0836  2.3028
  214MPD1    H1 3255   0.912   1.285  15.151 -0.0777 -0.9262 -2.0724
  214MPD1    H2 3256   0.693   0.930  15.225  0.8653  0.6316  1.2282
  214MPD1    H3 3257   0.901   1.038  15.151 -1.8372 -2.2008 -1.4178
  214MPD1     N 3258   0.739   1.452  15.266 -0.1900 -0.3210  0.1610
  214MPD1    H5 3259   0.834   1.488  15.263  0.4748 -2.2098 -1.9524
  214MPD1    N1 3260   0.487   1.042  15.323 -0.8415  0.6634  0.1114
  214MPD1    H6 3261   0.500   0.945  15.351  0.4793  1.0945  0.9707
  214MPD1    H7 3262   0.436   1.092  15.395 -1.0563 -0.0862  0.4747
  215MPD1     C 3263   0.954   2.336  10.571 -0.1368  0.1430 -1.1041
  215MPD1    C1 3264   0.936   2.343  10.713  0.2400  0.2433  0.1548
  215MPD1    C2 3265   1.002   2.446  10.780 -0.0054  0.5274  0.0906
  215MPD1    C3 3266   1.091   2.532  10.718  0.3030  0.1417  0.0878
  215MPD1    C4 3267   1.121   2.514  10.587 -0.0700  0.4226 -0.0923
  215MPD1    C5 3268   1.052   2.418  10.516  0.4042  0.0060  0.8414
  215MPD1     H 3269   0.979   2.459  10.885 -1.6679 -2.4925  0.0780
  215MPD1    H1 3270   1.200   2.566  10.533  0.0230  0.2909 -0.0844
  215MPD1    H2 3271   0.897   2.265  10.511 -1.1102  0.6521 -0.7719
  215MPD1    H3 3272   1.072   2.399  10.411 -1.7218 -3.4665  1.0545
  215MPD1     N 3273   1.155   2.632  10.803  0.1655  0.2823 -0.2252
  215MPD1    H5 3274   1.119   2.634  10.898 -3.3965 -0.3981 -1.5451
  215MPD1    N1 3275   0.853   2.254  10.776  0.3340 -0.5639 -0.4998
  215MPD1    H6 3276   0.830   2.172  10.720 -2.0089 -1.3207  1.5761
  215MPD1    H7 3277   0.898   2.214  10.858 -0.5089 -0.2257  0.1327
  216MPD1     C 3278   2.788   0.214  16.191  0.1479  0.0659 -0.2020
  216MPD1    C1 3279   2.898   0.207  16.282  0.5492  0.9922 -0.5280
  216MPD1    C2 3280   2.878   0.148  16.409  0.0383  0.8756 -0.4136
  216MPD1    C3 3281   2.747   0.113  16.445  1.2639 -0.0762  0.8260
  216MPD1    C4 3282   2.643   0.129  16.362 -0.0980 -0.0823 -0.5057
  216MPD1    C5 3283   2.668   0.177  16.228  0.2872 -0.0142  0.0356
  216MPD1     H 3284   2.966   0.143  16.471  0.5464  1.9711 -1.0484
  216MPD1    H1 3285   2.544   0.108  16.399 -0.2208  0.4653 -0.5214
  216MPD1    H2 3286   2.801   0.239  16.086  1.1176  0.1468 -0.0548
  216MPD1    H3 3287   2.583   0.188  16.161 -0.3188  2.2485  1.1937
  216MPD1     N 3288   2.735   0.066  16.582 -0.2497 -0.7616 -0.0697
  216MPD1    H5 3289   2.819   0.071  16.639 -0.9573 -1.6938  1.0718
  216MPD1    N1 3290   3.032   0.243  16.240  0.3069 -0.4117 -0.4363
  216MPD1    H6 3291   3.091   0.276  16.316  0.9920  0.9420 -1.5565
  216MPD1    H7 3292   3.019   0.316  16.171 -0.4585  1.3030  1.5038
  217MPD1     C 3293   3.629   1.078   8.672  0.6088 -0.2180  0.0698
  217MPD1    C1 3294   3.767   1.097   8.692 -0.1613 -0.0025  0.3642
  217MPD1    C2 3295   3.808   1.150   8.815 -0.0630  0.2645 -0.2668
  217MPD1    C3 3296   3.715   1.202   8.907 -1.1087  0.8134  0.0621
  217MPD1    C4 3297   3.580   1.201   8.870 -0.5525  0.9908  0.3611
  217MPD1    C5 3298   3.539   1.130   8.758 -0.3873  0.0345  0.4192
  217MPD1     H 3299   3.911   1.159   8.845  0.3630 -1.9260 -1.0650
  217MPD1    H1 3300   3.500   1.241   8.932 -0.4496  1.1816  0.3705
  217MPD1    H2 3301   3.594   1.035   8.579  0.4431 -0.1037  0.0783
  217MPD1    H3 3302   3.433   1.126   8.737 -0.0705  0.7103 -1.2821
  217MPD1     N 3303   3.746   1.264   9.027 -0.2516 -0.0685  0.3118
  217MPD1    H5 3304   3.673   1.312   9.080 -1.3496 -0.3762 -0.9310
  217MPD1    N1 3305   3.860   1.036   8.604 -0.2066 -0.2115 -0.7655
  217MPD1    H6 3306   3.934   1.103   8.581 -1.2091  1.4867  0.9651
  217MPD1    H7 3307   3.822   0.995   8.519 -0.9210 -0.2586 -0.4214
  218MPD1     C 3308   0.096   3.412  12.552 -0.1744 -0.2715  0.4165
  218MPD1    C1 3309   0.225   3.442  12.558 -0.0405 -1.2117 -0.2117
  218MPD1    C2 3310   0.322   3.360  12.490 -0.3149  0.1211  0.1858
  218MPD1    C3 3311   0.276   3.259  12.406  0.1211  0.0172  0.2090
  218MPD1    C4 3312   0.138   3.231  12.401 -0.6203  0.5914 -0.7455
  218MPD1    C5 3313   0.047   3.304  12.477  0.7291  0.4302 -0.0020
  218MPD1     H 3314   0.429   3.361  12.502 -0.7868 -0.7998  4.3166
  218MPD1    H1 3315   0.094   3.160  12.332 -1.3435 -0.2594  0.5969
  218MPD1    H2 3316   0.020   3.473  12.601 -0.0324  0.2526 -0.0136
  218MPD1    H3 3317   4.667   3.283  12.476  0.6296  0.9730 -0.3153
  218MPD1     N 3318   0.371   3.196  12.320 -0.2887 -0.3384 -0.0684
  218MPD1    H5 3319   0.468   3.226  12.323  0.0190 -1.1965 -1.2374
  218MPD1    N1 3320   0.276   3.530  12.655 -0.5274 -0.2599 -0.0476
  218MPD1    H6 3321   0.209   3.600  12.687 -0.4768  0.3689 -1.2970
  218MPD1    H7 3322   0.364   3.578  12.635 -0.4991  1.1886  3.5118
  219MPD1     C 3323   1.284   3.238  12.039 -0.2295 -0.1521  0.3296
  219MPD1    C1 3324   1.178   3.314  11.985  0.4197  0.4276  0.8552
  219MPD1    C2 3325   1.045   3.263  12.000 -0.2108  0.2771  0.5792
  219MPD1    C3 3326   1.022   3.142  12.061  0.4191  0.2633 -0.1628
  219MPD1    C4 3327   1.130   3.070  12.107 -0.5473  0.2319  0.0950
  219MPD1    C5 3328   1.260   3.117  12.093 -0.0951 -0.4781  0.0087
  219MPD1     H 3329   0.956   3.317  11.966  1.0011  0.3137 -2.5659
  219MPD1    H1 3330   1.113   2.981  12.165  1.0711 -0.5740 -0.6376
  219MPD1    H2 3331   1.389   3.264  12.035 -0.2963 -0.1845 -1.9727
  219MPD1    H3 3332   1.341   3.056  12.130 -0.8742 -3.0863 -2.5362
  219MPD1     N 3333   0.896   3.076  12.076 -0.1863  0.3232 -0.8653
  219MPD1    H5 3334   0.890   2.986  12.122  0.0949  1.1580  0.8386
  219MPD1    N1 3335   1.211   3.439  11.940 -0.3292  0.6862  0.1264
  219MPD1    H6 3336   1.154   3.465  11.860 -0.1654 -0.2945 -0.3105
  219MPD1    H7 3337   1.309   3.454  11.919 -0.1293 -1.0462 -0.1890
  220MPD1     C 3338   0.105   3.857   9.958 -0.1297 -0.3561 -0.4283
  220MPD1    C1 3339   0.045   3.751  10.023 -0.8651  0.1453  0.5944
  220MPD1    C2 3340   0.126   3.649  10.069  0.4233 -0.1532 -0.3182
  220MPD1    C3 3341   0.269   3.644  10.035 -0.2087  0.1676 -0.0055
  220MPD1    C4 3342   0.321   3.750   9.964 -0.3829  0.7373  1.0219
  220MPD1    C5 3343   0.236   3.858   9.930  0.0908 -0.3665  0.1096
  220MPD1     H 3344   0.067   3.576  10.123 -0.7325  0.6285 -0.5190
  220MPD1    H1 3345   0.427   3.761   9.947 -0.8521 -0.2474 -2.6217
  220MPD1    H2 3346   0.054   3.948   9.928  1.0595  0.3731 -0.2099
  220MPD1    H3 3347   0.278   3.946   9.882 -0.9200 -0.1552 -0.3836
  220MPD1     N 3348   0.350   3.536  10.070  0.3734 -0.2676 -0.1077
  220MPD1    H5 3349   0.448   3.540  10.046 -0.2855  0.4600 -2.7219
  220MPD1    N1 3350   4.630   3.753  10.048  0.0634 -0.1227  0.2050
  220MPD1    H6 3351   4.600   3.705  10.133  1.0346  0.7781  1.0643
  220MPD1    H7 3352   4.584   3.843  10.051 -0.6567 -0.5059  0.6640
  221MPD1     C 3353   2.394   2.131  17.541 -0.5026 -0.2074 -0.4554
  221MPD1    C1 3354   2.375   2.203  17.421  0.1568  0.2067  0.0131
  221MPD1    C2 3355   2.473   2.211  17.329 -1.2790  0.1015 -0.2663
  221MPD1    C3 3356   2.590   2.153  17.344 -0.3127 -1.3518  0.1884
  221MPD1    C4 3357   2.614   2.088  17.460  0.5153  0.3349  0.5825
  221MPD1    C5 3358   2.518   2.079  17.564 -0.6531 -0.0425 -0.2854
  221MPD1     H 3359   2.453   2.269  17.240 -3.2739 -0.6243 -0.2986
  221MPD1    H1 3360   2.711   2.043  17.478  0.0188 -0.4707  1.2815
  221MPD1    H2 3361   2.317   2.123  17.617 -1.9885 -0.0005 -1.9574
  221MPD1    H3 3362   2.544   2.018  17.650  0.3153  0.4347 -0.2359
  221MPD1     N 3363   2.690   2.166  17.246  0.0169 -0.2768  0.3274
  221MPD1    H5 3364   2.779   2.116  17.253 -0.0016 -0.3535  0.0041
  221MPD1    N1 3365   2.251   2.277  17.409 -0.2649  0.1606  1.0355
  221MPD1    H6 3366   2.229   2.305  17.314 -2.0121 -0.8387  1.1379
  221MPD1    H7 3367   2.169   2.238  17.455 -0.9307 -0.3705 -0.5923
  222MPD1     C 3368   2.745   0.505  16.604 -0.1463 -0.2591  0.3501
  222MPD1    C1 3369   2.749   0.639  16.620 -0.3365 -0.0263 -0.3533
  222MPD1    C2 3370   2.697   0.685  16.742 -0.9924 -0.5301 -0.4533
  222MPD1    C3 3371   2.639   0.606  16.841 -0.6186  0.5235 -0.4117
  222MPD1    C4 3372   2.631   0.470  16.814  0.0192 -0.5695  0.0258
  222MPD1    C5 3373   2.679   0.424  16.698 -0.8281  0.0527 -0.8415
  222MPD1     H 3374   2.703   0.792  16.755  0.3088 -0.8356  1.4884
  222MPD1    H1 3375   2.575   0.412  16.886 -1.1816  1.4701  0.7464
  222MPD1    H2 3376   2.789   0.455  16.518 -0.7316 -0.4350  0.1540
  222MPD1    H3 3377   2.673   0.316  16.683 -0.7827 -0.4214  2.5534
  222MPD1     N 3378   2.578   0.642  16.967 -0.5068  0.2191  0.7002
  222MPD1    H5 3379   2.565   0.567  17.034  0.9881  0.2293  1.0019
  222MPD1    N1 3380   2.815   0.731  16.541  0.0523  0.5144 -0.0945
  222MPD1    H6 3381   2.828   0.701  16.445 -1.5703 -1.9799  0.4717
  222MPD1    H7 3382   2.760   0.817  16.545  0.5351  0.8093  0.3058
  223MPD1     C 3383   1.947   0.524   0.057 -0.1380  0.8842 -0.2391
  223MPD1    C1 3384   2.009   0.638   0.094  0.6453 -0.3190  0.4587
  223MPD1    C2 3385   2.109   0.678   0.007  0.0215  0.3525  0.1233
  223MPD1    C3 3386   2.131   0.624  17.596 -0.3009  0.3808 -1.1846
  223MPD1    C4 3387   2.053   0.513  17.562 -0.1429  0.0432 -0.4295
  223MPD1    C5 3388   1.971   0.456  17.649  0.1259  0.6901 -0.7610
  223MPD1     H 3389   2.177   0.758   0.034  1.8555 -0.7116 -1.3181
  223MPD1    H1 3390   2.067   0.459  17.469  1.9786 -1.8754  1.0057
  223MPD1    H2 3391   1.875   0.478   0.125  1.8218  0.2634  1.4171
  223MPD1    H3 3392   1.933   0.359  17.620 -0.1923 -0.1539  2.4953
  223MPD1     N 3393   2.228   0.679  17.507  0.9971  0.2450  0.6674
  223MPD1    H5 3394   2.260   0.774  17.524  0.5602  0.5295 -0.1188
  223MPD1    N1 3395   2.006   0.699   0.226  0.5200  0.3043  0.4847
  223MPD1    H6 3396   1.924   0.677   0.283  0.3134 -1.3895 -0.4502
  223MPD1    H7 3397   2.027   0.798   0.238  1.2296  0.3010 -0.7822
  224MPD1     C 3398   4.036   1.718   8.851  0.8245 -0.4501 -0.3003
  224MPD1    C1 3399   3.943   1.815   8.875 -0.2093 -0.1871  0.2954
  224MPD1    C2 3400   3.920   1.855   9.004 -0.1543  0.5350 -0.2798
  224MPD1    C3 3401   4.015   1.822   9.101 -0.2901  0.5950  0.1320
  224MPD1    C4 3402   4.110   1.730   9.073 -0.2975  0.6283  0.3192
  224MPD1    C5 3403   4.128   1.683   8.949  0.2680 -0.4143 -0.2361
  224MPD1     H 3404   3.842   1.928   9.021 -1.0775 -0.7409  1.0634
  224MPD1    H1 3405   4.168   1.695   9.157  0.7702 -1.0583 -1.1319
  224MPD1    H2 3406   4.042   1.675   8.752 -0.2375 -3.7355  1.0908
  224MPD1    H3 3407   4.200   1.605   8.928  1.7592  0.3933  1.8613
  224MPD1     N 3408   4.028   1.888   9.227  1.0476 -0.2924  0.3213
  224MPD1    H5 3409   4.089   1.850   9.299  1.7720 -0.3633 -0.3224
  224MPD1    N1 3410   3.852   1.848   8.774  0.0414  0.5149  0.2759
  224MPD1    H6 3411   3.786   1.924   8.787  1.0721  1.8639 -2.4659
  224MPD1    H7 3412   3.893   1.838   8.682 -0.3325 -0.3675  0.2024
  225MPD1     C 3413   0.593   3.574  12.178  0.3259  0.1353 -0.1009
  225MPD1    C1 3414   0.499   3.511  12.100  0.4132 -0.4405  0.2230
  225MPD1    C2 3415   0.366   3.520  12.136 -1.2887  0.0556 -0.2358
  225MPD1    C3 3416   0.323   3.608  12.239 -0.4484  0.2197  0.0607
  225MPD1    C4 3417   0.416   3.682  12.309  0.0473 -0.1992  0.1154
  225MPD1    C5 3418   0.551   3.658  12.280 -0.1991  0.1332  0.1438
  225MPD1     H 3419   0.292   3.466  12.079 -0.6337  1.1712 -2.1256
  225MPD1    H1 3420   0.391   3.748  12.391  1.2951 -0.5685  0.7917
  225MPD1    H2 3421   0.700   3.573  12.167  0.2840  2.7799 -0.8460
  225MPD1    H3 3422   0.627   3.706  12.341 -0.3046 -2.2951  2.1919
  225MPD1     N 3423   0.192   3.616  12.289 -0.1072  0.2777  0.6441
  225MPD1    H5 3424   0.188   3.666  12.377  2.7563 -0.4729  1.2109
  225MPD1    N1 3425   0.543   3.447  11.984 -0.8852  0.1682 -1.2148
  225MPD1    H6 3426   0.474   3.386  11.942  1.1342 -2.5556 -0.5515
  225MPD1    H7 3427   0.628   3.393  11.999 -0.2478  1.5548  0.2800
  226MPD1     C 3428   3.287   2.559   8.239  0.1575 -0.1199 -0.4319
  226MPD1    C1 3429   3.158   2.554   8.201 -0.2850  0.2405  0.0297
  226MPD1    C2 3430   3.059   2.475   8.266 -0.0718  0.1279 -0.1976
  226MPD1    C3 3431   3.100   2.423   8.386 -0.4373 -0.5628 -0.4585
  226MPD1    C4 3432   3.232   2.434   8.425 -0.1520  0.9963 -0.0268
  226MPD1    C5 3433   3.324   2.495   8.349 -1.0879  0.1784  0.2689
  226MPD1     H 3434   2.959   2.469   8.223  0.6908 -0.3394 -1.9268
  226MPD1    H1 3435   3.258   2.390   8.520 -1.8400  0.7422  0.3218
  226MPD1    H2 3436   3.376   2.604   8.198  0.3956  0.9049  1.1918
  226MPD1    H3 3437   3.425   2.498   8.388 -1.1636  2.1795  0.3569
  226MPD1     N 3438   3.010   2.368   8.475 -0.0483  0.6827  1.0568
  226MPD1    H5 3439   3.053   2.324   8.556  0.9856  2.5754  1.5278
  226MPD1    N1 3440   3.131   2.610   8.075 -0.1157  0.0606 -0.2166
  226MPD1    H6 3441   3.186   2.695   8.068 -1.1329  0.6338 -1.3402
  226MPD1    H7 3442   3.034   2.636   8.059  0.2468  1.7640  0.4039
  227MPD1     C 3443   2.036   2.092   8.953 -0.5198  0.0824  0.3684
  227MPD1    C1 3444   2.140   2.040   9.025 -0.2451 -0.0441  0.5424
  227MPD1    C2 3445   2.265   2.057   8.975  0.4226 -0.1039  0.6658
  227MPD1    C3 3446   2.296   2.124   8.858 -0.0377  0.0643  1.0778
  227MPD1    C4 3447   2.189   2.172   8.789 -0.1248  0.6039 -0.2068
  227MPD1    C5 3448   2.064   2.155   8.837  0.7452  0.3442  0.8361
  227MPD1     H 3449   2.346   2.016   9.035  1.9250 -1.2689 -2.1503
  227MPD1    H1 3450   2.199   2.230   8.698  2.3713 -0.2672 -0.4833
  227MPD1    H2 3451   1.935   2.087   8.992  0.1592 -1.8119  1.8488
  227MPD1    H3 3452   1.985   2.193   8.774  0.0167 -0.9302  0.9831
  227MPD1     N 3453   2.430   2.153   8.820 -0.5841 -0.4581 -0.2264
  227MPD1    H5 3454   2.499   2.105   8.877 -0.5503  0.0750  0.1787
  227MPD1    N1 3455   2.116   1.990   9.158  0.9115 -0.2842  0.0412
  227MPD1    H6 3456   2.178   1.913   9.183 -1.1978 -1.6608  1.0597
  227MPD1    H7 3457   2.019   1.957   9.161  0.2079  1.9249  1.3225
  228MPD1     C 3458   2.320   1.851  12.397 -0.1243  0.7441  0.0706
  228MPD1    C1 3459   2.263   1.804  12.283  0.5409  0.3718 -0.9052
  228MPD1    C2 3460   2.157   1.723  12.300 -0.2132  0.3494 -0.0631
  228MPD1    C3 3461   2.099   1.703  12.426 -0.5280 -0.0186 -0.4834
  228MPD1    C4 3462   2.155   1.765  12.536  0.2443  0.5601  0.4859
  228MPD1    C5 3463   2.268   1.833  12.524 -0.3002  0.8260 -0.8169
  228MPD1     H 3464   2.105   1.701  12.207 -1.1725 -2.3169  1.1015
  228MPD1    H1 3465   2.118   1.757  12.637  0.2350 -0.2531  0.4165
  228MPD1    H2 3466   2.415   1.903  12.388  0.7470 -0.9934 -0.7822
  228MPD1    H3 3467   2.308   1.879  12.614  1.1982 -0.6013 -0.7559
  228MPD1     N 3468   1.980   1.623  12.434  0.1943 -0.3069 -0.7566
  228MPD1    H5 3469   1.951   1.580  12.347 -1.8925  0.3092 -0.3537
  228MPD1    N1 3470   2.333   1.808  12.161  0.1123  0.5242  0.0809
  228MPD1    H6 3471   2.270   1.806  12.082 -0.3183  2.7713  0.3642
  228MPD1    H7 3472   2.390   1.892  12.151 -0.1780  0.8542  1.2767
  229MPD1     C 3473   1.018   0.394  14.534 -0.2216  0.2601  0.5717
  229MPD1    C1 3474   1.117   0.338  14.455 -0.4157 -1.1705 -0.3126
  229MPD1    C2 3475   1.184   0.226  14.496  0.2183  0.1275 -0.2581
  229MPD1    C3 3476   1.159   0.173  14.623 -0.2993  0.3969  0.1939
  229MPD1    C4 3477   1.050   0.214  14.694 -0.4518 -0.2657  0.3949
  229MPD1    C5 3478   0.977   0.327  14.648  0.1400 -0.2179  0.2584
  229MPD1     H 3479   1.266   0.189  14.436 -1.0734 -2.9892 -0.1063
  229MPD1    H1 3480   1.041   0.166  14.791  0.0083 -1.2480 -0.0555
  229MPD1    H2 3481   0.977   0.487  14.494  1.6930  1.6812  1.9365
  229MPD1    H3 3482   0.888   0.363  14.699  1.2129 -1.3175  2.9319
  229MPD1     N 3483   1.228   0.064  14.674  0.6265  0.0065  0.2845
  229MPD1    H5 3484   1.194   0.030  14.763 -0.8045 -0.9666 -0.6334
  229MPD1    N1 3485   1.151   0.390  14.327 -0.1667 -0.2094 -0.5403
  229MPD1    H6 3486   1.122   0.487  14.320  0.5887 -0.0199 -1.0152
  229MPD1    H7 3487   1.250   0.380  14.305  0.1403  0.8132  0.3823
  230MPD1     C 3488   1.030   3.866  15.008  0.1234 -0.2600  0.3154
  230MPD1    C1 3489   1.168   3.858  14.998 -0.0590  0.0590 -0.0318
  230MPD1    C2 3490   1.229   3.969  14.946  0.0199  0.2061 -0.1250
  230MPD1    C3 3491   1.164   4.086  14.911 -0.1994  0.4914  0.7555
  230MPD1    C4 3492   1.028   4.091  14.932 -0.5785  0.2568 -0.5046
  230MPD1    C5 3493   0.971   3.985  14.982 -1.1816  0.2535 -0.0748
  230MPD1     H 3494   1.335   3.967  14.923  0.2632  2.8419  0.7718
  230MPD1    H1 3495   0.961   4.176  14.927 -1.9652 -1.0248 -3.5373
  230MPD1    H2 3496   0.975   3.778  15.039  0.5810 -0.6423  0.0333
  230MPD1    H3 3497   0.863   3.994  14.979 -1.2337 -0.2694  0.3187
  230MPD1     N 3498   1.248   4.187  14.863 -0.1702  0.0099  0.3687
  230MPD1    H5 3499   1.345   4.167  14.842  0.1111  2.4923 -0.6721
  230MPD1    N1 3500   1.227   3.735  15.022  0.1290  0.5386 -0.0959
  230MPD1    H6 3501   1.188   3.677  15.095  0.5771 -1.8405 -1.7301
  230MPD1    H7 3502   1.328   3.740  15.034  0.4975 -0.1866 -2.7542
  231MPD1     C 3503   3.941   1.674  15.563  0.3173  0.6065 -0.1892
  231MPD1    C1 3504   3.953   1.616  15.438  0.0631  0.6399  0.5242
  231MPD1    C2 3505   4.070   1.634  15.365 -0.0069 -0.2986  0.4003
  231MPD1    C3 3506   4.162   1.721  15.415 -0.5479  0.4133 -0.6864
  231MPD1    C4 3507   4.143   1.785  15.536 -0.0381 -0.3075  0.6330
  231MPD1    C5 3508   4.031   1.758  15.615 -0.7077 -0.6225 -0.0466
  231MPD1     H 3509   4.078   1.577  15.273  0.1173 -1.5392  1.1721
  231MPD1    H1 3510   4.213   1.858  15.575  0.4653  0.0386 -0.9191
  231MPD1    H2 3511   3.845   1.672  15.613  0.5109  2.0380  0.2226
  231MPD1    H3 3512   4.012   1.803  15.711 -0.8404  1.5625 -1.0959
  231MPD1     N 3513   4.288   1.739  15.345 -0.3113  0.0202 -0.1960
  231MPD1    H5 3514   4.287   1.696  15.253 -1.6188 -0.7030  0.1639
  231MPD1    N1 3515   3.865   1.513  15.405 -0.0944  0.4775  0.7002
  231MPD1    H6 3516   3.772   1.530  15.443 -0.7253 -4.2504  1.2177
  231MPD1    H7 3517   3.859   1.485  15.308 -1.4914  0.0336  0.9161
  232MPD1     C 3518   2.069   0.184   0.192 -0.2392  1.0616 -0.3265
  232MPD1    C1 3519   2.056   0.059   0.133 -0.0391 -0.3554  0.3647
  232MPD1    C2 3520   1.937   4.721   0.145  0.0869  0.3402 -0.1521
  232MPD1    C3 3521   1.824   0.046   0.205  0.0819 -0.4900 -0.0885
  232MPD1    C4 3522   1.841   0.176   0.264 -0.1809  0.8003  0.1802
  232MPD1    C5 3523   1.964   0.242   0.256 -0.7048  0.1821 -0.0556
  232MPD1     H 3524   1.922   4.625   0.097 -1.8252  0.6546 -0.1915
  232MPD1    H1 3525   1.763   0.227   0.320 -1.7396 -0.7797 -0.5576
  232MPD1    H2 3526   2.165   0.234   0.186  1.0783 -1.6309 -1.9100
  232MPD1    H3 3527   1.981   0.340   0.300 -0.5412  1.1936 -2.3736
  232MPD1     N 3528   1.705   4.692   0.219 -0.2932  0.9927 -0.5937
  232MPD1    H5 3529   1.700   4.598   0.181 -0.1107 -0.2264  2.4302
  232MPD1    N1 3530   2.165   4.709   0.081 -0.0025 -0.2813  0.3721
  232MPD1    H6 3531   2.137   4.631   0.021 -0.1310 -0.4721  0.6833
  232MPD1    H7 3532   2.245   0.032   0.045 -0.9970  0.6746 -0.5319
  233MPD1     C 3533   1.893   2.818   1.687  0.4382 -0.0809 -0.5662
  233MPD1    C1 3534   1.972   2.848   1.577 -0.0478 -0.4576 -0.8614
  233MPD1    C2 3535   2.096   2.778   1.570 -0.1048 -0.0499  0.1027
  233MPD1    C3 3536   2.138   2.675   1.661 -0.0675  0.4924 -0.1631
  233MPD1    C4 3537   2.048   2.652   1.764 -0.2177  0.3175 -0.0399
  233MPD1    C5 3538   1.927   2.722   1.774  0.5550  0.3590 -0.3738
  233MPD1     H 3539   2.150   2.811   1.482  0.7282  0.3515  0.7631
  233MPD1    H1 3540   2.055   2.568   1.832  0.6639  0.6097  0.2297
  233MPD1    H2 3541   1.805   2.878   1.703 -0.3126 -1.4440  0.3670
  233MPD1    H3 3542   1.855   2.700   1.852  1.3193 -2.5748 -0.5065
  233MPD1     N 3543   2.267   2.620   1.664  0.9426 -0.6141  0.2398
  233MPD1    H5 3544   2.288   2.568   1.748  1.0642 -0.4321  0.3235
  233MPD1    N1 3545   1.950   2.961   1.500 -0.3057 -0.3126  0.2342
  233MPD1    H6 3546   1.851   2.987   1.505 -1.0374 -2.8905 -1.0247
  233MPD1    H7 3547   1.975   2.952   1.402  1.6449  0.8995  0.6164
  234MPD1     C 3548   0.289   1.104  10.500 -0.3835  0.0159  0.1150
  234MPD1    C1 3549   0.251   1.210  10.576 -0.4957  0.4648 -0.0504
  234MPD1    C2 3550   0.151   1.289  10.524 -0.5826 -0.3689 -0.3028
  234MPD1    C3 3551   0.081   1.250  10.406  0.1076 -0.1794 -0.4458
  234MPD1    C4 3552   0.112   1.126  10.344  0.3355 -0.0583 -0.2645
  234MPD1    C5 3553   0.220   1.063  10.388  0.0639  0.6566 -0.0200
  234MPD1     H 3554   0.140   1.389  10.565  1.6963 -1.4539  2.9068
  234MPD1    H1 3555   0.055   1.084  10.262  1.4472 -1.8707 -0.1038
  234MPD1    H2 3556   0.355   1.021  10.525  0.2977  0.2333 -0.9518
  234MPD1    H3 3557   0.246   0.971  10.336  0.7871  1.0755 -0.4079
  234MPD1     N 3558   4.701   1.330  10.359 -0.2522  0.1959  0.0651
  234MPD1    H5 3559   4.695   1.422  10.400 -0.0845 -0.5359  1.7363
  234MPD1    N1 3560   0.329   1.255  10.686 -0.0318  0.5753 -0.2973
  234MPD1    H6 3561   0.266   1.286  10.760 -0.4706  0.2876 -0.5488
  234MPD1    H7 3562   0.382   1.179  10.727 -0.3461  1.4565  1.7383
  235MPD1     C 3563   3.471   0.061  10.136 -0.1712 -0.7484 -0.1399
  235MPD1    C1 3564   3.376   0.139  10.071 -0.2200  0.1969  0.3181
  235MPD1    C2 3565   3.237   0.110  10.082  0.3636 -0.5399 -0.6172
  235MPD1    C3 3566   3.203   4.725  10.155  0.9688 -1.1134 -0.8253
  235MPD1    C4 3567   3.294   4.650  10.221  0.2496  0.0186 -0.1622
  235MPD1    C5 3568   3.430   4.685  10.210 -0.4131 -0.4107 -0.2490
  235MPD1     H 3569   3.168   0.174  10.028 -2.5348  0.0396  3.8371
  235MPD1    H1 3570   3.267   4.565  10.282 -0.2143 -0.8922 -1.6382
  235MPD1    H2 3571   3.576   0.079  10.115  0.5461 -0.6979  3.4430
  235MPD1    H3 3572   3.504   4.623  10.259  2.0849  2.5341 -0.2877
  235MPD1     N 3573   3.065   4.683  10.160 -0.1955  0.0049 -0.4166
  235MPD1    H5 3574   2.996   0.018  10.120  1.2098  0.6544 -1.8722
  235MPD1    N1 3575   3.411   0.262  10.033  0.4124 -0.5527  0.0248
  235MPD1    H6 3576   3.506   0.280  10.002  0.6363 -1.7055  0.0509
  235MPD1    H7 3577   3.356   0.300   9.956 -3.3739  1.1345  3.5025
  236MPD1     C 3578   4.624   0.351   9.933  0.3170  0.2167 -0.2131
  236MPD1    C1 3579   4.660   0.222   9.962  0.1897  0.0620 -0.2688
  236MPD1    C2 3580   0.042   0.199  10.034  0.1496 -0.5935 -0.4896
  236MPD1    C3 3581   0.111   0.304  10.091 -0.1940 -0.4568 -0.6644
  236MPD1    C4 3582   0.069   0.436  10.076 -0.4253 -0.4015  0.3559
  236MPD1    C5 3583   4.680   0.458  10.002  0.4500  0.3121 -0.9874
  236MPD1     H 3584   0.079   0.098  10.051  2.8025  0.8754  2.3065
  236MPD1    H1 3585   0.121   0.529  10.096  0.9440 -0.9306 -0.6671
  236MPD1    H2 3586   4.534   0.373   9.877  1.2916  0.6158 -1.6330
  236MPD1    H3 3587   4.633   0.555   9.989  1.9792  1.1272 -0.5624
  236MPD1     N 3588   0.234   0.280  10.162 -0.3934 -0.7877  0.0775
  236MPD1    H5 3589   0.279   0.364  10.198 -0.7567 -0.4583 -0.2367
  236MPD1    N1 3590   4.574   0.120   9.904 -0.4582  0.7052 -0.3212
  236MPD1    H6 3591   4.473   0.134   9.909 -0.4700  0.8995 -1.1043
  236MPD1    H7 3592   4.589   0.027   9.943  1.4844  1.4958  0.8081
  237MPD1     C 3593   4.496   2.996  14.855 -0.0298 -0.4430 -0.0531
  237MPD1    C1 3594   4.406   2.981  14.757 -0.3648  0.4798 -0.3188
  237MPD1    C2 3595   4.275   3.031  14.771 -0.0498  0.2339  0.1080
  237MPD1    C3 3596   4.243   3.103  14.885 -0.4443  0.1969 -0.6121
  237MPD1    C4 3597   4.341   3.133  14.976  0.0103  0.1603  0.0613
  237MPD1    C5 3598   4.467   3.084  14.960  0.3095  0.0927 -0.3203
  237MPD1     H 3599   4.209   3.006  14.690  1.3327 -2.9835 -0.0533
  237MPD1    H1 3600   4.315   3.203  15.055  2.0580  0.3101  0.5946
  237MPD1    H2 3601   4.592   2.946  14.852 -0.7488 -1.8685  0.9646
  237MPD1    H3 3602   4.551   3.110  15.025  0.6011  0.8017 -0.9819
  237MPD1     N 3603   4.120   3.174  14.903  0.0684 -0.5747  0.0574
  237MPD1    H5 3604   4.109   3.233  14.985  0.5259  0.7158 -0.8121
  237MPD1    N1 3605   4.439   2.893  14.649 -0.4742  0.3594 -0.2651
  237MPD1    H6 3606   4.389   2.931  14.569  0.1252 -0.6904 -1.1510
  237MPD1    H7 3607   4.538   2.907  14.626 -0.1411 -1.5019 -0.0108
  238MPD1     C 3608   2.259   1.889  14.298  0.3132 -0.2768  0.1847
  238MPD1    C1 3609   2.232   1.898  14.433 -0.1704  0.2853 -0.7543
  238MPD1    C2 3610   2.102   1.905  14.476  0.0833 -0.0302 -0.8925
  238MPD1    C3 3611   2.000   1.920  14.386  0.0415 -0.4415  0.9993
  238MPD1    C4 3612   2.038   1.922  14.251  0.2925  0.0364 -0.1778
  238MPD1    C5 3613   2.161   1.902  14.202  0.3761 -0.7226 -0.5032
  238MPD1     H 3614   2.080   1.883  14.580  0.5838  0.4615 -0.6813
  238MPD1    H1 3615   1.954   1.941  14.185  0.1286 -2.0319 -0.5680
  238MPD1    H2 3616   2.360   1.888  14.257 -0.9069  2.5384 -2.8724
  238MPD1    H3 3617   2.180   1.918  14.097 -0.0565 -0.5999 -0.5642
  238MPD1     N 3618   1.861   1.929  14.415 -0.7680 -0.4676  0.0115
  238MPD1    H5 3619   1.791   1.924  14.342 -1.0658  0.8286  0.2035
  238MPD1    N1 3620   2.342   1.863  14.517  1.0068 -0.3214 -0.1026
  238MPD1    H6 3621   2.331   1.899  14.611  1.1756 -0.0521 -0.1873
  238MPD1    H7 3622   2.432   1.889  14.477  1.2648  0.6655  1.1214
  239MPD1     C 3623   0.993   3.627  14.337  0.2912  0.2081 -0.2324
  239MPD1    C1 3624   0.979   3.496  14.334  0.3263 -0.3370 -0.6301
  239MPD1    C2 3625   1.067   3.417  14.404  0.4747  0.0962  0.2384
  239MPD1    C3 3626   1.184   3.466  14.454  0.5294  0.1868 -0.9406
  239MPD1    C4 3627   1.210   3.600  14.438  0.4177 -0.3538  0.7095
  239MPD1    C5 3628   1.109   3.681  14.395  0.5994 -0.7223 -0.4655
  239MPD1     H 3629   1.047   3.310  14.404  0.9202  0.0154 -1.2615
  239MPD1    H1 3630   1.300   3.650  14.473  0.7620 -1.8943  2.0567
  239MPD1    H2 3631   0.917   3.697  14.307  1.2640  0.6207 -1.7378
  239MPD1    H3 3632   1.128   3.787  14.382 -2.2419 -0.1508  0.0222
  239MPD1     N 3633   1.285   3.382  14.506 -0.4599  0.0548  0.0728
  239MPD1    H5 3634   1.375   3.426  14.523 -0.1581  0.1560 -1.7629
  239MPD1    N1 3635   0.860   3.450  14.275 -0.4344 -0.1880  0.2652
  239MPD1    H6 3636   0.872   3.354  14.244 -1.3277 -1.1035  2.7449
  239MPD1    H7 3637   0.818   3.516  14.210  0.8426  0.9879  0.6339
  240MPD1     C 3638   1.370   2.911  13.954  0.1323 -0.1893 -0.7259
  240MPD1    C1 3639   1.245   2.859  13.957 -0.1612 -0.0419 -0.1752
  240MPD1    C2 3640   1.219   2.761  14.051 -0.5295  0.5221 -0.1827
  240MPD1    C3 3641   1.319   2.706  14.131  0.6588  0.2866 -0.1527
  240MPD1    C4 3642   1.443   2.753  14.116 -0.2751  0.2307 -0.1955
  240MPD1    C5 3643   1.466   2.857  14.032  0.5450  0.3974  0.0964
  240MPD1     H 3644   1.116   2.734  14.066 -0.0345  1.5339  4.8973
  240MPD1    H1 3645   1.513   2.725  14.194  0.1673 -3.5362 -1.9498
  240MPD1    H2 3646   1.398   2.994  13.891 -0.4350 -1.1162 -2.1764
  240MPD1    H3 3647   1.556   2.917  14.041 -1.2800  3.0376  0.5560
  240MPD1     N 3648   1.279   2.612  14.225  0.3817  0.0705 -0.6312
  240MPD1    H5 3649   1.183   2.579  14.218  0.0096  0.5556  1.8423
  240MPD1    N1 3650   1.131   2.923  13.892  0.1769 -0.1138 -0.0333
  240MPD1    H6 3651   1.061   2.856  13.862 -0.4808  0.7226 -0.3729
  240MPD1    H7 3652   1.171   2.963  13.807 -2.1645  1.1367 -0.5429
  241MPD1     C 3653   1.644   2.137  15.068 -0.3968 -0.1915 -0.1817
  241MPD1    C1 3654   1.514   2.101  15.056 -0.2413 -0.2986  0.1304
  241MPD1    C2 3655   1.458   2.139  14.934  0.4436  0.2137  0.0298
  241MPD1    C3 3656   1.517   2.229  14.840 -0.2064  0.3156 -0.4087
  241MPD1    C4 3657   1.650   2.265  14.861  0.0956  0.2765  0.3492
  241MPD1    C5 3658   1.708   2.220  14.982 -0.5194  0.3070 -0.2075
  241MPD1     H 3659   1.354   2.110  14.921 -0.3611  1.8654  3.0445
  241MPD1    H1 3660   1.714   2.318  14.792 -0.2185  1.1390  0.7201
  241MPD1    H2 3661   1.704   2.101  15.150 -0.2066  0.5196 -0.0141
  241MPD1    H3 3662   1.815   2.234  14.995 -0.7074  1.7905 -0.2408
  241MPD1     N 3663   1.446   2.276  14.726  0.8541  0.2466 -0.5899
  241MPD1    H5 3664   1.493   2.345  14.667 -2.5478  2.4186 -0.7679
  241MPD1    N1 3665   1.448   2.013  15.142 -0.0520  0.3585 -0.3766
  241MPD1    H6 3666   1.347   2.020  15.133  0.0122  1.0356 -0.6252
  241MPD1    H7 3667   1.469   2.041  15.238  0.0361 -0.0849 -0.2677
  242MPD1     C 3668   1.090   0.846  15.974 -0.5099  0.5952 -0.2024
  242MPD1    C1 3669   1.023   0.899  15.864  0.0509 -0.6848  0.1963
  242MPD1    C2 3670   1.038   0.850  15.739  0.7383 -0.7956  0.3209
  242MPD1    C3 3671   1.110   0.740  15.724 -0.2783  0.6384  0.0362
  242MPD1    C4 3672   1.180   0.681  15.825  0.8556 -0.1809  0.7851
  242MPD1    C5 3673   1.171   0.736  15.950 -0.2899 -0.0320 -0.1951
  242MPD1     H 3674   0.971   0.882  15.660 -0.2892  0.4641  1.7048
  242MPD1    H1 3675   1.243   0.596  15.800  0.1884 -0.5422  0.3404
  242MPD1    H2 3676   1.070   0.868  16.078 -0.1472  0.9285 -0.2047
  242MPD1    H3 3677   1.225   0.692  16.034  3.9518  2.6404 -1.5198
  242MPD1     N 3678   1.121   0.674  15.598  0.4047 -1.0148 -0.0543
  242MPD1    H5 3679   1.170   0.585  15.594  3.7081  0.7182  1.6407
  242MPD1    N1 3680   0.912   0.976  15.893 -0.9318 -0.1055 -0.2460
  242MPD1    H6 3681   0.896   1.041  15.816 -2.0370 -0.9631 -0.7560
  242MPD1    H7 3682   0.918   1.026  15.981  0.7704  0.4879 -0.7094
  243MPD1     C 3683   3.342   0.028   0.522 -0.6910  0.2358 -0.1151
  243MPD1    C1 3684   3.225   4.695   0.536 -0.5552  0.4318 -0.1825
  243MPD1    C2 3685   3.165   4.667   0.414 -0.8239  0.6775 -0.5498
  243MPD1    C3 3686   3.200   0.000   0.297 -0.1218 -0.1161 -0.2046
  243MPD1    C4 3687   3.315   0.069   0.293 -0.0484  0.4642 -0.3814
  243MPD1    C5 3688   3.387   0.077   0.407 -0.4921  1.0212 -0.6681
  243MPD1     H 3689   3.077   4.604   0.420  0.8493 -1.4467  2.0787
  243MPD1    H1 3690   3.359   0.106   0.201  2.0185 -0.2743  0.3179
  243MPD1    H2 3691   3.396   0.053   0.613 -0.5966  2.0632 -0.6594
  243MPD1    H3 3692   3.489   0.115   0.412  0.7195 -2.0052 -1.9583
  243MPD1     N 3693   3.119   4.697   0.183 -0.0640  0.8530  1.0096
  243MPD1    H5 3694   3.054   4.621   0.198  1.1696 -0.5562 -0.7231
  243MPD1    N1 3695   3.191   4.616   0.648 -0.4357 -0.1665  0.0853
  243MPD1    H6 3696   3.225   4.661   0.733  0.3044 -0.4706 -0.0483
  243MPD1    H7 3697   3.093   4.589   0.655 -0.3485 -0.5849 -0.3366
  244MPD1     C 3698   2.370   0.288   0.012 -0.3986  0.0791  0.2569
  244MPD1    C1 3699   2.446   0.263   0.124 -0.3514  0.2200 -0.7213
  244MPD1    C2 3700   2.545   0.164   0.120  0.4705  0.7738 -0.2069
  244MPD1    C3 3701   2.565   0.093   0.006 -0.3854 -0.1970  0.0382
  244MPD1    C4 3702   2.488   0.122  17.600 -0.1097  0.4963 -0.3695
  244MPD1    C5 3703   2.390   0.216  17.610 -0.3880 -0.5480  0.0325
  244MPD1     H 3704   2.600   0.131   0.208  1.6280  1.1192 -0.7950
  244MPD1    H1 3705   2.491   0.067  17.507 -2.6086  0.4452 -0.4198
  244MPD1    H2 3706   2.306   0.375   0.018  0.9063  0.9717  1.3596
  244MPD1    H3 3707   2.331   0.232  17.521 -1.0096 -0.7868  0.4068
  244MPD1     N 3708   2.665   4.723   0.012 -0.1555 -0.1649  0.2685
  244MPD1    H5 3709   2.723   4.716   0.095 -0.6033 -0.8065  0.5278
  244MPD1    N1 3710   2.440   0.351   0.231 -0.1583 -0.0651  0.2479
  244MPD1    H6 3711   2.359   0.411   0.242 -0.0532  0.2195 -0.5338
  244MPD1    H7 3712   2.473   0.312   0.319  2.2276  1.9299  0.2249
  245MPD1     C 3713   0.107   0.077  13.112 -0.0335 -0.7262  0.4472
  245MPD1    C1 3714   0.049   0.119  13.233  0.9690  0.0852 -0.4504
  245MPD1    C2 3715   0.077   0.248  13.285  0.3892 -0.6065  0.1730
  245MPD1    C3 3716   0.171   0.335  13.220  0.3687 -0.0508 -0.6189
  245MPD1    C4 3717   0.236   0.285  13.103  0.2884 -0.6550  0.9364
  245MPD1    C5 3718   0.209   0.158  13.062 -0.1600  0.0238 -0.7182
  245MPD1     H 3719   0.026   0.291  13.370 -1.8470 -0.2213 -1.3724
  245MPD1    H1 3720   0.301   0.343  13.038 -0.1126  0.9243  1.9520
  245MPD1    H2 3721   0.079   4.710  13.064  0.8078 -1.8186  2.1087
  245MPD1    H3 3722   0.260   0.128  12.971  1.1737 -0.5528  0.2129
  245MPD1     N 3723   0.186   0.459  13.275  0.4543 -0.2528 -0.3268
  245MPD1    H5 3724   0.137   0.475  13.362  3.7918  3.5879  0.8466
  245MPD1    N1 3725   4.670   0.044  13.290  0.2310  0.5616  0.2652
  245MPD1    H6 3726   4.692   4.671  13.288  0.8255  0.6956  0.0366
  245MPD1    H7 3727   4.657   0.065  13.389  0.6348 -0.9845  0.6578
  246MPD1     C 3728   0.706   1.816   8.939 -0.0850 -0.0648 -0.1181
  246MPD1    C1 3729   0.830   1.871   8.942 -0.8219 -0.5878 -0.1239
  246MPD1    C2 3730   0.930   1.798   9.001  0.2686 -0.0181 -0.1178
  246MPD1    C3 3731   0.900   1.685   9.069  1.0540  0.3483  0.0327
  246MPD1    C4 3732   0.774   1.627   9.053 -0.1324  0.1861  0.0378
  246MPD1    C5 3733   0.681   1.692   8.984  0.5285 -0.4293 -0.1937
  246MPD1     H 3734   1.033   1.832   8.995  1.2290 -2.9240  0.2190
  246MPD1    H1 3735   0.752   1.526   9.085  0.6854  0.0959  0.3370
  246MPD1    H2 3736   0.625   1.871   8.893  0.5956  0.2392 -0.9394
  246MPD1    H3 3737   0.579   1.655   8.975  0.0835  0.8703 -0.5822
  246MPD1     N 3738   1.015   1.613   9.113  0.5509 -0.6625  0.6501
  246MPD1    H5 3739   1.108   1.648   9.091  0.2946 -0.3593  0.0177
  246MPD1    N1 3740   0.859   1.978   8.853  0.3887 -0.7214  0.6676
  246MPD1    H6 3741   0.942   2.031   8.880 -1.3194  1.8023  1.0516
  246MPD1    H7 3742   0.781   2.042   8.838  0.0365 -2.1229 -3.3053
  247MPD1     C 3743   4.294   3.659  16.570 -0.1881  0.5122  0.5252
  247MPD1    C1 3744   4.320   3.763  16.662  0.2837 -0.0025 -0.4587
  247MPD1    C2 3745   4.300   3.898  16.619  0.2759 -0.3153  0.3397
  247MPD1    C3 3746   4.292   3.924  16.481 -1.2263 -0.1183 -0.3111
  247MPD1    C4 3747   4.275   3.815  16.399 -0.5153 -0.1621 -0.3609
  247MPD1    C5 3748   4.269   3.680  16.438  0.3345 -0.1198 -0.2479
  247MPD1     H 3749   4.317   3.978  16.691  2.4341  0.7703 -1.3697
  247MPD1    H1 3750   4.257   3.831  16.293 -1.8222 -0.6197 -0.2011
  247MPD1    H2 3751   4.310   3.555  16.597  2.7583  0.4111 -1.6084
  247MPD1    H3 3752   4.247   3.597  16.371 -0.1285 -0.3692  0.2133
  247MPD1     N 3753   4.307   4.050  16.428  0.7726  0.4760  0.2105
  247MPD1    H5 3754   4.297   4.052  16.327  1.4381 -1.7645  0.0885
  247MPD1    N1 3755   4.332   3.736  16.791  0.3299  0.0438  0.2808
  247MPD1    H6 3756   4.400   3.660  16.798 -0.8430 -0.9976  0.3596
  247MPD1    H7 3757   4.372   3.815  16.840  0.8614  0.5280 -0.9302
  248MPD1     C 3758   0.123   0.786   0.496  0.4796  0.9109 -0.6685
  248MPD1    C1 3759   4.721   0.763   0.442 -0.1711 -0.1170  0.1650
  248MPD1    C2 3760   4.689   0.637   0.395  0.4343 -0.9528  0.4434
  248MPD1    C3 3761   0.054   0.536   0.395  0.2609 -0.7235 -0.4884
  248MPD1    C4 3762   0.180   0.561   0.444 -0.3123 -0.1437 -0.4821
  248MPD1    C5 3763   0.210   0.682   0.496  0.2730  0.4730 -0.3538
  248MPD1     H 3764   4.588   0.612   0.364  0.4078 -2.7206  1.9422
  248MPD1    H1 3765   0.265   0.495   0.435 -1.2286 -1.1524 -1.8403
  248MPD1    H2 3766   0.154   0.885   0.526 -0.1953  0.2423  2.2025
  248MPD1    H3 3767   0.310   0.703   0.533 -0.1597  1.9039 -0.0315
  248MPD1     N 3768   0.013   0.405   0.346 -0.3157  0.5438  0.5431
  248MPD1    H5 3769   4.648   0.393   0.307  1.0920 -1.0072 -2.2823
  248MPD1    N1 3770   4.633   0.874   0.441  0.6768  0.4166 -0.6313
  248MPD1    H6 3771   4.662   0.953   0.498 -0.1574  0.3844 -0.1637
  248MPD1    H7 3772   4.541   0.840   0.468  0.8974 -0.5270 -1.0698
  249MPD1     C 3773   1.221   1.690  10.110  0.3857  0.3187  0.5982
  249MPD1    C1 3774   1.293   1.782  10.041 -0.7835  0.8661  0.4100
  249MPD1    C2 3775   1.322   1.900  10.112  0.5133  0.3586 -0.0202
  249MPD1    C3 3776   1.282   1.924  10.241 -0.8395 -0.1476 -1.4461
  249MPD1    C4 3777   1.199   1.825  10.305  0.0512 -1.0151  0.1057
  249MPD1    C5 3778   1.161   1.718  10.227  0.4183 -0.0596 -0.0566
  249MPD1     H 3779   1.386   1.970  10.059 -0.8673  0.7400 -1.1911
  249MPD1    H1 3780   1.163   1.834  10.407 -0.1144  0.0063 -0.0437
  249MPD1    H2 3781   1.193   1.599  10.057  0.7271  1.3769 -1.3894
  249MPD1    H3 3782   1.093   1.645  10.269 -0.0700 -0.2775 -1.2161
  249MPD1     N 3783   1.322   2.042  10.308  0.2588  0.3038 -0.2085
  249MPD1    H5 3784   1.395   2.099  10.266  0.4802  0.4942  0.4345
  249MPD1    N1 3785   1.346   1.752   9.912 -0.2838 -0.1488 -0.4593
  249MPD1    H6 3786   1.294   1.672   9.875  2.6589 -2.9221  1.4101
  249MPD1    H7 3787   1.340   1.828   9.845  0.6890  0.2643 -0.0675
  250MPD2     C 3788   3.404   3.200  13.392 -0.6326 -0.3652 -0.7247
  250MPD2    C1 3789   3.274   3.240  13.368 -0.3903  1.0052 -0.1152
  250MPD2    C2 3790   3.167   3.148  13.370  0.5369  0.1596  0.7790
  250MPD2    C3 3791   3.182   3.019  13.417  0.3240 -0.3608 -0.2329
  250MPD2    C4 3792   3.317   2.982  13.452 -0.6131  0.5753  0.1131
  250MPD2    C5 3793   3.418   3.070  13.437 -0.0872 -0.6913 -0.3898
  250MPD2     H 3794   3.073   3.183  13.327  0.6960 -0.6911 -0.2657
  250MPD2    H1 3795   3.347   2.884  13.487  0.3333  1.9745  3.1843
  250MPD2    H2 3796   3.487   3.268  13.407 -0.8257  0.0739 -1.6637
  250MPD2    H3 3797   3.522   3.052  13.462 -0.1344  0.2955  0.4936
  250MPD2     N 3798   3.081   2.925  13.407 -0.0538  0.0947  0.2587
  250MPD2    H5 3799   3.099   2.825  13.416  0.1914  0.0644 -0.5520
  250MPD2    N1 3800   3.254   3.378  13.337 -0.1161  0.7964 -0.1697
  250MPD2    H7 3801   3.335   3.439  13.341  0.6237 -0.0505 -2.7846
  251TMC3    C1 3802   3.142   3.576  13.298 -0.8352  1.0447  0.3044
  251TMC3    C2 3803   3.030   3.636  13.337 -0.2075 -0.9381  0.0315
  251TMC3    C3 3804   3.025   3.775  13.312 -0.2877  0.7466 -0.0272
  251TMC3    C4 3805   3.250   3.645  13.258 -0.0182  0.5008 -0.3293
  251TMC3    C5 3806   3.241   3.778  13.247 -0.3943 -0.9259  0.2328
  251TMC3    C6 3807   3.124   3.851  13.259 -0.2866 -0.0912  0.2630
  251TMC3     C 3808   3.138   3.430  13.295  0.1945  0.4692  0.2958
  251TMC3     O 3809   3.024   3.378  13.302 -0.1263  0.0794  0.1020
  251TMC3     H 3810   2.967   3.575  13.401  2.4998 -1.5154  2.1435
  251TMC3    H1 3811   3.338   3.588  13.228 -1.1549 -1.4986  0.1601
  251TMC3    H2 3812   3.117   3.959  13.252  2.0035  0.0584  0.0423
  251TMC3    C7 3813   3.365   3.852  13.219  0.7466 -0.0584 -0.3895
  251TMC3    C8 3814   2.924   3.840  13.391 -0.1001 -0.1791 -0.1991
  251TMC3    O1 3815   3.471   3.806  13.246  0.5781 -0.4523 -0.4091
  251TMC3    O2 3816   2.954   3.953  13.422 -0.5290  0.6493 -0.2899
  252TMC3    C1 3817   3.684   0.271   9.273 -0.8815 -0.4331  0.3120
  252TMC3    C2 3818   3.816   0.239   9.283 -0.2435  0.2281  0.0786
  252TMC3    C3 3819   3.851   0.118   9.339  0.1490  1.0481 -0.5450
  252TMC3    C4 3820   3.587   0.193   9.314  0.0798  0.3773  0.3330
  252TMC3    C5 3821   3.625   0.069   9.353 -0.3824 -0.7104  0.1692
  252TMC3    C6 3822   3.753   0.025   9.372 -0.4115  0.1004 -0.3175
  252TMC3     C 3823   3.638   0.376   9.176 -0.6950 -0.0712  0.7381
  252TMC3     O 3824   3.523   0.370   9.131  0.5300 -0.0054  0.1185
  252TMC3     H 3825   3.900   0.297   9.248 -1.0662  1.2453 -0.2153
  252TMC3    H1 3826   3.484   0.226   9.302 -0.2487 -0.6425  0.3526
  252TMC3    H2 3827   3.789   4.653   9.398  0.5786 -0.2292 -2.9922
  252TMC3    C7 3828   3.521   4.691   9.344 -0.4656 -0.2500 -0.8870
  252TMC3    C8 3829   3.996   0.099   9.361 -0.2041 -0.0526 -0.0998
  252TMC3    O1 3830   3.412   4.700   9.285 -0.5010  0.2652  0.2494
  252TMC3    O2 3831   4.081   0.128   9.279 -0.0347  0.2866 -0.2922
  253MPD2     C 3832   4.290   3.629  16.089 -0.4272  0.2007 -0.5156
  253MPD2    C1 3833   4.196   3.562  16.014  0.2316 -0.3922 -0.0044
  253MPD2    C2 3834   4.204   3.426  15.997  0.6301 -0.5312  0.2158
  253MPD2    C3 3835   4.305   3.352  16.058  0.1671  0.1891 -0.6935
  253MPD2    C4 3836   4.395   3.420  16.139  0.3746 -0.1780 -0.5933
  253MPD2    C5 3837   4.389   3.559  16.155 -0.2974  0.2287  0.0413
  253MPD2     H 3838   4.122   3.380  15.942  1.1242 -2.4023  1.0553
  253MPD2    H1 3839   4.481   3.371  16.183 -0.7470  0.0696  1.8558
  253MPD2    H2 3840   4.292   3.737  16.092  0.2862  0.1924 -0.7089
  253MPD2    H3 3841   4.454   3.625  16.211  0.5112 -0.6785  0.1957
  253MPD2     N 3842   4.326   3.218  16.029  0.4726  0.7781  0.0610
  253MPD2    H5 3843   4.382   3.164  16.095  1.2336  0.4410 -0.8607
  253MPD2    N1 3844   4.088   3.613  15.949  0.3579 -0.0505 -0.0379
  253MPD2    H7 3845   4.031   3.540  15.909 -0.0062 -0.1354  0.6323
  254TMC3    C1 3846   4.203   3.019  15.991  0.2964 -0.0091  0.7846
  254TMC3    C2 3847   4.070   2.998  15.982 -0.1115 -0.2678 -0.3053
  254TMC3    C3 3848   4.010   2.902  16.060 -0.1143 -0.3463  0.4994
  254TMC3    C4 3849   4.285   2.943  16.079 -0.2345  0.4039  0.8561
  254TMC3    C5 3850   4.222   2.841  16.153 -0.8069 -0.4160 -0.0777
  254TMC3    C6 3851   4.083   2.828  16.150 -0.0559 -0.5151 -0.5435
  254TMC3     C 3852   4.250   3.144  15.933  0.2313  0.0123 -0.1933
  254TMC3     O 3853   4.202   3.190  15.831 -0.1425  0.1237 -0.6552
  254TMC3     H 3854   4.018   3.061  15.911  1.7489 -0.0999 -1.5064
  254TMC3    H1 3855   4.393   2.941  16.077 -0.2560 -0.2029  0.5111
  254TMC3    H2 3856   4.044   2.756  16.221 -0.7966 -0.7896 -1.2311
  254TMC3    C7 3857   4.298   2.773  16.253  0.0554  0.9242 -0.1027
  254TMC3    C8 3858   3.873   2.918  16.088  0.1458  0.2813  0.2053
  254TMC3    O1 3859   4.231   2.714  16.339 -0.8340 -0.0572 -0.1257
  254TMC3    O2 3860   3.845   2.859  16.190 -0.2769 -0.4141 -0.0566
  255MPD2     C 3861   2.527   1.433  10.273 -0.0123  0.3570  0.4678
  255MPD2    C1 3862   2.586   1.481  10.158  0.2185  0.0074  0.7029
  255MPD2    C2 3863   2.679   1.399  10.090  0.0008  0.0051 -0.4129
  255MPD2    C3 3864   2.697   1.267  10.129  0.1977 -0.1562 -0.2037
  255MPD2    C4 3865   2.621   1.218  10.233 -0.1987 -0.8321  0.2545
  255MPD2    C5 3866   2.543   1.304  10.304  0.2772 -0.5274  0.3431
  255MPD2     H 3867   2.744   1.445  10.017 -0.5672  0.4794 -0.6267
  255MPD2    H1 3868   2.622   1.116  10.268  2.4886 -0.7573  0.4027
  255MPD2    H2 3869   2.455   1.497  10.322  1.8472  2.4150  0.5127
  255MPD2    H3 3870   2.486   1.275  10.392  2.1158 -0.9479  1.4040
  255MPD2     N 3871   2.808   1.193  10.073 -0.3852 -0.0401 -0.2166
  255MPD2    H5 3872   2.873   1.243  10.013 -1.3287  1.2556 -0.1584
  255MPD2    N1 3873   2.562   1.617  10.117 -0.1274  0.1195  0.4479
  255MPD2    H7 3874   2.487   1.672  10.157 -1.1374  0.2966 -1.6879
  256TMC3    C1 3875   2.567   1.812  10.006 -0.4988 -0.4045  0.2220
  256TMC3    C2 3876   2.553   1.872   9.878  0.3385  0.4695  0.1524
  256TMC3    C3 3877   2.491   1.991   9.872 -0.5602 -0.1928 -0.3293
  256TMC3    C4 3878   2.521   1.874  10.120  0.8762  0.2678  0.0758
  256TMC3    C5 3879   2.463   1.995  10.107 -0.7817  0.2668  0.4985
  256TMC3    C6 3880   2.444   2.054   9.979 -0.3885 -0.7645 -0.1515
  256TMC3     C 3881   2.623   1.677  10.012  0.0207 -0.9532 -0.2229
  256TMC3     O 3882   2.702   1.637   9.928  0.4462  0.2023  0.6881
  256TMC3     H 3883   2.581   1.809   9.794  0.7508  3.5167 -2.0127
  256TMC3    H1 3884   2.533   1.838  10.221 -0.3660  0.0864  0.1581
  256TMC3    H2 3885   2.398   2.152   9.973 -0.2904 -0.6610  0.7917
  256TMC3    C7 3886   2.376   2.036  10.216 -0.6393  0.2675 -0.0383
  256TMC3    C8 3887   2.474   2.063   9.749  0.0497  0.5285  1.2397
  256TMC3    O1 3888   2.279   2.103  10.182  0.5428 -0.1311  0.0951
  256TMC3    O2 3889   2.408   2.165   9.760  0.3628 -0.0506 -0.2750
  257MPD2     C 3890   1.603   3.511  13.460  0.4451  0.1272  0.4044
  257MPD2    C1 3891   1.601   3.405  13.369  0.2727  0.4148  0.5299
  257MPD2    C2 3892   1.641   3.277  13.411  0.4268 -0.2921 -0.2418
  257MPD2    C3 3893   1.686   3.259  13.543 -0.4035 -0.6159 -0.2607
  257MPD2    C4 3894   1.685   3.368  13.637  0.6259  0.3857 -0.1859
  257MPD2    C5 3895   1.641   3.490  13.591 -0.2259 -0.4553  0.2086
  257MPD2     H 3896   1.634   3.196  13.340 -0.3718  0.7382 -1.3283
  257MPD2    H1 3897   1.719   3.361  13.739  1.7078  0.1341 -0.5703
  257MPD2    H2 3898   1.562   3.609  13.440  1.3112  0.3093 -0.4623
  257MPD2    H3 3899   1.642   3.578  13.653  2.3220 -0.2185 -0.1358
  257MPD2     N 3900   1.729   3.130  13.572 -0.5431 -0.3420  0.1837
  257MPD2    H5 3901   1.734   3.065  13.494  0.2207  0.6078 -0.5586
  257MPD2    N1 3902   1.575   3.442  13.234  0.3808  0.0717  0.2410
  257MPD2    H7 3903   1.579   3.542  13.219 -2.0518 -0.2329 -2.4873
  258TMC3    C1 3904   1.753   2.938  13.708 -0.2956  0.1856 -0.7810
  258TMC3    C2 3905   1.649   2.874  13.649 -0.0905 -0.7884  0.8614
  258TMC3    C3 3906   1.604   2.752  13.700  0.3299  0.2467 -0.6696
  258TMC3    C4 3907   1.812   2.888  13.823  0.7365  0.1405  0.2417
  258TMC3    C5 3908   1.775   2.760  13.861 -0.0102  0.9408  0.3489
  258TMC3    C6 3909   1.670   2.694  13.810  0.3439  0.2213  0.3655
  258TMC3     C 3910   1.751   3.083  13.702 -0.1886 -1.0363  0.0910
  258TMC3     O 3911   1.780   3.142  13.809  0.0712  0.3269 -0.2049
  258TMC3     H 3912   1.593   2.920  13.568  0.5987 -0.2018  0.7247
  258TMC3    H1 3913   1.887   2.946  13.876  2.4139 -1.2226 -0.5990
  258TMC3    H2 3914   1.644   2.597  13.851 -0.7287 -0.3306 -1.6226
  258TMC3    C7 3915   1.811   2.709  13.992  0.8367 -0.0006 -0.2490
  258TMC3    C8 3916   1.473   2.708  13.644 -0.7101 -0.2143 -0.6367
  258TMC3    O1 3917   1.740   2.627  14.046 -0.5051 -0.3237 -1.0680
  258TMC3    O2 3918   1.399   2.796  13.598  0.1094 -0.2060  0.2918
  259MPD2     C 3919   4.611   4.654   1.259  0.4589  0.3533 -0.2904
  259MPD2    C1 3920   0.006   4.711   1.284  0.4122 -0.9039 -0.0245
  259MPD2    C2 3921   0.112   4.681   1.199  0.5345 -0.8668  0.0905
  259MPD2    C3 3922   0.098   4.587   1.096  0.8572 -0.7116 -0.8630
  259MPD2    C4 3923   4.698   4.529   1.071  0.1773 -0.4799  0.1996
  259MPD2    C5 3924   4.599   4.559   1.164  0.3605 -0.2493  0.4376
  259MPD2     H 3925   0.197   0.021   1.203 -0.5228  0.4583  0.3545
  259MPD2    H1 3926   4.677   4.471   0.982 -0.5206  2.5499 -1.6059
  259MPD2    H2 3927   4.531   4.677   1.328  0.1775 -1.7191  0.0861
  259MPD2    H3 3928   4.501   4.516   1.150  0.1814  0.5702 -0.7920
  259MPD2     N 3929   0.209   4.565   1.010 -0.9020  0.7702  0.0292
  259MPD2    H5 3930   0.297   4.614   1.026 -1.7530  1.6521  1.9612
  259MPD2    N1 3931   0.017   0.084   1.387  0.6578  0.0396 -0.0147
  259MPD2    H7 3932   4.657   0.115   1.430 -0.2508 -0.5444 -1.4334
  260TMC3    C1 3933   0.329   4.477   0.820  0.4546 -0.4184 -0.2521
  260TMC3    C2 3934   0.407   4.588   0.814 -0.6182  0.1872  0.0511
  260TMC3    C3 3935   0.535   4.575   0.762  0.1968 -0.0216  0.7757
  260TMC3    C4 3936   0.368   4.358   0.771 -0.5590 -0.0906 -1.2000
  260TMC3    C5 3937   0.486   4.349   0.712  1.0015 -0.3900  0.7047
  260TMC3    C6 3938   0.576   4.452   0.707  0.1070 -0.6508 -0.0276
  260TMC3     C 3939   0.212   4.472   0.910  0.1410  0.4293  0.3811
  260TMC3     O 3940   0.130   4.390   0.873  0.2057  0.0379  0.1240
  260TMC3     H 3941   0.376   4.681   0.861 -0.5135  0.8160 -1.1158
  260TMC3    H1 3942   0.300   4.274   0.773  0.1303 -0.6021  0.5191
  260TMC3    H2 3943   0.675   4.431   0.668  0.9752  2.2788  0.5688
  260TMC3    C7 3944   0.521   4.237   0.624  0.2873  0.4319  0.3748
  260TMC3    C8 3945   0.592   4.695   0.703  0.8751  1.6725  0.2156
  260TMC3    O1 3946   0.610   4.253   0.545 -0.0593 -0.0984 -0.3421
  260TMC3    O2 3947   0.559   0.070   0.765  0.0973 -0.4085 -0.2642
  261MPD2     C 3948   2.286   3.058  13.136 -0.8001 -0.2733 -0.0363
  261MPD2    C1 3949   2.374   2.990  13.056  0.1715 -0.2412  0.2728
  261MPD2    C2 3950   2.361   3.003  12.922  0.0735 -0.9495  0.3125
  261MPD2    C3 3951   2.263   3.074  12.863  1.1321  0.0695 -0.2138
  261MPD2    C4 3952   2.171   3.133  12.949  0.5552 -0.3963  0.1830
  261MPD2    C5 3953   2.187   3.132  13.085  0.1503  0.9502 -0.6156
  261MPD2     H 3954   2.443   2.966  12.861 -1.7975 -0.7555 -2.2807
  261MPD2    H1 3955   2.086   3.185  12.906 -0.6218  0.2560  3.3238
  261MPD2    H2 3956   2.293   3.061  13.244 -0.3615 -1.2903 -0.0386
  261MPD2    H3 3957   2.126   3.192  13.151 -0.5071  2.1687 -2.3532
  261MPD2     N 3958   2.248   3.078  12.718 -0.2806 -0.3707 -0.4004
  261MPD2    H5 3959   2.317   3.024  12.668  0.2578 -0.3392  0.3023
  261MPD2    N1 3960   2.480   2.911  13.109 -0.4693 -0.0081  0.2734
  261MPD2    H7 3961   2.540   2.873  13.036 -0.1132  0.0489  0.5421
  262TMC3    C1 3962   2.194   3.178  12.510  1.1876  0.4280  0.0973
  262TMC3    C2 3963   2.156   3.295  12.448  0.2476  0.1842 -0.1229
  262TMC3    C3 3964   2.169   3.308  12.312  0.9301 -0.5086  0.8636
  262TMC3    C4 3965   2.219   3.064  12.436  0.7680 -0.2165  0.4538
  262TMC3    C5 3966   2.238   3.078  12.304  0.2803 -0.2272 -0.2716
  262TMC3    C6 3967   2.209   3.197  12.240 -0.6055 -0.3614  0.6037
  262TMC3     C 3968   2.179   3.181  12.652 -0.2238 -0.3862 -0.2018
  262TMC3     O 3969   2.114   3.276  12.695  0.4429  0.3598  0.3314
  262TMC3     H 3970   2.125   3.382  12.506  2.5822  1.0745 -0.2086
  262TMC3    H1 3971   2.229   2.965  12.479 -0.1184 -1.5505 -2.4257
  262TMC3    H2 3972   2.183   3.200  12.135 -2.6026  0.8727  1.1482
  262TMC3    C7 3973   2.253   2.965  12.216  0.5449  0.7394 -0.4869
  262TMC3    C8 3974   2.129   3.416  12.222  1.1486  0.1931  0.6408
  262TMC3    O1 3975   2.224   2.852  12.254 -0.6686  0.7555 -0.2618
  262TMC3    O2 3976   2.173   3.416  12.111  0.7232  0.1891  0.0596
  263MPD2     C 3977   3.381   2.088  11.044 -0.2070  0.2470  0.2196
  263MPD2    C1 3978   3.436   2.186  11.126 -0.2973 -0.0624  0.3233
  263MPD2    C2 3979   3.498   2.295  11.061  0.8102 -0.5502  0.4328
  263MPD2    C3 3980   3.513   2.304  10.926 -0.9881  0.8039  1.2431
  263MPD2    C4 3981   3.456   2.204  10.848  0.2412 -0.0015 -0.2279
  263MPD2    C5 3982   3.391   2.105  10.909 -0.2185 -1.2113  0.4502
  263MPD2     H 3983   3.536   2.369  11.130  1.9617  1.2755 -2.1338
  263MPD2    H1 3984   3.463   2.215  10.741 -2.3615  1.9787 -0.1955
  263MPD2    H2 3985   3.328   2.003  11.084  1.3221 -1.6973 -1.8100
  263MPD2    H3 3986   3.358   2.021  10.849 -1.4918 -0.8626  0.6808
  263MPD2     N 3987   3.592   2.407  10.882  0.5735  1.1107  0.0194
  263MPD2    H5 3988   3.624   2.466  10.958  1.8070 -0.1482  0.4829
  263MPD2    N1 3989   3.450   2.163  11.262  0.3811  0.2972  0.1549
  263MPD2    H7 3990   3.453   2.068  11.296  1.1397 -1.2862 -4.3754
  264TMC3    C1 3991   3.749   2.521  10.760 -0.0594  0.1773  0.6807
  264TMC3    C2 3992   3.697   2.638  10.811  0.3903  0.5808 -0.1311
  264TMC3    C3 3993   3.757   2.753  10.765 -0.5982 -0.7157 -0.1746
  264TMC3    C4 3994   3.849   2.523  10.659  0.0731 -0.0934 -0.3175
  264TMC3    C5 3995   3.914   2.637  10.628 -0.3790  0.1791  0.6869
  264TMC3    C6 3996   3.874   2.759  10.680  0.0044 -0.1444  0.5324
  264TMC3     C 3997   3.652   2.411  10.760  0.7243  0.3244 -0.7218
  264TMC3     O 3998   3.670   2.320  10.685  0.1489 -0.0650 -0.2925
  264TMC3     H 3999   3.611   2.644  10.876 -1.0267  0.3112 -1.9808
  264TMC3    H1 4000   3.881   2.427  10.619  1.3986  0.4637 -0.5834
  264TMC3    H2 4001   3.917   2.855  10.654 -1.6699  0.3990 -0.2309
  264TMC3    C7 4002   4.030   2.628  10.543 -0.4076 -0.2809 -0.2458
  264TMC3    C8 4003   3.703   2.886  10.801  0.2608  0.0137 -0.1574
  264TMC3    O1 4004   4.057   2.521  10.493 -0.8445 -0.1858  0.2232
  264TMC3    O2 4005   3.771   2.977  10.756  0.6110  0.2148 -0.2439
  265MPD2     C 4006   0.857   3.003  16.198  0.3757  0.2322  0.2156
  265MPD2    C1 4007   0.775   3.089  16.130 -0.2794 -0.5502 -0.7099
  265MPD2    C2 4008   0.755   3.076  15.994  0.0535 -0.6090  0.2066
  265MPD2    C3 4009   0.833   2.990  15.920 -0.6352  0.4077 -0.3866
  265MPD2    C4 4010   0.916   2.902  15.986 -0.2657 -0.1991 -0.8465
  265MPD2    C5 4011   0.915   2.904  16.124 -0.3123 -0.6872  0.4841
  265MPD2     H 4012   0.689   3.150  15.950  1.5653  1.6860  1.7701
  265MPD2    H1 4013   0.972   2.826  15.931  0.7873 -0.5675  0.7217
  265MPD2    H2 4014   0.880   3.017  16.303  0.9358 -1.0093  0.2628
  265MPD2    H3 4015   0.987   2.832  16.161 -0.4314 -0.8199  0.4600
  265MPD2     N 4016   0.827   2.974  15.780  0.0005  0.1372  0.7888
  265MPD2    H5 4017   0.902   2.924  15.732  0.4136  2.2377 -0.7699
  265MPD2    N1 4018   0.701   3.193  16.196 -0.2459  0.0251  0.5708
  265MPD2    H7 4019   0.656   3.269  16.144  0.4094 -1.0266 -1.5449
  266TMC3    C1 4020   0.637   3.330  16.379  0.3615  0.2367 -0.1628
  266TMC3    C2 4021   0.696   3.384  16.492 -0.3266 -0.4496  0.5823
  266TMC3    C3 4022   0.649   3.500  16.534 -0.2292 -0.4453 -0.3618
  266TMC3    C4 4023   0.529   3.384  16.316  0.0534  0.1150 -0.5050
  266TMC3    C5 4024   0.482   3.503  16.358  0.8725 -0.3140  1.1087
  266TMC3    C6 4025   0.544   3.564  16.466  0.9080  0.0615  0.8346
  266TMC3     C 4026   0.678   3.196  16.335 -0.8902 -0.5183  0.6287
  266TMC3     O 4027   0.714   3.109  16.418 -0.2181  0.6303 -0.5489
  266TMC3     H 4028   0.785   3.343  16.539  0.3581 -1.4249 -1.5517
  266TMC3    H1 4029   0.473   3.331  16.240 -0.0043 -1.0725  0.3715
  266TMC3    H2 4030   0.512   3.665  16.490  0.5248 -0.7878  3.9317
  266TMC3    C7 4031   0.368   3.563  16.287  0.2653  0.2256 -0.3187
  266TMC3    C8 4032   0.759   3.586  16.570 -0.4294 -0.7306 -0.4251
  266TMC3    O1 4033   0.306   3.489  16.216 -0.4516  0.7331 -0.3296
  266TMC3    O2 4034   0.872   3.540  16.542 -0.4290  0.0164  0.0790
  267MPD2     C 4035   2.963   0.258  17.513  0.4896  0.5848 -1.3478
  267MPD2    C1 4036   3.044   0.219  17.405 -0.4896 -0.5385  0.0061
  267MPD2    C2 4037   2.976   0.188  17.287  0.1074  0.2356 -0.1580
  267MPD2    C3 4038   2.840   0.189  17.278 -0.2281  0.1944  0.1798
  267MPD2    C4 4039   2.764   0.240  17.386  0.2131 -0.3109  0.0927
  267MPD2    C5 4040   2.824   0.269  17.503  0.5445 -0.9541 -0.0818
  267MPD2     H 4041   3.037   0.150  17.207 -0.5681 -2.0569  0.4149
  267MPD2    H1 4042   2.656   0.234  17.380  0.1711  1.5674 -0.8613
  267MPD2    H2 4043   2.993   0.288  17.613  0.7486 -1.8477 -0.6784
  267MPD2    H3 4044   2.769   0.304  17.591 -0.4810 -0.0867 -1.0621
  267MPD2     N 4045   2.764   0.139  17.175  0.7087  0.1094 -0.3891
  267MPD2    H5 4046   2.663   0.134  17.177  0.7516  0.0168  2.0304
  267MPD2    N1 4047   3.183   0.202  17.428  0.8316  0.1299  0.0705
  267MPD2    H7 4048   3.213   0.188  17.524 -1.7702  2.2476  1.2209
  268TMC3    C1 4049   3.409   0.176  17.375  0.0026  0.0851 -0.2992
  268TMC3    C2 4050   3.512   0.226  17.302 -0.1778  0.2408  0.4510
  268TMC3    C3 4051   3.630   0.238  17.373  0.1825  0.8484  0.0990
  268TMC3    C4 4052   3.432   0.104  17.495  0.5546  0.8676 -0.1425
  268TMC3    C5 4053   3.554   0.109  17.558  0.1767 -0.0497 -0.0768
  268TMC3    C6 4054   3.650   0.188  17.501  0.2609 -0.1163  0.5163
  268TMC3     C 4055   3.277   0.196  17.322 -0.6347 -0.3144 -0.1714
  268TMC3     O 4056   3.275   0.220  17.204 -0.6996 -0.2020  0.2361
  268TMC3     H 4057   3.499   0.287  17.214  0.2396  1.5141  1.2784
  268TMC3    H1 4058   3.363   0.035  17.542  0.4109  0.4591 -0.9624
  268TMC3    H2 4059   3.739   0.209  17.559 -0.2854  1.2869  0.8546
  268TMC3    C7 4060   3.571   0.018  17.668  0.1458 -0.2902  0.9371
  268TMC3    C8 4061   3.743   0.315  17.316 -0.6943 -0.2533 -0.0035
  268TMC3    O1 4062   3.503   4.640  17.658  0.1483  0.3875 -0.0419
  268TMC3    O2 4063   3.832   0.338  17.397 -0.6096 -0.2317  0.2515
  269MPD2     C 4064   3.081   3.924  16.038  0.9276 -0.1770 -0.1569
  269MPD2    C1 4065   2.952   3.938  15.992 -0.0145 -0.1561 -0.3080
  269MPD2    C2 4066   2.934   4.026  15.886  0.8831 -0.1491  0.3393
  269MPD2    C3 4067   3.049   4.098  15.834 -0.2041  0.2069  0.1182
  269MPD2    C4 4068   3.175   4.084  15.885 -0.4727 -0.5466 -0.7676
  269MPD2    C5 4069   3.187   4.000  15.994  0.7862 -0.2609  0.0665
  269MPD2     H 4070   2.837   4.052  15.847  0.1809 -2.5217  0.5019
  269MPD2    H1 4071   3.261   4.142  15.853 -0.4268  0.0018  0.3617
  269MPD2    H2 4072   3.102   3.856  16.120 -0.2963 -0.8151 -0.3625
  269MPD2    H3 4073   3.284   3.985  16.040  0.3690 -0.2242  0.9619
  269MPD2     N 4074   3.030   4.165  15.708 -0.1906 -0.6527 -0.2440
  269MPD2    H5 4075   2.933   4.157  15.681  0.8876 -0.8165 -4.0230
  269MPD2    N1 4076   2.847   3.849  16.044  0.0835  0.9408  0.4510
  269MPD2    H7 4077   2.884   3.783  16.111 -0.6137  2.0633  1.9521
  270TMC3    C1 4078   2.650   3.733  16.066  0.2926 -0.7580  0.4477
  270TMC3    C2 4079   2.577   3.653  15.988 -0.1711 -0.0686 -0.0429
  270TMC3    C3 4080   2.508   3.551  16.053 -0.3444  0.1631  0.8137
  270TMC3    C4 4081   2.673   3.712  16.198  0.4087  0.0866 -0.1519
  270TMC3    C5 4082   2.619   3.601  16.257 -0.3909  0.4455  0.5240
  270TMC3    C6 4083   2.516   3.537  16.190 -0.3509  0.0792  0.3001
  270TMC3     C 4084   2.723   3.841  16.000  0.5483 -0.3521  0.0273
  270TMC3     O 4085   2.668   3.894  15.901  0.3731  0.0841  0.5525
  270TMC3     H 4086   2.585   3.661  15.880  2.5380  0.5220  0.1980
  270TMC3    H1 4087   2.745   3.773  16.251  1.3410 -1.0480 -0.1128
  270TMC3    H2 4088   2.459   3.460  16.242  0.6345 -2.1138 -1.8580
  270TMC3    C7 4089   2.730   3.512  16.271 -0.1941 -0.3717 -0.2767
  270TMC3    C8 4090   2.479   3.435  15.981  0.0868 -0.2684  0.0979
  270TMC3    O1 4091   2.838   3.543  16.222  0.0485 -0.4651 -0.3758
  270TMC3    O2 4092   2.421   3.352  16.046  0.1553 -0.3734  0.2570
  271MPD2     C 4093   2.106   3.565  14.319 -0.5199  0.4046 -0.6363
  271MPD2    C1 4094   2.018   3.494  14.399  0.7285 -0.0863  0.0797
  271MPD2    C2 4095   1.882   3.517  14.380 -0.3853 -0.0109  0.6444
  271MPD2    C3 4096   1.842   3.607  14.278 -0.0269  0.1134  0.6910
  271MPD2    C4 4097   1.934   3.684  14.210 -0.9902  0.0644  0.9575
  271MPD2    C5 4098   2.067   3.664  14.236  0.6460 -0.1512 -0.0922
  271MPD2     H 4099   1.809   3.472  14.447 -0.6789  0.2241  0.4822
  271MPD2    H1 4100   1.899   3.750  14.132 -1.5281  0.2619  1.3615
  271MPD2    H2 4101   2.213   3.562  14.334 -1.0006  0.2531  2.6027
  271MPD2    H3 4102   2.135   3.728  14.182 -1.8593  1.3535 -1.4457
  271MPD2     N 4103   1.705   3.629  14.261  0.3818  0.6717  0.2989
  271MPD2    H5 4104   1.672   3.708  14.206 -0.4363 -1.6428 -2.4838
  271MPD2    N1 4105   2.061   3.399  14.494 -0.3521  0.0619  0.5778
  271MPD2    H7 4106   1.992   3.369  14.563  0.5575  0.6774  1.7500
  272TMC3    C1 4107   2.196   3.241  14.604 -0.9774 -0.6027  0.2405
  272TMC3    C2 4108   2.307   3.166  14.582  0.7313  0.1012 -0.7792
  272TMC3    C3 4109   2.378   3.115  14.689 -0.1589  0.4185  0.6776
  272TMC3    C4 4110   2.170   3.280  14.733  0.0677  0.1535  0.0188
  272TMC3    C5 4111   2.250   3.238  14.833  0.0501  0.0833 -0.0694
  272TMC3    C6 4112   2.356   3.155  14.817 -1.0870 -0.8043  0.9160
  272TMC3     C 4113   2.184   3.343  14.502 -0.2862 -0.0462  0.1645
  272TMC3     O 4114   2.275   3.353  14.420 -0.0941 -0.1457  0.4273
  272TMC3     H 4115   2.332   3.146  14.479  0.4878 -2.3729 -0.3533
  272TMC3    H1 4116   2.094   3.353  14.761 -0.6111 -1.2650  1.8442
  272TMC3    H2 4117   2.420   3.121  14.897  0.4816 -0.4682 -0.1813
  272TMC3    C7 4118   2.216   3.258  14.968 -0.3322 -0.1078  0.6549
  272TMC3    C8 4119   2.511   3.077  14.651  0.1376  0.3925  0.8554
  272TMC3    O1 4120   2.100   3.279  14.991 -0.0141 -0.1757 -0.0926
  272TMC3    O2 4121   2.542   3.108  14.540 -0.0063 -0.5269 -0.2896
  273MPD2     C 4122   3.709   1.033  11.728 -0.0022 -0.1181 -0.0755
  273MPD2    C1 4123   3.819   1.098  11.770  0.6856 -0.2722 -0.5927
  273MPD2    C2 4124   3.909   1.143  11.668  0.0556 -0.5876  0.0653
  273MPD2    C3 4125   3.902   1.109  11.534 -0.6025  0.0372  0.0225
  273MPD2    C4 4126   3.795   1.030  11.501 -0.5642 -0.0513 -0.3604
  273MPD2    C5 4127   3.697   1.003  11.594 -0.1812  1.0484  0.3008
  273MPD2     H 4128   3.999   1.184  11.713 -0.9828  0.1754  1.4467
  273MPD2    H1 4129   3.777   0.990  11.402 -0.4388  0.1718 -0.4736
  273MPD2    H2 4130   3.627   0.996  11.789  0.3913 -0.0840  0.4682
  273MPD2    H3 4131   3.601   0.961  11.566 -0.2561  0.4284  1.4877
  273MPD2     N 4132   4.000   1.148  11.438 -0.2349 -0.0219 -0.2942
  273MPD2    H5 4133   4.006   1.107  11.345  1.9456 -1.5117  0.4988
  273MPD2    N1 4134   3.843   1.101  11.910  0.4959 -0.1074  0.6380
  273MPD2    H7 4135   3.779   1.040  11.960 -0.3665  0.5618  0.3464
  274TMC3    C1 4136   4.150   1.299  11.340  0.7808 -0.4922 -1.2945
  274TMC3    C2 4137   4.089   1.272  11.218  0.4977  0.3135  0.0810
  274TMC3    C3 4138   4.101   1.369  11.119  0.7739  0.5935 -0.0703
  274TMC3    C4 4139   4.228   1.412  11.358  0.4218 -0.4494  0.3131
  274TMC3    C5 4140   4.225   1.509  11.262  0.2892 -0.4705 -0.1773
  274TMC3    C6 4141   4.174   1.481  11.140 -0.6072  0.4285 -0.7004
  274TMC3     C 4142   4.083   1.255  11.462  0.4413 -0.9945 -0.2115
  274TMC3     O 4143   4.074   1.335  11.555  0.1540 -0.6232  0.0586
  274TMC3     H 4144   4.036   1.180  11.196  0.0815  0.9248 -1.4451
  274TMC3    H1 4145   4.261   1.443  11.456 -0.2698 -2.3707  1.1492
  274TMC3    H2 4146   4.147   1.565  11.078  1.6997  0.8684 -1.0799
  274TMC3    C7 4147   4.171   1.626  11.321  0.2602 -0.6101  0.5087
  274TMC3    C8 4148   4.018   1.359  11.004  0.6254 -0.0594 -0.1709
  274TMC3    O1 4149   4.049   1.636  11.310 -0.0361  0.2845  1.0132
  274TMC3    O2 4150   3.933   1.268  10.999  0.3340  0.2963 -0.3170
  275MPD2     C 4151   3.564   4.314  14.415  0.0499  0.2887  0.2553
  275MPD2    C1 4152   3.493   4.320  14.529  0.0174 -0.3746  0.3236
  275MPD2    C2 4153   3.366   4.276  14.531  0.7104 -0.1185 -0.1356
  275MPD2    C3 4154   3.308   4.225  14.414 -0.5613 -0.7513 -0.1624
  275MPD2    C4 4155   3.381   4.204  14.297 -0.0398 -0.1531  0.0303
  275MPD2    C5 4156   3.511   4.252  14.301  0.2628  0.2812  0.1976
  275MPD2     H 4157   3.309   4.283  14.623 -0.6014 -0.5892 -0.9119
  275MPD2    H1 4158   3.340   4.166  14.204 -0.0472  0.8347 -0.3707
  275MPD2    H2 4159   3.666   4.351  14.418 -0.0267  0.5619 -0.4133
  275MPD2    H3 4160   3.573   4.257  14.213 -2.0844  0.1246 -1.4720
  275MPD2     N 4161   3.164   4.200  14.413 -0.4249 -0.3303 -0.2089
  275MPD2    H5 4162   3.133   4.157  14.327  0.6768 -4.5351  1.5027
  275MPD2    N1 4163   3.545   4.384  14.648 -0.0972  0.1035 -0.6740
  275MPD2    H7 4164   3.481   4.402  14.725  2.5390 -0.8692  1.7409
  276TMC3    C1 4165   3.691   4.450  14.813  0.3991  0.0917  0.2786
  276TMC3    C2 4166   3.602   4.403  14.907 -0.5804  0.2366  0.1527
  276TMC3    C3 4167   3.644   4.400  15.039  0.3274 -0.3465  0.5401
  276TMC3    C4 4168   3.818   4.487  14.852 -0.0143 -0.3741 -0.4154
  276TMC3    C5 4169   3.856   4.471  14.978  0.2834  0.0454 -0.0058
  276TMC3    C6 4170   3.775   4.423  15.079  0.6505  0.6737  0.3084
  276TMC3     C 4171   3.673   4.431  14.669 -0.4262 -0.4568  0.0755
  276TMC3     O 4172   3.767   4.450  14.598  0.0731 -0.4174  0.7796
  276TMC3     H 4173   3.499   4.386  14.878 -0.0570  0.2722 -1.7416
  276TMC3    H1 4174   3.885   4.501  14.768  0.9140  1.0718  0.5768
  276TMC3    H2 4175   3.812   4.420  15.181  0.6991  1.3860  0.3115
  276TMC3    C7 4176   3.985   4.526  15.021 -0.3578 -0.2072 -0.6102
  276TMC3    C8 4177   3.546   4.342  15.130  1.2760 -1.0867 -0.0262
  276TMC3    O1 4178   4.030   4.496  15.132  0.0787  0.1469 -0.2373
  276TMC3    O2 4179   3.441   4.320  15.083 -0.4790 -0.2995  0.7742
  277MPD2     C 4180   1.092   2.954  13.306  0.3338 -0.5474  0.6268
  277MPD2    C1 4181   0.962   2.997  13.324  0.3691 -0.1972  0.0650
  277MPD2    C2 4182   0.884   2.956  13.433  0.4328  0.4014 -0.1276
  277MPD2    C3 4183   0.946   2.886  13.538  0.2244  0.2798  0.1481
  277MPD2    C4 4184   1.076   2.851  13.526  0.8250  0.3187  0.1940
  277MPD2    C5 4185   1.149   2.885  13.412 -0.0047 -0.0662 -0.1669
  277MPD2     H 4186   0.782   2.989  13.449 -0.1594 -1.5904  0.1786
  277MPD2    H1 4187   1.126   2.791  13.600  2.4607 -1.4768 -2.3642
  277MPD2    H2 4188   1.149   2.969  13.215  0.6027  2.1243  1.2589
  277MPD2    H3 4189   1.252   2.852  13.408 -0.3579 -1.4227  1.9063
  277MPD2     N 4190   0.851   2.855  13.643 -0.1761 -0.4337  0.6798
  277MPD2    H5 4191   0.755   2.885  13.636  0.1402 -0.1376 -2.5776
  277MPD2    N1 4192   0.900   3.075  13.228  0.2119  0.0083  0.7162
  277MPD2    H7 4193   0.799   3.077  13.239  0.1785 -1.4038  0.6070
  278TMC3    C1 4194   0.785   2.793  13.855  0.3546  0.7019 -0.3740
  278TMC3    C2 4195   0.777   2.685  13.940  0.2744 -0.5759 -0.2387
  278TMC3    C3 4196   0.660   2.668  14.008  0.4279 -0.1298 -0.6252
  278TMC3    C4 4197   0.681   2.880  13.841  0.5447  1.1584  0.1728
  278TMC3    C5 4198   0.569   2.853  13.918 -0.9494 -0.3294 -0.5045
  278TMC3    C6 4199   0.546   2.740  13.987 -0.6575 -0.6157 -0.1545
  278TMC3     C 4200   0.886   2.781  13.758 -0.1113  0.6555 -0.0004
  278TMC3     O 4201   0.977   2.704  13.784 -0.1251  0.3584 -0.2258
  278TMC3     H 4202   0.863   2.626  13.966  0.2336 -1.0280 -1.1127
  278TMC3    H1 4203   0.698   2.978  13.798 -0.5578  1.6545  0.8657
  278TMC3    H2 4204   0.477   2.728  14.070 -0.6015  1.9719  0.2543
  278TMC3    C7 4205   0.476   2.967  13.923 -0.7471 -0.1002  1.1022
  278TMC3    C8 4206   0.646   2.537  14.054  0.4079 -0.4408 -0.6681
  278TMC3    O1 4207   0.516   3.074  13.885  0.3569 -0.2106 -0.3132
  278TMC3    O2 4208   0.747   2.470  14.077 -0.6690 -0.4726 -0.1630
  279MPD2     C 4209   0.159   2.970   0.731 -0.0243  0.2496 -0.1392
  279MPD2    C1 4210   0.117   3.058   0.634  0.4266  0.0657  0.1920
  279MPD2    C2 4211   0.184   3.062   0.507  0.9989  0.3114 -0.5329
  279MPD2    C3 4212   0.287   2.968   0.479 -0.0646  0.2785  0.0673
  279MPD2    C4 4213   0.328   2.887   0.579 -1.1668 -0.9037  0.1200
  279MPD2    C5 4214   0.268   2.885   0.704  0.3816  0.1482  0.5489
  279MPD2     H 4215   0.150   3.128   0.428 -0.6736 -0.5128 -0.4933
  279MPD2    H1 4216   0.422   2.834   0.571 -0.7276  0.0932 -1.3013
  279MPD2    H2 4217   0.118   2.974   0.831  0.0745 -2.1299 -0.0090
  279MPD2    H3 4218   0.306   2.811   0.773  0.5891  0.5440  0.8567
  279MPD2     N 4219   0.354   2.957   0.349 -0.3580  1.1168 -0.2002
  279MPD2    H5 4220   0.427   2.887   0.340 -0.7078  0.4062  2.4344
  279MPD2    N1 4221   0.006   3.140   0.665  0.5660  0.6529 -0.5827
  279MPD2    H7 4222   4.708   3.138   0.763  1.7208 -0.3654 -0.3184
  280TMC3    C1 4223   4.574   3.311   0.644 -0.0253 -0.1229  0.3619
  280TMC3    C2 4224   4.593   3.343   0.780  0.1917  0.5521  0.2934
  280TMC3    C3 4225   4.484   3.413   0.834  0.7601 -0.3646 -0.2393
  280TMC3    C4 4226   4.464   3.349   0.567 -0.2249 -0.4112 -0.0759
  280TMC3    C5 4227   4.368   3.415   0.633 -0.1711 -0.1524 -0.0428
  280TMC3    C6 4228   4.373   3.457   0.762  0.0953  0.3971 -0.0341
  280TMC3     C 4229   4.660   3.216   0.577 -0.6593  0.3287  0.1570
  280TMC3     O 4230   4.656   3.221   0.456 -0.1431  0.2051  0.0925
  280TMC3     H 4231   4.693   3.333   0.821 -0.6798 -0.0790  2.3011
  280TMC3    H1 4232   4.464   3.334   0.460 -0.8885 -0.3565 -0.0821
  280TMC3    H2 4233   4.297   3.520   0.807  0.6601  2.8684 -2.5143
  280TMC3    C7 4234   4.255   3.460   0.550 -1.0019  0.4439  0.1294
  280TMC3    C8 4235   4.506   3.477   0.964 -0.8111 -0.0633  0.6516
  280TMC3    O1 4236   4.270   3.460   0.432 -0.3346 -0.5591  0.1551
  280TMC3    O2 4237   4.412   3.544   1.001  0.1249  0.8640  0.2294
  281TMC3    C1 4238   3.886   4.053  13.573  0.7747 -0.2518  0.3904
  281TMC3    C2 4239   3.862   4.126  13.461 -0.0781  0.4410 -0.1218
  281TMC3    C3 4240   3.927   4.098  13.341  0.0341  0.6312  0.3130
  281TMC3    C4 4241   3.981   3.957  13.568  0.0310 -0.1214  0.1105
  281TMC3    C5 4242   4.047   3.936  13.450  0.1126 -0.3324 -0.1945
  281TMC3    C6 4243   4.026   4.005  13.335 -0.2481  0.4806 -0.0931
  281TMC3     C 4244   3.760   3.998  13.622  0.1684 -0.6752  0.9984
  281TMC3     O 4245   3.771   3.874  13.622  1.2230  0.0651 -0.2404
  281TMC3     H 4246   3.786   4.204  13.460  0.3150  0.8180 -0.5402
  281TMC3    H1 4247   4.012   3.896  13.653  1.3071  0.5547  0.1279
  281TMC3    H2 4248   4.060   3.958  13.244  0.7759  1.0191  0.0054
  281TMC3    C7 4249   4.048   3.796  13.414 -0.2913  0.4945 -0.2493
  281TMC3    C8 4250   3.827   4.085  13.238  0.1087 -0.0637 -0.1423
  281TMC3    O1 4251   4.126   3.758  13.327 -0.7092 -0.3557  0.5941
  281TMC3    O2 4252   3.820   3.971  13.191 -0.1757  0.6556  0.1115
  282MPD2     C 4253   0.768   0.202  15.135  0.2920 -0.3324  0.2799
  282MPD2    C1 4254   0.670   0.297  15.157 -0.4139  0.1613 -0.1972
  282MPD2    C2 4255   0.608   0.355  15.044 -0.1923  0.1793 -0.4610
  282MPD2    C3 4256   0.630   0.317  14.916 -0.2012 -0.4829  0.4186
  282MPD2    C4 4257   0.732   0.225  14.898  0.0868 -0.2286 -0.4325
  282MPD2    C5 4258   0.799   0.171  15.007  0.6415  0.7847  0.8088
  282MPD2     H 4259   0.533   0.434  15.045 -0.4401 -0.0847  1.3045
  282MPD2    H1 4260   0.764   0.185  14.803 -1.4174  0.5991 -1.2947
  282MPD2    H2 4261   0.812   0.143  15.215  0.5132  1.9249  1.8233
  282MPD2    H3 4262   0.871   0.093  14.985 -1.1222 -0.7457  0.5356
  282MPD2     N 4263   0.559   0.369  14.809  0.0830  0.6556  0.2769
  282MPD2    H5 4264   0.498   0.446  14.838 -2.3809 -1.6205  1.1518
  282MPD2    N1 4265   0.619   0.331  15.277 -0.2698  0.0595  0.0972
  282MPD2    H7 4266   0.547   0.403  15.275 -1.3130 -0.9872 -0.1351
  283TMC3    C1 4267   0.595   0.358  15.512 -0.1424 -0.8387 -0.8408
  283TMC3    C2 4268   0.559   0.491  15.500  0.2560  0.5319 -0.3637
  283TMC3    C3 4269   0.538   0.575  15.608 -0.4605  0.3886  0.7189
  283TMC3    C4 4270   0.608   0.306  15.638  0.7093  0.4156 -0.0843
  283TMC3    C5 4271   0.578   0.396  15.742 -0.8785 -0.3520 -0.7580
  283TMC3    C6 4272   0.534   0.524  15.732  0.9225 -0.1043  0.2984
  283TMC3     C 4273   0.644   0.283  15.404 -0.0052 -0.3450 -0.1663
  283TMC3     O 4274   0.717   0.185  15.432 -0.0802  0.0696 -0.0253
  283TMC3     H 4275   0.550   0.539  15.403  0.6001  1.2754 -0.0244
  283TMC3    H1 4276   0.644   0.204  15.651  0.1264  0.1004 -0.9936
  283TMC3    H2 4277   0.509   0.587  15.818 -1.6350 -1.5648  0.6326
  283TMC3    C7 4278   0.541   0.328  15.872 -0.0116 -0.0461 -0.5148
  283TMC3    C8 4279   0.557   0.722  15.584 -0.1004 -0.1227  0.1066
  283TMC3    O1 4280   0.490   0.393  15.963 -0.4473  0.2211 -0.0080
  283TMC3    O2 4281   0.584   0.758  15.468 -0.3157  0.3394  0.1370
  284MPD2     C 4282   3.388   4.257  12.154  0.4847 -0.9557  0.4112
  284MPD2    C1 4283   3.485   4.189  12.087  0.3873  0.4986 -0.9067
  284MPD2    C2 4284   3.535   4.071  12.138  0.4161 -0.1421 -0.0533
  284MPD2    C3 4285   3.476   4.027  12.255  0.4043 -0.5560 -1.0181
  284MPD2    C4 4286   3.383   4.096  12.328  0.4651 -0.2215 -0.0872
  284MPD2    C5 4287   3.336   4.214  12.270  0.3343  0.3103 -0.6039
  284MPD2     H 4288   3.625   4.023  12.102  1.3553 -0.4627  2.7766
  284MPD2    H1 4289   3.345   4.061  12.424  2.0887 -0.4382  0.4621
  284MPD2    H2 4290   3.333   4.343  12.117  1.1765 -0.0822  1.4423
  284MPD2    H3 4291   3.259   4.278  12.313  0.3861 -0.9962  1.4337
  284MPD2     N 4292   3.526   3.907  12.307  0.2097 -0.0075 -0.9615
  284MPD2    H5 4293   3.600   3.867  12.250 -0.5491  3.2655 -4.2321
  284MPD2    N1 4294   3.544   4.220  11.967  0.1610 -0.0739 -0.6269
  284MPD2    H7 4295   3.600   4.146  11.927 -0.3679 -0.4940 -0.5970
  285TMC3    C1 4296   3.607   4.338  11.772 -0.5376  0.2827  0.1594
  285TMC3    C2 4297   3.680   4.231  11.728 -0.5882 -0.1712  0.8127
  285TMC3    C3 4298   3.751   4.242  11.616 -0.1572  0.1431  0.8796
  285TMC3    C4 4299   3.609   4.459  11.709 -0.9235 -0.0913 -0.3965
  285TMC3    C5 4300   3.688   4.467  11.595  0.0784  0.6405 -0.7380
  285TMC3    C6 4301   3.757   4.359  11.551  0.0945  0.7944 -0.1363
  285TMC3     C 4302   3.529   4.333  11.896  0.6672  0.2522  0.1861
  285TMC3     O 4303   3.474   4.433  11.933  0.7887 -0.0711 -0.6333
  285TMC3     H 4304   3.664   4.130  11.765 -0.0284 -0.7304 -0.4755
  285TMC3    H1 4305   3.578   4.549  11.761 -1.6079 -0.2484 -0.5244
  285TMC3    H2 4306   3.805   4.357  11.453  1.0741 -0.4245  0.3695
  285TMC3    C7 4307   3.728   4.596  11.535 -0.4603 -0.0303  0.3295
  285TMC3    C8 4308   3.829   4.131  11.566 -1.3160 -0.1300 -0.5914
  285TMC3    O1 4309   3.829   4.587  11.469 -0.1467  0.4060 -0.3119
  285TMC3    O2 4310   3.786   4.016  11.572  0.3972 -0.3524 -0.1696
  286MPD2     C 4311   3.027   3.093   1.420 -0.1375  0.1074  0.4444
  286MPD2    C1 4312   3.114   3.102   1.317  0.1448  0.5952 -0.0944
  286MPD2    C2 4313   3.215   3.009   1.308 -0.2928 -0.1973  0.6367
  286MPD2    C3 4314   3.234   2.923   1.417 -0.0236  0.1229  0.6861
  286MPD2    C4 4315   3.149   2.930   1.526 -0.3239 -0.1598 -0.1364
  286MPD2    C5 4316   3.046   3.013   1.523  0.4270 -0.4062  0.2250
  286MPD2     H 4317   3.280   3.019   1.222 -0.2026 -0.2365  0.7006
  286MPD2    H1 4318   3.163   2.869   1.614  0.4887 -0.6087 -0.5788
  286MPD2    H2 4319   2.944   3.162   1.434  0.3315  0.2883  2.3742
  286MPD2    H3 4320   2.971   3.010   1.601 -0.6654 -0.9492 -0.8417
  286MPD2     N 4321   3.329   2.817   1.423 -0.1867 -0.3740  0.0405
  286MPD2    H5 4322   3.318   2.764   1.509 -0.0168 -0.8875 -0.2521
  286MPD2    N1 4323   3.110   3.203   1.215 -0.1054 -0.1030  0.2557
  286MPD2    H7 4324   3.181   3.188   1.144 -1.4645 -1.8596 -0.7572
  287TMC3    C1 4325   3.469   2.648   1.339  0.2097  0.1504 -0.4020
  287TMC3    C2 4326   3.497   2.581   1.228 -0.6358 -0.1497  0.0382
  287TMC3    C3 4327   3.575   2.473   1.251  0.2841 -0.6605 -0.0651
  287TMC3    C4 4328   3.540   2.630   1.462 -0.2502 -0.1162  0.5383
  287TMC3    C5 4329   3.627   2.528   1.468  0.0730 -0.0316  0.6521
  287TMC3    C6 4330   3.643   2.442   1.366 -0.3004  0.3345 -0.6140
  287TMC3     C 4331   3.399   2.774   1.316 -0.3841  0.1132  0.7224
  287TMC3     O 4332   3.409   2.812   1.201  0.4504 -0.2929  0.3997
  287TMC3     H 4333   3.467   2.614   1.129  0.8455  1.3611  0.0947
  287TMC3    H1 4334   3.527   2.697   1.547 -0.5107  1.7459 -0.9624
  287TMC3    H2 4335   3.720   2.366   1.373 -0.3772  0.1525 -1.8999
  287TMC3    C7 4336   3.725   2.519   1.580 -0.6320 -0.2887  0.7535
  287TMC3    C8 4337   3.605   2.381   1.143  0.2511  0.5977 -0.7214
  287TMC3    O1 4338   3.730   2.618   1.650 -0.0975 -0.3411 -0.4670
  287TMC3    O2 4339   3.622   2.258   1.163 -0.2935  0.4545 -0.2765
  288TMC3    C1 4340   0.884   2.264  15.022 -0.4042  0.7076  0.5025
  288TMC3    C2 4341   0.753   2.304  15.026  0.1216 -0.0476  0.0837
  288TMC3    C3 4342   0.714   2.411  14.953 -0.2794 -0.3235  0.1472
  288TMC3    C4 4343   0.973   2.308  14.925 -0.5925 -0.2188 -0.7803
  288TMC3    C5 4344   0.927   2.414  14.857 -0.2393  0.1865  0.2186
  288TMC3    C6 4345   0.799   2.473  14.865  0.5419  0.0068  0.1913
  288TMC3     C 4346   0.946   2.252  15.156  0.3685 -0.8502  0.1068
  288TMC3     O 4347   0.870   2.264  15.251 -0.2308  0.1046  0.1280
  288TMC3     H 4348   0.692   2.260  15.104  0.7251  1.1210  1.2245
  288TMC3    H1 4349   1.073   2.274  14.900 -1.1856 -1.0940 -1.9790
  288TMC3    H2 4350   0.758   2.549  14.801  0.4224  1.7039  2.2879
  288TMC3    C7 4351   1.036   2.490  14.794  0.1748 -0.3534 -0.3623
  288TMC3    C8 4352   0.577   2.440  14.929  0.1106  0.3740  0.6075
  288TMC3    O1 4353   1.148   2.456  14.825 -0.1577  0.0500  0.1217
  288TMC3    O2 4354   0.554   2.553  14.880 -0.2021  0.0460  0.0870
  289MPD2     C 4355   0.953   1.902  14.239  0.2313 -0.4668 -0.5996
  289MPD2    C1 4356   0.896   2.018  14.280  0.0338 -0.0474 -0.6681
  289MPD2    C2 4357   0.763   2.033  14.282  0.3439 -0.0732 -0.1846
  289MPD2    C3 4358   0.683   1.925  14.245 -0.7655 -0.2593  0.5793
  289MPD2    C4 4359   0.742   1.809  14.203  0.1860 -0.4587 -0.0388
  289MPD2    C5 4360   0.877   1.801  14.197 -0.6662  0.1499  0.1444
  289MPD2     H 4361   0.728   2.130  14.315  1.6677  1.1401 -2.3102
  289MPD2    H1 4362   0.681   1.728  14.164  0.1834 -0.8374  0.7649
  289MPD2    H2 4363   1.061   1.903  14.230  0.3248 -0.0575  0.5381
  289MPD2    H3 4364   0.927   1.711  14.164  1.6774  2.2331 -2.0252
  289MPD2     N 4365   0.544   1.920  14.245  0.8030 -0.6327  0.0271
  289MPD2    H5 4366   0.506   1.843  14.192 -1.4890 -0.1083  0.8934
  289MPD2    N1 4367   0.991   2.115  14.319 -0.1561  0.4882  0.4323
  289MPD2    H7 4368   1.083   2.074  14.330 -0.7935 -1.2106 -0.6144
  290TMC3    C1 4369   0.325   1.989  14.299  0.4062 -0.0488  0.8029
  290TMC3    C2 4370   0.233   2.089  14.279 -0.4942 -0.2435 -0.0490
  290TMC3    C3 4371   0.100   2.068  14.307 -0.5171 -0.6809  0.1282
  290TMC3    C4 4372   0.288   1.873  14.361  0.6840 -0.0113 -0.0350
  290TMC3    C5 4373   0.159   1.858  14.398 -1.0473 -0.6199  0.0470
  290TMC3    C6 4374   0.067   1.952  14.371 -0.4506 -0.6281  0.3905
  290TMC3     C 4375   0.464   2.021  14.294  0.3139  0.1061 -0.4063
  290TMC3     O 4376   0.490   2.136  14.338  0.3553  0.4275  0.4869
  290TMC3     H 4377   0.258   2.178  14.222  1.4017 -0.5554  0.3237
  290TMC3    H1 4378   0.358   1.804  14.407  0.6674 -0.2334 -0.3457
  290TMC3    H2 4379   4.691   1.928  14.393 -1.0499  1.1655 -0.4769
  290TMC3    C7 4380   0.133   1.775  14.519 -0.6748 -0.3570  0.7067
  290TMC3    C8 4381   4.726   2.172  14.295 -0.3500 -0.8070  0.5597
  290TMC3    O1 4382   0.096   1.817  14.625 -0.2362 -0.4128 -0.2171
  290TMC3    O2 4383   4.614   2.135  14.287 -0.3249  0.3909  0.2670
  291MPD2     C 4384   4.600   2.028   0.101  0.5199  0.4162  0.4018
  291MPD2    C1 4385   4.646   1.929   0.179 -0.2358  0.6967 -0.3138
  291MPD2    C2 4386   0.034   1.931   0.255  0.5265  0.1752  0.9149
  291MPD2    C3 4387   0.116   2.043   0.241  0.0357 -0.1843 -0.6099
  291MPD2    C4 4388   0.070   2.151   0.166  0.6043  0.7661 -0.7459
  291MPD2    C5 4389   4.672   2.148   0.097 -0.4356  0.1219 -0.0288
  291MPD2     H 4390   0.061   1.845   0.315 -1.1358 -0.2011  1.1307
  291MPD2    H1 4391   0.124   2.245   0.166 -1.5304  1.9749 -0.4679
  291MPD2    H2 4392   4.505   2.013   0.052  1.2717  1.5144 -1.3670
  291MPD2    H3 4393   4.637   2.227   0.033  1.2240  0.2666 -0.7717
  291MPD2     N 4394   0.235   2.065   0.317  0.0734  0.0707  0.9204
  291MPD2    H5 4395   0.291   2.146   0.290 -0.9249  0.2443 -0.6632
  291MPD2    N1 4396   4.572   1.813   0.193  0.3582 -0.5027 -0.3854
  291MPD2    H7 4397   4.604   1.746   0.262  0.3579  2.3351  2.3751
  292TMC3    C1 4398   4.416   1.653   0.179  0.2353  0.0586  0.0516
  292TMC3    C2 4399   4.404   1.657   0.319 -0.1296 -0.3045 -0.2660
  292TMC3    C3 4400   4.401   1.533   0.381  0.4134  0.2837  0.7406
  292TMC3    C4 4401   4.426   1.538   0.105 -0.5421  0.1224  0.2342
  292TMC3    C5 4402   4.440   1.423   0.175  0.1526 -0.4747 -0.5522
  292TMC3    C6 4403   4.439   1.420   0.307  0.2639 -0.1177 -0.1025
  292TMC3     C 4404   4.463   1.774   0.121  0.5079  0.4511 -0.0480
  292TMC3     O 4405   4.415   1.814   0.013  0.1764 -0.4917 -0.2566
  292TMC3     H 4406   4.381   1.748   0.374 -0.9150 -1.1129  0.7300
  292TMC3    H1 4407   4.428   1.546  17.705 -1.5643  1.1921  0.2974
  292TMC3    H2 4408   4.456   1.323   0.352  1.5966 -0.0445 -0.4530
  292TMC3    C7 4409   4.442   1.290   0.108  0.2204 -0.0529 -0.1016
  292TMC3    C8 4410   4.409   1.525   0.525  0.5283 -0.3729  0.3359
  292TMC3    O1 4411   4.506   1.205   0.162 -0.0955  0.0598  0.2777
  292TMC3    O2 4412   4.423   1.625   0.593  0.4488  0.1685  0.3517
  293MPD2     C 4413   1.921   3.505  13.000  0.3132 -0.5671  0.0343
  293MPD2    C1 4414   1.894   3.378  13.053  0.2912  1.3157  0.3646
  293MPD2    C2 4415   1.919   3.366  13.188 -0.3805 -0.5158 -0.3930
  293MPD2    C3 4416   1.968   3.471  13.268  0.1534  0.5050  0.4666
  293MPD2    C4 4417   1.975   3.599  13.216 -0.2596 -0.4890  0.0956
  293MPD2    C5 4418   1.953   3.613  13.082 -0.1090  0.9099  0.1009
  293MPD2     H 4419   1.892   3.274  13.238  1.2311 -0.6016  0.3168
  293MPD2    H1 4420   2.013   3.690  13.261  3.2032 -2.5828  1.4942
  293MPD2    H2 4421   1.895   3.518  12.895  1.0080 -1.2449 -0.2195
  293MPD2    H3 4422   1.953   3.714  13.043  3.0928  1.4827  1.6658
  293MPD2     N 4423   2.000   3.440  13.408  0.4451  0.9027 -0.4963
  293MPD2    H5 4424   1.965   3.354  13.448 -0.4221  2.1211  1.4075
  293MPD2    N1 4425   1.844   3.274  12.970 -0.3764 -0.3068 -0.4252
  293MPD2    H7 4426   1.834   3.295  12.871  0.7406  0.5610 -0.3539
  294TMC3    C1 4427   1.795   3.058  12.887  0.3222  0.4074 -0.0495
  294TMC3    C2 4428   1.791   2.923  12.915  0.4862 -0.3698 -0.1087
  294TMC3    C3 4429   1.793   2.828  12.812 -0.1530 -0.4133  0.2730
  294TMC3    C4 4430   1.813   3.099  12.758 -1.0625  0.2956 -0.2281
  294TMC3    C5 4431   1.817   2.999  12.658 -0.2064 -0.3188 -0.4639
  294TMC3    C6 4432   1.818   2.864  12.682  0.3441  0.5050  0.3250
  294TMC3     C 4433   1.814   3.145  13.001  0.1386 -0.4129 -0.1192
  294TMC3     O 4434   1.834   3.094  13.113 -0.1746  0.2964  0.1446
  294TMC3     H 4435   1.749   2.888  13.008  1.7761  0.2644  0.7185
  294TMC3    H1 4436   1.814   3.201  12.720  1.3718 -0.1637 -1.4144
  294TMC3    H2 4437   1.798   2.793  12.602  0.8202 -0.5799  1.1768
  294TMC3    C7 4438   1.813   3.043  12.520 -0.1700  0.8277  0.1620
  294TMC3    C8 4439   1.737   2.695  12.846 -0.1145 -0.9869 -0.9169
  294TMC3    O1 4440   1.890   2.989  12.446 -0.8761  0.0654  0.5330
  294TMC3    O2 4441   1.701   2.680  12.962  0.4272 -0.1749 -0.4469
  295MPD2     C 4442   3.046   1.370   0.705  0.3332 -0.6995 -0.7755
  295MPD2    C1 4443   2.969   1.481   0.701 -0.3057 -0.0754 -0.8804
  295MPD2    C2 4444   2.961   1.557   0.819  0.1717 -0.6147  0.5600
  295MPD2    C3 4445   3.040   1.532   0.935 -0.4131  0.1232  0.0378
  295MPD2    C4 4446   3.119   1.419   0.933 -0.5627  0.7243  0.0526
  295MPD2    C5 4447   3.114   1.337   0.819 -0.3060 -0.6723  0.4307
  295MPD2     H 4448   2.887   1.636   0.822 -1.5878 -2.2239 -1.0153
  295MPD2    H1 4449   3.177   1.382   1.017 -0.3491  2.8164  0.8282
  295MPD2    H2 4450   3.061   1.293   0.630 -0.7773  0.5689 -2.2930
  295MPD2    H3 4451   3.177   1.249   0.819  2.0858  1.0360 -1.3668
  295MPD2     N 4452   3.055   1.625   1.038 -0.1135  0.3895 -0.5971
  295MPD2    H5 4453   3.110   1.593   1.117 -1.5373 -1.6662 -0.4376
  295MPD2    N1 4454   2.899   1.526   0.588  0.4501  1.2069 -0.3720
  295MPD2    H7 4455   2.854   1.616   0.603 -1.4472  0.0741  0.7036
  296TMC3    C1 4456   2.998   1.811   1.179 -0.9796 -0.6839 -0.6291
  296TMC3    C2 4457   2.955   1.939   1.180 -0.7901  0.3643  0.5070
  296TMC3    C3 4458   2.841   1.975   1.252 -0.3253 -0.1423 -0.0667
  296TMC3    C4 4459   2.936   1.720   1.261 -0.3168 -0.0531  0.2775
  296TMC3    C5 4460   2.837   1.765   1.349  1.0178 -0.2576  0.4875
  296TMC3    C6 4461   2.791   1.892   1.346  0.3152  0.5817 -0.2601
  296TMC3     C 4462   3.009   1.757   1.047  0.1052 -0.3731  0.2551
  296TMC3     O 4463   2.937   1.826   0.969  0.1423  0.7155 -0.4176
  296TMC3     H 4464   3.001   2.016   1.120 -0.7056 -2.1283 -2.6272
  296TMC3    H1 4465   2.975   1.621   1.280 -1.5750 -1.1009 -2.6598
  296TMC3    H2 4466   2.732   1.925   1.430  1.3345 -0.5432  0.8936
  296TMC3    C7 4467   2.792   1.675   1.453 -0.6570  0.8935 -0.5002
  296TMC3    C8 4468   2.820   2.117   1.265 -0.3286  0.0966 -0.4295
  296TMC3    O1 4469   2.862   1.584   1.493 -0.3564  0.1199 -0.9062
  296TMC3    O2 4470   2.918   2.182   1.242 -0.0318  0.1220 -0.2686
  297MPD2     C 4471   4.520   3.524  17.107  0.4372  0.1171 -0.0894
  297MPD2    C1 4472   4.562   3.541  16.973  0.0361 -0.3146  0.0772
  297MPD2    C2 4473   4.640   3.649  16.941 -0.4140  0.1127  0.3138
  297MPD2    C3 4474   4.684   3.743  17.034  0.5688 -0.3043 -0.0113
  297MPD2    C4 4475   4.647   3.719  17.160  0.2315  0.2766 -0.3559
  297MPD2    C5 4476   4.554   3.621  17.200  0.5788 -0.0243 -0.4763
  297MPD2     H 4477   4.677   3.659  16.840  1.0499 -1.6303  0.6600
  297MPD2    H1 4478   4.673   3.797  17.231 -1.1538 -0.8741  1.4105
  297MPD2    H2 4479   4.456   3.444  17.140  2.7521 -1.4117  0.6699
  297MPD2    H3 4480   4.524   3.612  17.304  2.5070  0.8183  0.1565
  297MPD2     N 4481   0.026   3.853  16.987  0.6512  0.4461 -0.1165
  297MPD2    H5 4482   0.040   3.870  16.888 -0.9450  0.3533 -0.3643
  297MPD2    N1 4483   4.531   3.453  16.864  0.2376 -0.0523 -0.5140
  297MPD2    H7 4484   4.565   3.488  16.775 -0.9611  0.9826 -0.5581
  298TMC3    C1 4485   4.433   3.254  16.753 -0.4305 -0.0985 -0.3901
  298TMC3    C2 4486   4.506   3.250  16.635 -0.3169 -0.0111 -0.1077
  298TMC3    C3 4487   4.440   3.200  16.525 -0.0187  0.6221 -0.3049
  298TMC3    C4 4488   4.301   3.208  16.757  0.3288  0.9986  0.5720
  298TMC3    C5 4489   4.232   3.181  16.644  0.6901 -0.3415 -0.4518
  298TMC3    C6 4490   4.310   3.157  16.530 -0.0785  0.1851  0.1734
  298TMC3     C 4491   4.472   3.327  16.874  0.6924  0.0474  0.0086
  298TMC3     O 4492   4.443   3.270  16.977 -0.1040  0.3167 -0.5438
  298TMC3     H 4493   4.609   3.281  16.644 -0.5114  0.9579 -1.3529
  298TMC3    H1 4494   4.238   3.218  16.845 -0.2060  0.2058  0.2800
  298TMC3    H2 4495   4.261   3.138  16.435  1.1307  1.1022 -0.6195
  298TMC3    C7 4496   4.127   3.275  16.633  0.4344 -0.7210 -0.1864
  298TMC3    C8 4497   4.511   3.176  16.400  0.5954 -0.5457 -0.4794
  298TMC3    O1 4498   4.126   3.370  16.711 -0.5781  0.5419  0.1008
  298TMC3    O2 4499   4.451   3.157  16.294  0.4593  0.1776 -0.0858
  299MPD2     C 4500   0.785   2.977  10.949  0.0021  0.2599 -0.1881
  299MPD2    C1 4501   0.740   3.101  10.908  0.3226  0.9159 -0.3710
  299MPD2    C2 4502   0.633   3.113  10.825  0.7259 -0.0251  0.3699
  299MPD2    C3 4503   0.560   2.998  10.789  0.8641  0.3968 -0.4784
  299MPD2    C4 4504   0.599   2.870  10.829 -0.6951 -0.2835 -0.4205
  299MPD2    C5 4505   0.708   2.864  10.911 -0.1991 -0.4967  0.1334
  299MPD2     H 4506   0.610   3.209  10.779 -0.8671 -1.1973 -1.3129
  299MPD2    H1 4507   0.547   2.785  10.787  1.4739 -2.0353  0.4144
  299MPD2    H2 4508   0.875   2.961  11.008 -0.3350  2.0948  0.8035
  299MPD2    H3 4509   0.746   2.766  10.941 -0.6989 -0.2018  1.7294
  299MPD2     N 4510   0.452   3.002  10.706  0.5573  0.2532  0.0526
  299MPD2    H5 4511   0.402   2.915  10.692  0.1246  0.1419  2.2599
  299MPD2    N1 4512   0.820   3.206  10.952  0.5576 -0.1675  0.0001
  299MPD2    H7 4513   0.904   3.177  11.002  1.1158  1.1545 -0.1669
  300TMC3    C1 4514   0.272   3.097  10.577  0.3129  0.0609 -0.3453
  300TMC3    C2 4515   0.234   3.192  10.487 -0.3229  0.1059 -0.2047
  300TMC3    C3 4516   0.099   3.200  10.460  0.1471  0.5924  0.6040
  300TMC3    C4 4517   0.180   3.017  10.639 -0.6148 -0.2872  0.3884
  300TMC3    C5 4518   0.049   3.029  10.603 -0.1781 -0.2504  0.2856
  300TMC3    C6 4519   0.006   3.117  10.507  0.6625  0.7254  0.5658
  300TMC3     C 4520   0.403   3.116  10.639 -0.1710 -0.2574  0.3380
  300TMC3     O 4521   0.467   3.216  10.613  0.3296 -0.6899  0.4541
  300TMC3     H 4522   0.309   3.264  10.455  0.1293  0.8938  2.6765
  300TMC3    H1 4523   0.198   2.957  10.727 -0.4247  0.7458  1.0526
  300TMC3    H2 4524   4.628   3.116  10.480  0.6055 -1.7469  0.7983
  300TMC3    C7 4525   4.674   2.970  10.692  0.5935  0.4087  0.7155
  300TMC3    C8 4526   0.058   3.335  10.420  0.7467 -0.3747  0.1299
  300TMC3    O1 4527   4.673   2.848  10.712 -0.5059 -0.1437 -0.0338
  300TMC3    O2 4528   0.124   3.429  10.463 -0.1726  0.0943  0.2044
  301MPD2     C 4529   1.768   0.307   1.429  0.5886 -1.0602 -0.3821
  301MPD2    C1 4530   1.649   0.356   1.377 -0.5412 -0.5356  0.5828
  301MPD2    C2 4531   1.584   0.292   1.277  0.3964  0.8627 -0.2218
  301MPD2    C3 4532   1.642   0.177   1.220 -0.2260 -0.5312 -0.7115
  301MPD2    C4 4533   1.760   0.124   1.279  0.4259 -0.3355 -0.4988
  301MPD2    C5 4534   1.823   0.188   1.388 -0.1872 -0.6780 -0.1899
  301MPD2     H 4535   1.492   0.333   1.238  0.9638  2.0280 -0.3500
  301MPD2    H1 4536   1.805   0.033   1.242  0.6415 -0.5428  0.2708
  301MPD2    H2 4537   1.809   0.339   1.524 -1.3968 -3.2247  1.2052
  301MPD2    H3 4538   1.906   0.145   1.441  0.0469 -0.4479 -0.3701
  301MPD2     N 4539   1.587   0.106   1.108  0.0872 -0.6318 -1.0209
  301MPD2    H5 4540   1.645   0.031   1.072 -0.0050 -1.6905  1.0733
  301MPD2    N1 4541   1.588   0.469   1.426  0.1939 -0.5347  0.2328
  301MPD2    H7 4542   1.496   0.493   1.391  1.1668  2.0337 -0.6279
  302TMC3    C1 4543   1.433   0.062   0.928 -0.0899 -0.1595 -0.1787
  302TMC3    C2 4544   1.527   4.713   0.865  0.2947  0.5162  0.4160
  302TMC3    C3 4545   1.488   4.624   0.777 -0.3873 -0.2566 -0.2765
  302TMC3    C4 4546   1.302   0.044   0.907  0.4293 -0.5384 -0.4479
  302TMC3    C5 4547   1.264   4.660   0.830  0.7759  0.1519 -0.4781
  302TMC3    C6 4548   1.354   4.589   0.763  0.0208  1.1774  0.3347
  302TMC3     C 4549   1.468   0.139   1.039  0.6255  0.2807  0.1480
  302TMC3     O 4550   1.386   0.228   1.066 -0.5867 -0.0758 -0.0707
  302TMC3     H 4551   1.633   4.722   0.885  0.3882 -1.4947  0.8123
  302TMC3    H1 4552   1.232   0.095   0.973  0.3722  1.4566 -2.0396
  302TMC3    H2 4553   1.315   4.535   0.678  0.6095 -1.7898  1.9539
  302TMC3    C7 4554   1.145   4.590   0.855  0.2248  0.3535 -0.5180
  302TMC3    C8 4555   1.575   4.585   0.676  0.8143  0.4205 -0.0863
  302TMC3    O1 4556   1.138   4.471   0.832  0.2052 -0.5330  0.0089
  302TMC3    O2 4557   1.651   4.675   0.647  0.2198  0.8143 -0.3876
  303MPD2     C 4558   2.697   2.903  10.708  0.2060 -0.2726 -0.5299
  303MPD2    C1 4559   2.704   2.871  10.573  0.0233  0.2316  0.2816
  303MPD2    C2 4560   2.807   2.912  10.493  0.2690 -0.2279 -0.1876
  303MPD2    C3 4561   2.915   2.980  10.554  0.2102  0.1517 -0.4717
  303MPD2    C4 4562   2.906   3.013  10.689  0.2667  0.4152 -0.1871
  303MPD2    C5 4563   2.800   2.968  10.767 -0.6032 -0.4122 -0.4581
  303MPD2     H 4564   2.809   2.877  10.390 -0.8125 -0.3690 -0.1547
  303MPD2    H1 4565   2.991   3.058  10.739 -0.1973 -0.2674  1.2067
  303MPD2    H2 4566   2.625   2.852  10.770  0.2666 -1.3637 -1.3749
  303MPD2    H3 4567   2.801   2.985  10.874  2.0133 -0.9774 -0.4022
  303MPD2     N 4568   3.021   3.028  10.474  0.0058 -0.4135  0.4986
  303MPD2    H5 4569   3.097   3.077  10.520 -0.8550  0.7893  0.6341
  303MPD2    N1 4570   2.594   2.803  10.517 -0.4317  1.0548  0.1808
  303MPD2    H7 4571   2.528   2.748  10.570  1.2545 -0.7904  0.3501
  304TMC3    C1 4572   2.448   2.722  10.349  0.1199  0.3936  0.0359
  304TMC3    C2 4573   2.392   2.750  10.219 -0.3636 -0.1926 -0.8573
  304TMC3    C3 4574   2.341   2.640  10.152  0.5960  0.2931  0.1613
  304TMC3    C4 4575   2.454   2.592  10.399 -0.7215  0.9603  0.3984
  304TMC3    C5 4576   2.402   2.488  10.328 -0.1473 -0.9330 -0.2415
  304TMC3    C6 4577   2.344   2.514  10.206  0.3601  0.7045 -0.5298
  304TMC3     C 4578   2.554   2.811  10.388  0.2691  0.0081  0.4680
  304TMC3     O 4579   2.598   2.893  10.305  0.4774  0.4658  0.5017
  304TMC3     H 4580   2.400   2.850  10.177 -0.5058 -0.3723 -1.3158
  304TMC3    H1 4581   2.512   2.570  10.488 -2.2897 -1.3690  0.8290
  304TMC3    H2 4582   2.301   2.430  10.152  1.7106  0.6357 -1.4969
  304TMC3    C7 4583   2.501   2.392  10.314 -0.8475  0.4329 -0.4618
  304TMC3    C8 4584   2.347   2.644  10.011  0.3072  0.4821  0.3653
  304TMC3    O1 4585   2.565   2.363  10.414  0.3339 -0.3543  0.2358
  304TMC3    O2 4586   2.357   2.531   9.953  0.3131 -0.6485 -0.2495
  305MPD2     C 4587   0.679   0.787  13.767 -0.2868  0.3158  0.0854
  305MPD2    C1 4588   0.628   0.665  13.800  0.6132  0.5130  0.2092
  305MPD2    C2 4589   0.572   0.587  13.700 -0.8313 -0.4178 -0.3310
  305MPD2    C3 4590   0.570   0.627  13.568 -0.4977 -0.4593 -0.4617
  305MPD2    C4 4591   0.609   0.753  13.542  0.5196  0.0421 -0.9241
  305MPD2    C5 4592   0.660   0.835  13.641  0.1656  0.3009 -0.7310
  305MPD2     H 4593   0.512   0.501  13.728 -0.0358 -0.6510  0.6441
  305MPD2    H1 4594   0.594   0.789  13.441  0.2831  0.0516 -0.8851
  305MPD2    H2 4595   0.723   0.857  13.838  0.3949 -0.0193 -0.0114
  305MPD2    H3 4596   0.703   0.932  13.618 -0.3598  0.6928 -0.0644
  305MPD2     N 4597   0.541   0.530  13.470 -0.3194 -0.2724 -0.1196
  305MPD2    H5 4598   0.553   0.549  13.371 -0.0395 -2.8986 -0.5999
  305MPD2    N1 4599   0.643   0.618  13.931  0.3473 -1.1279 -0.0198
  305MPD2    H7 4600   0.685   0.685  13.994 -0.5570  0.7230 -1.3807
  306TMC3    C1 4601   0.668   0.456  14.112  0.5677 -0.1686  0.0360
  306TMC3    C2 4602   0.714   0.330  14.146 -0.1980 -0.6721  0.4841
  306TMC3    C3 4603   0.733   0.297  14.274  0.1669 -0.6861  0.0546
  306TMC3    C4 4604   0.648   0.553  14.213 -0.4697 -0.2343  0.7215
  306TMC3    C5 4605   0.679   0.515  14.338  0.0573  0.0993  0.2637
  306TMC3    C6 4606   0.724   0.393  14.372  0.6148  0.4424 -0.3623
  306TMC3     C 4607   0.628   0.484  13.971  0.2418  0.4707 -0.4947
  306TMC3     O 4608   0.602   0.381  13.908 -0.1798  0.1002  0.0961
  306TMC3     H 4609   0.729   0.253  14.071  0.6860 -0.1426  0.1170
  306TMC3    H1 4610   0.621   0.655  14.185 -0.9188 -1.0177 -1.6708
  306TMC3    H2 4611   0.741   0.362  14.474  0.6152  2.5045  0.2584
  306TMC3    C7 4612   0.663   0.615  14.444  0.7150 -0.8109  0.6132
  306TMC3    C8 4613   0.801   0.174  14.297  0.4137 -0.3164  0.0752
  306TMC3    O1 4614   0.578   0.698  14.417  0.2090 -0.1367  0.5133
  306TMC3    O2 4615   0.865   0.130  14.207  0.1260 -0.2302 -0.1728
  307MPD2     C 4616   3.873   2.739   0.660 -0.6052  0.2997  0.8093
  307MPD2    C1 4617   3.764   2.728   0.579 -0.3147 -0.1009  0.0230
  307MPD2    C2 4618   3.662   2.821   0.580  0.3232  0.2516 -0.5676
  307MPD2    C3 4619   3.679   2.935   0.655 -0.6305 -0.3529 -0.2495
  307MPD2    C4 4620   3.792   2.950   0.732 -0.3853 -0.4782  1.1108
  307MPD2    C5 4621   3.883   2.852   0.739 -0.4528  0.4829  0.1889
  307MPD2     H 4622   3.570   2.809   0.525  1.1030  1.0279 -2.0581
  307MPD2    H1 4623   3.813   3.039   0.790  1.1747 -0.2992  0.2769
  307MPD2    H2 4624   3.952   2.666   0.669 -2.0427 -0.9719  3.0504
  307MPD2    H3 4625   3.964   2.867   0.810  0.7457  0.1256 -1.0977
  307MPD2     N 4626   3.576   3.036   0.648  0.6332 -0.0737 -0.2692
  307MPD2    H5 4627   3.483   3.014   0.614  0.0794  0.9212  0.5821
  307MPD2    N1 4628   3.751   2.631   0.476 -0.4931 -0.1055  0.2176
  307MPD2    H7 4629   3.673   2.643   0.412  1.0414 -0.6661 -1.7452
  308TMC3    C1 4630   3.253   3.279   0.656 -0.1247 -0.1600  0.1271
  308TMC3    C2 4631   3.268   3.398   0.590  0.2087 -0.1858 -0.5154
  308TMC3    C3 4632   3.393   3.431   0.539 -0.2188 -0.4780 -0.3877
  308TMC3    C4 4633   3.371   3.209   0.684 -0.3924 -0.1690 -0.1774
  308TMC3    C5 4634   3.491   3.250   0.647 -0.0279  0.3269  0.3854
  308TMC3    C6 4635   3.508   3.358   0.566 -0.1042 -0.7641  0.2459
  308TMC3     C 4636   3.121   3.224   0.687  0.0663  0.2268  1.1085
  308TMC3     O 4637   3.127   3.126   0.765 -0.2912 -0.5077 -0.0477
  308TMC3     H 4638   3.176   3.446   0.560  0.4900  0.2716 -0.6439
  308TMC3    H1 4639   3.361   3.114   0.736 -0.1036  1.0643  2.1570
  308TMC3    H2 4640   3.602   3.383   0.518 -1.4956  1.3483 -1.3796
  308TMC3    C7 4641   3.606   3.167   0.680 -0.1842  0.5393 -0.3908
  308TMC3    C8 4642   3.395   3.520   0.433  0.0817 -0.2283  0.6208
  308TMC3    O1 4643   3.714   3.214   0.679 -0.1456  0.3420 -0.4034
  308TMC3    O2 4644   3.321   3.617   0.439  0.2720  0.3193  0.2083
  309MPD2     C 4645   2.181   3.279  17.172 -0.0181 -0.2642  0.2872
  309MPD2    C1 4646   2.170   3.382  17.080 -0.3498  0.2978 -0.4022
  309MPD2    C2 4647   2.069   3.473  17.099  0.2523 -0.0114 -0.0519
  309MPD2    C3 4648   1.979   3.460  17.205  0.2725  0.8392  0.3130
  309MPD2    C4 4649   1.991   3.354  17.296  0.3471 -0.2638 -0.4120
  309MPD2    C5 4650   2.091   3.265  17.277 -0.1549  0.3865 -0.2627
  309MPD2     H 4651   2.055   3.550  17.024 -0.2894  1.5694  1.6615
  309MPD2    H1 4652   1.935   3.338  17.387 -0.2124  1.3622 -0.4732
  309MPD2    H2 4653   2.260   3.206  17.163 -1.2626 -1.5596 -0.3351
  309MPD2    H3 4654   2.119   3.184  17.344  0.4700  1.6782  1.0280
  309MPD2     N 4655   1.882   3.559  17.237  0.4232  0.0237 -0.6735
  309MPD2    H5 4656   1.824   3.541  17.318 -0.0091  1.4194 -0.6638
  309MPD2    N1 4657   2.249   3.400  16.971  0.0476 -0.7589 -0.1108
  309MPD2    H7 4658   2.232   3.481  16.913 -0.3725 -0.2038  0.8039
  310TMC3    C1 4659   2.409   3.364  16.806  0.1543 -0.0401 -0.1222
  310TMC3    C2 4660   2.370   3.494  16.763  0.2874 -0.1393 -0.4178
  310TMC3    C3 4661   2.456   3.564  16.683  0.1382  0.1175  0.1065
  310TMC3    C4 4662   2.530   3.305  16.760  0.5121 -0.4316  0.0202
  310TMC3    C5 4663   2.615   3.391  16.687 -0.0624  0.5772 -0.4665
  310TMC3    C6 4664   2.576   3.512  16.642  0.5447  0.6920  0.5114
  310TMC3     C 4665   2.348   3.316  16.924  0.1155 -0.5845 -0.0473
  310TMC3     O 4666   2.378   3.210  16.971 -0.2791 -0.1810  0.1320
  310TMC3     H 4667   2.268   3.530  16.776  0.5227  0.5478 -0.4549
  310TMC3    H1 4668   2.561   3.205  16.789 -0.3925 -1.1448 -1.4672
  310TMC3    H2 4669   2.639   3.569  16.575 -0.5664  0.3647 -0.8294
  310TMC3    C7 4670   2.743   3.335  16.646  0.3216 -0.4007 -0.2352
  310TMC3    C8 4671   2.393   3.682  16.615 -0.7826 -0.8077  0.4031
  310TMC3    O1 4672   2.750   3.211  16.645 -0.2574  0.2966  0.0405
  310TMC3    O2 4673   2.274   3.696  16.620  0.7149  0.2766  0.3742
  311MPD2     C 4674   4.359   4.536  12.940 -0.0171  0.3388 -0.0085
  311MPD2    C1 4675   4.330   4.634  12.846  0.5005  0.1202  0.0997
  311MPD2    C2 4676   4.203   4.664  12.814 -0.0351  0.0416  0.4423
  311MPD2    C3 4677   4.098   4.600  12.878 -0.0950  0.2305  0.8813
  311MPD2    C4 4678   4.122   4.497  12.970 -0.9020 -0.0022  0.3488
  311MPD2    C5 4679   4.256   4.470  13.004 -0.7426 -0.3272  0.4790
  311MPD2     H 4680   4.184   0.011  12.736  0.6378 -1.0281 -0.7353
  311MPD2    H1 4681   4.047   4.434  13.018  0.3981 -1.0473  1.0187
  311MPD2    H2 4682   4.462   4.516  12.968 -1.0435 -0.6816  3.0176
  311MPD2    H3 4683   4.279   4.395  13.079 -0.3633 -2.2020 -1.5420
  311MPD2     N 4684   3.972   4.644  12.844  0.2335  0.2008  0.6637
  311MPD2    H5 4685   3.961   4.725  12.784 -1.5048 -0.6479 -0.1700
  311MPD2    N1 4686   4.436   4.704  12.775  0.8352  0.0416 -0.5881
  311MPD2    H7 4687   4.411   0.063  12.727  0.1793  0.3177  0.2495
  312TMC3    C1 4688   3.763   4.704  12.899  0.2689 -0.7807  0.1637
  312TMC3    C2 4689   3.636   4.660  12.903  0.8233 -0.1318  0.2126
  312TMC3    C3 4690   3.544   0.035  12.906 -0.1495 -0.0094 -0.7387
  312TMC3    C4 4691   3.798   0.106  12.926  0.2229 -0.2458  0.6973
  312TMC3    C5 4692   3.708   0.205  12.904 -0.2756  0.1075 -0.0480
  312TMC3    C6 4693   3.577   0.172  12.902 -0.1283  0.2907 -0.1976
  312TMC3     C 4694   3.861   4.597  12.903 -0.7493  0.6341 -0.7102
  312TMC3     O 4695   3.826   4.483  12.935 -0.0961  0.4088  0.1044
  312TMC3     H 4696   3.620   4.553  12.898  0.6762 -0.1222  0.5023
  312TMC3    H1 4697   3.903   0.132  12.929 -0.7239  3.4386  1.4126
  312TMC3    H2 4698   3.497   0.245  12.904  0.0133  0.4301  0.3936
  312TMC3    C7 4699   3.739   0.324  12.986 -1.0112 -0.0756 -0.0088
  312TMC3    C8 4700   3.414   4.714  12.885  0.6304  0.7879 -0.2284
  312TMC3    O1 4701   3.682   0.430  12.970  0.1838 -0.0251  0.1278
  312TMC3    O2 4702   3.390   4.596  12.891 -0.0965  0.2251  0.6407
  313MPD2     C 4703   3.510   4.183  11.359  0.5343 -0.2784  0.6134
  313MPD2    C1 4704   3.528   4.192  11.220  0.1906 -0.8884 -0.1429
  313MPD2    C2 4705   3.529   4.076  11.148  0.6949 -0.0469  0.0289
  313MPD2    C3 4706   3.521   3.954  11.216  0.4411 -0.7005 -0.4390
  313MPD2    C4 4707   3.524   3.948  11.352  0.2627  0.1207 -0.5563
  313MPD2    C5 4708   3.525   4.067  11.424  0.8539 -0.2895 -0.0214
  313MPD2     H 4709   3.550   4.073  11.042 -2.4199 -1.0689 -0.5577
  313MPD2    H1 4710   3.531   3.856  11.408  4.6807  1.0499  0.3980
  313MPD2    H2 4711   3.497   4.272  11.419  0.2179 -1.2129  1.9397
  313MPD2    H3 4712   3.503   4.070  11.530 -1.8922  2.4694 -0.6593
  313MPD2     N 4713   3.519   3.833  11.134  0.1475 -0.5229 -0.3277
  313MPD2    H5 4714   3.520   3.844  11.033 -2.3738 -0.5933 -0.3611
  313MPD2    N1 4715   3.528   4.311  11.146  0.0711  0.0795 -0.5142
  313MPD2    H7 4716   3.509   4.294  11.048  1.0018  1.8104 -0.9941
  314TMC3    C1 4717   3.587   4.541  11.084  0.7098 -0.2767 -0.3097
  314TMC3    C2 4718   3.699   4.616  11.104 -0.2465  0.1873 -0.8508
  314TMC3    C3 4719   3.752   4.685  10.997 -0.5075  0.1029  0.4879
  314TMC3    C4 4720   3.527   4.530  10.963  0.2182 -0.1360 -0.0296
  314TMC3    C5 4721   3.576   4.607  10.859 -0.9748 -0.4529 -0.2052
  314TMC3    C6 4722   3.693   4.682  10.873  0.5088 -0.5170 -0.1289
  314TMC3     C 4723   3.555   4.444  11.188  0.0954  0.3389  0.1474
  314TMC3     O 4724   3.569   4.477  11.304  0.0891  0.0289  0.5276
  314TMC3     H 4725   3.748   4.621  11.200  0.3322 -1.3471 -1.0626
  314TMC3    H1 4726   3.440   4.467  10.949  0.9096 -1.6066  2.3866
  314TMC3    H2 4727   3.732   0.023  10.798  1.7701  0.0720  1.0551
  314TMC3    C7 4728   3.537   4.553  10.731  0.1974  0.0395 -0.4958
  314TMC3    C8 4729   3.888   0.009  10.997 -0.2957 -0.1222  0.2415
  314TMC3    O1 4730   3.428   4.493  10.723 -0.6228 -0.0193 -0.9090
  314TMC3    O2 4731   3.921   0.100  10.918 -0.6206  0.1007  0.5057
  315MPD2     C 4732   3.947   2.997  17.471  0.3899  0.2627  0.4592
  315MPD2    C1 4733   3.979   3.050  17.595  0.0512  0.2650 -0.4894
  315MPD2    C2 4734   3.965   3.184  17.616 -0.7347 -0.0890  0.3573
  315MPD2    C3 4735   3.922   3.272  17.518  0.2601  0.4913 -0.6895
  315MPD2    C4 4736   3.903   3.222  17.390 -0.0123 -0.5687  0.3314
  315MPD2    C5 4737   3.917   3.088  17.370  0.1435 -0.4374  0.0147
  315MPD2     H 4738   3.990   3.219   0.007  0.5738 -0.4536  0.1558
  315MPD2    H1 4739   3.866   3.287  17.312 -0.7257 -0.6060  0.6348
  315MPD2    H2 4740   3.947   2.892  17.446 -0.8520  0.6561 -1.2260
  315MPD2    H3 4741   3.886   3.046  17.275  0.0647  0.0507 -0.1767
  315MPD2     N 4742   3.895   3.399  17.568 -0.6169  0.3891 -0.0769
  315MPD2    H5 4743   3.892   3.426  17.666 -0.7851 -1.8688  0.5482
  315MPD2    N1 4744   4.014   2.968   0.001 -0.0049  0.0329 -0.5389
  315MPD2    H7 4745   4.022   3.029   0.082 -3.9943  1.5451 -1.2784
  316TMC3    C1 4746   3.853   3.629  17.558 -0.1321 -0.8736  0.3143
  316TMC3    C2 4747   3.826   3.628  17.690 -0.4721 -1.0008 -0.0532
  316TMC3    C3 4748   3.813   3.751   0.039 -0.6098  0.5744  0.7905
  316TMC3    C4 4749   3.879   3.742  17.488  0.8417 -0.5175 -0.3511
  316TMC3    C5 4750   3.881   3.865  17.555 -0.0522  0.1244  0.3529
  316TMC3    C6 4751   3.839   3.870  17.687 -0.1540  0.4599  0.1089
  316TMC3     C 4752   3.873   3.505  17.486 -0.0736 -0.3016  0.0960
  316TMC3     O 4753   3.876   3.506  17.365  0.2244 -0.1492 -0.0234
  316TMC3     H 4754   3.789   3.540   0.033 -0.8675 -1.2286 -0.7189
  316TMC3    H1 4755   3.907   3.730  17.384 -1.9876  0.5267 -1.2168
  316TMC3    H2 4756   3.850   3.960   0.039  1.3536 -0.6815  1.5424
  316TMC3    C7 4757   3.906   3.987  17.487  0.3521  0.1302 -0.0920
  316TMC3    C8 4758   3.813   3.760   0.186 -0.8860  0.8179 -0.8195
  316TMC3    O1 4759   3.916   4.086  17.561 -0.0085  0.0734  0.5230
  316TMC3    O2 4760   3.789   3.867   0.239 -0.3941 -0.4878 -0.5901
  317MPD2     C 4761   0.852   2.124  12.254  0.1462  0.4189  0.0871
  317MPD2    C1 4762   0.914   2.003  12.233  0.3064  0.0500 -0.0963
  317MPD2    C2 4763   0.958   1.931  12.343 -0.2802  0.0307 -0.2302
  317MPD2    C3 4764   0.913   1.962  12.470 -0.3421  0.3250  0.2353
  317MPD2    C4 4765   0.847   2.082  12.491  0.2906  0.0619 -0.1928
  317MPD2    C5 4766   0.815   2.160  12.381 -0.2603  0.0632  0.1069
  317MPD2     H 4767   1.009   1.836  12.332  1.0332  0.3070  3.1820
  317MPD2    H1 4768   0.827   2.118  12.591 -2.6394 -3.2881  0.4077
  317MPD2    H2 4769   0.812   2.195  12.183  0.6671  0.3780 -0.2430
  317MPD2    H3 4770   0.765   2.256  12.384 -2.0774 -0.8451 -0.6188
  317MPD2     N 4771   0.948   1.878  12.579  0.0320 -0.1514  0.4463
  317MPD2    H5 4772   0.990   1.788  12.557  1.2068 -0.1895  2.9256
  317MPD2    N1 4773   0.951   1.952  12.104 -0.1094 -0.4862 -0.1010
  317MPD2    H7 4774   1.008   1.868  12.099 -0.2182 -0.4682 -1.8150
  318TMC3    C1 4775   0.997   1.799  12.794  0.9640  0.1407 -0.5646
  318TMC3    C2 4776   0.985   1.678  12.736  0.7440 -0.7044 -0.5370
  318TMC3    C3 4777   1.070   1.584  12.791 -0.1123  0.1473  0.3525
  318TMC3    C4 4778   1.071   1.824  12.904 -0.0506 -0.1319  0.7368
  318TMC3    C5 4779   1.148   1.722  12.955 -0.2302  0.3545  0.2569
  318TMC3    C6 4780   1.160   1.600  12.892 -0.4444  0.1534 -0.1592
  318TMC3     C 4781   0.942   1.911  12.714  0.4475 -0.0183 -0.0996
  318TMC3     O 4782   0.902   2.006  12.780 -0.6381  0.3281 -0.0501
  318TMC3     H 4783   0.905   1.668  12.664  0.5935  0.9882 -0.6099
  318TMC3    H1 4784   1.085   1.924  12.943  1.8675 -0.0552 -0.1237
  318TMC3    H2 4785   1.202   1.510  12.936 -0.1198  1.4318  2.1794
  318TMC3    C7 4786   1.236   1.758  13.061 -1.1422 -0.1622 -0.4150
  318TMC3    C8 4787   1.042   1.445  12.743  0.0981  0.1971 -0.8291
  318TMC3    O1 4788   1.218   1.867  13.119 -0.1040 -0.4191 -0.3899
  318TMC3    O2 4789   1.123   1.356  12.766  0.8353  0.3845 -0.2293
  319MPD2     C 4790   1.365   2.859  17.398  0.1763 -0.0168 -0.2904
  319MPD2    C1 4791   1.256   2.783  17.373 -0.1485 -0.1569 -0.1072
  319MPD2    C2 4792   1.208   2.757  17.245 -0.7838  0.3793  0.2224
  319MPD2    C3 4793   1.275   2.811  17.136 -0.2978 -0.8407 -0.7632
  319MPD2    C4 4794   1.396   2.879  17.158 -0.2691  0.1679 -0.4456
  319MPD2    C5 4795   1.439   2.898  17.287  0.1118  0.3395 -0.2634
  319MPD2     H 4796   1.121   2.694  17.227  0.9114 -1.9061  0.1370
  319MPD2    H1 4797   1.442   2.921  17.069 -1.8611  1.2112 -0.7814
  319MPD2    H2 4798   1.422   2.879  17.488  1.6038 -1.9390 -0.7632
  319MPD2    H3 4799   1.533   2.950  17.301 -1.2315  3.2813 -2.2208
  319MPD2     N 4800   1.237   2.796  17.001 -0.4829  0.4430  0.5568
  319MPD2    H5 4801   1.291   2.855  16.940 -2.2275  1.6148  0.1402
  319MPD2    N1 4802   1.178   2.725  17.474  0.3407  0.3592 -0.5871
  319MPD2    H7 4803   1.101   2.665  17.445  0.7301 -0.7724  0.6976
  320TMC3    C1 4804   1.127   2.743  16.812 -0.1145  0.1077  0.2651
  320TMC3    C2 4805   1.102   2.874  16.777  1.1036 -0.9514 -0.3154
  320TMC3    C3 4806   1.070   2.895  16.649 -0.5274 -0.2032 -0.2854
  320TMC3    C4 4807   1.114   2.645  16.718 -0.1248  0.7247  0.2104
  320TMC3    C5 4808   1.074   2.674  16.582  0.0082  0.8475 -0.5924
  320TMC3    C6 4809   1.054   2.801  16.550  0.0210  0.7708  0.2428
  320TMC3     C 4810   1.159   2.707  16.949 -0.0631 -0.3768  0.6123
  320TMC3     O 4811   1.135   2.596  16.994  0.5881  0.1890 -0.1669
  320TMC3     H 4812   1.104   2.961  16.841 -3.8414 -0.3791 -0.9224
  320TMC3    H1 4813   1.122   2.546  16.762  2.5666  0.0365 -1.8251
  320TMC3    H2 4814   1.013   2.822  16.451  2.8451 -0.0303 -1.0995
  320TMC3    C7 4815   1.046   2.562  16.500  0.6569 -0.9485 -0.0988
  320TMC3    C8 4816   1.056   3.028  16.596  0.4432  0.0290 -0.3850
  320TMC3    O1 4817   1.116   2.462  16.507 -0.2087  0.1042  0.4120
  320TMC3    O2 4818   1.002   3.123  16.655  0.0147 -0.0213 -0.1066
  321TMC3    C1 4819   1.104   2.662  17.695 -0.0642  0.0573 -0.5982
  321TMC3    C2 4820   1.061   2.540  17.651 -0.0975  0.0163  0.2259
  321TMC3    C3 4821   1.034   2.446   0.039 -0.0748  0.3931 -0.2409
  321TMC3    C4 4822   1.098   2.697   0.118  0.5172  0.1879 -0.1938
  321TMC3    C5 4823   1.075   2.600   0.211 -0.3327 -0.1022 -0.0549
  321TMC3    C6 4824   1.038   2.481   0.171  0.0666 -0.5133  0.3294
  321TMC3     C 4825   1.198   2.738  17.612  0.2647 -0.3739  0.3054
  321TMC3     O 4826   1.270   2.810  17.676 -0.0784 -0.8282  0.3243
  321TMC3     H 4827   1.077   2.510  17.549 -0.8737 -0.5856  0.2852
  321TMC3    H1 4828   1.141   2.793   0.142  0.9408 -0.6423  2.3773
  321TMC3    H2 4829   1.013   2.399   0.237 -0.7192  0.0370  0.7252
  321TMC3    C7 4830   1.178   2.590   0.317  0.1248 -0.3741 -0.4021
  321TMC3    C8 4831   1.100   2.314   0.014  0.7086 -0.9725  0.1325
  321TMC3    O1 4832   1.198   2.477   0.357  0.2731  0.5517 -0.2424
  321TMC3    O2 4833   1.075   2.261  17.615 -0.1526  0.5669  0.6674
  322MPD2     C 4834   0.381   4.050  13.245 -0.0825  0.3479  0.2213
  322MPD2    C1 4835   0.344   4.073  13.379  0.6959  0.2272 -0.6423
  322MPD2    C2 4836   0.322   3.959  13.456  0.9601 -0.0889 -0.2788
  322MPD2    C3 4837   0.319   3.836  13.400 -0.3463 -0.4877  0.8242
  322MPD2    C4 4838   0.356   3.812  13.271  0.6252  0.1550  0.4344
  322MPD2    C5 4839   0.393   3.919  13.198 -0.3392  0.1754 -0.0717
  322MPD2     H 4840   0.301   3.969  13.562  0.0325 -0.4662 -0.4328
  322MPD2    H1 4841   0.362   3.717  13.219  0.2736  0.7724 -0.7390
  322MPD2    H2 4842   0.421   4.134  13.190 -0.9188  0.1122 -0.7444
  322MPD2    H3 4843   0.420   3.916  13.094 -3.5597 -1.6452 -0.8644
  322MPD2     N 4844   0.294   3.728  13.487 -0.5171  0.1085 -0.3139
  322MPD2    H5 4845   0.285   3.757  13.584 -1.0002 -3.6635  0.7680
  322MPD2    N1 4846   0.360   4.197  13.434 -0.4398 -0.0731 -0.2661
  322MPD2    H7 4847   0.413   4.260  13.374 -1.5826 -0.7640 -2.0250
  323TMC3    C1 4848   0.358   4.347  13.622  0.4410 -0.5847 -0.4620
  323TMC3    C2 4849   0.451   4.435  13.568  0.4375  0.1547  0.2458
  323TMC3    C3 4850   0.494   4.537  13.649 -0.2050  0.1727 -0.5396
  323TMC3    C4 4851   0.319   4.359  13.751 -0.1287 -0.3597 -0.3154
  323TMC3    C5 4852   0.370   4.459  13.832  0.1279 -0.1132  0.7959
  323TMC3    C6 4853   0.458   4.553  13.782  0.2786  0.1790 -0.1911
  323TMC3     C 4854   0.306   4.234  13.552 -0.1318 -0.4520  0.2846
  323TMC3     O 4855   0.198   4.199  13.600  0.1619  0.1164  0.1363
  323TMC3     H 4856   0.502   4.409  13.476  0.8778  1.4734  0.1155
  323TMC3    H1 4857   0.250   4.286  13.792 -3.5232  2.3452 -1.1636
  323TMC3    H2 4858   0.500   4.634  13.841  1.9862 -1.1060  0.3572
  323TMC3    C7 4859   0.370   4.440  13.977 -0.0299 -0.3110  0.2839
  323TMC3    C8 4860   0.616   4.609  13.606  0.0656 -0.7366  0.6170
  323TMC3    O1 4861   0.307   4.344  14.019 -0.3937 -0.6429  0.4155
  323TMC3    O2 4862   0.687   4.556  13.529 -0.1567 -0.2104 -0.3833
  324MPD2     C 4863   2.446   0.599  15.011 -0.1716  0.0732  0.2139
  324MPD2    C1 4864   2.457   0.695  14.905  0.1813 -0.1077 -0.7002
  324MPD2    C2 4865   2.336   0.727  14.845  0.9067 -0.0117  0.3319
  324MPD2    C3 4866   2.218   0.671  14.877 -0.0792 -0.2476  0.1353
  324MPD2    C4 4867   2.206   0.578  14.975  0.2244 -0.0640 -0.0183
  324MPD2    C5 4868   2.323   0.534  15.043  0.2376  0.1498 -0.3269
  324MPD2     H 4869   2.347   0.798  14.763  3.3740  1.2286  1.7350
  324MPD2    H1 4870   2.112   0.534  15.006  0.7086  0.6397  2.4843
  324MPD2    H2 4871   2.536   0.574  15.065 -0.3691 -0.4183  0.3145
  324MPD2    H3 4872   2.318   0.454  15.116 -2.9377  0.8166  0.1845
  324MPD2     N 4873   2.097   0.718  14.824  0.1577 -0.6877  0.1691
  324MPD2    H5 4874   2.013   0.664  14.841 -0.1270  0.0105  0.9795
  324MPD2    N1 4875   2.577   0.751  14.855 -0.7328  0.2459  0.1525
  324MPD2    H7 4876   2.567   0.803  14.768 -2.3661 -1.3586 -0.6173
  325TMC3    C1 4877   1.947   0.906  14.798  1.0525 -0.8230 -0.5547
  325TMC3    C2 4878   1.840   0.823  14.826 -0.3470  1.1026 -0.7684
  325TMC3    C3 4879   1.716   0.875  14.837 -0.2321  0.1425 -0.1245
  325TMC3    C4 4880   1.933   1.042  14.766  0.0821 -0.2069 -0.2910
  325TMC3    C5 4881   1.803   1.087  14.761 -0.7470 -0.1327 -0.4258
  325TMC3    C6 4882   1.693   1.005  14.794 -0.5911  0.4160 -0.5181
  325TMC3     C 4883   2.082   0.851  14.776  0.2797  0.6215  0.7040
  325TMC3     O 4884   2.159   0.915  14.709  0.4562 -0.1320 -0.0318
  325TMC3     H 4885   1.854   0.716  14.828 -1.5986  1.0106  3.5044
  325TMC3    H1 4886   2.019   1.105  14.750  0.5476 -0.5831  0.6946
  325TMC3    H2 4887   1.595   1.051  14.801 -0.4625  0.9180 -1.9683
  325TMC3    C7 4888   1.792   1.166  14.648  0.0062 -0.0519 -0.1779
  325TMC3    C8 4889   1.613   0.801  14.781 -0.5017 -0.3293  0.2962
  325TMC3    O1 4890   1.895   1.174  14.578 -0.0991 -0.1620  0.2685
  325TMC3    O2 4891   1.499   0.813  14.827 -0.3048 -0.0627 -0.3538
  326MPD2     C 4892   3.546   1.296  11.111 -0.7964 -0.1161  0.3329
  326MPD2    C1 4893   3.526   1.413  11.035 -0.3696 -0.6736  0.1755
  326MPD2    C2 4894   3.597   1.530  11.058  0.1369  0.2181 -0.0132
  326MPD2    C3 4895   3.708   1.520  11.139  0.1489  0.4292  0.1028
  326MPD2    C4 4896   3.733   1.409  11.223  0.7060 -0.6634  0.0936
  326MPD2    C5 4897   3.641   1.306  11.211 -0.2560 -0.1603 -0.1851
  326MPD2     H 4898   3.575   1.618  10.999 -0.1409  0.0211 -0.2010
  326MPD2    H1 4899   3.822   1.391  11.282  0.6525 -4.6572 -1.0615
  326MPD2    H2 4900   3.487   1.205  11.108 -0.5774 -0.1953 -1.6797
  326MPD2    H3 4901   3.652   1.219  11.274  1.1733 -0.7443 -1.2504
  326MPD2     N 4902   3.794   1.635  11.152  0.3703 -0.0655 -0.0920
  326MPD2    H5 4903   3.887   1.628  11.191  0.2552 -0.9598  0.0323
  326MPD2    N1 4904   3.428   1.426  10.931  0.2068  0.2067 -1.1033
  326MPD2    H7 4905   3.430   1.516  10.884  0.8091  0.8401  0.1423
  327TMC3    C1 4906   3.311   1.361  10.755  0.6278 -0.3588  0.8873
  327TMC3    C2 4907   3.212   1.455  10.738 -0.0510  0.4351 -0.1293
  327TMC3    C3 4908   3.222   1.520  10.618  0.4759  0.1536 -0.2667
  327TMC3    C4 4909   3.422   1.344  10.674  0.6634  0.2556 -1.3540
  327TMC3    C5 4910   3.426   1.419  10.558  0.1694 -0.8603  0.4867
  327TMC3    C6 4911   3.321   1.498  10.529  0.3677 -0.2994 -0.2685
  327TMC3     C 4912   3.341   1.330  10.891 -0.8109 -0.3441 -0.0687
  327TMC3     O 4913   3.308   1.218  10.935  0.7641 -0.0857 -0.1390
  327TMC3     H 4914   3.150   1.479  10.824 -0.3863  0.8723 -0.4882
  327TMC3    H1 4915   3.500   1.276  10.704  0.3175  0.7546  0.7420
  327TMC3    H2 4916   3.322   1.566  10.444  1.3157  1.6291  1.2696
  327TMC3    C7 4917   3.557   1.481  10.540  0.0626  0.5791 -0.3838
  327TMC3    C8 4918   3.168   1.652  10.601  0.5545 -0.7450 -0.1085
  327TMC3    O1 4919   3.570   1.569  10.461  0.1681  0.2166 -0.0888
  327TMC3    O2 4920   3.157   1.698  10.491  0.0226 -0.1392 -0.1637
  328MPD2     C 4921   1.024   1.306  17.053 -0.6757  0.2432  0.1617
  328MPD2    C1 4922   0.900   1.359  17.026  0.2135  0.1250  0.1614
  328MPD2    C2 4923   0.874   1.393  16.889 -0.2412  0.0723  0.3427
  328MPD2    C3 4924   0.975   1.367  16.798 -0.0672  0.8142 -0.1638
  328MPD2    C4 4925   1.086   1.296  16.827  0.2330  0.5394  0.1083
  328MPD2    C5 4926   1.103   1.259  16.960 -0.3240  0.0988 -0.2848
  328MPD2     H 4927   0.773   1.418  16.857 -0.8239 -2.1761  0.4084
  328MPD2    H1 4928   1.148   1.261  16.745  0.7143 -0.6263  0.9771
  328MPD2    H2 4929   1.049   1.262  17.149 -0.1418 -0.0393 -0.1085
  328MPD2    H3 4930   1.190   1.200  16.986 -0.2395  0.2082 -0.3184
  328MPD2     N 4931   0.946   1.376  16.658  0.1956 -0.0569 -0.0969
  328MPD2    H5 4932   1.003   1.316  16.599 -0.9971 -0.3252 -0.9625
  328MPD2    N1 4933   0.801   1.371  17.130  0.1273 -0.0358 -0.0649
  328MPD2    H7 4934   0.832   1.353  17.225  0.4867 -2.9935 -0.7537
  329TMC3    C1 4935   0.597   1.423  17.243  0.5239  0.2243  0.1012
  329TMC3    C2 4936   0.660   1.385  17.360  0.1648  0.0270  0.0195
  329TMC3    C3 4937   0.617   1.441  17.476 -0.2322  0.6518  0.7368
  329TMC3    C4 4938   0.477   1.493  17.244 -0.1998 -0.1791  0.3961
  329TMC3    C5 4939   0.445   1.552  17.361  0.3055  0.7382  0.6880
  329TMC3    C6 4940   0.513   1.535  17.476  0.6632 -0.5357 -0.4888
  329TMC3     C 4941   0.668   1.416  17.114  0.8210  0.3636  0.1989
  329TMC3     O 4942   0.622   1.472  17.016  0.0407 -0.0492 -0.1575
  329TMC3     H 4943   0.735   1.307  17.357  0.0613 -0.0394 -1.0488
  329TMC3    H1 4944   0.421   1.526  17.157  1.3844  1.2001 -0.1010
  329TMC3    H2 4945   0.476   1.577  17.569  2.9159 -1.3603  0.7816
  329TMC3    C7 4946   0.358   1.664  17.365 -0.1424  0.0169  0.0393
  329TMC3    C8 4947   0.702   1.430  17.601  0.9331 -0.4445  0.3453
  329TMC3    O1 4948   0.394   1.755  17.438  0.0027  0.3458  0.1189
  329TMC3    O2 4949   0.804   1.362  17.584  0.1661 -1.1204  0.2956
  330TMC3    C1 4950   3.433   1.146   9.268 -0.0955 -0.8985 -0.0118
  330TMC3    C2 4951   3.368   1.034   9.217 -0.2015  0.5286 -0.1737
  330TMC3    C3 4952   3.434   0.915   9.237  0.4539 -0.1882 -0.1894
  330TMC3    C4 4953   3.545   1.141   9.342  0.6025 -0.1004 -0.3071
  330TMC3    C5 4954   3.590   1.016   9.374  0.3665  0.5615  0.6434
  330TMC3    C6 4955   3.543   0.898   9.311 -0.1557 -0.0542  0.3319
  330TMC3     C 4956   3.398   1.276   9.203  0.6409 -0.1521 -0.3736
  330TMC3     O 4957   3.496   1.340   9.169 -0.4239 -0.0836 -0.0680
  330TMC3     H 4958   3.288   1.046   9.145  1.0583 -0.7447 -1.7813
  330TMC3    H1 4959   3.592   1.231   9.379 -2.0923  0.1497  2.5811
  330TMC3    H2 4960   3.576   0.796   9.324  1.8259  0.1885 -2.9468
  330TMC3    C7 4961   3.729   1.008   9.414 -0.4972 -0.0065 -0.4054
  330TMC3    C8 4962   3.343   0.799   9.211  0.1341 -0.6191 -0.4976
  330TMC3    O1 4963   3.797   1.109   9.420  0.6530  0.4239  0.1385
  330TMC3    O2 4964   3.256   0.816   9.131  0.7173 -0.6806 -0.1189
  331MPD2     C 4965   1.353   0.207  12.992 -0.0673 -0.2835  0.2136
  331MPD2    C1 4966   1.477   0.238  12.944 -0.0001  0.8018 -0.0955
  331MPD2    C2 4967   1.551   0.131  12.890  0.2496 -0.2072  0.3297
  331MPD2    C3 4968   1.495   0.004  12.860  0.7324  0.0185  0.2737
  331MPD2    C4 4969   1.366   4.714  12.909  0.1716  0.4047 -0.1665
  331MPD2    C5 4970   1.298   0.085  12.978 -0.0559 -0.5532 -0.2052
  331MPD2     H 4971   1.658   0.138  12.871  0.3841  0.5421  1.3735
  331MPD2    H1 4972   1.309   4.622  12.903  0.6147  0.2357 -1.7275
  331MPD2    H2 4973   1.290   0.286  13.033 -0.9881 -1.9463  2.0396
  331MPD2    H3 4974   1.194   0.069  13.006 -0.1307 -0.6602 -0.5413
  331MPD2     N 4975   1.563   4.638  12.775  0.0207 -0.0384  0.1717
  331MPD2    H5 4976   1.659   4.662  12.754 -0.6378  0.2029 -2.5666
  331MPD2    N1 4977   1.527   0.367  12.942 -0.3074 -0.3823 -0.0039
  331MPD2    H7 4978   1.471   0.448  12.965  0.7252 -0.8503  4.1208
  332TMC3    C1 4979   1.601   4.445  12.656 -0.1005 -0.2162  0.1057
  332TMC3    C2 4980   1.685   4.513  12.576  0.5171  0.4215  0.1532
  332TMC3    C3 4981   1.769   4.446  12.493  0.0634  0.5651  0.2024
  332TMC3    C4 4982   1.623   4.318  12.678 -1.1676  0.5220 -0.1035
  332TMC3    C5 4983   1.723   4.250  12.608 -0.9466  0.2785 -0.1449
  332TMC3    C6 4984   1.790   4.314  12.511  0.6485  0.8169 -0.2986
  332TMC3     C 4985   1.514   4.517  12.744  0.1878 -0.2884  0.0703
  332TMC3     O 4986   1.402   4.466  12.753  0.2016 -0.0941  0.1798
  332TMC3     H 4987   1.667   4.619  12.564 -2.2109 -0.0397  0.2200
  332TMC3    H1 4988   1.576   4.271  12.764 -0.4196 -2.5410 -1.3717
  332TMC3    H2 4989   1.842   4.252  12.439  1.4555 -0.0616  1.0566
  332TMC3    C7 4990   1.800   4.160  12.698 -0.5798  0.1987  0.0112
  332TMC3    C8 4991   1.842   4.523  12.388  0.3701 -0.1269  0.4180
  332TMC3    O1 4992   1.736   4.100  12.789  0.2694 -0.4224  0.0230
  332TMC3    O2 4993   1.865   4.640  12.408 -0.1753  0.6324 -0.2363
  333MPD2     C 4994   2.507   4.422  11.492  0.7541  0.8887 -0.4721
  333MPD2    C1 4995   2.481   4.349  11.380 -0.1880  0.7059 -0.2820
  333MPD2    C2 4996   2.365   4.274  11.368 -0.4345  0.5582 -0.3601
  333MPD2    C3 4997   2.270   4.283  11.468  0.1725  0.8019 -0.0621
  333MPD2    C4 4998   2.285   4.365  11.580 -0.4980  0.1689 -0.2781
  333MPD2    C5 4999   2.401   4.436  11.590  0.1312 -0.4825 -0.1692
  333MPD2     H 5000   2.351   4.214  11.279 -0.9143 -1.3983  1.0438
  333MPD2    H1 5001   2.218   4.370  11.664 -0.8226 -1.7428 -0.4243
  333MPD2    H2 5002   2.603   4.473  11.492  0.9130  0.5812  1.0717
  333MPD2    H3 5003   2.417   4.508  11.670 -2.4537 -2.5782  2.2442
  333MPD2     N 5004   2.157   4.194  11.456  0.1294  0.5536  0.5137
  333MPD2    H5 5005   2.154   4.131  11.376  5.1827  2.2078 -0.9971
  333MPD2    N1 5006   2.585   4.351  11.286 -0.0240 -0.6160  0.2151
  333MPD2    H7 5007   2.669   4.403  11.310 -0.2170  0.1057 -0.6943
  334TMC3    C1 5008   2.697   4.318  11.078 -0.0581 -0.4894 -0.1613
  334TMC3    C2 5009   2.825   4.326  11.132  0.7152  0.5504 -0.4394
  334TMC3    C3 5010   2.927   4.342  11.043 -0.0062  0.5218  0.4880
  334TMC3    C4 5011   2.675   4.331  10.942 -0.4369 -0.3803 -0.0421
  334TMC3    C5 5012   2.775   4.342  10.854 -0.2429 -0.1653  0.0845
  334TMC3    C6 5013   2.904   4.341  10.903 -0.1229 -0.1594 -0.2846
  334TMC3     C 5014   2.575   4.299  11.154  0.4716  0.0262 -0.1640
  334TMC3     O 5015   2.468   4.262  11.094 -0.5137  0.2511 -0.4309
  334TMC3     H 5016   2.834   4.313  11.239 -0.2016 -1.1782 -0.5738
  334TMC3    H1 5017   2.572   4.344  10.912 -0.1823  1.7871  0.0160
  334TMC3    H2 5018   2.985   4.345  10.831 -0.2857 -0.5901 -0.4914
  334TMC3    C7 5019   2.750   4.464  10.778  0.1395 -0.7921  0.1146
  334TMC3    C8 5020   3.002   4.454  11.085 -0.6449  0.8218 -0.2082
  334TMC3    O1 5021   2.675   4.545  10.832 -0.2599 -0.4767  0.5279
  334TMC3    O2 5022   2.985   4.483  11.200 -0.2784 -0.7195  0.3373
  335TMC3    C1 5023   1.447   1.858  17.205 -0.1687 -0.3264  0.2706
  335TMC3    C2 5024   1.440   1.851  17.068 -0.4844 -0.3564 -0.4667
  335TMC3    C3 5025   1.552   1.853  16.993 -0.5398  0.5488  0.0872
  335TMC3    C4 5026   1.567   1.897  17.257  0.0688 -0.5922 -0.0012
  335TMC3    C5 5027   1.681   1.920  17.184 -0.2339 -0.0485 -0.2691
  335TMC3    C6 5028   1.676   1.889  17.053  0.1784 -0.5509  0.3934
  335TMC3     C 5029   1.341   1.809  17.289  0.5702 -0.8029  0.9967
  335TMC3     O 5030   1.227   1.795  17.242 -0.3238 -0.9148  0.2844
  335TMC3     H 5031   1.357   1.806  17.015  0.0473 -1.3132 -0.4976
  335TMC3    H1 5032   1.579   1.896  17.365 -0.6098  2.2733  0.1090
  335TMC3    H2 5033   1.764   1.889  16.991  0.5345  0.2329  0.8911
  335TMC3    C7 5034   1.814   1.895  17.247  0.1476  0.3869 -0.3653
  335TMC3    C8 5035   1.564   1.748  16.900  0.2050  0.5351  0.3909
  335TMC3    O1 5036   1.899   1.849  17.173  0.1610 -0.4443  0.1981
  335TMC3    O2 5037   1.643   1.768  16.808  0.0683 -0.3396  0.4953
  336MPD2     C 5038   1.518   4.319  16.421 -0.4545 -0.3326 -0.1419
  336MPD2    C1 5039   1.462   4.294  16.304  0.1054  0.0708 -0.0248
  336MPD2    C2 5040   1.463   4.171  16.239  0.6690 -0.6044  0.4623
  336MPD2    C3 5041   1.514   4.061  16.305  0.8020 -0.8407 -0.2082
  336MPD2    C4 5042   1.574   4.087  16.431  0.7175 -0.1700  0.3970
  336MPD2    C5 5043   1.578   4.211  16.485 -0.5372 -0.8919  0.1274
  336MPD2     H 5044   1.424   4.177  16.139  0.9535  2.2919  0.5263
  336MPD2    H1 5045   1.605   4.013  16.504 -0.5907  0.1756  1.3123
  336MPD2    H2 5046   1.520   4.415  16.471 -0.5776 -0.5381  0.2550
  336MPD2    H3 5047   1.606   4.223  16.589  1.1315  0.9078 -0.5137
  336MPD2     N 5048   1.514   3.937  16.248  0.6417 -0.9714  0.1271
  336MPD2    H5 5049   1.557   3.868  16.309 -0.0141 -1.6350 -0.1721
  336MPD2    N1 5050   1.381   4.388  16.236 -0.2801 -0.5568  0.2055
  336MPD2    H7 5051   1.336   4.355  16.151 -0.5711 -0.1154  0.1876
  337TMC3    C1 5052   1.305   4.602  16.163 -0.1546  0.1259 -0.0602
  337TMC3    C2 5053   1.189   4.551  16.109 -1.1804 -0.3820  0.2574
  337TMC3    C3 5054   1.109   4.626  16.020 -0.1702  0.5731 -0.1348
  337TMC3    C4 5055   1.339   0.006  16.139  0.9559 -0.1542  0.1482
  337TMC3    C5 5056   1.253   0.077  16.057 -0.9739  0.3778 -0.4012
  337TMC3    C6 5057   1.142   0.026  15.991  0.3072 -0.3924 -0.1101
  337TMC3     C 5058   1.380   4.523  16.258 -0.9229  0.6348  0.6485
  337TMC3     O 5059   1.448   4.583  16.338 -0.2039 -0.0641 -0.1886
  337TMC3     H 5060   1.154   4.457  16.149  0.3494 -0.9188  0.3198
  337TMC3    H1 5061   1.434   0.048  16.170  0.8998 -1.4516  2.1194
  337TMC3    H2 5062   1.078   0.084  15.925 -0.4803 -1.6076 -0.4104
  337TMC3    C7 5063   1.290   0.208  16.015 -0.1796  0.4059  0.0697
  337TMC3    C8 5064   0.981   4.574  15.982  0.8163  0.2534  0.4014
  337TMC3    O1 5065   1.249   0.246  15.908 -0.4986 -0.3790 -0.1863
  337TMC3    O2 5066   0.924   4.486  16.048 -0.6288 -0.5028  0.3793
  338MPD2     C 5067   1.824   3.108   0.677 -0.7124 -0.3470 -0.1665
  338MPD2    C1 5068   1.824   3.235   0.642  0.4573 -0.5972 -0.6531
  338MPD2    C2 5069   1.716   3.311   0.686 -0.4127  0.7889 -0.0431
  338MPD2    C3 5070   1.608   3.262   0.751  0.2239 -0.3758 -0.6343
  338MPD2    C4 5071   1.606   3.128   0.770 -0.5883 -0.2208 -0.6759
  338MPD2    C5 5072   1.714   3.048   0.736 -0.3894  0.2416  0.4326
  338MPD2     H 5073   1.724   3.419   0.689  1.2525  0.7261 -2.1938
  338MPD2    H1 5074   1.515   3.086   0.812 -0.3608  0.3657  0.3993
  338MPD2    H2 5075   1.903   3.047   0.637 -1.8130 -0.7480 -1.7528
  338MPD2    H3 5076   1.700   2.940   0.741 -3.1583  0.5619 -0.4193
  338MPD2     N 5077   1.508   3.357   0.789  0.3623 -0.6547  0.2758
  338MPD2    H5 5078   1.538   3.453   0.777 -4.0024  0.4202 -2.2431
  338MPD2    N1 5079   1.925   3.299   0.572  0.4269  0.2242 -0.3055
  338MPD2    H7 5080   1.905   3.397   0.552 -2.1968  0.3631  3.0094
  339TMC3    C1 5081   1.307   3.445   0.827 -0.4269 -0.0696 -0.6805
  339TMC3    C2 5082   1.188   3.440   0.896 -0.1793  0.2220  0.0437
  339TMC3    C3 5083   1.106   3.550   0.885 -0.0845 -0.2993 -0.2622
  339TMC3    C4 5084   1.335   3.549   0.738  0.4944 -0.5044 -0.8315
  339TMC3    C5 5085   1.235   3.638   0.710 -0.8326  0.1447 -0.1766
  339TMC3    C6 5086   1.126   3.650   0.787  0.0805  0.0695  0.1178
  339TMC3     C 5087   1.381   3.327   0.814 -0.4162  0.4302  0.1708
  339TMC3     O 5088   1.329   3.215   0.834  0.0213  0.7788  0.7069
  339TMC3     H 5089   1.170   3.352   0.957  0.4734 -0.8477 -1.3150
  339TMC3    H1 5090   1.436   3.564   0.702  0.0924 -1.6611 -2.4322
  339TMC3    H2 5091   1.059   3.733   0.768  1.6692  1.7014  1.6973
  339TMC3    C7 5092   1.276   3.763   0.643 -1.1350  0.0612  0.4867
  339TMC3    C8 5093   0.975   3.561   0.955 -0.7011  0.1260  0.0168
  339TMC3    O1 5094   1.207   3.861   0.659  0.0523  0.0406 -0.3097
  339TMC3    O2 5095   0.896   3.649   0.927 -0.0050 -0.1308  0.6876
  340MPD2     C 5096   2.133   1.930  10.639  0.2090 -1.0479 -0.3731
  340MPD2    C1 5097   2.104   1.910  10.509 -0.1994  0.2819 -0.8360
  340MPD2    C2 5098   2.199   1.941  10.415 -0.5703 -0.0822  0.2047
  340MPD2    C3 5099   2.319   1.993  10.445 -0.0792 -0.6335  0.1908
  340MPD2    C4 5100   2.341   2.027  10.578 -0.3742  0.0618 -0.5605
  340MPD2    C5 5101   2.253   1.988  10.675  0.0772  0.8709 -0.4466
  340MPD2     H 5102   2.187   1.907  10.313 -0.4941  3.1029 -0.8317
  340MPD2    H1 5103   2.433   2.071  10.614  0.5498 -1.7785 -0.6953
  340MPD2    H2 5104   2.064   1.900  10.718 -0.1848 -0.6364 -0.5605
  340MPD2    H3 5105   2.267   2.000  10.782 -0.5629  0.6603 -0.3400
  340MPD2     N 5106   2.417   2.013  10.345 -0.0577 -0.9242  0.3183
  340MPD2    H5 5107   2.515   2.004  10.370  0.5659  1.1614 -1.3280
  340MPD2    N1 5108   1.998   1.830  10.470  0.1949  0.4420  0.9132
  340MPD2    H7 5109   1.943   1.797  10.548 -1.6374 -0.1920 -0.6609
  341TMC3    C1 5110   1.874   1.679  10.334 -0.5222 -0.1522 -0.5221
  341TMC3    C2 5111   1.922   1.573  10.414 -0.4506  0.0549  0.3521
  341TMC3    C3 5112   1.947   1.454  10.351 -0.0135 -0.5863  0.1882
  341TMC3    C4 5113   1.842   1.655  10.203  0.0126  0.3105 -0.2693
  341TMC3    C5 5114   1.879   1.539  10.143  0.1642 -0.2372  0.6049
  341TMC3    C6 5115   1.928   1.438  10.218  0.2744 -0.4031  0.2626
  341TMC3     C 5116   1.954   1.800  10.344 -0.1399 -0.2363 -0.0240
  341TMC3     O 5117   2.007   1.824  10.239 -0.0786 -0.0409  0.0406
  341TMC3     H 5118   1.958   1.576  10.516  0.7520 -0.6711 -0.0432
  341TMC3    H1 5119   1.814   1.739  10.141 -2.1268 -0.7384 -0.7216
  341TMC3    H2 5120   1.930   1.342  10.168  0.0202 -1.0666  1.5217
  341TMC3    C7 5121   1.897   1.530   9.994  0.9127  0.4167 -0.1843
  341TMC3    C8 5122   1.991   1.350  10.435  0.5370  0.3779 -0.0872
  341TMC3    O1 5123   1.956   1.437   9.949  0.7044 -0.1956  0.3859
  341TMC3    O2 5124   1.957   1.340  10.552  0.2103 -0.7826  0.3559
  342MPD2     C 5125   4.284   4.545   0.002  0.3781  0.3056 -0.2249
  342MPD2    C1 5126   4.412   4.564  17.662  0.0367 -0.6160  0.1517
  342MPD2    C2 5127   4.467   4.689  17.649  0.1686  0.9127 -0.1676
  342MPD2    C3 5128   4.395   0.075  17.692  0.9642 -0.4377  0.5394
  342MPD2    C4 5129   4.269   0.060   0.037  0.2063  0.4245 -0.2115
  342MPD2    C5 5130   4.217   4.660   0.035  0.3998 -0.6428  1.1110
  342MPD2     H 5131   4.565   4.691  17.602  0.1528 -0.1301 -0.2445
  342MPD2    H1 5132   4.197   0.139   0.055 -0.6068 -0.9932  2.6774
  342MPD2    H2 5133   4.235   4.448   0.011  1.3980 -0.2369 -0.5294
  342MPD2    H3 5134   4.110   4.645   0.052  0.6783 -0.2541  3.2016
  342MPD2     N 5135   4.442   0.210  17.673 -0.0973 -0.1192 -0.3447
  342MPD2    H5 5136   4.381   0.285  17.703  2.2139  1.8391 -0.5153
  342MPD2    N1 5137   4.494   4.466  17.611  0.1986 -0.2206  0.2586
  342MPD2    H7 5138   4.583   4.493  17.569 -1.3283  1.5996 -1.7613
  343TMC3    C1 5139   4.574   4.240  17.573 -0.1819  0.0839  0.5129
  343TMC3    C2 5140   4.686   4.286  17.508 -0.1111 -0.8600  0.7239
  343TMC3    C3 5141   0.049   4.194  17.459 -0.3560 -0.2569  0.9017
  343TMC3    C4 5142   4.553   4.105  17.601  0.2213 -1.6212 -0.0375
  343TMC3    C5 5143   4.640   4.013  17.545  0.6978 -0.0514 -0.0149
  343TMC3    C6 5144   0.023   4.058  17.470 -0.0692 -0.5215 -0.8370
  343TMC3     C 5145   4.474   4.330  17.633  0.1093  0.2934 -0.9310
  343TMC3     O 5146   4.377   4.281  17.693 -0.2256  0.3665  0.1193
  343TMC3     H 5147   4.707   4.392  17.511 -1.6583 -0.5184 -0.5709
  343TMC3    H1 5148   4.462   4.070  17.648  0.1380  2.0555  2.4733
  343TMC3    H2 5149   0.103   3.993  17.438  0.7437  0.2736 -0.4237
  343TMC3    C7 5150   4.627   3.873  17.578  0.7187  0.0323 -0.5957
  343TMC3    C8 5151   0.176   4.248  17.416 -0.1303  0.4009  0.3483
  343TMC3    O1 5152   4.681   3.800  17.496 -0.0042  0.4168  0.0350
  343TMC3    O2 5153   0.217   4.350  17.468  0.0703 -0.1962 -0.0226
  344MPD2     C 5154   0.744   4.050  11.045 -0.3216 -0.1980  0.0738
  344MPD2    C1 5155   0.879   4.025  11.042 -0.2286  0.2814 -0.0301
  344MPD2    C2 5156   0.967   4.125  11.002 -0.3364  0.5653 -0.1429
  344MPD2    C3 5157   0.919   4.256  10.987 -0.2266  0.1385  0.0806
  344MPD2    C4 5158   0.784   4.279  10.997  0.7825 -0.0461  0.4320
  344MPD2    C5 5159   0.697   4.177  11.020 -0.0931  0.6129 -0.2016
  344MPD2     H 5160   1.070   4.094  10.991 -0.1917  0.1106  2.6451
  344MPD2    H1 5161   0.746   4.371  10.955 -1.2045 -2.3455 -2.7799
  344MPD2    H2 5162   0.672   3.979  11.084 -1.5348  0.8230 -0.3113
  344MPD2    H3 5163   0.589   4.191  11.015 -0.4782 -2.2600 -0.0019
  344MPD2     N 5164   1.009   4.359  10.965  0.3124  0.0101 -0.8100
  344MPD2    H5 5165   0.970   4.451  10.946  1.3056  0.3704 -1.1369
  344MPD2    N1 5166   0.923   3.892  11.054  0.4514  0.4758  0.1508
  344MPD2    H7 5167   1.021   3.869  11.039  0.6932 -0.7795  3.8497
  345TMC3    C1 5168   1.205   4.488  10.951  0.2684  1.1921 -0.3145
  345TMC3    C2 5169   1.301   4.543  11.031  0.0471  0.4696  0.6548
  345TMC3    C3 5170   1.349   4.670  10.994 -0.4687 -0.3683  0.7094
  345TMC3    C4 5171   1.155   4.547  10.840 -0.2729 -0.1445  0.0437
  345TMC3    C5 5172   1.210   4.668  10.806 -0.2469  0.0880 -0.2726
  345TMC3    C6 5173   1.302   0.009  10.887 -0.5539  0.3320 -0.6832
  345TMC3     C 5174   1.149   4.358  10.980  0.3489 -0.0403 -0.8277
  345TMC3     O 5175   1.223   4.285  11.049  0.0153  0.2932 -0.3780
  345TMC3     H 5176   1.326   4.510  11.131 -0.3515  0.3285  0.7079
  345TMC3    H1 5177   1.075   4.504  10.781  0.2108  1.6174 -1.8857
  345TMC3    H2 5178   1.355   0.095  10.848  0.4754 -0.3187 -0.7168
  345TMC3    C7 5179   1.125   0.034  10.729 -0.0288  0.5159  1.0272
  345TMC3    C8 5180   1.364   0.027  11.105 -0.1700 -0.2036  0.0928
  345TMC3    O1 5181   1.133   0.153  10.774 -0.1599  0.0726 -0.3217
  345TMC3    O2 5182   1.399   4.707  11.213  0.9006  0.1483 -0.5387
  346MPD2     C 5183   0.716   1.222  13.836 -0.6137 -0.0777 -0.9496
  346MPD2    C1 5184   0.846   1.266  13.832  0.0976 -0.5815  0.0066
  346MPD2    C2 5185   0.901   1.307  13.957 -0.4626 -0.1963  0.3168
  346MPD2    C3 5186   0.825   1.324  14.067 -0.6406  0.5080 -0.5478
  346MPD2    C4 5187   0.692   1.277  14.071  0.0204  0.7814 -0.5208
  346MPD2    C5 5188   0.644   1.213  13.956  0.1520  0.1965  0.0760
  346MPD2     H 5189   0.994   1.362  13.954 -1.0461  0.7083 -2.0090
  346MPD2    H1 5190   0.637   1.288  14.164  1.1963 -2.0417  0.5425
  346MPD2    H2 5191   0.664   1.171  13.756 -1.9909 -0.2357  0.0559
  346MPD2    H3 5192   0.545   1.170  13.964  0.3815 -0.9909 -3.3108
  346MPD2     N 5193   0.885   1.396  14.178  0.4866 -0.0643 -0.2634
  346MPD2    H5 5194   0.985   1.409  14.167  0.4160 -0.0973 -0.9836
  346MPD2    N1 5195   0.913   1.273  13.704 -0.3215  0.2451  0.6000
  346MPD2    H7 5196   1.004   1.317  13.705  0.2269 -0.8758  0.0194
  347TMC3    C1 5197   0.919   1.494  14.383  0.1701  0.3222 -0.0837
  347TMC3    C2 5198   1.053   1.485  14.355 -0.5218  0.0958 -0.0573
  347TMC3    C3 5199   1.139   1.563  14.436 -0.5525 -0.0762  0.0146
  347TMC3    C4 5200   0.863   1.591  14.464  0.0919  0.1120  0.1016
  347TMC3    C5 5201   0.948   1.671  14.529 -0.4516  0.1084  0.1905
  347TMC3    C6 5202   1.090   1.660  14.519 -0.3364 -0.2601  0.2335
  347TMC3     C 5203   0.826   1.427  14.295 -0.5646 -0.4744 -0.4307
  347TMC3     O 5204   0.713   1.404  14.333 -0.4316  0.4360  0.3694
  347TMC3     H 5205   1.098   1.391  14.327 -1.7908 -0.4798 -0.1687
  347TMC3    H1 5206   0.755   1.602  14.468  0.0366 -0.2223 -0.3667
  347TMC3    H2 5207   1.158   1.709  14.587  1.0585 -2.0717  0.1496
  347TMC3    C7 5208   0.890   1.789  14.581 -0.0579 -0.4572  0.5792
  347TMC3    C8 5209   1.263   1.494  14.467 -0.0992 -0.4997 -0.3177
  347TMC3    O1 5210   0.964   1.876  14.617 -0.1819 -0.0633 -0.1199
  347TMC3    O2 5211   1.300   1.500  14.585 -0.2624 -0.1732  0.3110
  348MPD2     C 5212   4.022   0.502  12.224  0.1087 -0.2032  0.2672
  348MPD2    C1 5213   4.121   0.477  12.134 -0.4037 -0.0020  0.4309
  348MPD2    C2 5214   4.107   0.536  12.012 -0.2656  0.0232 -0.9160
  348MPD2    C3 5215   3.997   0.610  11.982  0.3726  0.7477  0.7212
  348MPD2    C4 5216   3.888   0.610  12.065 -0.2624 -0.1759 -0.5612
  348MPD2    C5 5217   3.908   0.567  12.190  0.0237 -0.5912 -0.0730
  348MPD2     H 5218   4.176   0.522  11.929  0.2667 -0.4103 -0.3958
  348MPD2    H1 5219   3.789   0.647  12.042 -0.0369  0.7475 -0.0546
  348MPD2    H2 5220   4.020   0.455  12.322 -0.3791  1.4868  1.0707
  348MPD2    H3 5221   3.819   0.559  12.251  1.5069 -0.5717  2.1172
  348MPD2     N 5222   3.988   0.659  11.850 -0.3756  0.1386 -0.1511
  348MPD2    H5 5223   4.077   0.681  11.807 -1.7002  5.5197 -0.2132
  348MPD2    N1 5224   4.233   0.390  12.164  0.4643  0.4534 -0.1686
  348MPD2    H7 5225   4.312   0.387  12.100  0.6709  1.2778  0.0475
  349TMC3    C1 5226   4.404   0.287  12.290  0.3471 -0.6165 -0.3771
  349TMC3    C2 5227   4.411   0.159  12.334  0.6385  0.1066 -0.0906
  349TMC3    C3 5228   4.489   0.077  12.262 -0.7094  0.5105 -0.2643
  349TMC3    C4 5229   4.476   0.335  12.182  0.3847 -0.1746 -0.2336
  349TMC3    C5 5230   4.545   0.242  12.106  0.0759  0.1724 -0.0097
  349TMC3    C6 5231   4.556   0.112  12.151 -0.3284  0.2241  0.4733
  349TMC3     C 5232   4.266   0.339  12.288  0.2246  0.1408 -0.5219
  349TMC3     O 5233   4.190   0.326  12.381 -0.9564 -0.3669 -0.4434
  349TMC3     H 5234   4.351   0.124  12.417 -1.4061  1.0891 -1.1457
  349TMC3    H1 5235   4.463   0.439  12.153  0.6236  0.1720  0.8643
  349TMC3    H2 5236   4.600   0.048  12.077 -0.3438  1.2869 -0.4558
  349TMC3    C7 5237   4.536   0.275  11.964  0.1171 -0.1479 -0.0565
  349TMC3    C8 5238   4.527   4.689  12.339 -0.1780 -0.1342 -0.0039
  349TMC3    O1 5239   4.456   0.364  11.942 -0.2112 -0.6873 -0.1074
  349TMC3    O2 5240   4.457   4.656  12.431 -0.1607 -0.2014  0.0207
  350MPD2     C 5241   3.710   3.375  10.271  0.1180 -0.4632 -0.0268
  350MPD2    C1 5242   3.651   3.272  10.337 -0.4336 -0.4447 -0.2939
  350MPD2    C2 5243   3.609   3.295  10.470  0.6980  0.3603 -0.0236
  350MPD2    C3 5244   3.618   3.425  10.526  0.6316  0.1685  0.1597
  350MPD2    C4 5245   3.683   3.521  10.451 -0.8369  0.0128 -0.1722
  350MPD2    C5 5246   3.736   3.503  10.325 -0.1762  0.2253 -0.3113
  350MPD2     H 5247   3.558   3.223  10.532  0.4351  2.3816  2.1027
  350MPD2    H1 5248   3.707   3.617  10.493 -1.0461 -1.6724  3.7514
  350MPD2    H2 5249   3.746   3.369  10.169 -2.5382  0.2067 -1.0222
  350MPD2    H3 5250   3.787   3.586  10.279  2.4717 -0.0415  2.1871
  350MPD2     N 5251   3.558   3.454  10.651  0.1309 -0.6817  0.0154
  350MPD2    H5 5252   3.516   3.381  10.708 -0.5589 -0.6656 -0.4869
  350MPD2    N1 5253   3.618   3.149  10.274  0.1003  0.3340  0.6902
  350MPD2    H7 5254   3.583   3.085  10.344 -0.2604  0.1122  0.3062
  351TMC3    C1 5255   3.604   2.963  10.141  0.2635 -0.1883 -0.2673
  351TMC3    C2 5256   3.645   2.897  10.033  0.3070  0.6314 -0.5002
  351TMC3    C3 5257   3.565   2.785   9.998  0.1181  0.3408  0.0818
  351TMC3    C4 5258   3.498   2.927  10.217  0.1055 -0.1051  0.2484
  351TMC3    C5 5259   3.437   2.806  10.191 -0.6713 -1.4535  0.6260
  351TMC3    C6 5260   3.470   2.734  10.083  0.1700  0.4668  0.3775
  351TMC3     C 5261   3.658   3.101  10.153 -0.4568  0.3316  0.9071
  351TMC3     O 5262   3.716   3.152  10.056  0.4519 -1.0813  0.3321
  351TMC3     H 5263   3.717   2.931   9.959  0.5062  1.9699  0.3162
  351TMC3    H1 5264   3.457   2.981  10.301 -0.2882  0.0624 -0.0513
  351TMC3    H2 5265   3.436   2.632  10.075 -1.3778  1.1107 -1.3091
  351TMC3    C7 5266   3.336   2.763  10.293  0.0697 -0.5735 -0.4498
  351TMC3    C8 5267   3.615   2.695   9.896 -0.2345  0.4768  0.3661
  351TMC3    O1 5268   3.317   2.839  10.383 -0.6174 -0.3428  0.4329
  351TMC3    O2 5269   3.734   2.706   9.874 -0.6909 -0.0020  0.3184
  352MPD2     C 5270   1.811   1.359   1.170 -0.2050 -0.0163  0.6132
  352MPD2    C1 5271   1.673   1.339   1.160 -0.1166  0.4118  0.3482
  352MPD2    C2 5272   1.616   1.225   1.208 -0.4947  0.2652 -0.2713
  352MPD2    C3 5273   1.688   1.134   1.273 -0.1036 -0.1188  0.2990
  352MPD2    C4 5274   1.826   1.148   1.278 -0.2151 -0.1049 -0.3997
  352MPD2    C5 5275   1.887   1.260   1.229  0.0810  0.0820  0.2440
  352MPD2     H 5276   1.516   1.199   1.175  0.5061  0.0349 -3.1518
  352MPD2    H1 5277   1.887   1.075   1.330  3.0664  2.3385 -0.8327
  352MPD2    H2 5278   1.861   1.450   1.138 -3.3708  1.3735 -0.3708
  352MPD2    H3 5279   1.993   1.275   1.243 -0.0367  0.0497  1.1683
  352MPD2     N 5280   1.646   1.013   1.336  0.2094 -0.1532 -0.4142
  352MPD2    H5 5281   1.711   0.946   1.376  0.2874  1.1633  1.6864
  352MPD2    N1 5282   1.601   1.436   1.081  0.1609  0.3197  0.2892
  352MPD2    H7 5283   1.653   1.510   1.036 -0.5858  0.2075 -0.7679
  353TMC3    C1 5284   1.489   0.863   1.408 -0.2673 -0.0023  0.0745
  353TMC3    C2 5285   1.581   0.780   1.457 -0.1967 -0.2514  0.4510
  353TMC3    C3 5286   1.549   0.664   1.518  0.0902 -0.4545 -0.9806
  353TMC3    C4 5287   1.357   0.832   1.418  0.0217 -0.8326  0.2839
  353TMC3    C5 5288   1.329   0.712   1.489 -0.1019  0.0536  0.1532
  353TMC3    C6 5289   1.420   0.622   1.525 -0.5314 -0.0718  0.2276
  353TMC3     C 5290   1.510   0.989   1.352 -0.2700 -0.2030 -0.0080
  353TMC3     O 5291   1.414   1.055   1.314 -0.4284  0.5776 -0.3640
  353TMC3     H 5292   1.686   0.791   1.433 -0.6331  0.0574 -1.2864
  353TMC3    H1 5293   1.282   0.889   1.365  1.0824  2.1156  1.9054
  353TMC3    H2 5294   1.388   0.527   1.568  0.8777  0.6865  2.9729
  353TMC3    C7 5295   1.194   0.666   1.473 -0.0385  0.8083 -0.1354
  353TMC3    C8 5296   1.645   0.558   1.505 -0.7076  0.0408  0.0419
  353TMC3    O1 5297   1.139   0.704   1.369  0.2572 -0.5582 -0.6840
  353TMC3    O2 5298   1.766   0.568   1.533  0.2103 -0.1934 -0.2456
  354TMC3    C1 5299   3.553   2.268  13.484  0.0157 -0.0806 -0.6525
  354TMC3    C2 5300   3.588   2.377  13.406  0.6351  0.2833  0.2783
  354TMC3    C3 5301   3.624   2.360  13.279  0.6042 -0.7171  0.2675
  354TMC3    C4 5302   3.523   2.145  13.428  0.7741  0.3569 -0.2230
  354TMC3    C5 5303   3.581   2.131  13.302 -0.7692 -0.3623 -0.2664
  354TMC3    C6 5304   3.625   2.234  13.222  0.3663  0.3566 -0.4071
  354TMC3     C 5305   3.523   2.308  13.617 -0.4120  0.4354 -0.3243
  354TMC3     O 5306   3.525   2.428  13.641  0.1614 -0.0248 -0.3375
  354TMC3     H 5307   3.631   2.466  13.450  1.8866 -0.1065 -0.1736
  354TMC3    H1 5308   3.493   2.054  13.479  1.7873 -0.1368 -0.5011
  354TMC3    H2 5309   3.642   2.223  13.115  1.7451 -0.9843 -0.0533
  354TMC3    C7 5310   3.581   1.993  13.250  0.4345 -0.5668 -0.0652
  354TMC3    C8 5311   3.597   2.465  13.183  0.5376 -0.0799  0.3108
  354TMC3    O1 5312   3.497   1.913  13.283 -0.6598 -0.0455  0.6379
  354TMC3    O2 5313   3.626   2.444  13.068 -0.7622 -0.5086 -0.5979
  355MPD2     C 5314   3.171   2.781  11.719  0.4772  0.0127 -0.1726
  355MPD2    C1 5315   3.269   2.755  11.634 -0.1025 -0.1697 -0.0105
  355MPD2    C2 5316   3.398   2.743  11.678 -0.6616  0.0143  0.4935
  355MPD2    C3 5317   3.429   2.762  11.811  0.2240 -0.4588 -0.2586
  355MPD2    C4 5318   3.330   2.803  11.896 -0.6131  0.8249  0.3168
  355MPD2    C5 5319   3.199   2.812  11.852 -0.3671  0.4892  0.0629
  355MPD2     H 5320   3.478   2.722  11.608  0.1942 -1.2422  1.8580
  355MPD2    H1 5321   3.352   2.829  11.999 -0.0614  1.5116  0.0204
  355MPD2    H2 5322   3.071   2.811  11.688  1.0707  1.9726 -0.1675
  355MPD2    H3 5323   3.117   2.849  11.914 -0.4866  0.8284 -0.2943
  355MPD2     N 5324   3.560   2.775  11.859  0.1020  0.1663 -0.1143
  355MPD2    H5 5325   3.572   2.804  11.955  1.0040 -0.1533 -0.1232
  355MPD2    N1 5326   3.235   2.741  11.498  0.5914 -0.5662  0.1001
  355MPD2    H7 5327   3.138   2.728  11.471  0.3296 -0.3109  0.9335
  356TMC3    C1 5328   3.791   2.796  11.842 -0.2082 -0.3732 -0.4671
  356TMC3    C2 5329   3.861   2.854  11.740  0.7540 -0.5428 -0.4112
  356TMC3    C3 5330   3.917   2.983  11.758  0.0996 -0.1831  0.0938
  356TMC3    C4 5331   3.795   2.865  11.964  0.0479 -0.6065  0.5683
  356TMC3    C5 5332   3.854   2.987  11.980  0.1292  0.0826  0.7618
  356TMC3    C6 5333   3.910   3.048  11.875  0.4652 -0.7413  0.0132
  356TMC3     C 5334   3.672   2.743  11.787  0.3814  0.1473 -0.6576
  356TMC3     O 5335   3.691   2.673  11.686  0.4725 -0.1551 -1.0276
  356TMC3     H 5336   3.857   2.815  11.639  2.3558 -0.7911 -0.3836
  356TMC3    H1 5337   3.730   2.827  12.043  0.3225 -1.0359  0.5885
  356TMC3    H2 5338   3.929   3.155  11.876  0.3502 -0.7155 -0.6390
  356TMC3    C7 5339   3.836   3.059  12.100  0.5996  0.0126 -0.2380
  356TMC3    C8 5340   3.983   3.042  11.644 -0.1888 -0.6521 -0.6484
  356TMC3    O1 5341   3.740   3.037  12.180 -0.2494 -0.5790  0.0172
  356TMC3    O2 5342   3.959   2.980  11.540 -1.1185  0.0152 -0.1641
  357MPD2     C 5343   3.044   2.709   1.097  0.1445 -0.1333 -0.0670
  357MPD2    C1 5344   3.067   2.607   1.191 -0.4214  0.5121 -0.0708
  357MPD2    C2 5345   2.997   2.618   1.307  0.4576  0.2856  0.7908
  357MPD2    C3 5346   2.915   2.726   1.344  1.0868  0.0307  0.7450
  357MPD2    C4 5347   2.897   2.823   1.251  0.0110 -0.1865 -0.2440
  357MPD2    C5 5348   2.966   2.815   1.132  1.0388  0.2746  0.2597
  357MPD2     H 5349   2.999   2.532   1.372 -2.0832 -1.4619 -1.4451
  357MPD2    H1 5350   2.841   2.911   1.278 -0.2188 -0.5117  0.3482
  357MPD2    H2 5351   3.077   2.704   0.994  0.5475  1.0101  0.0141
  357MPD2    H3 5352   2.952   2.899   1.064  0.0513 -0.4714 -0.4675
  357MPD2     N 5353   2.832   2.719   1.459 -0.2877 -0.1470 -0.3262
  357MPD2    H5 5354   2.757   2.787   1.470 -0.9182 -0.9758  0.5570
  357MPD2    N1 5355   3.138   2.485   1.159 -0.7206 -0.6061  0.2185
  357MPD2    H7 5356   3.147   2.456   1.062  0.3837 -0.5691  0.3118
  358TMC3    C1 5357   3.235   2.272   1.204 -0.7230 -0.4107  0.9696
  358TMC3    C2 5358   3.237   2.248   1.069  0.1632 -0.2596  0.0164
  358TMC3    C3 5359   3.300   2.131   1.038  0.2146  0.5134  0.0228
  358TMC3    C4 5360   3.304   2.199   1.304 -0.0246 -0.5071 -0.1133
  358TMC3    C5 5361   3.376   2.096   1.262  1.0985 -0.0922 -0.0654
  358TMC3    C6 5362   3.364   2.055   1.132  0.4136  0.6376 -0.5506
  358TMC3     C 5363   3.195   2.402   1.256  0.3603  0.1208  0.4594
  358TMC3     O 5364   3.200   2.423   1.377  0.2682 -0.4441 -0.3754
  358TMC3     H 5365   3.190   2.312   0.995  0.0282  0.0048  0.3279
  358TMC3    H1 5366   3.303   2.233   1.407  0.4855  0.5736 -0.4627
  358TMC3    H2 5367   3.440   1.984   1.103 -0.0011 -0.5506  1.2286
  358TMC3    C7 5368   3.452   2.022   1.362 -0.6413 -0.2709  0.4620
  358TMC3    C8 5369   3.264   2.080   0.912 -0.3033  0.0545  0.1688
  358TMC3    O1 5370   3.468   2.081   1.467 -0.1289  0.0252 -0.5505
  358TMC3    O2 5371   3.189   2.146   0.843  0.4869 -0.4448  0.3518
  359MPD2     C 5372   4.213   1.420  12.656 -0.7595 -0.1448  0.2886
  359MPD2    C1 5373   4.092   1.366  12.658 -0.0334 -0.5449  0.7054
  359MPD2    C2 5374   4.028   1.354  12.790 -1.0592  0.8628  0.0342
  359MPD2    C3 5375   4.092   1.396  12.902 -0.4694  0.3705 -1.6714
  359MPD2    C4 5376   4.216   1.447  12.888 -0.2825 -0.2273  0.0042
  359MPD2    C5 5377   4.271   1.468  12.768 -0.2023  0.1743 -0.3238
  359MPD2     H 5378   3.929   1.310  12.794 -0.6987  0.0124 -0.6283
  359MPD2    H1 5379   4.260   1.493  12.976  0.2332  0.2253 -0.4921
  359MPD2    H2 5380   4.267   1.454  12.568  0.0034  0.6677  1.0721
  359MPD2    H3 5381   4.369   1.515  12.762 -0.8893  1.5819 -0.6313
  359MPD2     N 5382   4.036   1.389  13.034 -0.6149  0.0431 -0.3910
  359MPD2    H5 5383   4.100   1.415  13.109 -1.0258  0.4157 -0.1712
  359MPD2    N1 5384   4.012   1.325  12.546 -0.1969 -0.1701 -0.6593
  359MPD2    H7 5385   3.915   1.301  12.560  0.3429 -0.5523  2.2427
  360TMC3    C1 5386   3.960   1.243  12.336  0.6440  0.1694 -0.1879
  360TMC3    C2 5387   3.927   1.121  12.393  0.4761  0.1011 -0.2711
  360TMC3    C3 5388   3.907   1.014  12.308 -0.1473 -0.1381  0.3299
  360TMC3    C4 5389   3.968   1.265  12.201 -0.1137  0.6864  0.2981
  360TMC3    C5 5390   3.923   1.162  12.123 -0.8035 -0.5917  0.1610
  360TMC3    C6 5391   3.886   1.039  12.174 -0.7672 -0.2187  0.2431
  360TMC3     C 5392   4.053   1.327  12.415 -0.0904 -0.1190  0.3433
  360TMC3     O 5393   4.152   1.372  12.361 -0.1409  0.0970  0.3088
  360TMC3     H 5394   3.974   1.096  12.488  0.9312 -0.7322 -0.7163
  360TMC3    H1 5395   4.019   1.351  12.160 -2.5592  1.8445 -0.3387
  360TMC3    H2 5396   3.854   0.953  12.117  1.3551 -1.4569  0.9405
  360TMC3    C7 5397   3.929   1.185  11.976  0.0012 -0.8585 -0.0527
  360TMC3    C8 5398   3.996   0.907  12.350  0.1803  0.0923 -0.4357
  360TMC3    O1 5399   3.998   1.273  11.929 -0.2295  0.6773  1.1350
  360TMC3    O2 5400   4.001   0.876  12.470  0.0332  0.5346 -0.1601
  361MPD2     C 5401   1.132   0.571  16.585 -0.2462  0.0438  0.3032
  361MPD2    C1 5402   1.124   0.625  16.709 -0.3193  0.0775  0.5671
  361MPD2    C2 5403   1.142   0.545  16.821 -0.0721 -1.4277  0.3300
  361MPD2    C3 5404   1.192   0.413  16.812 -0.7996  1.0671  0.1660
  361MPD2    C4 5405   1.209   0.362  16.691 -0.3769  0.1024  0.4492
  361MPD2    C5 5406   1.177   0.441  16.580 -0.6419  0.0397  0.6413
  361MPD2     H 5407   1.134   0.597  16.916 -0.2673  1.4079 -1.2191
  361MPD2    H1 5408   1.238   0.261  16.663  1.4995  0.5992  0.5893
  361MPD2    H2 5409   1.109   0.615  16.489 -0.7433  0.9897  0.8613
  361MPD2    H3 5410   1.184   0.396  16.482 -1.6741  1.3884 -0.0593
  361MPD2     N 5411   1.201   0.324  16.923 -0.1781  0.4937 -0.1976
  361MPD2    H5 5412   1.220   0.228  16.897  1.9791  0.4741  1.4385
  361MPD2    N1 5413   1.082   0.756  16.728  0.7689 -0.7524 -0.3957
  361MPD2    H7 5414   1.077   0.778  16.827  1.3950  1.8264 -0.9412
  362TMC3    C1 5415   0.963   0.955  16.690 -0.4793  0.4807  0.0645
  362TMC3    C2 5416   0.960   0.950  16.833 -0.1499  0.3394  0.7350
  362TMC3    C3 5417   0.846   1.007  16.879  0.6691 -0.6453  0.5523
  362TMC3    C4 5418   0.873   1.005  16.607  0.1279  0.4055 -0.9075
  362TMC3    C5 5419   0.762   1.058  16.660 -0.1764  0.4227 -0.7122
  362TMC3    C6 5420   0.743   1.056  16.794  0.8219  0.5228 -0.0961
  362TMC3     C 5421   1.031   0.836  16.638  0.2354  0.9250 -0.7736
  362TMC3     O 5422   1.015   0.824  16.520 -0.0086 -0.5911 -0.2364
  362TMC3     H 5423   1.040   0.937  16.904 -2.3658 -1.5335  2.8941
  362TMC3    H1 5424   0.893   1.005  16.500  0.6113  3.1197 -0.8275
  362TMC3    H2 5425   0.659   1.106  16.841  0.3307 -0.8624  0.5294
  362TMC3    C7 5426   0.647   1.074  16.571 -0.2255  0.1257  0.8602
  362TMC3    C8 5427   0.827   1.029  17.025  0.2578 -0.0672 -0.5051
  362TMC3    O1 5428   0.556   1.153  16.595 -0.0143 -0.6987  0.0719
  362TMC3    O2 5429   0.932   1.025  17.084  0.0061  0.0071 -0.1429
  363TMC3    C1 5430   3.856   2.202   8.780 -0.1462  0.1797 -0.1209
  363TMC3    C2 5431   3.937   2.229   8.889  0.2043  0.0949 -0.6517
  363TMC3    C3 5432   3.870   2.275   9.004  0.4364 -0.0592 -0.0074
  363TMC3    C4 5433   3.718   2.209   8.795  0.0577 -0.1839  0.7071
  363TMC3    C5 5434   3.660   2.256   8.903  0.0911 -0.4059  0.1224
  363TMC3    C6 5435   3.736   2.294   9.016  0.5227 -0.9491 -0.2204
  363TMC3     C 5436   3.919   2.163   8.652  0.0396 -0.4531 -0.0991
  363TMC3     O 5437   3.850   2.151   8.552 -0.3253 -0.8247  0.1782
  363TMC3     H 5438   4.041   2.251   8.871  0.2416 -0.2997 -0.9067
  363TMC3    H1 5439   3.652   2.202   8.709 -1.1610  0.3081  1.6038
  363TMC3    H2 5440   3.708   2.310   9.119  0.7328 -0.7941 -0.1874
  363TMC3    C7 5441   3.515   2.279   8.904  0.2704 -0.7237 -0.0830
  363TMC3    C8 5442   3.949   2.348   9.099  0.0716 -0.0586  0.1491
  363TMC3    O1 5443   3.457   2.287   8.796 -0.0882 -0.3563  0.3085
  363TMC3    O2 5444   3.894   2.437   9.162 -0.5364  0.4086  0.2415
  364MPD2     C 5445   2.999   2.070  10.815 -0.2302 -0.5083  0.1213
  364MPD2    C1 5446   3.096   2.053  10.717 -0.0301 -0.1502  0.4001
  364MPD2    C2 5447   3.119   1.922  10.681  0.4843  0.3111 -0.3015
  364MPD2    C3 5448   3.063   1.814  10.748  0.5837 -0.1173  0.3117
  364MPD2    C4 5449   2.988   1.833  10.857 -0.0829 -0.4233 -0.0031
  364MPD2    C5 5450   2.963   1.960  10.889 -0.8816  0.2333  0.3038
  364MPD2     H 5451   3.191   1.902  10.603  0.0863 -0.0277 -0.5855
  364MPD2    H1 5452   2.950   1.752  10.919 -1.8647  1.0758  0.8697
  364MPD2    H2 5453   2.973   2.168  10.852 -0.1635  0.3259 -2.0378
  364MPD2    H3 5454   2.892   1.961  10.971 -0.7518  0.3044  0.4158
  364MPD2     N 5455   3.095   1.683  10.711 -0.9566 -0.5717 -0.3932
  364MPD2    H5 5456   3.077   1.607  10.776  0.7464  0.0461  0.8090
  364MPD2    N1 5457   3.151   2.166  10.659 -0.2583 -0.1408 -0.1940
  364MPD2    H7 5458   3.119   2.257  10.688 -2.2453 -0.8201 -0.2128
  365TMC3    C1 5459   3.288   2.305  10.528  0.1769 -1.0804 -0.0264
  365TMC3    C2 5460   3.377   2.311  10.430 -0.2209 -0.0412 -0.0980
  365TMC3    C3 5461   3.462   2.415  10.429  0.3800 -0.5693 -0.7516
  365TMC3    C4 5462   3.282   2.400  10.622 -0.0436 -0.8441  0.4322
  365TMC3    C5 5463   3.367   2.509  10.614 -0.6114  0.4933  0.1339
  365TMC3    C6 5464   3.464   2.522  10.519 -0.2359  0.0485 -0.1736
  365TMC3     C 5465   3.240   2.170  10.555 -0.2501  0.7345  0.1832
  365TMC3     O 5466   3.276   2.084  10.478 -0.0595  0.4238  0.3504
  365TMC3     H 5467   3.370   2.247  10.343  1.1974  0.0919 -0.3237
  365TMC3    H1 5468   3.218   2.388  10.708  0.7256  0.7402  1.2370
  365TMC3    H2 5469   3.517   2.615  10.503 -1.6896  0.7610 -0.8424
  365TMC3    C7 5470   3.333   2.621  10.701 -0.1414 -0.3701  0.3771
  365TMC3    C8 5471   3.567   2.422  10.327 -0.2393  0.0192 -0.4898
  365TMC3    O1 5472   3.418   2.707  10.701 -0.0105  0.0539  0.4132
  365TMC3    O2 5473   3.605   2.533  10.289  0.1206  0.1242 -0.2484
  366MPD2     C 5474   0.513   3.883  15.907  0.2376 -0.5898 -0.8190
  366MPD2    C1 5475   0.595   3.899  15.801  0.1093 -0.2672 -0.3688
  366MPD2    C2 5476   0.613   3.795  15.712  0.0285 -0.1932  0.3916
  366MPD2    C3 5477   0.537   3.678  15.720  0.6605  0.3624 -0.1357
  366MPD2    C4 5478   0.456   3.663  15.833  0.0447  0.1237  0.2668
  366MPD2    C5 5479   0.442   3.767  15.925 -0.3808 -0.3363  0.6285
  366MPD2     H 5480   0.686   3.803  15.632 -0.5062 -0.4286 -0.1234
  366MPD2    H1 5481   0.391   3.578  15.848  0.1517  0.0836  0.4941
  366MPD2    H2 5482   0.504   3.961  15.981  1.1189 -0.9524 -0.3338
  366MPD2    H3 5483   0.381   3.753  16.014 -0.5494  0.6945  0.6710
  366MPD2     N 5484   0.559   3.570  15.627  0.2777 -0.1727 -0.4444
  366MPD2    H5 5485   0.620   3.598  15.550  0.8008 -1.0194 -0.3340
  366MPD2    N1 5486   0.696   4.001  15.781  0.0666  0.3064  0.1011
  366MPD2    H7 5487   0.760   3.989  15.703  1.7763  0.4345  1.4787
  367TMC3    C1 5488   0.800   4.192  15.808  0.6508  0.6765 -0.2081
  367TMC3    C2 5489   0.919   4.219  15.872 -0.1286 -0.2506  0.2810
  367TMC3    C3 5490   1.012   4.289  15.793 -0.0484  0.4218 -0.1021
  367TMC3    C4 5491   0.779   4.217  15.677  0.1746  0.5031  0.1135
  367TMC3    C5 5492   0.883   4.276  15.602 -0.4820  0.3205 -0.0097
  367TMC3    C6 5493   0.996   4.317  15.659 -0.3311  0.5265  0.1440
  367TMC3     C 5494   0.714   4.100  15.866  0.4811 -0.6716 -0.2635
  367TMC3     O 5495   0.698   4.099  15.987  0.6547  0.0392 -0.3645
  367TMC3     H 5496   0.926   4.189  15.975 -1.4132 -2.0168 -0.1428
  367TMC3    H1 5497   0.682   4.193  15.634 -0.1585 -0.4643  1.3963
  367TMC3    H2 5498   1.068   4.371  15.598  0.2199 -1.2414 -0.7730
  367TMC3    C7 5499   0.859   4.309  15.463 -0.0780  0.2319 -0.2941
  367TMC3    C8 5500   1.141   4.289  15.858  0.1392 -0.0221 -0.0448
  367TMC3    O1 5501   0.913   4.404  15.415 -0.4305  0.4850  0.2436
  367TMC3    O2 5502   1.148   4.215  15.959  0.0853  0.2262 -0.3392
  368MPD2     C 5503   2.609   0.498  13.386 -0.7356 -0.0958  0.2146
  368MPD2    C1 5504   2.649   0.544  13.262 -0.1820  0.1930  0.1988
  368MPD2    C2 5505   2.783   0.545  13.234 -0.6104 -0.8692 -0.1733
  368MPD2    C3 5506   2.874   0.501  13.320  0.4833  0.7286  0.1956
  368MPD2    C4 5507   2.830   0.467  13.450 -0.0391  0.1686 -0.2883
  368MPD2    C5 5508   2.695   0.472  13.483 -0.4313 -0.0962  0.0401
  368MPD2     H 5509   2.818   0.581  13.138 -0.6935  0.4470  0.2894
  368MPD2    H1 5510   2.889   0.427  13.531 -0.4849  0.8978  0.3955
  368MPD2    H2 5511   2.503   0.506  13.406 -0.5843  1.4266  0.4249
  368MPD2    H3 5512   2.655   0.445  13.580  0.5859 -2.3639 -0.1569
  368MPD2     N 5513   3.003   0.478  13.274  0.0654 -0.2593 -0.6394
  368MPD2    H5 5514   2.999   0.479  13.173  0.6448  2.9577 -0.6294
  368MPD2    N1 5515   2.552   0.569  13.171  0.3765 -0.4585  0.0950
  368MPD2    H7 5516   2.456   0.548  13.196  0.2303  0.9787  0.7359
  369TMC3    C1 5517   2.438   0.653  12.992  0.1514 -0.0388  0.1583
  369TMC3    C2 5518   2.423   0.786  12.975 -0.4054 -0.2210  0.1382
  369TMC3    C3 5519   2.297   0.833  12.992  0.0036  1.0238 -0.4721
  369TMC3    C4 5520   2.328   0.568  13.011 -0.4485  0.0116 -0.5646
  369TMC3    C5 5521   2.203   0.629  13.035  0.3353 -0.2265 -1.0170
  369TMC3    C6 5522   2.185   0.763  13.018  0.2442 -0.3506 -0.0874
  369TMC3     C 5523   2.571   0.614  13.042  0.3075  0.0291 -0.1119
  369TMC3     O 5524   2.668   0.664  12.987 -0.0189  0.3392  0.7863
  369TMC3     H 5525   2.505   0.855  12.958 -1.4253  0.7661 -0.8172
  369TMC3    H1 5526   2.357   0.465  13.027 -1.0690 -0.3627 -1.8316
  369TMC3    H2 5527   2.090   0.813  13.031  0.2804  0.6417 -3.8450
  369TMC3    C7 5528   2.094   0.533  13.066 -0.0109 -0.1134 -0.3330
  369TMC3    C8 5529   2.275   0.960  12.922  0.0999  0.3484  0.0651
  369TMC3    O1 5530   2.092   0.424  13.008  0.2023  0.3882 -0.3024
  369TMC3    O2 5531   2.175   0.958  12.845 -0.1256 -0.1644 -0.6743
  370TMC3    C1 5532   1.710   1.242  16.248  0.4009 -0.3185 -0.7051
  370TMC3    C2 5533   1.683   1.151  16.341  0.1509  0.4087 -0.0989
  370TMC3    C3 5534   1.703   1.020  16.311  0.7217  0.2233  0.8556
  370TMC3    C4 5535   1.728   1.201  16.118 -0.0068  0.0453 -0.1236
  370TMC3    C5 5536   1.738   1.068  16.089  0.0564 -0.4311  0.0764
  370TMC3    C6 5537   1.743   0.976  16.188  0.0320  0.4216 -0.0362
  370TMC3     C 5538   1.734   1.372  16.302  0.0501 -0.3069  0.5655
  370TMC3     O 5539   1.681   1.399  16.409  0.0228  0.1344  0.3667
  370TMC3     H 5540   1.630   1.180  16.431  0.2695 -0.4917  0.2520
  370TMC3    H1 5541   1.754   1.279  16.048  1.0245 -1.5346 -1.5098
  370TMC3    H2 5542   1.759   0.869  16.180 -1.6711  0.0792  1.0705
  370TMC3    C7 5543   1.744   1.017  15.952  0.3427  0.3954 -0.1647
  370TMC3    C8 5544   1.714   0.927  16.425  0.3256  0.3250 -0.3612
  370TMC3    O1 5545   1.698   1.090  15.863 -0.0959  0.5436 -0.3327
  370TMC3    O2 5546   1.722   0.806  16.409 -0.5579 -0.1671 -0.0310
  371TMC3    C1 5547   3.045   4.318  15.529 -0.0453 -0.2012 -0.4847
  371TMC3    C2 5548   2.909   4.305  15.519 -0.1861 -0.7467  0.4282
  371TMC3    C3 5549   2.855   4.347  15.398 -0.1669  0.6035  0.3401
  371TMC3    C4 5550   3.125   4.378  15.440 -0.2698  0.8718 -0.5700
  371TMC3    C5 5551   3.068   4.410  15.321 -0.2534  0.3205  0.1317
  371TMC3    C6 5552   2.930   4.399  15.293 -0.0578 -0.4936 -0.2658
  371TMC3     C 5553   3.112   4.261  15.650  0.0636 -0.3968  0.0800
  371TMC3     O 5554   3.225   4.307  15.686 -0.7461 -0.1530 -0.4063
  371TMC3     H 5555   2.838   4.277  15.596 -0.7006  2.4729  1.1101
  371TMC3    H1 5556   3.231   4.358  15.449 -1.2866 -4.0581  0.5054
  371TMC3    H2 5557   2.883   4.444  15.206  2.6477 -2.3096 -2.6820
  371TMC3    C7 5558   3.153   4.486  15.228  0.2502  0.1139 -0.4751
  371TMC3    C8 5559   2.714   4.359  15.386 -0.1567 -0.8133  0.1015
  371TMC3    O1 5560   3.254   4.539  15.277 -0.2446  0.4071  0.0841
  371TMC3    O2 5561   2.662   4.351  15.274 -0.2065  0.4006  0.6761
  372MPD2     C 5562   2.341   0.880  13.351 -0.1494 -0.4023  0.1426
  372MPD2    C1 5563   2.458   0.849  13.413  0.7477 -0.3451 -0.0003
  372MPD2    C2 5564   2.447   0.764  13.521 -0.1008 -0.5766  0.3719
  372MPD2    C3 5565   2.335   0.685  13.539  0.3849  0.3896 -0.3820
  372MPD2    C4 5566   2.223   0.705  13.465  0.1777 -0.6404 -0.4663
  372MPD2    C5 5567   2.222   0.808  13.376 -0.4198  0.2691 -0.3057
  372MPD2     H 5568   2.529   0.748  13.589  0.1430 -1.3682 -0.1104
  372MPD2    H1 5569   2.125   0.663  13.485 -0.2227  0.3241 -0.3851
  372MPD2    H2 5570   2.346   0.955  13.272 -2.4561  0.7887  1.1235
  372MPD2    H3 5571   2.129   0.813  13.321 -0.7502 -2.1407  0.0483
  372MPD2     N 5572   2.345   0.589  13.642 -0.0638 -0.3994  0.0846
  372MPD2    H5 5573   2.431   0.588  13.696  0.6891  2.2318 -1.0359
  372MPD2    N1 5574   2.584   0.904  13.376  0.2286  0.6622  0.2040
  372MPD2    H7 5575   2.665   0.886  13.434  0.6539  0.0048 -0.5941
  373TMC3    C1 5576   2.287   0.434  13.796 -0.4268  0.1850 -0.4611
  373TMC3    C2 5577   2.309   0.511  13.906 -0.3649  0.7428 -0.5259
  373TMC3    C3 5578   2.413   0.472  13.989 -0.3981  0.0107 -0.3310
  373TMC3    C4 5579   2.358   0.325  13.763  0.2349  0.9007 -0.2441
  373TMC3    C5 5580   2.470   0.301  13.842 -0.0487 -0.2359 -1.2251
  373TMC3    C6 5581   2.486   0.358  13.965  0.0394 -0.1418 -0.4481
  373TMC3     C 5582   2.245   0.504  13.680 -0.0988 -0.4580 -0.6667
  373TMC3     O 5583   2.153   0.466  13.611 -0.8627 -0.4366 -0.3007
  373TMC3     H 5584   2.259   0.607  13.907 -2.8368 -0.5370  0.2851
  373TMC3    H1 5585   2.332   0.267  13.676 -0.7638  1.3826 -0.2682
  373TMC3    H2 5586   2.561   0.339  14.041 -1.1995 -0.2086  0.7573
  373TMC3    C7 5587   2.574   0.218  13.787  0.4743 -0.0332  0.4882
  373TMC3    C8 5588   2.425   0.546  14.116 -0.4765  0.3452  0.6236
  373TMC3    O1 5589   2.549   0.167  13.678  0.3482 -0.0696  0.0118
  373TMC3    O2 5590   2.519   0.505  14.185  0.3846  0.3400  0.5448
  374TMC3    C1 5591   3.050   0.554   9.622 -0.2958 -0.1532 -0.0784
  374TMC3    C2 5592   3.146   0.633   9.662  0.5771  0.2282 -0.5186
  374TMC3    C3 5593   3.164   0.757   9.602 -0.7297 -0.3879  0.2715
  374TMC3    C4 5594   2.959   0.588   9.521  0.2091 -0.5769  0.6548
  374TMC3    C5 5595   2.993   0.701   9.449  0.0806 -0.1270 -0.3509
  374TMC3    C6 5596   3.089   0.787   9.493  0.2686  0.3947 -0.5575
  374TMC3     C 5597   3.014   0.442   9.713  0.1436  0.5617  0.2243
  374TMC3     O 5598   3.097   0.413   9.800 -0.0217 -0.4232 -0.1061
  374TMC3     H 5599   3.222   0.599   9.732 -0.4095 -1.0211 -0.0315
  374TMC3    H1 5600   2.896   0.509   9.482  1.1309 -0.4823 -1.0580
  374TMC3    H2 5601   3.105   0.884   9.447 -0.8780  0.3848 -0.9749
  374TMC3    C7 5602   2.938   0.717   9.318 -0.5064 -0.2979  0.0191
  374TMC3    C8 5603   3.243   0.863   9.661  0.0386 -0.2591  0.0577
  374TMC3    O1 5604   2.853   0.636   9.284 -0.0266  0.0898 -0.3288
  374TMC3    O2 5605   3.272   0.948   9.579 -0.1659 -0.2856 -0.4936
  375MPD2     C 5606   3.162   1.682  17.567  0.1647 -0.1987 -0.6362
  375MPD2    C1 5607   3.099   1.706  17.442 -0.1827  0.5172 -0.0098
  375MPD2    C2 5608   3.183   1.712  17.329 -0.0029  0.4184 -0.4138
  375MPD2    C3 5609   3.319   1.695  17.339 -0.0799  0.5213 -0.1190
  375MPD2    C4 5610   3.376   1.675  17.460  0.3556  0.2083  0.3429
  375MPD2    C5 5611   3.297   1.680  17.575 -0.2773 -0.5723 -0.2914
  375MPD2     H 5612   3.129   1.730  17.237 -3.8041 -1.4881  1.4241
  375MPD2    H1 5613   3.484   1.664  17.467  0.3185  0.1706  0.9218
  375MPD2    H2 5614   3.103   1.664  17.656 -1.5755  1.7754 -1.3926
  375MPD2    H3 5615   3.334   1.648  17.671  2.9655  1.2325 -0.9688
  375MPD2     N 5616   3.394   1.695  17.219 -0.2177  0.1604 -0.2464
  375MPD2    H5 5617   3.488   1.657  17.224  0.0077  0.8839  1.1231
  375MPD2    N1 5618   2.961   1.728  17.418  0.1210  0.3959 -0.1934
  375MPD2    H7 5619   2.940   1.720  17.319 -1.3411 -0.2004  0.1755
  376TMC3    C1 5620   3.445   1.713  16.991 -0.6178 -0.4805  0.0717
  376TMC3    C2 5621   3.548   1.623  17.002 -0.1072 -0.4923  0.0468
  376TMC3    C3 5622   3.609   1.575  16.888  0.8805  0.1021 -0.4303
  376TMC3    C4 5623   3.421   1.770  16.871  0.0055 -0.0463  0.5077
  376TMC3    C5 5624   3.472   1.719  16.766  0.5793  0.0393 -0.3113
  376TMC3    C6 5625   3.567   1.616  16.765 -0.7014 -0.0327 -0.1782
  376TMC3     C 5626   3.355   1.744  17.097  0.6094 -0.6208  0.6553
  376TMC3     O 5627   3.251   1.804  17.069  0.3987 -0.1657  0.1762
  376TMC3     H 5628   3.583   1.581  17.096  1.3822 -2.5548 -1.4278
  376TMC3    H1 5629   3.334   1.833  16.861 -0.5244 -0.4374  2.6380
  376TMC3    H2 5630   3.624   1.601  16.674 -1.1509  1.3873 -0.6973
  376TMC3    C7 5631   3.443   1.772  16.635  0.8299 -0.0022 -0.1910
  376TMC3    C8 5632   3.718   1.483  16.888  0.1445 -0.4336 -0.2959
  376TMC3    O1 5633   3.398   1.888  16.633 -0.0898 -0.7354  0.4537
  376TMC3    O2 5634   3.795   1.477  16.988 -0.4889 -0.8432  0.3165
  377MPD2     C 5635   1.162   1.052  12.933  0.0129 -0.0415 -0.0197
  377MPD2    C1 5636   1.282   0.987  12.935 -0.2813 -0.0296  0.0005
  377MPD2    C2 5637   1.334   0.947  13.059  0.0128 -0.3965  0.5026
  377MPD2    C3 5638   1.245   0.949  13.171 -0.9251 -0.4234 -0.4116
  377MPD2    C4 5639   1.114   1.006  13.164  0.0682 -0.6651 -0.1633
  377MPD2    C5 5640   1.079   1.055  13.042  0.2212  0.5836  0.3337
  377MPD2     H 5641   1.438   0.918  13.064  0.1860  0.0571 -0.5671
  377MPD2    H1 5642   1.055   1.016  13.255  0.4453  1.8664 -0.2052
  377MPD2    H2 5643   1.120   1.088  12.840 -1.3408 -0.4144  0.4487
  377MPD2    H3 5644   0.986   1.110  13.041  0.3281  0.7598 -0.1248
  377MPD2     N 5645   1.287   0.913  13.304 -0.1265  0.6763 -0.0404
  377MPD2    H5 5646   1.225   0.931  13.383 -0.5486 -0.7948 -0.0317
  377MPD2    N1 5647   1.356   0.975  12.818 -0.2845  0.1854  0.2859
  377MPD2    H7 5648   1.329   1.033  12.738  0.0378  1.3655  1.0324
  378TMC3    C1 5649   1.516   1.008  12.450  0.2306 -0.2486  0.1147
  378TMC3    C2 5650   1.445   0.972  12.563 -0.3104 -0.0286 -0.0255
  378TMC3    C3 5651   1.521   0.920  12.663  0.2862  0.7335 -0.3809
  378TMC3    C4 5652   1.650   0.989  12.427 -0.4392 -0.0748 -0.3804
  378TMC3    C5 5653   1.719   0.933  12.528  0.5064  0.5423  0.4371
  378TMC3    C6 5654   1.659   0.896  12.647  0.0483  0.3757 -0.5922
  378TMC3     C 5655   1.428   1.073  12.346  0.3674 -1.0488 -0.6046
  378TMC3     O 5656   1.326   1.130  12.381 -0.2742 -0.0017  0.3372
  378TMC3     H 5657   1.337   0.977  12.568 -0.3891 -0.6931 -0.8492
  378TMC3    H1 5658   1.695   1.025  12.335  0.8031 -0.4760  0.0663
  378TMC3    H2 5659   1.721   0.847  12.721 -0.1385  0.5054 -0.3483
  378TMC3    C7 5660   1.862   0.942  12.525 -0.2852 -0.4584  0.7434
  378TMC3    C8 5661   1.470   0.903  12.799 -0.6606  0.3948 -0.3784
  378TMC3    O1 5662   1.912   0.950  12.638 -0.3505  0.4611  0.0010
  378TMC3    O2 5663   1.531   0.833  12.877 -0.3938  0.2471 -0.3681
  379MPD2     C 5664   2.383   4.031  16.241 -0.0403  0.0198 -1.0321
  379MPD2    C1 5665   2.288   3.935  16.278 -1.2672 -0.1301 -0.5876
  379MPD2    C2 5666   2.314   3.836  16.376  0.1822  0.2137  0.0485
  379MPD2    C3 5667   2.439   3.840  16.431  0.1731 -0.5670  0.0096
  379MPD2    C4 5668   2.529   3.930  16.390 -0.3067 -0.0057  0.3708
  379MPD2    C5 5669   2.507   4.028  16.302 -0.3989  0.4693  0.0135
  379MPD2     H 5670   2.237   3.768  16.411  1.3689 -1.8634 -1.3856
  379MPD2    H1 5671   2.623   3.943  16.443 -0.3847  0.0516  0.4954
  379MPD2    H2 5672   2.348   4.118  16.187  0.6021  0.3368 -0.9410
  379MPD2    H3 5673   2.570   4.116  16.296 -0.7208  0.6724 -0.4583
  379MPD2     N 5674   2.478   3.759  16.534  0.3054  0.1914 -0.5544
  379MPD2    H5 5675   2.575   3.762  16.563 -0.1245  0.9657  0.7992
  379MPD2    N1 5676   2.166   3.939  16.203 -0.4175  0.5622 -0.2500
  379MPD2    H7 5677   2.162   3.997  16.119  1.5845  0.4348 -0.4252
  380TMC3    C1 5678   1.953   3.883  16.136  0.0948 -0.3633 -0.8605
  380TMC3    C2 5679   1.903   3.775  16.059  0.9918 -0.0884 -0.1808
  380TMC3    C3 5680   1.791   3.807  15.981  0.3385 -0.1096  0.7057
  380TMC3    C4 5681   1.914   4.013  16.132 -0.2444  0.0555 -0.7024
  380TMC3    C5 5682   1.803   4.044  16.054 -0.7065  0.2624  0.2933
  380TMC3    C6 5683   1.746   3.941  15.978  0.2617 -0.8754  0.5220
  380TMC3     C 5684   2.066   3.848  16.219  0.2447 -0.5641 -0.0187
  380TMC3     O 5685   2.072   3.736  16.259  0.0245  0.0249 -0.3371
  380TMC3     H 5686   1.956   3.681  16.062  0.3163 -0.4953 -0.9557
  380TMC3    H1 5687   1.966   4.095  16.180 -0.7945  0.1127 -0.2040
  380TMC3    H2 5688   1.663   3.970  15.916  2.6445 -0.4032 -2.4439
  380TMC3    C7 5689   1.769   4.181  16.033 -0.3641  0.2925 -0.4018
  380TMC3    C8 5690   1.751   3.721  15.870  0.2533 -0.4260 -0.1458
  380TMC3    O1 5691   1.857   4.259  16.053  0.0385  0.2609 -0.2968
  380TMC3    O2 5692   1.674   3.768  15.785  0.2175  0.2488  0.6728
  381TMC3    C1 5693   1.801   0.177  16.192  0.3588 -0.4203 -0.0064
  381TMC3    C2 5694   1.891   0.284  16.191  0.1476  1.1005  0.7223
  381TMC3    C3 5695   1.879   0.377  16.295  0.4132 -0.0291  0.1970
  381TMC3    C4 5696   1.718   0.158  16.304  0.7854 -0.2693  0.3145
  381TMC3    C5 5697   1.714   0.250  16.403  0.0013  0.4496 -0.3207
  381TMC3    C6 5698   1.794   0.367  16.403  0.4746 -0.1127  0.8379
  381TMC3     C 5699   1.821   0.067  16.100 -0.5006  0.0080  0.1185
  381TMC3     O 5700   1.786   4.684  16.142 -0.5320  0.4021 -0.4131
  381TMC3     H 5701   1.969   0.305  16.119  1.4888 -1.9930  1.2723
  381TMC3    H1 5702   1.654   0.072  16.318  0.9102 -0.4256 -0.0667
  381TMC3    H2 5703   1.787   0.446  16.477  2.7518  0.3567  0.5285
  381TMC3    C7 5704   1.673   0.208  16.533  0.0218 -0.0993 -0.5145
  381TMC3    C8 5705   1.939   0.502  16.276  1.0214 -0.0294  0.0785
  381TMC3    O1 5706   1.699   0.095  16.562 -0.4233 -0.5391  0.8321
  381TMC3    O2 5707   1.950   0.526  16.156 -0.4734  0.5152  0.4769
  382MPD2     C 5708   0.731   2.971  17.303 -0.6725 -0.3019  0.3819
  382MPD2    C1 5709   0.811   2.923  17.402  0.0941 -0.4605  0.7036
  382MPD2    C2 5710   0.777   2.809  17.475  0.1919  0.1133  0.8694
  382MPD2    C3 5711   0.658   2.742  17.448 -0.0155 -0.2451 -0.8147
  382MPD2    C4 5712   0.574   2.788  17.344  0.0920 -0.4435 -0.1180
  382MPD2    C5 5713   0.613   2.905  17.272 -0.5906  0.1895  0.0930
  382MPD2     H 5714   0.847   2.772  17.549 -0.7537 -1.9370  0.7356
  382MPD2    H1 5715   0.486   2.731  17.317  0.7356 -1.3825 -0.2577
  382MPD2    H2 5716   0.764   3.059  17.250 -1.7312 -0.0231  0.1890
  382MPD2    H3 5717   0.551   2.932  17.188  1.4815 -1.9201 -2.1078
  382MPD2     N 5718   0.622   2.608  17.504  0.0933 -0.0109 -0.1208
  382MPD2    H5 5719   0.538   2.560  17.476  0.0615 -0.2523  0.3867
  382MPD2    N1 5720   0.938   2.981  17.436  0.3892  0.1899  0.0591
  382MPD2    H7 5721   0.987   2.954  17.521 -2.0499 -1.2004  0.9927
  383TMC3    C1 5722   0.641   2.429  17.669 -0.1701  0.5831  0.7419
  383TMC3    C2 5723   0.633   2.337  17.564  0.2664 -0.1602  0.0263
  383TMC3    C3 5724   0.675   2.209  17.582  0.0592  0.1700  0.6646
  383TMC3    C4 5725   0.690   2.392   0.087  0.3095  0.8682 -0.3229
  383TMC3    C5 5726   0.713   2.257   0.106 -0.1415  0.3119  0.3893
  383TMC3    C6 5727   0.715   2.169  17.706  0.5972 -0.0204  0.5943
  383TMC3     C 5728   0.679   2.563  17.622 -0.0024  0.6901 -0.1595
  383TMC3     O 5729   0.768   2.607  17.691 -0.0888 -0.3600 -0.2869
  383TMC3     H 5730   0.589   2.375  17.472 -0.4269 -0.4470  0.2413
  383TMC3    H1 5731   0.698   2.469   0.162 -1.3734 -0.7603  1.5254
  383TMC3    H2 5732   0.718   2.062   0.014  1.5761 -0.8162 -4.6965
  383TMC3    C7 5733   0.769   2.209   0.229  0.8057  0.3074 -0.2004
  383TMC3    C8 5734   0.638   2.108  17.481 -0.4110  0.4384  0.2018
  383TMC3    O1 5735   0.758   2.279   0.331  0.2751  0.1765 -0.1369
  383TMC3    O2 5736   0.551   2.155  17.412  0.4324  0.6191  0.4539
  384MPD2     C 5737   2.509   3.624  11.936 -0.2385  0.5313 -0.1657
  384MPD2    C1 5738   2.507   3.582  12.067 -0.0940  0.2996  0.0828
  384MPD2    C2 5739   2.565   3.454  12.095 -0.2207 -0.2747  0.2476
  384MPD2    C3 5740   2.606   3.369  12.004 -0.0296 -0.7453  0.6467
  384MPD2    C4 5741   2.610   3.416  11.874 -0.1632  0.7091  0.3385
  384MPD2    C5 5742   2.565   3.542  11.838 -0.3793  0.0930  0.2380
  384MPD2     H 5743   2.556   3.428  12.200 -2.8528  1.0410  0.3458
  384MPD2    H1 5744   2.640   3.359  11.787 -1.2490 -0.2123  0.5748
  384MPD2    H2 5745   2.462   3.718  11.908  0.5454  0.6147 -1.1750
  384MPD2    H3 5746   2.579   3.585  11.739  0.1707 -0.3560  0.1208
  384MPD2     N 5747   2.635   3.234  12.035 -0.8725  0.1955  0.5923
  384MPD2    H5 5748   2.653   3.172  11.957  0.2748 -2.0092  2.6182
  384MPD2    N1 5749   2.450   3.656  12.167 -0.1366 -0.5086  0.2586
  384MPD2    H7 5750   2.462   3.609  12.256 -1.3848 -0.2046  0.5898
  385TMC3    C1 5751   2.631   3.033  12.168 -0.3175 -0.3025  0.1130
  385TMC3    C2 5752   2.740   2.977  12.108 -0.2779 -0.5030  0.6515
  385TMC3    C3 5753   2.818   2.885  12.174  0.2621  0.3574 -0.1297
  385TMC3    C4 5754   2.597   2.986  12.289  0.1754 -0.3597  0.5438
  385TMC3    C5 5755   2.690   2.911  12.361 -0.7972 -0.0860  0.1154
  385TMC3    C6 5756   2.800   2.861  12.307  0.4536  0.0153  1.2425
  385TMC3     C 5757   2.606   3.172  12.154 -0.3833 -0.0317 -0.7196
  385TMC3     O 5758   2.557   3.217  12.257  0.2650 -0.1031 -0.6652
  385TMC3     H 5759   2.781   3.010  12.013  0.7105  0.4163  1.3963
  385TMC3    H1 5760   2.497   3.012  12.320  0.4267  3.8092 -2.1451
  385TMC3    H2 5761   2.858   2.790  12.366  0.3425 -0.7671  0.4091
  385TMC3    C7 5762   2.702   2.951  12.503  0.0647 -0.2935  0.8947
  385TMC3    C8 5763   2.879   2.775  12.093 -0.3553 -0.4445  0.4680
  385TMC3    O1 5764   2.758   2.893  12.593  0.2750 -0.0053  0.0108
  385TMC3    O2 5765   2.970   2.711  12.144 -0.0123 -0.0443  0.1614
  386TMC3    C1 5766   3.207   1.013  12.046 -0.0033  0.2961  0.5055
  386TMC3    C2 5767   3.238   0.934  11.935  0.1070  0.6360  0.1040
  386TMC3    C3 5768   3.170   0.963  11.822 -0.4513  0.0529  0.3841
  386TMC3    C4 5769   3.100   1.089  12.059 -0.1645  0.0025 -0.6837
  386TMC3    C5 5770   3.033   1.111  11.940  0.0314 -0.0948 -0.4153
  386TMC3    C6 5771   3.067   1.055  11.821 -0.1178 -0.1136 -0.2880
  386TMC3     C 5772   3.299   1.019  12.159  0.0854  0.3286 -0.4952
  386TMC3     O 5773   3.284   1.109  12.237  0.3538  0.3712 -0.3348
  386TMC3     H 5774   3.324   0.868  11.934  1.6915  2.6018  3.9463
  386TMC3    H1 5775   3.086   1.143  12.152 -1.8711  1.4151 -1.7698
  386TMC3    H2 5776   3.015   1.082  11.731 -1.1893  2.5931  1.1456
  386TMC3    C7 5777   2.895   1.153  11.961  0.8006 -0.0074 -0.2212
  386TMC3    C8 5778   3.179   0.878  11.709  0.0990  0.0643 -0.0249
  386TMC3    O1 5779   2.850   1.139  12.076 -0.0866 -0.2141 -0.1745
  386TMC3    O2 5780   3.167   0.926  11.596 -0.3389 -0.6002 -0.3706
  387MPD2     C 5781   1.056   1.322   9.876  0.4986 -0.4496 -0.3608
  387MPD2    C1 5782   1.154   1.294   9.969  0.1342  0.2632  0.1599
  387MPD2    C2 5783   1.134   1.201  10.069 -0.0360  0.4126 -0.0175
  387MPD2    C3 5784   1.015   1.136  10.076  0.0285  0.2934 -0.7978
  387MPD2    C4 5785   0.912   1.169   9.982  0.2089 -0.0620  0.4247
  387MPD2    C5 5786   0.933   1.261   9.888 -0.2736  0.0433  0.0843
  387MPD2     H 5787   1.218   1.177  10.132 -0.0119 -1.3399 -0.7204
  387MPD2    H1 5788   0.818   1.114   9.986  2.2411 -3.5098  0.7958
  387MPD2    H2 5789   1.079   1.382   9.789 -0.1117  0.8125  0.3620
  387MPD2    H3 5790   0.853   1.281   9.817 -0.8361  0.9918  0.9790
  387MPD2     N 5791   0.994   1.043  10.191  0.1258  0.4759  0.1083
  387MPD2    H5 5792   1.073   1.047  10.254  0.2593 -0.7787  0.0210
  387MPD2    N1 5793   1.287   1.346   9.956  0.2206 -0.5989  0.0761
  387MPD2    H7 5794   1.347   1.320  10.034 -1.6073 -1.2603  1.2627
  388TMC3    C1 5795   1.486   1.389   9.838  0.3641  0.3072  0.5136
  388TMC3    C2 5796   1.539   1.398   9.714  0.9299 -0.0573 -0.5872
  388TMC3    C3 5797   1.655   1.339   9.693  0.1061 -0.5448  0.2790
  388TMC3    C4 5798   1.561   1.349   9.948 -0.3758 -0.4298 -1.1490
  388TMC3    C5 5799   1.687   1.290   9.922  0.2312 -0.5370 -0.4186
  388TMC3    C6 5800   1.726   1.276   9.791 -0.1779  0.5326 -1.1896
  388TMC3     C 5801   1.341   1.411   9.851  0.1952  0.4184  0.2257
  388TMC3     O 5802   1.286   1.463   9.759 -0.0063  0.0319 -0.2188
  388TMC3     H 5803   1.486   1.434   9.627  1.4547  0.0837 -0.8455
  388TMC3    H1 5804   1.540   1.371  10.052 -0.0380 -2.0546 -0.7320
  388TMC3    H2 5805   1.803   1.203   9.766 -0.8294 -0.8280  0.8097
  388TMC3    C7 5806   1.704   1.161   9.998  0.1503  0.8774  0.3210
  388TMC3    C8 5807   1.678   1.305   9.552  0.6565  0.2093  0.4178
  388TMC3    O1 5808   1.797   1.090   9.967 -0.0105  0.3247 -0.4118
  388TMC3    O2 5809   1.590   1.328   9.465  1.1642 -0.3480 -0.2933
  389MPD2     C 5810   0.024   4.099  11.219  0.0989 -0.0862 -0.5502
  389MPD2    C1 5811   4.651   4.027  11.153 -0.4408  0.0860  0.2108
  389MPD2    C2 5812   4.561   3.942  11.229  0.8083 -0.3043 -0.6597
  389MPD2    C3 5813   4.589   3.923  11.361  0.0350  0.8058 -0.4195
  389MPD2    C4 5814   4.703   3.977  11.417 -0.2774  0.8435 -0.1226
  389MPD2    C5 5815   0.059   4.063  11.348 -0.0998  0.2399 -0.2020
  389MPD2     H 5816   4.476   3.891  11.185  0.7226 -1.2522  0.5782
  389MPD2    H1 5817   0.003   3.965  11.521  0.5067 -0.5667 -0.4775
  389MPD2    H2 5818   0.088   4.170  11.169  1.2968 -1.6774 -1.2722
  389MPD2    H3 5819   0.142   4.101  11.407 -0.7423 -1.9185  2.0854
  389MPD2     N 5820   4.502   3.861  11.450  0.7834 -0.4066  0.7070
  389MPD2    H5 5821   4.506   3.888  11.548 -1.7201  2.4400  0.0340
  389MPD2    N1 5822   4.645   4.051  11.015  0.0551  0.0407 -0.1082
  389MPD2    H7 5823   4.716   4.116  10.984  2.1670 -1.8083  0.8342
  390TMC3    C1 5824   4.287   3.778  11.503 -0.0531 -0.0101 -0.0649
  390TMC3    C2 5825   4.204   3.678  11.497 -0.4962  0.0877 -0.2687
  390TMC3    C3 5826   4.112   3.667  11.599  0.4052  0.4375  0.7363
  390TMC3    C4 5827   4.277   3.880  11.592 -0.6407 -0.4341  0.6775
  390TMC3    C5 5828   4.175   3.877  11.681 -0.5961  0.2360 -0.3841
  390TMC3    C6 5829   4.093   3.765  11.699 -0.0770 -0.0136  0.3853
  390TMC3     C 5830   4.398   3.778  11.409  0.6381 -0.2400  0.1744
  390TMC3     O 5831   4.382   3.715  11.306  0.3863  0.6390 -0.2020
  390TMC3     H 5832   4.211   3.596  11.427  0.2715 -0.8312  0.8717
  390TMC3    H1 5833   4.336   3.970  11.584 -0.2698 -0.9770 -2.5920
  390TMC3    H2 5834   4.001   3.774  11.754 -0.4319  1.0600 -0.3742
  390TMC3    C7 5835   4.212   3.948  11.797  0.1496 -0.9409  0.2577
  390TMC3    C8 5836   4.027   3.552  11.597 -0.8249  0.1654  0.2292
  390TMC3    O1 5837   4.318   4.011  11.798  0.4918 -0.0189  0.2557
  390TMC3    O2 5838   4.014   3.487  11.497  0.0961  0.6364  0.6500
  391MPD2     C 5839   3.473   0.652  11.225  0.0874  0.1093 -0.4483
  391MPD2    C1 5840   3.605   0.646  11.196  0.5198 -0.8993  0.5827
  391MPD2    C2 5841   3.639   0.634  11.065 -0.2740 -0.0592 -0.3779
  391MPD2    C3 5842   3.554   0.653  10.955  0.0555 -0.1837  0.0249
  391MPD2    C4 5843   3.420   0.663  10.984  0.5393 -0.7738 -0.6795
  391MPD2    C5 5844   3.384   0.661  11.122 -0.9698  0.1147  0.4092
  391MPD2     H 5845   3.743   0.622  11.037 -0.4439 -1.9666 -0.1748
  391MPD2    H1 5846   3.339   0.673  10.913 -0.8546 -1.5675  0.7776
  391MPD2    H2 5847   3.427   0.653  11.323  0.4906 -0.5637 -0.2509
  391MPD2    H3 5848   3.279   0.668  11.146 -1.4497 -0.2043 -1.6187
  391MPD2     N 5849   3.604   0.646  10.827 -0.0965 -0.3496  0.3465
  391MPD2    H5 5850   3.704   0.633  10.814 -0.5165 -2.4969 -0.7774
  391MPD2    N1 5851   3.692   0.633  11.305  0.3204 -0.4456 -0.1910
  391MPD2    H7 5852   3.643   0.627  11.394 -1.6722  0.6207 -1.2394
  392TMC3    C1 5853   3.603   0.704  10.604  0.3200  0.0207 -0.5417
  392TMC3    C2 5854   3.530   0.735  10.488 -0.3490 -0.2644 -0.1212
  392TMC3    C3 5855   3.599   0.778  10.381  0.1494  0.7310 -0.0474
  392TMC3    C4 5856   3.738   0.727  10.608 -0.3162  0.3033 -0.6474
  392TMC3    C5 5857   3.801   0.768  10.494  0.0359 -0.4252  0.1826
  392TMC3    C6 5858   3.733   0.800  10.383 -0.3239  0.6103 -0.2387
  392TMC3     C 5859   3.527   0.660  10.716  0.1023 -0.2106  0.5643
  392TMC3     O 5860   3.406   0.684  10.714 -0.6387  0.1159  0.3915
  392TMC3     H 5861   3.423   0.718  10.485 -0.2374 -0.2813 -3.6589
  392TMC3    H1 5862   3.790   0.727  10.704  1.3389  2.2940 -1.5443
  392TMC3    H2 5863   3.782   0.842  10.295  1.4199  0.4659  0.6583
  392TMC3    C7 5864   3.942   0.805  10.515  0.1506 -0.2317  0.7160
  392TMC3    C8 5865   3.518   0.818  10.261  0.4707  0.0832 -0.3754
  392TMC3    O1 5866   3.984   0.829  10.628  0.1325 -0.6684 -0.0278
  392TMC3    O2 5867   3.402   0.783  10.259 -0.2552 -0.2606  0.3887
  393TMC3    C1 5868   2.625   3.253  10.464  0.1810 -0.3644 -1.2791
  393TMC3    C2 5869   2.524   3.161  10.436  0.2827  0.2534  0.1323
  393TMC3    C3 5870   2.447   3.133  10.543 -0.5382  0.7072 -0.0606
  393TMC3    C4 5871   2.640   3.306  10.593  1.1144 -0.2544 -0.1567
  393TMC3    C5 5872   2.561   3.257  10.696  0.6185  0.9395 -0.2854
  393TMC3    C6 5873   2.460   3.172  10.672 -0.3654  0.3526 -0.7080
  393TMC3     C 5874   2.737   3.272  10.364  0.2495  0.0105  1.0874
  393TMC3     O 5875   2.829   3.347  10.398 -0.4768 -0.5138  0.2685
  393TMC3     H 5876   2.499   3.108  10.344  0.2402  0.0837  0.2427
  393TMC3    H1 5877   2.713   3.384  10.613 -0.8953  1.6608 -0.2624
  393TMC3    H2 5878   2.385   3.182  10.750  1.0414  1.5888  0.5030
  393TMC3    C7 5879   2.602   3.256  10.833  0.1913  0.3180 -0.5814
  393TMC3    C8 5880   2.307   3.103  10.495  0.1924  0.5437 -0.1927
  393TMC3    O1 5881   2.524   3.226  10.920 -0.3848 -0.0143 -0.4923
  393TMC3    O2 5882   2.282   3.128  10.379  0.5025  0.3117 -0.4405
  394TMC3    C1 5883   4.621   3.993  10.786  0.2202  0.0618 -0.2597
  394TMC3    C2 5884   4.545   3.934  10.682 -0.2691  0.6045 -0.4681
  394TMC3    C3 5885   4.564   3.987  10.557  0.0924 -0.6504 -0.1102
  394TMC3    C4 5886   4.701   4.101  10.759  0.3606  0.0922  0.0849
  394TMC3    C5 5887   4.718   4.134  10.632 -0.8427  0.1385  0.1433
  394TMC3    C6 5888   4.652   4.084  10.524 -0.7385 -0.5228 -0.1678
  394TMC3     C 5889   4.581   3.967  10.922 -0.4798  0.0964 -0.3767
  394TMC3     O 5890   4.525   3.863  10.949 -0.3195 -0.1518 -0.2055
  394TMC3     H 5891   4.464   3.863  10.691  0.2121  0.1178 -0.0239
  394TMC3    H1 5892   0.037   4.142  10.837  0.7871  0.5077 -0.4863
  394TMC3    H2 5893   4.651   4.130  10.426  2.0819  0.0455  0.0515
  394TMC3    C7 5894   0.119   4.192  10.588  0.3142 -0.0881 -0.0985
  394TMC3    C8 5895   4.512   3.913  10.448 -0.3646 -0.9159  0.2513
  394TMC3    O1 5896   0.126   4.248  10.479  0.1215  0.4220 -0.6143
  394TMC3    O2 5897   4.462   3.969  10.351  0.2517 -0.1758  0.5462
  395TMC3    C1 5898   3.997   1.214  14.391  0.3059 -0.2665  0.1403
  395TMC3    C2 5899   3.859   1.209  14.425 -0.1211  0.4059  0.3350
  395TMC3    C3 5900   3.821   1.277  14.536  0.2159 -0.4331 -0.1209
  395TMC3    C4 5901   4.088   1.285  14.461 -0.2988  0.3160  0.0504
  395TMC3    C5 5902   4.043   1.325  14.584  0.6958  0.6798 -0.2198
  395TMC3    C6 5903   3.911   1.334  14.625 -0.1618  0.0838 -1.0720
  395TMC3     C 5904   4.043   1.092  14.323 -0.5937  0.2749  0.2466
  395TMC3     O 5905   3.993   1.061  14.216  0.2026  0.0133  0.0721
  395TMC3     H 5906   3.789   1.147  14.370  1.5234 -0.3605 -0.8952
  395TMC3    H1 5907   4.193   1.289  14.433 -1.0537  1.4290 -2.6521
  395TMC3    H2 5908   3.882   1.362  14.726  0.3818  0.1331 -0.9274
  395TMC3    C7 5909   4.132   1.347  14.697 -0.2466 -0.1971 -0.2970
  395TMC3    C8 5910   3.725   1.200  14.605  0.1912  0.5128 -0.0420
  395TMC3    O1 5911   4.107   1.433  14.783  0.0127 -0.1571 -0.5581
  395TMC3    O2 5912   3.765   1.092  14.642 -0.0995  0.1546  0.0217
  396MPD2     C 5913   4.093   2.185  17.600 -0.0285  0.1009  0.7195
  396MPD2    C1 5914   4.124   2.133  17.478  0.0567 -0.1765  0.2785
  396MPD2    C2 5915   4.161   2.214  17.380 -0.3365 -0.5032  0.0870
  396MPD2    C3 5916   4.183   2.349  17.401 -0.1192  0.4759 -0.1766
  396MPD2    C4 5917   4.157   2.406  17.524  0.2462  0.4272 -0.4663
  396MPD2    C5 5918   4.111   2.323  17.628  0.2243 -0.1050 -0.4524
  396MPD2     H 5919   4.159   2.180  17.277 -2.1943  0.1563 -0.1087
  396MPD2    H1 5920   4.176   2.509  17.551  0.7589  0.2150 -0.0098
  396MPD2    H2 5921   4.063   2.121  17.682  1.7241 -1.2441  0.3138
  396MPD2    H3 5922   4.101   2.371   0.016  1.8132  0.3731 -0.5369
  396MPD2     N 5923   4.242   2.435  17.304  0.2742 -0.0969  0.4457
  396MPD2    H5 5924   4.271   2.530  17.327  3.0186 -0.4998 -1.2603
  396MPD2    N1 5925   4.091   1.995  17.456 -0.0766  0.7430 -0.1157
  396MPD2    H7 5926   4.039   1.944  17.526 -0.5775  1.7714  0.2570
  397TMC3    C1 5927   4.093   1.799  17.319  0.7025 -0.3217 -0.5427
  397TMC3    C2 5928   4.090   1.795  17.178 -0.0969 -0.2427 -0.1829
  397TMC3    C3 5929   3.977   1.752  17.109 -0.0848  0.0239 -0.2440
  397TMC3    C4 5930   3.975   1.781  17.383 -0.1636 -0.1866 -0.7423
  397TMC3    C5 5931   3.864   1.746  17.315  0.4141 -0.1371  0.5112
  397TMC3    C6 5932   3.858   1.739  17.180  0.1584  0.0194 -0.1411
  397TMC3     C 5933   4.154   1.925  17.357 -0.0963 -0.5895  0.3332
  397TMC3     O 5934   4.242   1.964  17.279 -0.0483 -0.1354  0.3080
  397TMC3     H 5935   4.189   1.798  17.134  0.0888 -2.2970  0.0557
  397TMC3    H1 5936   3.988   1.754  17.487 -1.0496  0.8243 -0.3731
  397TMC3    H2 5937   3.771   1.719  17.118  1.0085  0.0934 -1.3508
  397TMC3    C7 5938   3.756   1.681  17.388  0.2306 -0.4984  0.3393
  397TMC3    C8 5939   3.950   1.778  16.968  0.3224 -0.1470 -0.5636
  397TMC3    O1 5940   3.687   1.617  17.311 -0.6029 -0.2446 -0.5869
  397TMC3    O2 5941   3.851   1.843  16.938 -0.0806 -0.4497  0.4349
  398MPD2     C 5942   2.857   3.246  17.436 -0.5872  0.4582 -0.8677
  398MPD2    C1 5943   2.935   3.132  17.444  0.8182 -1.1285  0.1612
  398MPD2    C2 5944   3.061   3.129  17.383  0.3454 -0.3221 -0.0725
  398MPD2    C3 5945   3.116   3.238  17.319  0.5278  0.3026 -0.5188
  398MPD2    C4 5946   3.034   3.349  17.311  0.0779  0.1872 -0.3818
  398MPD2    C5 5947   2.915   3.354  17.379 -1.3059 -0.5399 -1.0174
  398MPD2     H 5948   3.113   3.034  17.383  2.7012  0.9925 -3.7149
  398MPD2    H1 5949   3.063   3.444  17.268  1.9213 -1.5040 -2.8706
  398MPD2    H2 5950   2.767   3.267  17.493 -0.4174  0.8146 -0.7321
  398MPD2    H3 5951   2.875   3.454  17.384 -1.1882 -0.4823 -1.2091
  398MPD2     N 5952   3.240   3.227  17.252  0.0066  0.1527  0.9781
  398MPD2    H5 5953   3.294   3.143  17.271  1.6602  1.0805  0.3473
  398MPD2    N1 5954   2.897   3.020  17.522 -0.0192  0.2771 -0.0539
  398MPD2    H7 5955   2.954   2.936  17.526  0.9495  0.8526 -2.1589
  399TMC3    C1 5956   2.769   2.875  17.652 -0.0512 -0.5617 -0.8768
  399TMC3    C2 5957   2.856   2.786  17.608  0.5126 -0.8361  0.5225
  399TMC3    C3 5958   2.893   2.682  17.686 -0.2156  0.2650  0.5042
  399TMC3    C4 5959   2.718   2.869   0.076  0.2002  0.3199 -0.2913
  399TMC3    C5 5960   2.752   2.759   0.156 -0.3982  0.2001 -0.1463
  399TMC3    C6 5961   2.844   2.664   0.106 -0.4990 -0.3897 -0.5283
  399TMC3     C 5962   2.773   3.008  17.590 -0.7404 -0.4510 -0.0485
  399TMC3     O 5963   2.685   3.087  17.613 -0.0932 -0.1909 -0.3443
  399TMC3     H 5964   2.872   2.776  17.502 -0.9262  1.9957  0.0472
  399TMC3    H1 5965   2.646   2.941   0.113 -0.0003 -0.3344  0.5746
  399TMC3    H2 5966   2.874   2.577   0.163  0.6043  0.7813  0.6652
  399TMC3    C7 5967   2.694   2.730   0.286  0.4320 -0.4541  0.4406
  399TMC3    C8 5968   3.023   2.625  17.647 -0.7691 -0.7617  0.4068
  399TMC3    O1 5969   2.709   2.612   0.317 -0.6109 -0.3380  0.0159
  399TMC3    O2 5970   3.054   2.624  17.530  0.1482  0.8134  0.4625
  400TMC3    C1 5971   0.807   1.577  16.648  0.1723 -0.3530 -0.3775
  400TMC3    C2 5972   0.689   1.628  16.595  0.0840  0.2557 -0.6921
  400TMC3    C3 5973   0.633   1.740  16.660  0.0385 -0.3490 -0.4706
  400TMC3    C4 5974   0.882   1.646  16.736 -0.1469 -0.9639  0.6146
  400TMC3    C5 5975   0.821   1.755  16.798  0.3844  0.5372  0.0923
  400TMC3    C6 5976   0.697   1.802  16.761  0.1443  0.7341  0.5538
  400TMC3     C 5977   0.857   1.457  16.589 -0.6379  0.4098 -0.8261
  400TMC3     O 5978   0.833   1.452  16.469 -0.2753  0.2119  0.0557
  400TMC3     H 5979   0.641   1.576  16.513  1.1989 -2.4923  0.3725
  400TMC3    H1 5980   0.987   1.629  16.761  0.4364  0.6567 -0.7399
  400TMC3    H2 5981   0.656   1.888  16.814 -0.7941  1.4017 -1.2350
  400TMC3    C7 5982   0.913   1.835  16.873  0.1187  0.0970 -0.2260
  400TMC3    C8 5983   0.508   1.794  16.615  0.0796  0.1071 -0.3038
  400TMC3    O1 5984   1.007   1.779  16.929 -0.3569 -0.2383 -0.3919
  400TMC3    O2 5985   0.481   1.912  16.641 -0.0326  0.3130  0.6721
  401MPD2     C 5986   3.523   0.586   0.742  0.2641 -0.1623  0.5862
  401MPD2    C1 5987   3.609   0.573   0.848  0.1751  0.1471  0.2237
  401MPD2    C2 5988   3.660   0.448   0.872 -0.0936  0.0553 -0.4810
  401MPD2    C3 5989   3.618   0.337   0.793  0.1077 -0.1257 -0.0775
  401MPD2    C4 5990   3.538   0.357   0.679  0.6565  0.2625  0.1708
  401MPD2    C5 5991   3.493   0.482   0.664 -0.2139  0.2932 -0.3723
  401MPD2     H 5992   3.745   0.430   0.937  0.0353  0.3806 -0.5623
  401MPD2    H1 5993   3.489   0.281   0.620 -1.5085  3.1874 -1.7930
  401MPD2    H2 5994   3.487   0.685   0.714  1.8298  0.0908 -0.5088
  401MPD2    H3 5995   3.430   0.503   0.578 -0.0580  0.6907 -0.3916
  401MPD2     N 5996   3.672   0.206   0.808 -0.3132  0.7239 -0.4643
  401MPD2    H5 5997   3.721   0.175   0.892 -1.1592  0.1116 -0.1959
  401MPD2    N1 5998   3.682   0.679   0.913  0.1340  0.1323 -1.0358
  401MPD2    H7 5999   3.737   0.654   0.994 -0.9692  1.9443  0.2904
  402TMC3    C1 6000   3.741   4.708   0.764 -0.1169 -0.5276  0.6348
  402TMC3    C2 6001   3.684   4.656   0.879  0.3766  0.9439  0.4432
  402TMC3    C3 6002   3.722   4.534   0.925  0.4696  0.4033 -1.1552
  402TMC3    C4 6003   3.812   4.636   0.683 -0.9564  0.1295 -0.1457
  402TMC3    C5 6004   3.847   4.511   0.726 -0.2353 -0.8570  0.2824
  402TMC3    C6 6005   3.811   4.458   0.850  0.2715 -0.3156  0.4522
  402TMC3     C 6006   3.690   0.106   0.714  0.5216  0.6244  0.4576
  402TMC3     O 6007   3.661   0.108   0.596  0.1984 -0.2400 -0.1596
  402TMC3     H 6008   3.622   0.002   0.931 -1.4580 -0.8393  0.7373
  402TMC3    H1 6009   3.839   4.663   0.582 -1.9787  1.4959 -0.0478
  402TMC3    H2 6010   3.846   4.366   0.896  1.1799 -1.3814 -2.3814
  402TMC3    C7 6011   3.957   4.430   0.665  1.2114  0.0140 -0.7002
  402TMC3    C8 6012   3.707   4.503   1.062  0.6847 -0.7440 -0.2512
  402TMC3    O1 6013   3.976   4.308   0.695 -0.5518  0.0153 -0.1137
  402TMC3    O2 6014   3.800   4.444   1.116  0.3080  0.6742 -0.0014
  403MPD2     C 6015   2.045   4.093  13.792 -0.6354 -0.1142 -0.2877
  403MPD2    C1 6016   2.117   3.994  13.851 -0.0981  0.7547 -0.3312
  403MPD2    C2 6017   2.243   4.017  13.892 -0.1274 -0.2594 -0.0511
  403MPD2    C3 6018   2.286   4.144  13.920 -0.1481  0.0727 -0.6715
  403MPD2    C4 6019   2.196   4.248  13.886  0.1576 -0.1432 -0.1263
  403MPD2    C5 6020   2.080   4.225  13.813  0.3625 -0.2385 -0.4411
  403MPD2     H 6021   2.300   3.926  13.908  3.0012  1.3325 -2.1057
  403MPD2    H1 6022   2.222   4.350  13.911  0.2751 -0.4661  1.0374
  403MPD2    H2 6023   1.943   4.066  13.768 -1.2557  3.7231 -2.0638
  403MPD2    H3 6024   2.017   4.312  13.795 -0.0590 -0.3805  0.3327
  403MPD2     N 6025   2.415   4.163  13.980  0.2426  0.1055  0.5347
  403MPD2    H5 6026   2.468   4.078  13.992  0.6632  0.3079  0.0940
  403MPD2    N1 6027   2.064   3.863  13.843 -0.0768 -0.6612  0.5322
  403MPD2    H7 6028   1.973   3.851  13.799  0.5111 -1.8802 -0.3450
  404TMC3    C1 6029   2.042   3.631  13.844 -0.0443  0.6236  0.2516
  404TMC3    C2 6030   2.071   3.516  13.901 -0.8626 -0.3620  0.3850
  404TMC3    C3 6031   2.062   3.396  13.832 -0.8700 -0.1154 -0.7125
  404TMC3    C4 6032   2.005   3.634  13.711  0.4205 -0.2540  0.3920
  404TMC3    C5 6033   2.016   3.514  13.643 -0.3858 -0.5658  0.3630
  404TMC3    C6 6034   2.020   3.392  13.702 -0.1188  0.3899 -0.3496
  404TMC3     C 6035   2.124   3.743  13.887 -0.1176  1.0352 -0.3364
  404TMC3     O 6036   2.221   3.716  13.958 -1.1616 -0.5884  0.3798
  404TMC3     H 6037   2.099   3.507  14.006 -0.0311  0.3324  0.2203
  404TMC3    H1 6038   1.984   3.731  13.666  1.1624 -0.9510 -1.4918
  404TMC3    H2 6039   2.017   3.299  13.647  0.0284  0.6449 -0.7887
  404TMC3    C7 6040   2.052   3.533  13.503 -0.4426 -0.2430 -0.1978
  404TMC3    C8 6041   2.059   3.272  13.912  0.7366  0.2197  0.5481
  404TMC3    O1 6042   2.108   3.632  13.470 -0.1122 -0.0858  0.4819
  404TMC3    O2 6043   2.139   3.179  13.893 -0.2342 -0.4306  0.4303
  405MPD2     C 6044   2.421   4.356  14.699  1.2362  0.0289 -0.1537
  405MPD2    C1 6045   2.398   4.306  14.569  0.0668 -0.2385  0.3491
  405MPD2    C2 6046   2.374   4.394  14.471 -0.6147  1.3246 -0.0112
  405MPD2    C3 6047   2.380   4.529  14.499  0.3236 -0.0287 -0.5497
  405MPD2    C4 6048   2.406   4.583  14.618 -0.2797  0.1945  0.5006
  405MPD2    C5 6049   2.423   4.494  14.718 -0.3080  0.2129 -0.1963
  405MPD2     H 6050   2.362   4.371  14.365 -1.3868 -1.2077  0.6417
  405MPD2    H1 6051   2.419   4.690  14.633  0.1093 -0.0460  1.8661
  405MPD2    H2 6052   2.456   4.299  14.785  0.1138 -0.6522 -0.1504
  405MPD2    H3 6053   2.444   4.529  14.818 -1.2528 -1.2857  0.5219
  405MPD2     N 6054   2.358   4.610  14.389  0.0148  0.3983 -0.2366
  405MPD2    H5 6055   2.339   4.557  14.305 -0.8207  1.5624 -0.7804
  405MPD2    N1 6056   2.382   4.170  14.546  0.3934  0.1073  0.6864
  405MPD2    H7 6057   2.358   4.151  14.449 -0.3314 -1.8814  1.2515
  406TMC3    C1 6058   2.210   0.207  14.145 -0.4864 -0.1261  0.1826
  406TMC3    C2 6059   2.185   0.130  14.034 -0.4727 -0.2980 -0.6737
  406TMC3    C3 6060   2.241   0.002  14.039 -0.2466 -0.2511  0.1024
  406TMC3    C4 6061   2.295   0.180  14.242 -0.3568  0.0419 -0.2631
  406TMC3    C5 6062   2.355   0.057  14.244  0.2005  0.1878  0.5131
  406TMC3    C6 6063   2.323   4.692  14.146 -0.0217 -0.8632 -0.2796
  406TMC3     C 6064   2.091   0.284  14.187  0.3874 -0.6662 -0.4797
  406TMC3     O 6065   2.108   0.382  14.251 -0.4441 -0.2233  0.0994
  406TMC3     H 6066   2.135   0.170  13.946 -2.1880 -2.2232 -0.5791
  406TMC3    H1 6067   2.310   0.246  14.327 -0.0864 -0.3712  0.0128
  406TMC3    H2 6068   2.388   4.606  14.135  1.0353 -0.0056 -0.8169
  406TMC3    C7 6069   2.393   0.012  14.372  0.2104 -0.1619  0.1025
  406TMC3    C8 6070   2.132   4.641  14.035  0.3285 -0.1797  1.0457
  406TMC3    O1 6071   2.447   0.094  14.444 -0.3184  0.4019 -0.3119
  406TMC3    O2 6072   2.026   4.700  14.024  0.3732  0.5283 -0.0954
  407MPD2     C 6073   0.388   0.743   9.972  0.4583  0.0310 -0.0637
  407MPD2    C1 6074   0.503   0.808  10.013  0.3543  0.4352  0.3838
  407MPD2    C2 6075   0.497   0.938  10.040  0.0131 -0.4176  0.2783
  407MPD2    C3 6076   0.373   1.005  10.035  0.7173  0.2027 -0.5395
  407MPD2    C4 6077   0.255   0.941   9.988 -0.3857  0.0372  0.0018
  407MPD2    C5 6078   0.273   0.804   9.968 -0.1146 -0.6432 -0.1697
  407MPD2     H 6079   0.593   0.988  10.043  0.3176 -0.9407 -0.5756
  407MPD2    H1 6080   0.158   0.987   9.981 -0.4063 -0.1042 -0.5698
  407MPD2    H2 6081   0.392   0.639   9.939 -2.1158 -0.6148  1.6523
  407MPD2    H3 6082   0.191   0.745   9.927 -2.0110  1.2953  0.8146
  407MPD2     N 6083   0.366   1.146  10.076 -0.7187 -0.3710  0.2749
  407MPD2    H5 6084   0.277   1.189  10.052 -2.4361 -4.0688 -0.0593
  407MPD2    N1 6085   0.629   0.745  10.009  0.1868 -0.1032 -0.2663
  407MPD2    H7 6086   0.709   0.801  10.039 -0.4422  0.7009 -0.0715
  408TMC3    C1 6087   0.803   0.608   9.928 -0.1319 -0.1515 -0.0985
  408TMC3    C2 6088   0.864   0.492   9.949 -0.0605  0.4400 -0.0198
  408TMC3    C3 6089   1.001   0.484   9.937  0.8103 -0.7482  0.2527
  408TMC3    C4 6090   0.868   0.726   9.910 -0.4786  0.3257 -0.6040
  408TMC3    C5 6091   1.003   0.715   9.899 -0.1220  0.8939  0.2516
  408TMC3    C6 6092   1.075   0.598   9.920  0.1261 -0.2497  0.0050
  408TMC3     C 6093   0.662   0.615   9.966  0.5435  0.0302 -0.4231
  408TMC3     O 6094   0.592   0.516   9.966 -0.7788 -0.2479 -0.3768
  408TMC3     H 6095   0.812   0.400   9.972  1.1047 -0.4553 -0.9503
  408TMC3    H1 6096   0.826   0.825   9.898  4.3400  2.5318  0.5110
  408TMC3    H2 6097   1.179   0.586   9.895  0.1650  2.3408 -1.1302
  408TMC3    C7 6098   1.071   0.831   9.845  0.0633 -0.8959 -0.3518
  408TMC3    C8 6099   1.056   0.371  10.012  1.6063 -0.5988  0.4694
  408TMC3    O1 6100   1.005   0.902   9.768 -0.1444  0.5714  0.1456
  408TMC3    O2 6101   1.006   0.262   9.991 -0.0134  0.1367 -0.1056
  409MPD2     C 6102   4.458   1.287  16.931 -0.0767  0.4781 -0.3843
  409MPD2    C1 6103   4.582   1.266  16.985 -0.3289 -0.3094 -0.1502
  409MPD2    C2 6104   4.679   1.368  16.971  0.2598 -0.5202 -0.0817
  409MPD2    C3 6105   4.646   1.473  16.891 -0.4332  0.2756 -0.5044
  409MPD2    C4 6106   4.520   1.492  16.833 -0.0582 -0.3530 -1.0275
  409MPD2    C5 6107   4.419   1.404  16.866  0.3287 -0.4697 -0.4583
  409MPD2     H 6108   0.042   1.350  17.029 -0.3139 -1.6418  0.4761
  409MPD2    H1 6109   4.498   1.570  16.761  1.2403 -0.6109 -1.7109
  409MPD2    H2 6110   4.385   1.207  16.936  1.5835 -1.0633 -0.9497
  409MPD2    H3 6111   4.321   1.414  16.820  0.3019  1.2332 -0.0236
  409MPD2     N 6112   0.011   1.575  16.855 -0.6599  0.2561  0.1604
  409MPD2    H5 6113   4.698   1.645  16.794 -0.1561 -0.9046 -1.5208
  409MPD2    N1 6114   4.618   1.160  17.063 -0.2072  0.8056 -0.0099
  409MPD2    H7 6115   4.716   1.140  17.083 -0.3609  0.0941  0.0250
  410TMC3    C1 6116   0.212   1.708  16.862  0.1963 -0.4197 -0.7305
  410TMC3    C2 6117   0.326   1.738  16.938  0.2366 -0.0354  0.4288
  410TMC3    C3 6118   0.365   1.870  16.948  0.3264 -0.7132  0.5527
  410TMC3    C4 6119   0.153   1.798  16.788 -0.1350  0.1111  0.1632
  410TMC3    C5 6120   0.194   1.929  16.800 -0.6300  0.4077  0.7077
  410TMC3    C6 6121   0.289   1.963  16.890 -0.0498 -0.7695  0.0139
  410TMC3     C 6122   0.150   1.587  16.892  0.1107  0.0213  0.1058
  410TMC3     O 6123   0.224   1.508  16.948  0.0482 -0.2086 -0.0758
  410TMC3     H 6124   0.390   1.662  16.981  0.6340  0.2931  0.4102
  410TMC3    H1 6125   0.064   1.774  16.731  0.2862 -1.9033  0.3658
  410TMC3    H2 6126   0.315   2.068  16.893 -2.0658 -0.2945  0.8205
  410TMC3    C7 6127   0.077   2.016  16.796 -0.3910 -0.1924  0.7483
  410TMC3    C8 6128   0.464   1.910  17.046 -0.5249 -0.1297 -0.4835
  410TMC3    O1 6129   0.052   2.089  16.892 -0.3239 -0.1116 -0.5382
  410TMC3    O2 6130   0.455   2.022  17.098 -0.1108  0.3032 -0.5229
  411MPD2     C 6131   0.003   2.367  14.709  0.6000  0.0027 -0.5731
  411MPD2    C1 6132   4.612   2.336  14.777 -0.3664 -0.6479  0.3016
  411MPD2    C2 6133   4.573   2.206  14.804 -0.4489  0.2716  0.5030
  411MPD2    C3 6134   4.650   2.100  14.753  0.4733  0.1296  0.7648
  411MPD2    C4 6135   0.037   2.126  14.686 -0.4070  0.0955 -0.0303
  411MPD2    C5 6136   0.071   2.260  14.663  0.3714 -0.2025  0.4575
  411MPD2     H 6137   4.476   2.189  14.850 -1.0554 -1.1759 -1.3148
  411MPD2    H1 6138   0.078   2.052  14.618 -1.6911 -1.0219  0.4023
  411MPD2    H2 6139   0.030   2.467  14.677 -1.7664  0.8464  0.0270
  411MPD2    H3 6140   0.166   2.273  14.613  1.3389  0.6799  2.5440
  411MPD2     N 6141   4.594   1.971  14.748 -0.7535  0.4136 -0.2874
  411MPD2    H5 6142   4.656   1.904  14.704 -1.5224  0.3919 -1.3355
  411MPD2    N1 6143   4.541   2.451  14.819 -0.3971 -0.0332 -0.1207
  411MPD2    H7 6144   4.568   2.541  14.782  0.8398 -0.3694 -0.0647
  412TMC3    C1 6145   4.446   1.791  14.744 -0.0832  0.0542 -0.3431
  412TMC3    C2 6146   4.310   1.766  14.740 -0.1382  0.6667 -0.0439
  412TMC3    C3 6147   4.259   1.679  14.650 -0.1933  0.2093  0.2259
  412TMC3    C4 6148   4.527   1.721  14.651  0.5089  0.2288  0.3625
  412TMC3    C5 6149   4.466   1.651  14.546 -0.0027  0.2934 -0.1959
  412TMC3    C6 6150   4.340   1.621  14.548  0.0800  0.9120 -0.4386
  412TMC3     C 6151   4.476   1.925  14.797  0.1517 -0.0536  0.4428
  412TMC3     O 6152   4.398   1.972  14.879 -0.9708 -0.4013  0.4216
  412TMC3     H 6153   4.237   1.823  14.796 -1.1371 -1.6924  1.0214
  412TMC3    H1 6154   4.635   1.714  14.658  0.4856 -1.4365 -0.8413
  412TMC3    H2 6155   4.294   1.553  14.477  0.2468  1.7912 -1.3838
  412TMC3    C7 6156   4.495   1.694  14.413 -0.4342 -0.3067 -0.5602
  412TMC3    C8 6157   4.128   1.720  14.604  0.9285  0.4723  1.0713
  412TMC3    O1 6158   4.614   1.705  14.389 -0.1946 -0.1551  0.2349
  412TMC3    O2 6159   4.132   1.732  14.480  0.1069  0.3169  0.3607
  413MPD2     C 6160   1.404   0.151  15.584 -0.2215  0.2180 -0.2483
  413MPD2    C1 6161   1.362   0.154  15.455  0.7200 -0.4630  1.0071
  413MPD2    C2 6162   1.414   0.062  15.359 -0.1592 -0.2601 -0.6748
  413MPD2    C3 6163   1.525   4.708  15.386  0.6785  0.2569 -0.0677
  413MPD2    C4 6164   1.574   4.720  15.516  0.5068 -0.1561 -0.1505
  413MPD2    C5 6165   1.518   0.071  15.613 -0.0654  0.3050 -0.2516
  413MPD2     H 6166   1.369   0.049  15.261  1.0329 -1.1210 -1.0992
  413MPD2    H1 6167   1.670   4.674  15.539 -0.2932 -1.4785  0.5463
  413MPD2    H2 6168   1.360   0.210  15.664  0.8356  0.2485  0.3220
  413MPD2    H3 6169   1.551   0.066  15.716 -0.0340 -0.0241 -0.2779
  413MPD2     N 6170   1.558   4.603  15.292  0.4028  0.5186  0.1834
  413MPD2    H5 6171   1.529   4.621  15.197  1.1631 -2.6315 -0.6473
  413MPD2    N1 6172   1.254   0.242  15.430 -0.2609  0.0250 -0.0906
  413MPD2    H7 6173   1.211   0.289  15.508  0.3645 -1.5882  1.2375
  414TMC3    C1 6174   1.700   4.428  15.213  0.4306  0.2253 -0.5037
  414TMC3    C2 6175   1.769   4.327  15.260  0.3498  0.0001  0.0879
  414TMC3    C3 6176   1.878   4.280  15.194  0.0440 -0.3934  0.5650
  414TMC3    C4 6177   1.728   4.487  15.097 -0.4826 -0.1603 -0.4184
  414TMC3    C5 6178   1.842   4.455  15.028  0.2534 -0.3956  0.4236
  414TMC3    C6 6179   1.919   4.347  15.080  0.5128  0.2064 -0.7335
  414TMC3     C 6180   1.633   4.493  15.324  0.5812  0.1388  0.8685
  414TMC3     O 6181   1.669   4.467  15.435  0.6562 -0.6699 -0.0087
  414TMC3     H 6182   1.742   4.276  15.351  3.2000  2.0288  2.0501
  414TMC3    H1 6183   1.664   4.570  15.072 -1.0897 -0.2353  0.9063
  414TMC3    H2 6184   2.010   4.317  15.028  1.0974 -0.1847  0.5134
  414TMC3    C7 6185   1.938   4.564  15.012  0.4140 -0.5559  0.4373
  414TMC3    C8 6186   1.966   4.181  15.243  0.0170 -0.0638  0.0718
  414TMC3    O1 6187   2.027   4.568  15.095 -0.6033  0.6516  0.3990
  414TMC3    O2 6188   2.056   4.154  15.163 -0.1121 -0.2220  0.3988
  415TMC3    C1 6189   3.136   3.089  10.269 -0.4784 -1.0252  0.8178
  415TMC3    C2 6190   3.178   3.202  10.329  0.4530  0.0083  0.0505
  415TMC3    C3 6191   3.262   3.288  10.258 -0.5013 -0.3330  0.1383
  415TMC3    C4 6192   3.166   3.057  10.141 -0.7258 -0.1103  0.0675
  415TMC3    C5 6193   3.261   3.134  10.081 -0.4265 -0.1867 -0.2750
  415TMC3    C6 6194   3.303   3.255  10.132 -0.2464  0.7810  0.6207
  415TMC3     C 6195   3.033   3.005  10.337 -1.0074  0.1070 -0.2670
  415TMC3     O 6196   2.976   2.923  10.269  0.5073  0.1654 -0.5137
  415TMC3     H 6197   3.144   3.236  10.426 -3.6626 -2.8838 -0.4011
  415TMC3    H1 6198   3.128   2.966  10.095  0.5144 -0.6317  0.0829
  415TMC3    H2 6199   3.363   3.323  10.072 -0.8941 -1.9802 -3.1812
  415TMC3    C7 6200   3.311   3.084   9.957  0.2015  0.0523 -0.6239
  415TMC3    C8 6201   3.252   3.429  10.287 -0.2766 -0.0095 -0.3435
  415TMC3    O1 6202   3.421   3.124   9.923  0.5074  0.6408 -0.4631
  415TMC3    O2 6203   3.160   3.455  10.362  0.2061  0.5558 -0.4193
  416MPD2     C 6204   4.180   2.045  11.619  0.2190  0.1031 -0.5357
  416MPD2    C1 6205   4.073   1.977  11.563 -0.3414 -0.6458 -0.0891
  416MPD2    C2 6206   4.101   1.866  11.483 -0.1795 -0.5279  0.0682
  416MPD2    C3 6207   4.228   1.824  11.459  0.0924  0.1526 -0.6958
  416MPD2    C4 6208   4.335   1.893  11.512  0.8405  0.5714  0.1123
  416MPD2    C5 6209   4.308   2.005  11.583 -0.1948  0.4844  0.3905
  416MPD2     H 6210   4.016   1.814  11.440 -1.6428  0.7350  1.4103
  416MPD2    H1 6211   4.433   1.865  11.474  0.8692  2.5311 -1.2907
  416MPD2    H2 6212   4.168   2.132  11.681  0.3667 -1.2036  1.3326
  416MPD2    H3 6213   4.389   2.063  11.626  0.6987 -1.5773  1.5425
  416MPD2     N 6214   4.261   1.705  11.389 -0.0347  0.3897 -0.6387
  416MPD2    H5 6215   4.357   1.679  11.371 -0.0940 -0.2444 -0.0271
  416MPD2    N1 6216   3.944   2.025  11.609  0.1302  0.3667 -0.2134
  416MPD2    H7 6217   3.956   2.110  11.663 -0.6334  0.4493 -0.1745
  417TMC3    C1 6218   3.729   2.094  11.576 -0.1470 -0.0522 -0.5072
  417TMC3    C2 6219   3.708   2.168  11.692 -0.1097  0.2958  0.0887
  417TMC3    C3 6220   3.607   2.258  11.698  0.1217 -0.8628 -0.1947
  417TMC3    C4 6221   3.644   2.114  11.469  0.0496  0.1793  0.6372
  417TMC3    C5 6222   3.558   2.220  11.473  0.1919 -0.7360 -0.7188
  417TMC3    C6 6223   3.536   2.293  11.587  0.7600  0.7178 -0.2983
  417TMC3     C 6224   3.817   1.986  11.577  0.4604  0.0376 -1.3171
  417TMC3     O 6225   3.790   1.898  11.497 -0.1751  0.2872  0.1081
  417TMC3     H 6226   3.758   2.148  11.786 -0.7081 -0.7734  0.1718
  417TMC3    H1 6227   3.665   2.062  11.376 -1.0795 -0.4006  0.7048
  417TMC3    H2 6228   3.469   2.378  11.589 -1.3618 -0.9932  1.2377
  417TMC3    C7 6229   3.495   2.263  11.348  0.3124 -0.6950  0.0541
  417TMC3    C8 6230   3.613   2.359  11.800 -0.6142 -0.2199  0.5647
  417TMC3    O1 6231   3.465   2.385  11.343  0.0743 -0.0387 -1.2173
  417TMC3    O2 6232   3.508   2.421  11.825  0.4825  0.2234  0.1439
  418TMC3    C1 6233   3.559   3.113  17.247  0.6007 -1.1248 -0.2280
  418TMC3    C2 6234   3.491   3.187  17.148  0.1611 -0.5046  0.0511
  418TMC3    C3 6235   3.440   3.310  17.190  0.4873 -0.2307 -0.4908
  418TMC3    C4 6236   3.580   3.158  17.376  0.3570  0.8856 -0.4138
  418TMC3    C5 6237   3.542   3.289  17.399 -0.0324  0.0331  0.4164
  418TMC3    C6 6238   3.467   3.360  17.311  0.3377  0.7083  0.2796
  418TMC3     C 6239   3.647   2.996  17.201 -0.1140  0.3317  0.5785
  418TMC3     O 6240   3.676   2.981  17.080  0.2214 -0.2419 -0.1340
  418TMC3     H 6241   3.494   3.145  17.048  1.9705  0.4908 -0.3082
  418TMC3    H1 6242   3.622   3.101  17.458  0.8875  2.1896  0.2168
  418TMC3    H2 6243   3.426   3.458  17.335  0.3647  0.7433  0.1868
  418TMC3    C7 6244   3.526   3.329  17.538 -0.3640 -0.2623 -0.2880
  418TMC3    C8 6245   3.300   3.323  17.179  0.7873 -0.3119 -0.5989
  418TMC3    O1 6246   3.528   3.235  17.618 -0.3526 -0.5168  0.0024
  418TMC3    O2 6247   3.257   3.426  17.134  0.7445 -0.5069  0.2492
  419MPD2     C 6248   1.427   1.782  12.600 -0.6779  0.5708 -0.3020
  419MPD2    C1 6249   1.355   1.858  12.513 -0.4255  0.2889  0.0807
  419MPD2    C2 6250   1.281   1.970  12.550 -0.2202  0.2691  0.4064
  419MPD2    C3 6251   1.294   2.008  12.683  0.8319 -0.2042  0.9202
  419MPD2    C4 6252   1.371   1.932  12.774  0.6687  0.3954 -0.0545
  419MPD2    C5 6253   1.432   1.815  12.731 -0.3121  0.0651 -0.0987
  419MPD2     H 6254   1.224   2.028  12.478  1.8493  0.1138 -1.3856
  419MPD2    H1 6255   1.388   1.960  12.878 -1.3887 -1.1954  0.7052
  419MPD2    H2 6256   1.456   1.685  12.560 -2.4145  0.4249 -1.2232
  419MPD2    H3 6257   1.493   1.756  12.798  1.6337  1.6484 -0.4649
  419MPD2     N 6258   1.228   2.124  12.717 -0.2690 -0.1186  0.3801
  419MPD2    H5 6259   1.182   2.169  12.639 -3.9314  0.0433  2.6308
  419MPD2    N1 6260   1.346   1.812  12.382 -0.0154  0.1248 -0.0811
  419MPD2    H7 6261   1.376   1.718  12.356  0.6804  0.5473 -0.8280
  420TMC3    C1 6262   1.122   2.291  12.837  0.1909  0.3714  0.5635
  420TMC3    C2 6263   1.061   2.344  12.725 -0.8842 -0.2525  0.4237
  420TMC3    C3 6264   0.930   2.398  12.732 -0.4611 -0.0335  0.5808
  420TMC3    C4 6265   1.074   2.316  12.960 -0.8006 -0.2538  0.7350
  420TMC3    C5 6266   0.945   2.363  12.968  0.4641  0.0250  0.1583
  420TMC3    C6 6267   0.870   2.393  12.860 -0.0487 -0.3492 -0.0272
  420TMC3     C 6268   1.227   2.189  12.833 -0.5048 -0.7409  0.2047
  420TMC3     O 6269   1.287   2.165  12.939  1.0077  0.2031 -0.0292
  420TMC3     H 6270   1.116   2.345  12.632  1.2388  0.4986  1.7002
  420TMC3    H1 6271   1.122   2.284  13.051  1.0558  0.4062 -0.0088
  420TMC3    H2 6272   0.764   2.411  12.871 -0.2249 -0.0423 -2.1578
  420TMC3    C7 6273   0.884   2.389  13.100 -0.1277 -0.0450 -0.4521
  420TMC3    C8 6274   0.853   2.441  12.615 -0.3266 -0.3762 -0.8869
  420TMC3    O1 6275   0.936   2.320  13.188  0.4373  0.4696 -0.4104
  420TMC3    O2 6276   0.911   2.477  12.512  0.2155 -0.3867  0.0112
  421TMC3    C1 6277   2.595   4.276  14.087 -0.1540 -0.7809  0.0639
  421TMC3    C2 6278   2.631   4.381  14.174  0.1852 -0.0900  0.2367
  421TMC3    C3 6279   2.763   4.384  14.211  0.1048  0.0047  0.1114
  421TMC3    C4 6280   2.689   4.192  14.028 -0.3410 -0.3064 -0.5870
  421TMC3    C5 6281   2.820   4.200  14.065 -0.7283 -0.1533 -0.2368
  421TMC3    C6 6282   2.854   4.291  14.160 -0.8955 -0.0968  0.8088
  421TMC3     C 6283   2.457   4.281  14.033 -0.2314  0.2182  0.0058
  421TMC3     O 6284   2.401   4.388  14.046 -0.1941  0.2550  0.2363
  421TMC3     H 6285   2.560   4.443  14.229  0.2100  0.3802 -0.2609
  421TMC3    H1 6286   2.658   4.121  13.952 -1.4025 -0.5445  0.0697
  421TMC3    H2 6287   2.948   4.286  14.214  0.3765 -2.7429 -1.6835
  421TMC3    C7 6288   2.914   4.089  14.054  0.3400  0.2814 -0.4411
  421TMC3    C8 6289   2.811   4.511  14.271  0.0858  0.8161 -0.4490
  421TMC3    O1 6290   2.989   4.073  14.149 -0.2899  0.3480  0.0105
  421TMC3    O2 6291   2.723   4.579  14.329 -0.8294 -0.1512 -0.0472
  422TMC3    C1 6292   0.149   0.073  12.657  0.0612  0.1721 -0.7493
  422TMC3    C2 6293   0.131   0.207  12.674 -0.3254  0.4599  0.7011
  422TMC3    C3 6294   0.015   0.238  12.741 -0.2095 -0.2940  0.2208
  422TMC3    C4 6295   0.058   4.701  12.696 -0.2509 -0.7557  0.3547
  422TMC3    C5 6296   4.671   0.023  12.744 -0.3630  0.4681  0.5340
  422TMC3    C6 6297   4.646   0.156  12.780 -0.2403 -0.2078  0.3152
  422TMC3     C 6298   0.280   0.035  12.607  0.0327 -0.0705 -0.3622
  422TMC3     O 6299   0.332   0.121  12.537  0.0307  0.1642  0.6001
  422TMC3     H 6300   0.214   0.276  12.661  0.9261 -1.3259 -0.8113
  422TMC3    H1 6301   0.076   4.595  12.684  0.0964 -0.6700  0.1140
  422TMC3    H2 6302   4.547   0.196  12.803 -1.5360 -2.8512 -0.6348
  422TMC3    C7 6303   4.567   4.654  12.768  0.4831 -0.7075 -0.4807
  422TMC3    C8 6304   0.021   0.367  12.806  0.8664  1.0823  0.4231
  422TMC3    O1 6305   4.599   4.539  12.785 -0.3755  0.2052 -0.1722
  422TMC3    O2 6306   0.104   0.445  12.764  0.0111  0.5770 -0.0466
  423MPD2     C 6307   1.628   1.731   0.412 -0.1449  0.4861  0.4964
  423MPD2    C1 6308   1.592   1.614   0.472 -0.1712  0.1136  0.5370
  423MPD2    C2 6309   1.602   1.495   0.405  0.4133 -0.2851 -0.4438
  423MPD2    C3 6310   1.643   1.500   0.268  0.0715 -0.5973  0.5237
  423MPD2    C4 6311   1.680   1.617   0.203  0.0033 -0.0628  0.1557
  423MPD2    C5 6312   1.676   1.728   0.280  1.0862 -0.5629  0.3985
  423MPD2     H 6313   1.563   1.406   0.452  0.5190  1.5666  3.1413
  423MPD2    H1 6314   1.705   1.618   0.098  0.8307  0.4860  0.3608
  423MPD2    H2 6315   1.640   1.827   0.461  1.1317  0.7572 -0.3306
  423MPD2    H3 6316   1.695   1.826   0.238  0.7705 -0.1471  1.2304
  423MPD2     N 6317   1.649   1.384   0.187 -0.1444  0.6412 -0.4726
  423MPD2    H5 6318   1.679   1.401   0.092 -1.3770 -0.4202 -1.0442
  423MPD2    N1 6319   1.555   1.611   0.610  0.3596  0.3375 -0.3114
  423MPD2    H7 6320   1.569   1.524   0.660 -0.2741  0.1898 -0.3985
  424TMC3    C1 6321   1.463   1.702   0.814  0.8487  0.1114 -0.6038
  424TMC3    C2 6322   1.491   1.585   0.879 -0.7317  0.8864  0.1190
  424TMC3    C3 6323   1.419   1.550   0.985 -0.4565  0.0136 -0.3121
  424TMC3    C4 6324   1.359   1.781   0.858 -0.2067 -0.1058  0.0842
  424TMC3    C5 6325   1.291   1.744   0.978 -0.0658  0.5946 -0.2735
  424TMC3    C6 6326   1.321   1.621   1.042  0.2170 -0.7596  0.3582
  424TMC3     C 6327   1.517   1.731   0.680 -0.0749  0.0074 -0.3223
  424TMC3     O 6328   1.501   1.842   0.637  0.3947  0.0212 -0.9142
  424TMC3     H 6329   1.576   1.526   0.847 -1.9783 -0.8669  0.0584
  424TMC3    H1 6330   1.315   1.854   0.791  1.2711  1.2321  0.5716
  424TMC3    H2 6331   1.264   1.584   1.127  0.5158  1.2611  1.4267
  424TMC3    C7 6332   1.191   1.839   1.036 -0.5552  0.2051  0.9682
  424TMC3    C8 6333   1.465   1.446   1.075 -0.2652  0.0808 -0.2489
  424TMC3    O1 6334   1.172   1.949   0.985  0.3268  0.0681  0.0644
  424TMC3    O2 6335   1.377   1.381   1.134  0.6546 -0.0805 -0.3903
  425MPD2     C 6336   0.625   0.552   0.164  0.3231 -0.0437 -0.2649
  425MPD2    C1 6337   0.571   0.430   0.116  0.3275  0.1389 -0.2100
  425MPD2    C2 6338   0.436   0.430   0.082  0.3988  0.2805 -0.1805
  425MPD2    C3 6339   0.361   0.546   0.082 -0.3951  0.5575  0.4952
  425MPD2    C4 6340   0.416   0.666   0.129  0.2695  0.7041  0.7558
  425MPD2    C5 6341   0.549   0.663   0.176 -0.2843 -0.1822 -0.0997
  425MPD2     H 6342   0.388   0.338   0.051 -1.8367  1.9452 -1.7164
  425MPD2    H1 6343   0.348   0.750   0.136  0.9971  1.3914 -0.3769
  425MPD2    H2 6344   0.724   0.558   0.207 -0.2867  1.5824  0.8952
  425MPD2    H3 6345   0.591   0.756   0.213  0.0446 -0.2543 -0.2932
  425MPD2     N 6346   0.234   0.535   0.025  0.0008  0.3265  0.3792
  425MPD2    H5 6347   0.211   0.451  17.681  0.9215  0.2171  0.1422
  425MPD2    N1 6348   0.635   0.306   0.136  0.6112 -0.0164 -0.3038
  425MPD2    H7 6349   0.577   0.225   0.113  1.4155 -0.7690  0.3145
  426TMC3    C1 6350   0.799   0.153   0.160 -0.6804  0.6873  0.4014
  426TMC3    C2 6351   0.843   0.126   0.037 -0.1895  0.3273 -0.0247
  426TMC3    C3 6352   0.813   0.005  17.677  0.0696  0.0548  0.1874
  426TMC3    C4 6353   0.704   0.069   0.212  0.0120  0.1413  0.9297
  426TMC3    C5 6354   0.669   4.683   0.153 -0.8686  0.4106  0.3567
  426TMC3    C6 6355   0.723   4.646   0.026  0.3243  0.2169  0.4381
  426TMC3     C 6356   0.763   0.290   0.178  0.0031  0.1406 -0.0076
  426TMC3     O 6357   0.852   0.372   0.193  0.4658  0.2420  0.2810
  426TMC3     H 6358   0.915   0.196  17.705  0.6508 -1.2490 -1.2909
  426TMC3    H1 6359   0.654   0.091   0.306 -2.1147  0.6594 -0.3447
  426TMC3    H2 6360   0.677   4.561  17.685 -0.5181  0.1709  1.3053
  426TMC3    C7 6361   0.579   4.584   0.211 -0.1393  0.2465 -0.3597
  426TMC3    C8 6362   0.811   0.001  17.532  0.4940  0.1614  0.1609
  426TMC3    O1 6363   0.603   4.464   0.185  0.1294 -0.3249  0.4981
  426TMC3    O2 6364   0.765   4.621  17.489 -0.1554 -0.5471 -0.2050
  427MPD2     C 6365   3.735   2.520  14.799 -0.1904 -0.6233 -0.6701
  427MPD2    C1 6366   3.703   2.435  14.895  0.9318 -0.5800 -0.0656
  427MPD2    C2 6367   3.572   2.423  14.940  0.3905 -0.1781 -0.5397
  427MPD2    C3 6368   3.478   2.508  14.882  0.7656 -0.5509  0.4256
  427MPD2    C4 6369   3.509   2.593  14.771  0.3155 -0.0418 -0.1897
  427MPD2    C5 6370   3.637   2.592  14.737  0.3493  0.2120  0.5137
  427MPD2     H 6371   3.553   2.360  15.026 -1.2358  1.0554  0.0098
  427MPD2    H1 6372   3.447   2.673  14.733 -3.1302 -1.6542  1.9506
  427MPD2    H2 6373   3.831   2.534  14.752  2.0981 -0.6761  4.0073
  427MPD2    H3 6374   3.662   2.649  14.649  0.0989 -0.2223  0.1634
  427MPD2     N 6375   3.347   2.527  14.943 -0.4948 -0.6809 -0.7242
  427MPD2    H5 6376   3.284   2.598  14.905 -0.6900 -1.1507 -1.2797
  427MPD2    N1 6377   3.799   2.343  14.947 -0.0481  0.3946  0.7521
  427MPD2    H7 6378   3.774   2.293  15.031  0.2750 -1.6150 -0.3439
  428TMC3    C1 6379   4.001   2.221  14.946  0.3788  0.5217  0.5087
  428TMC3    C2 6380   3.944   2.095  14.935  0.0705 -0.5420 -0.1417
  428TMC3    C3 6381   4.019   1.995  14.982 -0.6999 -0.3186  0.0495
  428TMC3    C4 6382   4.126   2.235  15.000 -1.0098  0.7508  0.0801
  428TMC3    C5 6383   4.193   2.127  15.051  0.0411 -0.6984 -0.0447
  428TMC3    C6 6384   4.140   2.000  15.039 -0.1250 -0.3193  1.0802
  428TMC3     C 6385   3.927   2.335  14.897 -0.2500  0.1288 -0.3851
  428TMC3     O 6386   3.989   2.409  14.825 -0.0301 -0.0717  0.1210
  428TMC3     H 6387   3.852   2.092  14.878 -0.6190 -1.1927  0.9931
  428TMC3    H1 6388   4.151   2.337  15.023 -1.0518  1.6948 -4.1120
  428TMC3    H2 6389   4.200   1.917  15.073  3.0063  2.7259  2.9985
  428TMC3    C7 6390   4.242   2.139  15.189 -0.6363  0.6845 -0.4711
  428TMC3    C8 6391   3.951   1.870  14.994  0.1214  0.6084 -0.2140
  428TMC3    O1 6392   4.185   2.067  15.266 -0.4808 -0.2570  0.3289
  428TMC3    O2 6393   4.020   1.767  14.994  0.4489 -0.0141 -0.4161
  429MPD2     C 6394   0.145   2.472  17.408 -0.0771  0.2379  0.0001
  429MPD2    C1 6395   0.246   2.385  17.378 -0.6680 -0.7981 -0.1456
  429MPD2    C2 6396   0.337   2.412  17.283 -0.3753 -0.7624  0.6347
  429MPD2    C3 6397   0.330   2.528  17.207 -0.0559  0.2603 -0.0907
  429MPD2    C4 6398   0.234   2.618  17.243  0.9461  0.0432  0.6556
  429MPD2    C5 6399   0.141   2.587  17.340 -0.1472 -0.5322 -1.1852
  429MPD2     H 6400   0.420   2.347  17.259  0.9616  0.8551  0.8838
  429MPD2    H1 6401   0.237   2.715  17.194  1.2345 -0.2560  0.0900
  429MPD2    H2 6402   0.078   2.459  17.492  1.9916  0.0598  1.6078
  429MPD2    H3 6403   0.067   2.660  17.372  0.7683 -0.5223  0.9429
  429MPD2     N 6404   0.418   2.547  17.093 -0.1202  0.2188 -0.3541
  429MPD2    H5 6405   0.487   2.473  17.080  2.2152  2.3892 -0.1576
  429MPD2    N1 6406   0.268   2.267  17.453 -0.1597  0.0592  0.3217
  429MPD2    H7 6407   0.354   2.215  17.442 -0.5542 -0.6417  0.5142
  430TMC3    C1 6408   0.498   2.616  16.888 -0.4125  0.3517  0.4257
  430TMC3    C2 6409   0.451   2.649  16.768 -0.2564  0.4926 -0.3462
  430TMC3    C3 6410   0.547   2.648  16.671  0.7015 -0.3691  0.0711
  430TMC3    C4 6411   0.626   2.580  16.919  0.2855  0.1877  0.3827
  430TMC3    C5 6412   0.713   2.576  16.811  0.2983 -0.0247 -0.9115
  430TMC3    C6 6413   0.676   2.613  16.687 -0.4711 -0.3339  0.8806
  430TMC3     C 6414   0.392   2.628  16.988 -0.5847  0.4483  0.5152
  430TMC3     O 6415   0.290   2.691  16.967  0.1849 -0.3312  0.0384
  430TMC3     H 6416   0.348   2.665  16.736  0.6927  1.0505 -3.0887
  430TMC3    H1 6417   0.665   2.527  17.005  1.2287 -0.4718 -0.4481
  430TMC3    H2 6418   0.743   2.598  16.602  1.1252  0.2200  2.0362
  430TMC3    C7 6419   0.815   2.469  16.804 -0.3922  0.3187 -0.6960
  430TMC3    C8 6420   0.496   2.609  16.544  0.1125 -0.5221 -0.3308
  430TMC3    O1 6421   0.828   2.409  16.696  0.0552  0.0767  0.3121
  430TMC3    O2 6422   0.407   2.526  16.542 -0.2286 -0.4873  0.3453
  431MPD2     C 6423   1.664   2.409  12.850 -0.0716  0.2621  0.0064
  431MPD2    C1 6424   1.686   2.480  12.734  0.7371  0.5543  0.0851
  431MPD2    C2 6425   1.651   2.420  12.610 -0.1953 -0.1399 -0.3058
  431MPD2    C3 6426   1.607   2.288  12.608 -0.0600 -0.0295 -0.4110
  431MPD2    C4 6427   1.621   2.208  12.721  1.1176 -0.0931  0.7497
  431MPD2    C5 6428   1.640   2.275  12.840 -0.4276  0.4897 -0.2289
  431MPD2     H 6429   1.652   2.484  12.522 -1.4654  0.0221 -0.2070
  431MPD2    H1 6430   1.606   2.100  12.722 -0.2168  0.0701 -0.8251
  431MPD2    H2 6431   1.687   2.442  12.950 -1.6441  1.2456  0.0457
  431MPD2    H3 6432   1.633   2.225  12.935 -0.0170  0.0603 -0.4251
  431MPD2     N 6433   1.570   2.226  12.490 -0.2217 -0.0004 -0.1000
  431MPD2    H5 6434   1.543   2.129  12.496  1.5045 -0.4764  0.0592
  431MPD2    N1 6435   1.716   2.619  12.738  0.9371  0.1784  0.4278
  431MPD2    H7 6436   1.719   2.647  12.641  0.4407  0.1948  0.4166
  432TMC3    C1 6437   1.504   2.192  12.262  0.5200 -0.4685 -0.6189
  432TMC3    C2 6438   1.471   2.242  12.141 -0.0358  0.7814 -1.1452
  432TMC3    C3 6439   1.366   2.181  12.081  0.1381 -0.1145  0.0366
  432TMC3    C4 6440   1.448   2.075  12.309 -0.1610 -0.0140  0.4742
  432TMC3    C5 6441   1.333   2.023  12.252 -0.7930  0.1515 -0.4803
  432TMC3    C6 6442   1.288   2.082  12.138 -0.0487  0.8826 -0.1878
  432TMC3     C 6443   1.578   2.275  12.360  0.6024 -0.4639  0.3588
  432TMC3     O 6444   1.608   2.387  12.318 -0.3182  0.1063  0.2126
  432TMC3     H 6445   1.511   2.339  12.114  1.0506 -0.0342 -2.4254
  432TMC3    H1 6446   1.491   2.026  12.395  2.4515 -0.1216 -0.8991
  432TMC3    H2 6447   1.201   2.055  12.080  0.7061 -1.7936 -0.0736
  432TMC3    C7 6448   1.302   1.880  12.271  0.0155 -0.2534  0.8444
  432TMC3    C8 6449   1.371   2.173  11.937 -0.5153  0.1184 -1.0682
  432TMC3    O1 6450   1.251   1.834  12.167 -0.1297 -0.5220 -0.3366
  432TMC3    O2 6451   1.278   2.114  11.881  0.4046  0.4452  0.1128
  433MPD2     C 6452   4.512   0.841  10.931  0.0253 -0.4269  0.2531
  433MPD2    C1 6453   4.628   0.886  10.997 -0.3831  0.1436 -0.3311
  433MPD2    C2 6454   4.637   0.871  11.135 -0.1637  0.8831 -0.4705
  433MPD2    C3 6455   4.544   0.806  11.206 -0.1083 -0.3879 -0.8854
  433MPD2    C4 6456   4.435   0.754  11.142  0.3531 -0.1607 -0.1414
  433MPD2    C5 6457   4.424   0.772  11.004  0.0323 -0.1183 -0.3018
  433MPD2     H 6458   4.725   0.909  11.186 -1.4013  0.1456  2.2218
  433MPD2    H1 6459   4.363   0.687  11.188  0.6459 -0.6451 -0.3835
  433MPD2    H2 6460   4.497   0.863  10.826  3.2892  2.4876  0.4063
  433MPD2    H3 6461   4.333   0.739  10.956  0.7486  1.1841 -2.5507
  433MPD2     N 6462   4.574   0.783  11.342 -0.1194  0.1851 -0.3292
  433MPD2    H5 6463   4.662   0.824  11.374  0.6195 -1.8604  0.2746
  433MPD2    N1 6464   0.005   0.936  10.918 -0.5677  0.2094 -0.4330
  433MPD2    H7 6465   4.716   0.933  10.818 -2.1089 -3.4327 -0.1027
  434TMC3    C1 6466   0.220   0.964  10.856 -0.0308  0.1010  0.4454
  434TMC3    C2 6467   0.353   0.969  10.896  0.1924 -0.0546  0.2366
  434TMC3    C3 6468   0.431   0.880  10.841 -0.4904  0.6090 -0.3484
  434TMC3    C4 6469   0.186   0.891  10.742  1.0015  0.3029 -0.2263
  434TMC3    C5 6470   0.272   0.804  10.692 -0.9789  0.0880  0.3037
  434TMC3    C6 6471   0.398   0.792  10.746 -0.0757  0.3626  0.2179
  434TMC3     C 6472   0.126   0.985  10.959 -0.3356 -0.5674  0.4486
  434TMC3     O 6473   0.164   1.015  11.071 -0.2692 -0.1861  0.1737
  434TMC3     H 6474   0.377   1.006  10.995 -2.0420 -0.4071  0.9148
  434TMC3    H1 6475   0.087   0.887  10.698  0.3451  0.6924  1.2109
  434TMC3    H2 6476   0.467   0.713  10.719 -0.6687 -0.3251  0.7016
  434TMC3    C7 6477   0.218   0.711  10.596  0.5208  0.1855  0.2024
  434TMC3    C8 6478   0.543   0.844  10.919 -0.9099  0.7621  0.7700
  434TMC3    O1 6479   0.125   0.747  10.524 -0.5457 -0.2070 -0.2010
  434TMC3    O2 6480   0.557   0.727  10.954 -0.7246 -0.4336  0.1815
  435MPD2     C 6481   1.882   1.282  15.409 -0.4856 -0.4054 -0.5877
  435MPD2    C1 6482   1.842   1.227  15.529  0.6138 -0.3058  0.1604
  435MPD2    C2 6483   1.937   1.165  15.612  0.0320  0.6385 -0.1581
  435MPD2    C3 6484   2.069   1.157  15.575  0.2513  0.2330  0.1091
  435MPD2    C4 6485   2.112   1.216  15.456  0.5807  0.1631 -0.1271
  435MPD2    C5 6486   2.016   1.269  15.378 -0.7371  0.0322 -0.6278
  435MPD2     H 6487   1.905   1.101  15.693 -2.0157 -0.7732 -2.0808
  435MPD2    H1 6488   2.215   1.203  15.425  1.0583 -1.5435  2.2003
  435MPD2    H2 6489   1.809   1.323  15.340  1.5328 -0.1887 -2.6419
  435MPD2    H3 6490   2.046   1.286  15.276  0.1214 -0.5452 -0.4701
  435MPD2     N 6491   2.155   1.085  15.666  0.1527  0.2014 -0.2108
  435MPD2    H5 6492   2.119   1.070  15.760  2.1108  2.7069  0.9519
  435MPD2    N1 6493   1.708   1.224  15.581 -0.5656  0.5685  0.4813
  435MPD2    H7 6494   1.685   1.186  15.672 -1.3128  3.6448  1.5980
  436TMC3    C1 6495   1.389   1.098  15.757  0.2973 -0.2973  0.1842
  436TMC3    C2 6496   1.451   1.201  15.696 -0.3414  0.1469  0.7346
  436TMC3    C3 6497   1.483   1.175  15.561 -0.6424  0.9500 -0.7342
  436TMC3    C4 6498   1.375   0.972  15.696  0.3585 -0.8263 -0.8302
  436TMC3    C5 6499   1.402   0.952  15.564 -0.8089  0.4643 -0.0589
  436TMC3    C6 6500   1.463   1.055  15.497  0.5307 -0.1704 -0.1565
  436TMC3     C 6501   1.368   1.108  15.900  0.6386 -0.0476  0.0461
  436TMC3     O 6502   1.379   1.010  15.969 -0.1081 -0.0643 -0.5373
  436TMC3     H 6503   1.462   1.295  15.749 -1.2395  0.4762  0.3444
  436TMC3    H1 6504   1.344   0.894  15.764  1.3945  0.8109  1.5107
  436TMC3    H2 6505   1.512   1.025  15.405 -1.4040  1.3700 -1.6912
  436TMC3    C7 6506   1.433   0.816  15.529  0.2287  0.5661  0.2279
  436TMC3    C8 6507   1.593   1.257  15.512 -0.4917  0.0898  0.6322
  436TMC3    O1 6508   1.443   0.738  15.622  0.0751 -0.1945 -0.2012
  436TMC3    O2 6509   1.577   1.299  15.400 -0.8436 -0.6953  0.0144
  437TMC3    C1 6510   0.749   2.816  12.681 -0.0289  0.2193  0.0231
  437TMC3    C2 6511   0.624   2.774  12.701 -0.7675  0.3473 -0.7937
  437TMC3    C3 6512   0.528   2.854  12.646 -0.4263 -0.1893 -0.5658
  437TMC3    C4 6513   0.782   2.924  12.610 -0.3396  0.2396 -0.1548
  437TMC3    C5 6514   0.682   3.007  12.561  0.1955  0.1884 -0.0647
  437TMC3    C6 6515   0.550   2.976  12.583  0.0004 -0.0512 -0.2075
  437TMC3     C 6516   0.822   2.776  12.798 -0.5108  0.7032  0.8343
  437TMC3     O 6517   0.764   2.779  12.906  0.2239  0.3334  0.3922
  437TMC3     H 6518   0.601   2.687  12.761  0.3036 -0.2160 -1.2146
  437TMC3    H1 6519   0.887   2.948  12.595  0.1287 -1.2063  0.8260
  437TMC3    H2 6520   0.469   3.033  12.540  2.0270  1.1601 -2.3812
  437TMC3    C7 6521   0.715   3.136  12.511 -1.3407 -0.3375  0.5200
  437TMC3    C8 6522   0.389   2.823  12.680  0.4340  0.4654  0.3194
  437TMC3    O1 6523   0.624   3.200  12.462  0.0288 -0.6556 -0.4059
  437TMC3    O2 6524   0.360   2.702  12.682  0.1685  0.2327 -0.0935
  438MPD2     C 6525   3.628   3.895  16.727 -0.0832  0.8197 -0.2117
  438MPD2    C1 6526   3.540   3.785  16.725  0.1342 -0.7446 -0.3384
  438MPD2    C2 6527   3.406   3.809  16.748  0.0812 -0.0800 -0.2608
  438MPD2    C3 6528   3.363   3.941  16.770  0.1573 -0.3656  0.9609
  438MPD2    C4 6529   3.453   4.047  16.766  0.6598 -0.1369 -0.0719
  438MPD2    C5 6530   3.584   4.018  16.755  0.3759 -0.2534 -0.0958
  438MPD2     H 6531   3.342   3.721  16.747 -1.9737  1.4155  0.6372
  438MPD2    H1 6532   3.426   4.149  16.790  2.6770  0.1033  1.1526
  438MPD2    H2 6533   3.736   3.885  16.721 -0.1371  0.8576 -1.1896
  438MPD2    H3 6534   3.665   4.089  16.762  0.7511 -0.4910 -2.1883
  438MPD2     N 6535   3.224   3.976  16.797 -0.7534 -0.0844  0.0416
  438MPD2    H5 6536   3.188   4.069  16.808 -0.2206  0.0390  0.7442
  438MPD2    N1 6537   3.584   3.653  16.710 -0.5059 -0.1231 -0.0970
  438MPD2    H7 6538   3.504   3.590  16.705 -1.4490  0.9249  1.7675
  439TMC3    C1 6539   3.729   3.462  16.697 -0.0699  0.4848 -0.5526
  439TMC3    C2 6540   3.646   3.392  16.621  0.2844  0.0401 -0.5773
  439TMC3    C3 6541   3.666   3.251  16.622  0.3452 -0.0233  0.5492
  439TMC3    C4 6542   3.800   3.406  16.797 -0.2309 -0.0148  0.0867
  439TMC3    C5 6543   3.814   3.271  16.805 -0.7895  0.6751  1.5659
  439TMC3    C6 6544   3.747   3.190  16.719  0.4290  0.3706  0.8755
  439TMC3     C 6545   3.713   3.605  16.703 -0.4316 -0.0512 -0.4156
  439TMC3     O 6546   3.810   3.675  16.728 -0.0807  0.0974 -0.2680
  439TMC3     H 6547   3.589   3.439  16.542  0.5849  1.0902 -0.1591
  439TMC3    H1 6548   3.872   3.471  16.847 -1.7910  0.1449  2.1323
  439TMC3    H2 6549   3.781   3.088  16.707 -1.5074 -0.0777 -1.0112
  439TMC3    C7 6550   3.906   3.218  16.904 -0.5366  0.4519 -0.6472
  439TMC3    C8 6551   3.664   3.182  16.497 -0.4254 -0.3777 -0.2402
  439TMC3    O1 6552   3.981   3.287  16.961  0.1388  0.0865 -0.1143
  439TMC3    O2 6553   3.724   3.073  16.486  0.8804 -0.0286 -0.1641
  440MPD2     C 6554   1.942   4.291  14.720 -0.1268 -0.3207  0.0864
  440MPD2    C1 6555   1.828   4.231  14.764 -0.7568  0.2425 -0.1814
  440MPD2    C2 6556   1.834   4.116  14.843 -0.3089  0.4804  0.3469
  440MPD2    C3 6557   1.956   4.056  14.868 -0.2655  0.0657 -0.3009
  440MPD2    C4 6558   2.067   4.112  14.812 -0.0018 -0.3159  0.1815
  440MPD2    C5 6559   2.061   4.233  14.752  0.0737  0.1034 -0.0391
  440MPD2     H 6560   1.738   4.072  14.865  0.8407 -2.3074 -0.2145
  440MPD2    H1 6561   2.166   4.078  14.842  0.2247  1.0540  1.0365
  440MPD2    H2 6562   1.941   4.383  14.663 -3.4557  0.7416  1.8716
  440MPD2    H3 6563   2.152   4.280  14.715  0.6256 -0.2737  0.8166
  440MPD2     N 6564   1.969   3.940  14.946 -0.7298  0.0423  0.6020
  440MPD2    H5 6565   2.059   3.904  14.974  0.0960 -0.3939 -2.5790
  440MPD2    N1 6566   1.700   4.283  14.756  0.0172 -0.0298  0.7316
  440MPD2    H7 6567   1.622   4.225  14.783 -0.8451  1.1962  0.8791
  441TMC3    C1 6568   1.894   3.738  15.042  0.1551  0.3267  0.5940
  441TMC3    C2 6569   2.022   3.684  15.031  0.1051  0.0857  0.2434
  441TMC3    C3 6570   2.081   3.624  15.137 -0.3320  0.4797 -0.5996
  441TMC3    C4 6571   1.814   3.702  15.146 -0.2756  0.0812 -0.0408
  441TMC3    C5 6572   1.866   3.606  15.231  0.0513  0.1002 -0.6796
  441TMC3    C6 6573   1.999   3.566  15.234 -1.2316 -0.5932 -0.5392
  441TMC3     C 6574   1.861   3.868  14.989 -0.0681 -0.6255  0.0761
  441TMC3     O 6575   1.741   3.897  14.984  0.1500  1.0879 -0.1750
  441TMC3     H 6576   2.082   3.723  14.949 -0.6464 -0.4620 -0.5679
  441TMC3    H1 6577   1.714   3.744  15.155 -0.3975 -0.0551 -0.6967
  441TMC3    H2 6578   2.050   3.504  15.307  0.8149  2.3532  0.5301
  441TMC3    C7 6579   1.800   3.589  15.355 -0.5438 -0.8084  0.4601
  441TMC3    C8 6580   2.174   3.724  15.187  0.6664 -0.4897 -0.0375
  441TMC3    O1 6581   1.728   3.683  15.389  0.5472  0.0922 -0.6994
  441TMC3    O2 6582   2.199   3.822  15.114  0.5089 -0.0259 -0.5092
  442MPD2     C 6583   0.277   0.192  17.014 -0.2060  0.5466  0.6368
  442MPD2    C1 6584   0.172   0.123  17.076 -0.4932  0.1212  1.2274
  442MPD2    C2 6585   0.170   4.716  17.077  0.0745 -0.0121 -1.0154
  442MPD2    C3 6586   0.257   4.646  16.991  0.4670 -0.6645  0.0218
  442MPD2    C4 6587   0.354   4.714  16.915  0.2661  0.0845 -0.2747
  442MPD2    C5 6588   0.358   0.123  16.929 -0.4956 -0.3263  0.0810
  442MPD2     H 6589   0.095   4.664  17.136 -0.7537  1.1711 -1.0328
  442MPD2    H1 6590   0.426   4.663  16.852  0.8795  1.0066 -0.3271
  442MPD2    H2 6591   0.287   0.299  17.021 -2.1673  0.6969  1.0708
  442MPD2    H3 6592   0.419   0.185  16.864  0.1964 -0.6108  0.4573
  442MPD2     N 6593   0.254   4.506  16.968  0.5076  0.2561  0.0661
  442MPD2    H5 6594   0.309   4.471  16.890 -1.4294  0.1272 -1.2172
  442MPD2    N1 6595   0.071   0.203  17.140  0.4445  0.7734 -0.5544
  442MPD2    H7 6596   4.723   0.154  17.189  0.8901 -0.2911 -0.9485
  443TMC3    C1 6597   4.653   0.374  17.185 -0.5303  0.4228 -0.1895
  443TMC3    C2 6598   4.577   0.441  17.091  0.1793 -0.7293  0.0905
  443TMC3    C3 6599   4.445   0.424  17.087 -0.4701  0.9094  0.0709
  443TMC3    C4 6600   4.590   0.291  17.271 -0.0363  0.0557 -0.8076
  443TMC3    C5 6601   4.453   0.274  17.257 -0.5408 -0.0796 -0.0021
  443TMC3    C6 6602   4.381   0.335  17.168 -0.2785  0.1702  0.7208
  443TMC3     C 6603   0.053   0.337  17.135  0.9136  0.0438 -0.3619
  443TMC3     O 6604   0.110   0.414  17.059 -0.3818  0.2629 -0.0531
  443TMC3     H 6605   4.635   0.499  17.019 -1.6405 -1.2101 -1.7422
  443TMC3    H1 6606   4.648   0.228  17.337 -2.1164  0.4660  1.3948
  443TMC3    H2 6607   4.278   0.307  17.149  0.2590 -0.3502 -1.4504
  443TMC3    C7 6608   4.395   0.165  17.321  0.2872 -0.6530  0.4868
  443TMC3    C8 6609   4.396   0.395  16.956 -0.4711  0.3259  0.2637
  443TMC3    O1 6610   4.461   0.063  17.342 -0.3922 -0.5679  0.1459
  443TMC3    O2 6611   4.357   0.284  16.929 -0.4675  0.6744 -0.4849
  444MPD2     C 6612   0.459   4.286  17.335 -0.4182  0.2413  0.0748
  444MPD2    C1 6613   0.385   4.172  17.307  0.0400 -0.4033 -0.6594
  444MPD2    C2 6614   0.456   4.074  17.237  0.1089 -0.7790 -0.2413
  444MPD2    C3 6615   0.586   4.083  17.192 -0.2822 -0.7002  0.1184
  444MPD2    C4 6616   0.649   4.206  17.214 -0.2658  0.1359  0.9719
  444MPD2    C5 6617   0.586   4.298  17.293  0.2965 -0.6994  0.7388
  444MPD2     H 6618   0.396   3.985  17.220 -0.3271 -0.6652  0.6981
  444MPD2    H1 6619   0.750   4.232  17.184  0.0181 -1.0918  0.8872
  444MPD2    H2 6620   0.422   4.367  17.397 -0.6878  0.5273 -0.4597
  444MPD2    H3 6621   0.646   4.388  17.307  0.4293 -0.9738  1.9136
  444MPD2     N 6622   0.648   3.969  17.135 -0.5062 -0.2100 -0.3688
  444MPD2    H5 6623   0.588   3.902  17.088  0.0887 -0.3122 -0.9772
  444MPD2    N1 6624   0.247   4.153  17.341 -0.1044 -0.3914  0.3970
  444MPD2    H7 6625   0.191   4.072  17.319  1.5060 -0.3792 -3.8229
  445TMC3    C1 6626   0.818   3.833  17.040  0.1286 -0.5659 -0.6371
  445TMC3    C2 6627   0.726   3.730  17.015  0.0283 -0.1997  0.4196
  445TMC3    C3 6628   0.754   3.619  16.949 -0.6608 -1.2504  0.1963
  445TMC3    C4 6629   0.941   3.822  16.985  0.4994 -0.3419 -0.1055
  445TMC3    C5 6630   0.972   3.698  16.926  0.3711  0.6539 -0.2143
  445TMC3    C6 6631   0.880   3.596  16.913 -0.8084  0.1984  0.2185
  445TMC3     C 6632   0.780   3.955  17.116 -0.2700 -0.2304  0.5791
  445TMC3     O 6633   0.869   4.026  17.159 -0.6701 -0.6133  0.0969
  445TMC3     H 6634   0.621   3.747  17.038 -0.3826 -2.0050 -0.0962
  445TMC3    H1 6635   1.006   3.909  16.983  0.3368 -0.2118  0.2044
  445TMC3    H2 6636   0.899   3.504  16.859 -0.9212  0.2686  0.0604
  445TMC3    C7 6637   1.105   3.669  16.870 -0.4700 -0.3001 -0.7700
  445TMC3    C8 6638   0.655   3.524  16.897  0.1205  0.6279 -0.2143
  445TMC3    O1 6639   1.172   3.761  16.827 -0.2654 -0.5964  0.4436
  445TMC3    O2 6640   0.699   3.433  16.833  0.3650 -0.0370  0.1843
  446MPD2     C 6641   0.115   0.471  11.292  0.2015  0.5966  1.2608
  446MPD2    C1 6642   0.108   0.555  11.184  0.0240 -0.3357  0.7872
  446MPD2    C2 6643   0.160   0.682  11.191 -0.5457 -0.5142 -0.0514
  446MPD2    C3 6644   0.244   0.721  11.293 -0.5580 -0.3320  0.5046
  446MPD2    C4 6645   0.260   0.632  11.387 -0.6492 -0.5874  1.3403
  446MPD2    C5 6646   0.185   0.514  11.398 -0.2436  0.7323  0.3921
  446MPD2     H 6647   0.146   0.749  11.107 -1.0780 -0.0594  0.4013
  446MPD2    H1 6648   0.320   0.645  11.476  4.2576 -2.1024 -1.7374
  446MPD2    H2 6649   0.072   0.372  11.294  0.7383  0.3564  0.7824
  446MPD2    H3 6650   0.184   0.452  11.487  0.4155  1.3877  0.8590
  446MPD2     N 6651   0.317   0.846  11.291  0.1768  0.0790 -0.1652
  446MPD2    H5 6652   0.304   0.912  11.215  0.4937  1.3463  0.8780
  446MPD2    N1 6653   0.048   0.500  11.069  0.5141  0.3297  0.1680
  446MPD2    H7 6654   4.718   0.417  11.080 -0.4913  0.7614 -1.7297
  447TMC3    C1 6655   0.468   1.012  11.370 -0.0108 -0.3934  0.7041
  447TMC3    C2 6656   0.432   1.105  11.276 -0.1724  0.4221 -0.1496
  447TMC3    C3 6657   0.518   1.213  11.257 -0.2463 -0.5904 -0.4853
  447TMC3    C4 6658   0.575   1.032  11.453 -0.9325  0.5464 -0.8081
  447TMC3    C5 6659   0.661   1.137  11.424 -0.0082  0.8674 -0.2007
  447TMC3    C6 6660   0.632   1.225  11.324  0.0301  0.3187 -0.5475
  447TMC3     C 6661   0.410   0.879  11.384  0.0952  0.4850 -0.4736
  447TMC3     O 6662   0.460   0.804  11.468  0.4259  0.8979 -0.1656
  447TMC3     H 6663   0.334   1.106  11.231 -0.7851  0.1814  1.1781
  447TMC3    H1 6664   0.600   0.960  11.530  0.6901  2.8385  0.8096
  447TMC3    H2 6665   0.690   1.314  11.303  0.5522 -0.0025 -0.4684
  447TMC3    C7 6666   0.775   1.161  11.513 -0.2512 -0.2293  0.0286
  447TMC3    C8 6667   0.503   1.285  11.125 -0.2480 -0.2738  0.2436
  447TMC3    O1 6668   0.875   1.218  11.471  0.2365  0.2726 -0.0837
  447TMC3    O2 6669   0.415   1.245  11.048  0.8859 -0.2879 -0.0295
  448TMC3    C1 6670   4.152   0.333  16.334  0.2644  0.5099 -0.1320
  448TMC3    C2 6671   4.070   0.228  16.303  0.2130 -0.6323 -0.1832
  448TMC3    C3 6672   3.961   0.215  16.383 -0.4962  0.1806  0.4285
  448TMC3    C4 6673   4.131   0.411  16.444  0.2717  0.0850  0.0603
  448TMC3    C5 6674   4.025   0.387  16.525  0.0130 -0.7592  0.7484
  448TMC3    C6 6675   3.933   0.291  16.490 -0.5036 -0.2794 -0.0059
  448TMC3     C 6676   4.262   0.375  16.246 -0.1247 -0.5300 -0.1978
  448TMC3     O 6677   4.286   0.495  16.235  0.4118  0.3897 -0.3673
  448TMC3     H 6678   4.086   0.162  16.219  2.7865  0.8620 -0.8953
  448TMC3    H1 6679   4.196   0.495  16.464 -0.1202  0.4734 -0.2703
  448TMC3    H2 6680   3.851   0.267  16.556  0.5333 -1.2919  0.9310
  448TMC3    C7 6681   4.033   0.451  16.658  0.3067 -0.0667 -0.0703
  448TMC3    C8 6682   3.889   0.094  16.371 -0.5965 -0.0469  0.2304
  448TMC3    O1 6683   4.115   0.538  16.673  0.0165 -0.5352  0.4682
  448TMC3    O2 6684   3.838   0.039  16.468  0.1000  0.2325 -0.1216
  449MPD2     C 6685   4.677   3.661  13.584  0.6837  0.1099 -0.0671
  449MPD2    C1 6686   4.633   3.530  13.596  0.5089 -0.0475 -1.0118
  449MPD2    C2 6687   4.588   3.481  13.714  0.3864 -1.1718 -0.5021
  449MPD2    C3 6688   4.579   3.569  13.825  0.1610  0.2742  0.2580
  449MPD2    C4 6689   4.625   3.698  13.810  0.0221 -0.1788 -0.3272
  449MPD2    C5 6690   4.670   3.746  13.692 -0.2964 -0.0380 -0.5161
  449MPD2     H 6691   4.542   3.384  13.726 -1.2866 -0.3404 -0.2883
  449MPD2    H1 6692   4.632   3.764  13.896 -0.9612 -1.3858  0.6809
  449MPD2    H2 6693   4.718   3.693  13.489 -0.6212 -1.4750 -1.1685
  449MPD2    H3 6694   4.701   3.849  13.685  0.3611 -0.4273 -3.6174
  449MPD2     N 6695   4.521   3.523  13.944  0.1627 -0.0651  0.6340
  449MPD2    H5 6696   4.493   3.425  13.943  0.1134 -0.0372 -0.5252
  449MPD2    N1 6697   4.619   3.440  13.486  0.0813 -0.3726  0.0514
  449MPD2    H7 6698   4.573   3.353  13.510  0.2347  0.2657  2.5944
  450TMC3    C1 6699   4.560   3.366  13.280  0.1615  0.4879  0.1793
  450TMC3    C2 6700   4.634   3.274  13.214 -0.6001  0.0486 -0.0256
  450TMC3    C3 6701   4.592   3.142  13.225 -0.0120  0.4082  0.5549
  450TMC3    C4 6702   4.458   3.327  13.355 -0.7885  0.2377  0.0219
  450TMC3    C5 6703   4.408   3.203  13.352  0.2840  0.2533  0.4936
  450TMC3    C6 6704   4.483   3.102  13.296 -0.3045 -0.0976 -0.1707
  450TMC3     C 6705   4.637   3.464  13.347 -0.1054  0.1166  0.0592
  450TMC3     O 6706   4.690   3.558  13.292 -0.0430  0.1497  0.3783
  450TMC3     H 6707   4.717   3.296  13.149  0.2774 -0.6588  0.8531
  450TMC3    H1 6708   4.394   3.397  13.407  1.3836  2.1525  0.1425
  450TMC3    H2 6709   4.460   3.000  13.327  0.3254  0.0596  0.8131
  450TMC3    C7 6710   4.376   3.165  13.487  0.0823  0.2238 -0.0826
  450TMC3    C8 6711   4.678   3.031  13.176  0.0868 -0.3069 -0.4483
  450TMC3    O1 6712   4.442   3.238  13.556 -0.1981  0.3143  0.5244
  450TMC3    O2 6713   4.632   2.920  13.200  0.8148  0.2268  0.3499
  451MPD2     C 6714   0.842   2.161   1.728  0.2108  0.2870  0.2070
  451MPD2    C1 6715   0.880   2.224   1.616  0.1964  0.6987 -0.9780
  451MPD2    C2 6716   1.004   2.198   1.565  0.2397 -0.3105 -0.7151
  451MPD2    C3 6717   1.095   2.119   1.640 -0.6458 -0.3315  0.1164
  451MPD2    C4 6718   1.052   2.056   1.758 -0.6335  0.6585  0.7635
  451MPD2    C5 6719   0.922   2.078   1.801 -0.7019  0.2374  0.1483
  451MPD2     H 6720   1.030   2.248   1.472  1.6446 -1.0948 -0.7371
  451MPD2    H1 6721   1.119   1.993   1.816 -0.2301 -0.9518 -1.4472
  451MPD2    H2 6722   0.745   2.184   1.771  0.3802 -0.4851  1.0046
  451MPD2    H3 6723   0.882   2.027   1.888  0.6013  0.1122  0.6658
  451MPD2     N 6724   1.232   2.103   1.599  0.1944 -0.1768  0.1007
  451MPD2    H5 6725   1.296   2.066   1.669 -1.0037 -0.4478  1.0646
  451MPD2    N1 6726   0.790   2.325   1.566 -0.2921 -0.7128  0.2828
  451MPD2    H7 6727   0.700   2.324   1.613 -0.8486 -0.5773 -0.7796
  452TMC3    C1 6728   1.414   2.091   1.454  0.0127  0.2119 -0.1854
  452TMC3    C2 6729   1.433   1.960   1.499 -0.6405 -0.2113  0.6162
  452TMC3    C3 6730   1.564   1.915   1.502  0.8023  0.3307 -0.4837
  452TMC3    C4 6731   1.510   2.169   1.402  0.2082  0.2868  0.1689
  452TMC3    C5 6732   1.633   2.109   1.389 -0.3349  0.5674  0.2390
  452TMC3    C6 6733   1.666   1.987   1.447  0.0008 -0.0537  0.4342
  452TMC3     C 6734   1.287   2.149   1.480  0.0460 -0.5309  0.9490
  452TMC3     O 6735   1.243   2.212   1.386 -0.7038  0.1729  0.3760
  452TMC3     H 6736   1.346   1.903   1.527 -0.8182 -0.1199  0.2531
  452TMC3    H1 6737   1.487   2.268   1.364 -1.3216  0.6318  1.9788
  452TMC3    H2 6738   1.766   1.947   1.434 -0.1217  0.1636 -1.1867
  452TMC3    C7 6739   1.727   2.161   1.291 -0.1512 -0.1727 -0.3398
  452TMC3    C8 6740   1.591   1.822   1.612 -0.2281  0.7098  0.1103
  452TMC3    O1 6741   1.836   2.104   1.273  0.7444  0.2811 -0.0904
  452TMC3    O2 6742   1.504   1.735   1.639 -0.0335 -0.3307 -0.5065
  453TMC3    C1 6743   2.361   4.205  11.852 -0.3184  0.2521  0.7502
  453TMC3    C2 6744   2.261   4.139  11.914 -1.4270  0.4770 -0.0294
  453TMC3    C3 6745   2.208   4.028  11.873 -0.0500  0.6941  0.1078
  453TMC3    C4 6746   2.425   4.135  11.747  0.1304 -0.0122  0.3630
  453TMC3    C5 6747   2.370   4.014  11.704  0.0842  0.4571  0.2378
  453TMC3    C6 6748   2.265   3.956  11.772  0.0360  0.3000 -0.2698
  453TMC3     C 6749   2.448   4.281  11.938 -0.1941  0.3406  0.2230
  453TMC3     O 6750   2.517   4.373  11.896  0.8142 -0.4352  0.1630
  453TMC3     H 6751   2.209   4.188  11.996 -1.7313  0.9803 -0.5179
  453TMC3    H1 6752   2.505   4.192  11.700 -0.7082 -0.4555 -1.6066
  453TMC3    H2 6753   2.218   3.870  11.726 -0.0023  0.2634 -0.1634
  453TMC3    C7 6754   2.417   3.963  11.574 -0.5802  0.8062  0.5323
  453TMC3    C8 6755   2.084   3.987  11.951  0.0999  0.1697 -0.4256
  453TMC3    O1 6756   2.356   3.890  11.499 -0.7910  0.3970 -0.5900
  453TMC3    O2 6757   2.011   4.077  11.986  0.3721 -0.2377 -0.1832
  454MPD2     C 6758   1.190   4.218  16.504 -0.1918  0.5478  0.4925
  454MPD2    C1 6759   1.070   4.233  16.427  0.2853  0.1029  0.6160
  454MPD2    C2 6760   0.985   4.332  16.451 -0.1015 -0.0572  0.1808
  454MPD2    C3 6761   1.008   4.412  16.563  0.0701 -0.9114 -0.2123
  454MPD2    C4 6762   1.120   4.394  16.641  0.0153 -0.2251  0.2249
  454MPD2    C5 6763   1.211   4.291  16.614 -0.4684 -0.9820 -0.2357
  454MPD2     H 6764   0.890   4.352  16.402  0.1787  0.0630 -0.3121
  454MPD2    H1 6765   1.138   4.443  16.736 -1.5408 -1.1613  1.0173
  454MPD2    H2 6766   1.258   4.135  16.490 -0.6588  0.2687 -0.0937
  454MPD2    H3 6767   1.293   4.272  16.683 -0.0324 -0.1533 -0.5225
  454MPD2     N 6768   0.903   4.491  16.617  0.3915 -0.7092 -0.1213
  454MPD2    H5 6769   0.930   4.537  16.703 -0.7780 -0.6650  0.2231
  454MPD2    N1 6770   1.036   4.144  16.324 -0.2013  0.2375  0.0246
  454MPD2    H7 6771   0.955   4.171  16.269 -1.3548 -1.5013  0.8833
  455TMC3    C1 6772   0.685   4.531  16.647 -0.1661  0.2285  0.2741
  455TMC3    C2 6773   0.711   4.608  16.754 -0.3461 -0.3297 -0.0120
  455TMC3    C3 6774   0.684   4.553  16.877 -0.1020 -0.5357  0.3228
  455TMC3    C4 6775   0.645   4.400  16.661 -0.0805 -0.5403 -0.1506
  455TMC3    C5 6776   0.617   4.349  16.781  0.0763 -0.9157  0.1077
  455TMC3    C6 6777   0.623   4.427  16.896 -0.0196 -0.2480  0.0706
  455TMC3     C 6778   0.794   4.530  16.550  0.5070 -0.3646 -0.2274
  455TMC3     O 6779   0.754   4.515  16.435  0.8070 -0.5009  0.0422
  455TMC3     H 6780   0.762   4.703  16.744 -1.8531  0.3440 -1.2349
  455TMC3    H1 6781   0.627   4.336  16.576 -0.7058  1.9363 -1.8873
  455TMC3    H2 6782   0.599   4.382  16.992  0.4872  1.0802  0.8239
  455TMC3    C7 6783   0.651   4.208  16.791 -0.7348  0.3910 -0.3108
  455TMC3    C8 6784   0.731   4.608  17.001 -0.3831 -0.0704  0.6894
  455TMC3    O1 6785   0.588   4.133  16.863 -0.3927  0.0200 -0.1006
  455TMC3    O2 6786   0.731   4.529  17.096 -0.0085  0.5838 -0.7306
  456MPD2     C 6787   3.955   3.331  16.310  0.1549  0.3283  0.3190
  456MPD2    C1 6788   3.993   3.358  16.440  0.3084 -0.1025 -0.1260
  456MPD2    C2 6789   3.980   3.488  16.487 -0.0856 -0.6113 -0.3518
  456MPD2    C3 6790   3.934   3.589  16.402 -0.0409 -0.0049  0.1106
  456MPD2    C4 6791   3.898   3.563  16.267  0.1022  0.2761 -0.3644
  456MPD2    C5 6792   3.899   3.430  16.231  0.2133  0.5927 -0.6530
  456MPD2     H 6793   4.016   3.512  16.586 -3.3238  0.5352  0.5436
  456MPD2    H1 6794   3.844   3.636  16.208  1.2906  0.1438 -1.6253
  456MPD2    H2 6795   3.965   3.235  16.260 -3.0161  0.1216  0.0731
  456MPD2    H3 6796   3.860   3.404  16.133 -1.0220 -2.1559  0.5802
  456MPD2     N 6797   3.927   3.718  16.460  0.5406 -0.7007 -0.8789
  456MPD2    H5 6798   3.944   3.730  16.560  2.3364 -1.2369 -1.1292
  456MPD2    N1 6799   4.057   3.256  16.519 -0.2909  0.2168 -0.3340
  456MPD2    H7 6800   4.077   3.168  16.471 -0.6439 -1.0237  1.7836
  457TMC3    C1 6801   3.913   3.948  16.479 -0.3008 -0.3586  0.8525
  457TMC3    C2 6802   3.844   4.065  16.450 -0.3792  0.2288  0.3855
  457TMC3    C3 6803   3.865   4.168  16.525 -0.7636 -0.2024 -0.2679
  457TMC3    C4 6804   3.980   3.942  16.600  0.8089 -0.9046 -0.0022
  457TMC3    C5 6805   3.992   4.052  16.681  0.4513 -0.2638 -0.4777
  457TMC3    C6 6806   3.936   4.165  16.641 -0.1894 -0.0607  0.4929
  457TMC3     C 6807   3.898   3.830  16.394 -1.0298  0.2306  0.4679
  457TMC3     O 6808   3.854   3.853  16.280  0.0238 -0.0397 -0.6792
  457TMC3     H 6809   3.771   4.062  16.369  0.0950 -2.4993  0.0697
  457TMC3    H1 6810   4.028   3.852  16.637  1.6912 -0.4928 -0.1510
  457TMC3    H2 6811   3.942   4.262  16.690 -0.5875  0.5423 -0.6603
  457TMC3    C7 6812   4.011   4.031  16.821  0.5875  0.7202 -0.0719
  457TMC3    C8 6813   3.878   4.297  16.458  0.0647 -0.7069  0.5016
  457TMC3    O1 6814   4.000   3.916  16.864  0.1218 -0.1623 -0.0773
  457TMC3    O2 6815   3.961   4.378  16.501  0.1664 -0.1749  0.1923
  458MPD2     C 6816   1.002   3.557  12.525  0.3873  0.0207 -0.1010
  458MPD2    C1 6817   1.061   3.455  12.589 -0.7219 -0.1079 -0.7606
  458MPD2    C2 6818   1.008   3.328  12.590  0.1622  0.5976  0.3745
  458MPD2    C3 6819   0.897   3.301  12.522  0.0954  0.1273  0.6364
  458MPD2    C4 6820   0.841   3.401  12.445  0.2610  0.1932 -0.2944
  458MPD2    C5 6821   0.903   3.524  12.436  1.0578  0.2720  0.5926
  458MPD2     H 6822   1.044   3.253  12.659  1.6438 -0.7515 -1.8659
  458MPD2    H1 6823   0.755   3.386  12.380  0.1416  0.6568 -0.2415
  458MPD2    H2 6824   1.039   3.657  12.545 -1.3789  0.1151  2.7058
  458MPD2    H3 6825   0.848   3.592  12.371  0.1678 -0.7355  0.2980
  458MPD2     N 6826   0.842   3.173  12.543 -0.2240 -0.0315 -0.1540
  458MPD2    H5 6827   0.897   3.110  12.599  1.4049  1.7762  0.2988
  458MPD2    N1 6828   1.180   3.476  12.661 -0.4408 -0.0956  0.5539
  458MPD2    H7 6829   1.233   3.562  12.657  0.5457 -0.7981 -1.3767
  459TMC3    C1 6830   1.371   3.432  12.814  0.4768 -0.0833 -0.8760
  459TMC3    C2 6831   1.438   3.542  12.772  0.2737 -0.4023 -0.3136
  459TMC3    C3 6832   1.541   3.594  12.848  0.3932  0.2106 -0.2504
  459TMC3    C4 6833   1.407   3.367  12.924  0.0319 -0.5012 -0.2629
  459TMC3    C5 6834   1.512   3.414  12.999  0.1914 -0.3823 -0.0350
  459TMC3    C6 6835   1.585   3.527  12.958 -0.6704 -0.1626  1.0147
  459TMC3     C 6836   1.240   3.394  12.758  0.1886  0.1970 -0.1046
  459TMC3     O 6837   1.196   3.288  12.805  0.0169  0.3082  0.2958
  459TMC3     H 6838   1.420   3.580  12.672 -0.9631  0.7454  0.3458
  459TMC3    H1 6839   1.334   3.300  12.968 -1.8197  0.7433 -1.4010
  459TMC3    H2 6840   1.662   3.564  13.026  2.2964  0.9271 -2.9636
  459TMC3    C7 6841   1.523   3.358  13.135 -0.0803 -0.4341  0.2877
  459TMC3    C8 6842   1.633   3.679  12.780 -1.0829  0.4559  0.6564
  459TMC3    O1 6843   1.474   3.247  13.148  0.0435 -0.3055  0.8870
  459TMC3    O2 6844   1.742   3.695  12.827 -0.2027  0.9083  0.3205
  460MPD2     C 6845   0.720   1.540  10.972  0.1386 -0.4947  0.1216
  460MPD2    C1 6846   0.614   1.458  10.977  0.2921  0.1788  0.0530
  460MPD2    C2 6847   0.543   1.429  10.858 -0.4050 -0.7532 -0.1699
  460MPD2    C3 6848   0.575   1.499  10.740 -0.1389  0.6017  0.1555
  460MPD2    C4 6849   0.670   1.589  10.745 -0.6376  1.0457 -0.1164
  460MPD2    C5 6850   0.752   1.602  10.855 -0.2371 -0.6399 -0.0760
  460MPD2     H 6851   0.463   1.356  10.855 -0.3253 -0.7341 -2.1389
  460MPD2    H1 6852   0.709   1.647  10.662 -1.2771 -1.2322 -1.9749
  460MPD2    H2 6853   0.794   1.552  11.050  1.6895 -2.6399 -1.0107
  460MPD2    H3 6854   0.832   1.675  10.852  0.2473 -1.2087 -0.8574
  460MPD2     N 6855   0.500   1.464  10.618  0.2306 -0.0112  0.2578
  460MPD2    H5 6856   0.448   1.378  10.621  1.5335 -0.7902  0.4652
  460MPD2    N1 6857   0.597   1.391  11.106  0.7055  0.7833  0.5077
  460MPD2    H7 6858   0.661   1.421  11.180 -1.8399 -0.6902  3.3309
  461TMC3    C1 6859   0.424   1.482  10.391 -0.3945  0.2099 -0.4170
  461TMC3    C2 6860   0.473   1.366  10.338  0.0524 -0.5840  0.1314
  461TMC3    C3 6861   0.410   1.323  10.222  0.0186 -0.2753  0.4161
  461TMC3    C4 6862   0.356   1.576  10.327 -0.0057 -0.0862 -0.4986
  461TMC3    C5 6863   0.309   1.538  10.199 -0.0347  0.0726  0.1370
  461TMC3    C6 6864   0.339   1.415  10.151 -0.3337 -0.1067 -0.0080
  461TMC3     C 6865   0.506   1.535  10.498 -0.2101 -0.3280  0.0846
  461TMC3     O 6866   0.558   1.648  10.479 -0.1618 -0.0125 -0.0426
  461TMC3     H 6867   0.530   1.298  10.400 -0.1114  0.8844  1.9228
  461TMC3    H1 6868   0.323   1.667  10.376  0.3446  0.5385 -1.4175
  461TMC3    H2 6869   0.291   1.380  10.061 -2.5937  0.2934  1.0463
  461TMC3    C7 6870   0.246   1.639  10.108  0.3219  0.5352 -0.0791
  461TMC3    C8 6871   0.462   1.202  10.163  0.7480  0.4222 -0.6562
  461TMC3    O1 6872   0.192   1.587  10.012 -0.0386  0.1167 -0.0282
  461TMC3    O2 6873   0.571   1.171  10.205 -0.4257 -0.0307 -0.2862
  462TMC3    C1 6874   0.567   2.175   0.549  0.0434  0.5791  0.4620
  462TMC3    C2 6875   0.668   2.076   0.560  0.8864 -0.4683 -0.6457
  462TMC3    C3 6876   0.636   1.954   0.516  0.0086 -0.5194 -0.3435
  462TMC3    C4 6877   0.456   2.155   0.470 -0.0451 -0.7230  0.3450
  462TMC3    C5 6878   0.425   2.022   0.446 -0.3442 -0.1923  0.1115
  462TMC3    C6 6879   0.512   1.923   0.462 -0.2645 -0.1130 -0.2455
  462TMC3     C 6880   0.587   2.303   0.613  0.5379 -0.2412  0.2326
  462TMC3     O 6881   0.506   2.395   0.597 -0.5047 -0.6220  0.0587
  462TMC3     H 6882   0.772   2.100   0.578  0.3155  2.1787 -0.8413
  462TMC3    H1 6883   0.379   2.231   0.460  1.1125  0.6514  1.8003
  462TMC3    H2 6884   0.486   1.819   0.445  1.3372 -0.4556 -0.5727
  462TMC3    C7 6885   0.288   1.982   0.405 -0.3217 -0.0917  0.2912
  462TMC3    C8 6886   0.738   1.865   0.475 -0.5726 -0.7041 -0.3237
  462TMC3    O1 6887   0.253   1.869   0.429 -0.0339 -0.7818 -0.4908
  462TMC3    O2 6888   0.806   1.807   0.562  0.1963  0.1545  0.3145
  463MPD2     C 6889   1.517   0.857   1.793  0.1786 -0.6401 -0.6714
  463MPD2    C1 6890   1.447   0.971   1.764  0.2693  0.6366  0.0831
  463MPD2    C2 6891   1.507   1.081   1.702 -0.4509 -0.2466 -0.6156
  463MPD2    C3 6892   1.644   1.081   1.684 -0.7608 -0.3991 -0.3081
  463MPD2    C4 6893   1.716   0.970   1.723 -0.0621 -0.7722  0.5992
  463MPD2    C5 6894   1.651   0.858   1.764  1.3664 -0.6393 -0.7398
  463MPD2     H 6895   1.447   1.164   1.667  1.2320  1.2417 -0.0050
  463MPD2    H1 6896   1.822   0.958   1.708 -0.0969 -1.1205  0.6287
  463MPD2    H2 6897   1.473   0.771   1.841 -0.4895 -0.2666 -0.6128
  463MPD2    H3 6898   1.708   0.768   1.785 -0.2275 -0.8957  2.4588
  463MPD2     N 6899   1.713   1.193   1.630  0.1663  0.3986 -0.1517
  463MPD2    H5 6900   1.812   1.178   1.618  0.1823 -0.6597  1.3916
  463MPD2    N1 6901   1.306   0.984   1.776 -0.2498  0.2274 -0.8907
  463MPD2    H7 6902   1.264   1.073   1.754 -1.0167 -0.1743 -1.0653
  464TMC3    C1 6903   1.083   0.933   1.833 -0.1434  0.4338  0.8166
  464TMC3    C2 6904   1.041   1.033   1.742  0.2288  0.2049 -0.1523
  464TMC3    C3 6905   0.902   1.052   1.742  1.0050  0.2250 -0.1202
  464TMC3    C4 6906   0.997   0.856   1.911 -0.2726  0.7265 -0.1275
  464TMC3    C5 6907   0.861   0.879   1.901 -0.3097  0.2026 -0.0231
  464TMC3    C6 6908   0.817   0.980   1.821  0.2742 -0.5495 -0.1892
  464TMC3     C 6909   1.218   0.885   1.823  0.2289 -0.1560 -0.3383
  464TMC3     O 6910   1.247   0.775   1.862  0.1461 -0.0961  0.5148
  464TMC3     H 6911   1.097   1.086   1.666  0.8237  1.0251  0.8645
  464TMC3    H1 6912   1.018   0.769   1.972  0.7654  1.2621  0.2678
  464TMC3    H2 6913   0.711   1.000   1.830  0.6156 -0.1374  2.8612
  464TMC3    C7 6914   0.775   0.801   1.989 -0.0139 -0.2257  0.0094
  464TMC3    C8 6915   0.850   1.154   1.652  0.5677  0.0908 -0.0102
  464TMC3    O1 6916   0.831   0.745   2.085 -0.7805  0.3023  0.8650
  464TMC3    O2 6917   0.932   1.208   1.577  0.5044  0.0452  0.0891
  465MPD2     C 6918   3.115   4.586  17.022 -0.1272  0.2632 -0.5278
  465MPD2    C1 6919   3.017   4.516  17.085  0.5427 -0.1426 -0.1316
  465MPD2    C2 6920   2.925   4.446  17.006  0.1485 -0.2910 -0.5606
  465MPD2    C3 6921   2.932   4.436  16.868 -0.4721 -0.3646  0.2667
  465MPD2    C4 6922   3.031   4.506  16.810 -0.1839  0.6735 -0.2520
  465MPD2    C5 6923   3.108   4.588  16.887 -0.2810  0.2247  0.5807
  465MPD2     H 6924   2.848   4.389  17.056 -0.6421  0.8193 -0.5282
  465MPD2    H1 6925   3.039   4.515  16.702  0.1827  0.6605 -0.2266
  465MPD2    H2 6926   3.188   4.645  17.077  1.5969 -1.4384 -0.9981
  465MPD2    H3 6927   3.177   4.662  16.847 -1.3976  0.1330 -1.5239
  465MPD2     N 6928   2.830   4.366  16.796 -0.4208  0.4709 -0.1260
  465MPD2    H5 6929   2.756   4.317  16.845  1.0616  0.8125  2.4819
  465MPD2    N1 6930   2.994   4.514  17.225  0.9796  0.4968  0.2321
  465MPD2    H7 6931   2.920   4.452  17.257  1.9115 -1.9065 -2.2525
  466TMC3    C1 6932   2.552   4.133  16.703 -0.2495  0.0074 -0.5686
  466TMC3    C2 6933   2.451   4.188  16.627 -0.4695  0.1823  0.4287
  466TMC3    C3 6934   2.492   4.290  16.544 -0.1701 -0.4406  0.4977
  466TMC3    C4 6935   2.682   4.185  16.700  0.7670 -0.3199 -0.0141
  466TMC3    C5 6936   2.707   4.296  16.623 -0.5505 -0.2632 -0.1446
  466TMC3    C6 6937   2.615   4.343  16.534 -0.4693 -0.1658  0.2230
  466TMC3     C 6938   2.527   4.011  16.784 -0.1657  0.1610 -0.2499
  466TMC3     O 6939   2.629   3.948  16.806  0.0466  0.7262  0.4985
  466TMC3     H 6940   2.356   4.144  16.599  1.1563 -1.9540 -1.7560
  466TMC3    H1 6941   2.761   4.125  16.744 -0.8970 -0.4058  2.9161
  466TMC3    H2 6942   2.639   4.432  16.476 -3.1565  1.2036  1.2230
  466TMC3    C7 6943   2.811   4.380  16.662  0.0151 -0.2010  0.7346
  466TMC3    C8 6944   2.390   4.352  16.467 -0.0862 -0.4735  0.4992
  466TMC3    O1 6945   2.854   4.469  16.591  0.1874 -0.3307 -0.1288
  466TMC3    O2 6946   2.425   4.373  16.352 -0.7418  0.5235  0.3114
  467TMC3    C1 6947   3.541   3.078  13.853  0.7676 -0.8156  0.1812
  467TMC3    C2 6948   3.602   3.192  13.830 -0.2355 -0.0737 -0.3763
  467TMC3    C3 6949   3.527   3.285  13.766 -0.6526  0.4221  0.0050
  467TMC3    C4 6950   3.400   3.055  13.845 -0.1991  0.2232 -0.0769
  467TMC3    C5 6951   3.329   3.150  13.771 -0.0059  0.3225 -0.2045
  467TMC3    C6 6952   3.398   3.265  13.723  0.7170 -0.1515 -0.6436
  467TMC3     C 6953   3.622   2.981  13.923 -0.4010  0.1264  0.0210
  467TMC3     O 6954   3.722   3.027  13.976  0.2369 -0.1839 -0.6293
  467TMC3     H 6955   3.706   3.209  13.856  0.2343 -0.7794 -1.7997
  467TMC3    H1 6956   3.357   2.962  13.882  0.8149 -0.9170 -1.7853
  467TMC3    H2 6957   3.353   3.341  13.660 -0.4653 -0.0546  0.3174
  467TMC3    C7 6958   3.184   3.145  13.761  0.2170 -0.1775  0.6039
  467TMC3    C8 6959   3.607   3.383  13.694 -0.0434 -0.6030  0.0674
  467TMC3    O1 6960   3.127   3.218  13.681  0.1950  0.1991  0.4657
  467TMC3    O2 6961   3.571   3.495  13.675 -0.1926 -0.1790 -0.2885
  468MPD2     C 6962   3.057   0.122  10.595  0.2839  0.3200 -0.2105
  468MPD2    C1 6963   2.945   0.130  10.678  0.6721  0.1667  0.1557
  468MPD2    C2 6964   2.874   0.016  10.720 -0.3219 -0.2333 -0.3943
  468MPD2    C3 6965   2.917   4.616  10.674  0.6672 -0.3358 -0.1155
  468MPD2    C4 6966   3.033   4.608  10.596 -0.0541  0.2949  0.4715
  468MPD2    C5 6967   3.098   4.723  10.555 -0.1519 -0.3452  0.6439
  468MPD2     H 6968   2.796   0.026  10.795  0.5520  0.4948  0.4078
  468MPD2    H1 6969   3.067   4.510  10.565 -0.7639 -0.3619  1.7621
  468MPD2    H2 6970   3.110   0.213  10.570 -0.7937  0.3644 -2.3799
  468MPD2    H3 6971   3.173   4.700  10.481  1.5314  0.8244  1.9708
  468MPD2     N 6972   2.857   4.494  10.704 -0.2157 -0.6380 -0.9678
  468MPD2    H5 6973   2.914   4.415  10.675  0.2848  0.1713 -2.1745
  468MPD2    N1 6974   2.911   0.248  10.749 -0.1970 -0.0514 -0.4291
  468MPD2    H7 6975   2.827   0.244  10.807 -0.4703  0.6370 -0.7707
  469TMC3    C1 6976   2.958   0.426  10.902  0.2044  1.1072  0.0020
  469TMC3    C2 6977   3.055   0.441  10.994  0.1955  0.6691  0.0589
  469TMC3    C3 6978   3.016   0.501  11.105  0.2656  0.4841 -0.4909
  469TMC3    C4 6979   2.824   0.445  10.921 -0.3211 -0.3176  0.3262
  469TMC3    C5 6980   2.787   0.497  11.039  0.4897  0.6765  0.6741
  469TMC3    C6 6981   2.884   0.534  11.127  0.9382 -0.0059 -0.3868
  469TMC3     C 6982   2.996   0.356  10.781  0.2595 -0.4340 -0.4193
  469TMC3     O 6983   3.109   0.376  10.734  0.2227 -0.4791  0.1175
  469TMC3     H 6984   3.158   0.418  10.970 -0.0087 -1.7365  1.4787
  469TMC3    H1 6985   2.755   0.454  10.838  0.2404  0.6197 -0.0338
  469TMC3    H2 6986   2.857   0.576  11.223  2.3382 -2.7802  1.2406
  469TMC3    C7 6987   2.649   0.497  11.074 -0.2914  1.1787 -0.5662
  469TMC3    C8 6988   3.080   0.460  11.224  0.2533  0.0458 -0.3734
  469TMC3    O1 6989   2.586   0.391  11.059  0.5564 -0.4971  0.8649
  469TMC3    O2 6990   3.105   0.342  11.231  0.2052 -0.0839  0.0369
  470TMC3    C1 6991   4.036   1.579   0.617 -0.0269 -0.0652  0.9919
  470TMC3    C2 6992   4.127   1.665   0.676 -0.2770 -0.3135  0.3315
  470TMC3    C3 6993   4.156   1.637   0.806 -0.0403  0.2424 -0.0950
  470TMC3    C4 6994   3.978   1.481   0.687  0.2408 -0.4495 -0.3597
  470TMC3    C5 6995   3.999   1.467   0.819 -0.0526 -0.6205  0.1066
  470TMC3    C6 6996   4.095   1.541   0.879 -0.2244 -0.3446 -0.2490
  470TMC3     C 6997   4.022   1.579   0.466  0.9370 -0.4985  0.1633
  470TMC3     O 6998   4.045   1.684   0.414 -0.2072 -0.2895  0.4409
  470TMC3     H 6999   4.169   1.752   0.626  0.5538 -2.0794 -2.0100
  470TMC3    H1 7000   3.901   1.417   0.645  0.0549 -0.1396 -0.4896
  470TMC3    H2 7001   4.112   1.536   0.986 -0.1257  0.9635 -0.2033
  470TMC3    C7 7002   3.897   1.386   0.891 -0.4031  0.6870  0.1826
  470TMC3    C8 7003   4.215   1.742   0.876 -0.8553  0.5632 -0.2775
  470TMC3    O1 7004   3.828   1.313   0.821 -0.4537  0.5126  0.1539
  470TMC3    O2 7005   4.161   1.762   0.984  0.8760 -0.3454 -0.1804
  471MPD2     C 7006   0.344   2.783  16.082  0.2769  0.2653  0.1116
  471MPD2    C1 7007   0.288   2.687  16.169  0.0731  0.6942 -0.0283
  471MPD2    C2 7008   0.358   2.655  16.288  0.2559 -1.1216 -0.3263
  471MPD2    C3 7009   0.472   2.720  16.326 -0.7324 -0.1976 -0.0393
  471MPD2    C4 7010   0.524   2.817  16.240 -0.8287  0.5973  0.5047
  471MPD2    C5 7011   0.456   2.850  16.128 -0.8326 -0.0379  0.6336
  471MPD2     H 7012   0.311   2.584  16.355 -1.2727 -1.6201 -1.9296
  471MPD2    H1 7013   0.611   2.878  16.263 -0.6871  0.5021  0.2265
  471MPD2    H2 7014   0.296   2.793  15.986 -0.4262  0.5408  0.4904
  471MPD2    H3 7015   0.493   2.932  16.068  1.4574 -2.0424 -0.7342
  471MPD2     N 7016   0.538   2.698  16.448 -0.3726  0.6536 -0.2644
  471MPD2    H5 7017   0.614   2.761  16.472 -0.6196  0.7052  0.3966
  471MPD2    N1 7018   0.168   2.613  16.133  0.5108  0.0226  0.1388
  471MPD2    H7 7019   0.132   2.546  16.200 -0.1065  0.2102 -0.0086
  472TMC3    C1 7020   4.700   2.545  16.036 -0.2398  0.5198  0.1554
  472TMC3    C2 7021   4.584   2.599  15.986  0.1327  0.6753  0.0270
  472TMC3    C3 7022   4.476   2.530  16.028 -0.6544 -0.3182  0.1521
  472TMC3    C4 7023   4.709   2.437  16.119  0.1434  0.0319  0.1378
  472TMC3    C5 7024   4.593   2.376  16.148  0.3998 -0.9395  0.7063
  472TMC3    C6 7025   4.477   2.424  16.107  0.3912 -0.2930 -0.3057
  472TMC3     C 7026   0.084   2.629  16.028  0.0396  0.5261  0.0196
  472TMC3     O 7027   0.089   2.710  15.938 -0.3357 -0.3546 -0.5495
  472TMC3     H 7028   4.572   2.697  15.941  0.0770 -0.3736 -2.2343
  472TMC3    H1 7029   0.082   2.399  16.140  0.0531 -0.5837 -0.5327
  472TMC3    H2 7030   4.390   2.361  16.119 -0.4153  0.9276  0.2849
  472TMC3    C7 7031   4.606   2.278  16.246  1.2132  0.3763 -0.2991
  472TMC3    C8 7032   4.351   2.579  15.977  0.2792  0.1584 -1.2247
  472TMC3    O1 7033   4.703   2.204  16.236 -0.0521  0.3215  0.3675
  472TMC3    O2 7034   4.355   2.645  15.874 -0.2614  0.2587 -0.2215
  473MPD2     C 7035   0.177   0.701  13.970  0.5923 -0.0516  0.5077
  473MPD2    C1 7036   0.281   0.771  13.909  0.4165 -0.3465 -0.6122
  473MPD2    C2 7037   0.379   0.824  13.990 -0.1610  0.1363 -0.0614
  473MPD2    C3 7038   0.383   0.812  14.128 -0.5251  0.0307 -0.2920
  473MPD2    C4 7039   0.288   0.729  14.184 -0.1699  0.2826 -0.8018
  473MPD2    C5 7040   0.195   0.677  14.101 -0.0888  0.4988  0.0104
  473MPD2     H 7041   0.456   0.887  13.948 -0.2766  1.0919  1.1751
  473MPD2    H1 7042   0.285   0.715  14.292 -0.6282 -1.2397 -1.0203
  473MPD2    H2 7043   0.092   0.663  13.914 -0.5858  1.0371  1.5686
  473MPD2    H3 7044   0.115   0.616  14.143 -2.4901  1.5763 -2.9506
  473MPD2     N 7045   0.469   0.876  14.213 -0.1928  0.9124 -0.5500
  473MPD2    H5 7046   0.451   0.871  14.313  0.7593 -0.5383 -0.4493
  473MPD2    N1 7047   0.285   0.787  13.772  0.9263 -0.0230  0.3537
  473MPD2    H7 7048   0.352   0.856  13.740 -0.9088  0.5326 -2.2586
  474TMC3    C1 7049   0.643   0.983  14.302  0.1378 -0.1074 -0.5316
  474TMC3    C2 7050   0.562   1.066  14.370 -0.5524 -0.0857 -0.6047
  474TMC3    C3 7051   0.614   1.128  14.479 -1.2318 -0.3864  0.6464
  474TMC3    C4 7052   0.771   0.940  14.343 -0.2612  0.4229 -0.7882
  474TMC3    C5 7053   0.812   0.999  14.455 -0.7143 -0.4132 -0.3662
  474TMC3    C6 7054   0.742   1.091  14.520 -0.1339  0.1205 -0.4851
  474TMC3     C 7055   0.591   0.922  14.181  0.0614  0.4536  0.4199
  474TMC3     O 7056   0.654   0.912  14.076  0.2356 -0.3485 -0.4109
  474TMC3     H 7057   0.459   1.078  14.338 -0.1013 -1.2724 -2.5204
  474TMC3    H1 7058   0.825   0.869  14.283 -0.3275  0.2721 -0.6685
  474TMC3    H2 7059   0.771   1.136  14.615 -0.6469  1.0869 -0.7845
  474TMC3    C7 7060   0.924   0.928  14.516 -0.0182 -0.1890  0.0046
  474TMC3    C8 7061   0.525   1.194  14.574  0.2844  0.0681 -0.1942
  474TMC3    O1 7062   0.964   0.823  14.464  0.1316 -0.6187 -0.7228
  474TMC3    O2 7063   0.558   1.196  14.693 -0.0831  0.4292  0.7494
  475MPD2     C 7064   2.956   3.346  11.209  0.0498 -0.4479  0.1733
  475MPD2    C1 7065   3.027   3.337  11.090 -0.1775  0.5272 -0.3183
  475MPD2    C2 7066   2.958   3.319  10.970  0.1084  0.1331  0.2592
  475MPD2    C3 7067   2.812   3.304  10.968 -0.2809  0.3606 -0.4593
  475MPD2    C4 7068   2.752   3.294  11.094  0.9966  0.2113 -0.1493
  475MPD2    C5 7069   2.825   3.318  11.212 -0.5403  0.1374  0.1276
  475MPD2     H 7070   3.011   3.320  10.876 -0.9451 -2.1600 -0.3728
  475MPD2    H1 7071   2.650   3.262  11.107  0.9830  0.6749  0.8977
  475MPD2    H2 7072   3.011   3.342  11.302 -0.2569  2.6458  0.4813
  475MPD2    H3 7073   2.776   3.301  11.307  1.6257 -2.5603  0.7663
  475MPD2     N 7074   2.738   3.288  10.845  0.3682 -0.0302 -0.3798
  475MPD2    H5 7075   2.788   3.293  10.757 -1.0373  3.1222 -1.0049
  475MPD2    N1 7076   3.158   3.378  11.090 -0.4523  0.5110 -0.9103
  475MPD2    H7 7077   3.205   3.422  11.167  1.2903 -1.7184 -0.7156
  476TMC3    C1 7078   3.357   3.432  10.983  0.5132  0.5446  0.6337
  476TMC3    C2 7079   3.415   3.445  10.860  0.0877  0.3242 -0.4980
  476TMC3    C3 7080   3.513   3.544  10.850  0.1895  0.0837 -0.6708
  476TMC3    C4 7081   3.384   3.520  11.084 -0.0685 -0.3085  0.7296
  476TMC3    C5 7082   3.483   3.612  11.069  0.0242 -0.2526 -0.4754
  476TMC3    C6 7083   3.555   3.624  10.955 -0.4521 -0.8190 -0.6330
  476TMC3     C 7084   3.243   3.345  10.987  0.3277 -0.5640 -0.5994
  476TMC3     O 7085   3.230   3.251  10.907  0.2879 -0.0231  0.3785
  476TMC3     H 7086   3.371   3.385  10.781 -0.7408 -0.8624  0.8774
  476TMC3    H1 7087   3.325   3.513  11.175 -2.0669 -2.6677 -0.7173
  476TMC3    H2 7088   3.640   3.688  10.933 -1.9225  0.9325 -1.2099
  476TMC3    C7 7089   3.493   3.707  11.180  0.4525 -0.4278  0.4372
  476TMC3    C8 7090   3.565   3.574  10.717 -0.2077  0.3495  0.1591
  476TMC3    O1 7091   3.480   3.665  11.293  0.3192 -0.1040 -0.4778
  476TMC3    O2 7092   3.609   3.685  10.690 -0.1027  0.6346 -0.4139
  477MPD2     C 7093   1.194   0.091  11.529  0.1713 -0.8071 -0.0150
  477MPD2    C1 7094   1.173   0.157  11.643  0.5268 -0.7526 -0.3724
  477MPD2    C2 7095   1.190   0.099  11.765  0.4335 -0.2026  0.0468
  477MPD2    C3 7096   1.235   4.693  11.772  0.4686 -0.0726 -0.5236
  477MPD2    C4 7097   1.258   4.628  11.650  0.2866  0.2646  0.5105
  477MPD2    C5 7098   1.246   4.694  11.533  1.1723  0.5544  0.0610
  477MPD2     H 7099   1.184   0.165  11.851 -0.9868 -1.7268  1.1110
  477MPD2    H1 7100   1.288   4.524  11.659 -1.8999 -0.5982 -2.0923
  477MPD2    H2 7101   1.193   0.141  11.432 -0.2199 -0.0730  0.3728
  477MPD2    H3 7102   1.270   4.644  11.440  0.9535  0.3720  0.1020
  477MPD2     N 7103   1.260   4.626  11.901 -0.9223  0.0665 -0.1290
  477MPD2    H5 7104   1.289   4.529  11.903 -0.1477  0.3143  0.8082
  477MPD2    N1 7105   1.123   0.288  11.631 -0.1798 -0.6395  0.1045
  477MPD2    H7 7106   1.098   0.321  11.539  0.3775 -0.5338 -0.0119
  478TMC3    C1 7107   1.042   0.507  11.696 -0.1706 -0.4859 -0.4570
  478TMC3    C2 7108   0.960   0.557  11.793  0.3322 -0.2383  0.5329
  478TMC3    C3 7109   0.852   0.626  11.758 -0.4986 -0.6099 -0.1612
  478TMC3    C4 7110   1.025   0.549  11.568  0.1797 -0.1821  0.8654
  478TMC3    C5 7111   0.918   0.626  11.542 -0.5285 -0.2151  0.6122
  478TMC3    C6 7112   0.829   0.670  11.634  0.2992  0.3246 -0.2160
  478TMC3     C 7113   1.115   0.386  11.729  0.1021  0.6291 -0.4532
  478TMC3     O 7114   1.148   0.381  11.847  0.7014 -0.4824 -0.3427
  478TMC3     H 7115   0.971   0.531  11.897 -1.6968  0.7065  0.9876
  478TMC3    H1 7116   1.092   0.524  11.486  0.8560  1.3285  0.9543
  478TMC3    H2 7117   0.756   0.744  11.603 -2.4499 -2.3640 -0.1944
  478TMC3    C7 7118   0.950   0.711  11.431 -0.0824 -0.4765  1.1127
  478TMC3    C8 7119   0.773   0.685  11.858 -0.9831  0.1370  0.1449
  478TMC3    O1 7120   1.064   0.754  11.430 -1.1801  0.3413  0.2464
  478TMC3    O2 7121   0.811   0.672  11.974  0.2647  0.0879 -0.2464
  479MPD2     C 7122   4.434   2.424  15.332 -0.5055 -0.4029 -0.0677
  479MPD2    C1 7123   4.341   2.318  15.328 -0.1980 -0.4164 -0.2821
  479MPD2    C2 7124   4.279   2.290  15.452  0.5562  0.2893 -0.4262
  479MPD2    C3 7125   4.301   2.367  15.568 -0.1513 -0.5322 -0.2895
  479MPD2    C4 7126   4.385   2.475  15.560 -0.8803  0.1713 -0.0702
  479MPD2    C5 7127   4.447   2.507  15.442 -0.5156 -0.0903  0.7689
  479MPD2     H 7128   4.211   2.205  15.452  0.0852  0.6562  1.7168
  479MPD2    H1 7129   4.400   2.547  15.640  0.9439 -1.7781  1.3653
  479MPD2    H2 7130   4.475   2.454  15.236  0.1778  0.5404  0.5181
  479MPD2    H3 7131   4.510   2.594  15.436  1.2806 -1.2034  3.2306
  479MPD2     N 7132   4.235   2.348  15.693 -0.3110  0.6111  0.4890
  479MPD2    H5 7133   4.230   2.414  15.770  1.4386  1.7893 -0.4316
  479MPD2    N1 7134   4.312   2.255  15.204 -0.2090  0.1327 -0.9859
  479MPD2    H7 7135   4.355   2.306  15.127  0.0936  0.9638 -0.2713
  480TMC3    C1 7136   3.878   2.080  15.816 -0.2038 -0.3181 -0.4835
  480TMC3    C2 7137   3.795   2.154  15.736  0.6150  0.2298  0.2657
  480TMC3    C3 7138   3.835   2.277  15.695 -0.0853 -0.3605  0.1199
  480TMC3    C4 7139   4.008   2.124  15.829  0.2243  0.3394 -0.0856
  480TMC3    C5 7140   4.051   2.245  15.792 -0.0163  0.4173  0.6061
  480TMC3    C6 7141   3.960   2.325  15.722  0.4659  0.9103  0.0424
  480TMC3     C 7142   3.842   1.947  15.863 -0.0197 -0.3612  0.2030
  480TMC3     O 7143   3.913   1.899  15.953 -0.0041 -0.6061  0.2071
  480TMC3     H 7144   3.698   2.118  15.702  1.1926 -0.1619 -0.9642
  480TMC3    H1 7145   4.084   2.057  15.868 -0.1363  0.6378  1.1193
  480TMC3    H2 7146   3.986   2.429  15.706  0.8371  0.9440  0.8638
  480TMC3    C7 7147   4.172   2.229  15.719  0.0912 -0.4018 -0.2650
  480TMC3    C8 7148   3.763   2.331  15.583  0.2149 -0.4684  0.4176
  480TMC3    O1 7149   4.190   2.119  15.677  0.4224  0.7457 -0.4204
  480TMC3    O2 7150   3.643   2.334  15.591 -0.0662  0.2038  0.4202
  481MPD2     C 7151   1.309   2.385  13.974 -0.2098 -0.2594  0.1953
  481MPD2    C1 7152   1.221   2.288  14.015 -0.5252 -0.6067  0.0322
  481MPD2    C2 7153   1.261   2.198  14.114  0.6701 -0.1541 -0.1855
  481MPD2    C3 7154   1.388   2.204  14.167  0.2520 -0.2162 -0.4126
  481MPD2    C4 7155   1.479   2.294  14.117 -0.9157 -0.6072 -0.6872
  481MPD2    C5 7156   1.436   2.381  14.019 -0.3756  0.2273 -0.1064
  481MPD2     H 7157   1.194   2.124  14.157 -0.4544 -0.5385 -2.5742
  481MPD2    H1 7158   1.579   2.311  14.156 -1.9557 -0.6032  1.9816
  481MPD2    H2 7159   1.278   2.462  13.904  3.6732 -0.1214 -1.3550
  481MPD2    H3 7160   1.509   2.457  13.994  0.6290 -0.8460 -0.4661
  481MPD2     N 7161   1.445   2.128  14.274 -0.1041 -0.3816  0.6700
  481MPD2    H5 7162   1.541   2.149  14.299 -0.9482  1.7054  2.1432
  481MPD2    N1 7163   1.097   2.275  13.946 -0.5857  0.3427  0.5933
  481MPD2    H7 7164   1.081   2.345  13.874 -1.7415  1.0588  1.5468
  482TMC3    C1 7165   0.897   2.169  13.856 -0.3639  0.8715 -0.9287
  482TMC3    C2 7166   0.838   2.052  13.825  0.0751 -0.0160  0.1476
  482TMC3    C3 7167   0.731   2.060  13.742 -0.2954  0.1129  0.0804
  482TMC3    C4 7168   0.858   2.294  13.809 -0.6868 -0.1168 -0.0709
  482TMC3    C5 7169   0.736   2.302  13.747  0.2767  0.9516 -0.3700
  482TMC3    C6 7170   0.676   2.184  13.709  0.5106  0.4068  0.5673
  482TMC3     C 7171   1.019   2.161  13.938 -0.3319 -0.4441 -0.2248
  482TMC3     O 7172   1.030   2.057  13.997  0.0094 -0.3077 -1.1565
  482TMC3     H 7173   0.881   1.955  13.847  0.6568 -0.0994 -1.3167
  482TMC3    H1 7174   0.907   2.390  13.816 -1.2292  0.0546  1.4043
  482TMC3    H2 7175   0.582   2.189  13.653 -0.0582  0.1018  1.4963
  482TMC3    C7 7176   0.692   2.424  13.677 -0.0588  0.2403 -0.0959
  482TMC3    C8 7177   0.737   1.966  13.637  0.0271  0.2493 -0.1156
  482TMC3    O1 7178   0.573   2.450  13.661  0.0725 -0.5643 -0.3948
  482TMC3    O2 7179   0.798   1.863  13.654  0.3843 -0.1926  0.1839
  483TMC3    C1 7180   3.774   0.891   0.954 -0.0753 -0.2190  0.5302
  483TMC3    C2 7181   3.865   0.967   0.878 -0.1683  1.0408  0.8287
  483TMC3    C3 7182   3.992   0.983   0.932 -0.0574  0.2303 -0.0701
  483TMC3    C4 7183   3.822   0.833   1.069 -0.5821 -0.1625  0.4450
  483TMC3    C5 7184   3.950   0.854   1.114  0.0152  0.2679 -0.4622
  483TMC3    C6 7185   4.040   0.930   1.047  0.5141 -0.1499 -0.6389
  483TMC3     C 7186   3.685   0.816   0.869  0.2892 -0.6863  0.5815
  483TMC3     O 7187   3.637   0.869   0.768 -0.1108 -0.5342 -0.4758
  483TMC3     H 7188   3.845   0.997   0.776  1.3293  0.7200  0.4423
  483TMC3    H1 7189   3.751   0.785   1.136 -1.0652  1.1989  0.9086
  483TMC3    H2 7190   4.144   0.931   1.075  0.4979 -1.4468 -0.5428
  483TMC3    C7 7191   3.973   0.842   1.260  0.1556  0.0404 -0.4838
  483TMC3    C8 7192   4.081   1.066   0.857  0.3337  0.5469 -0.0401
  483TMC3    O1 7193   4.082   0.881   1.294 -0.5656  0.3054  0.1413
  483TMC3    O2 7194   4.058   1.067   0.737  0.1698 -0.2225 -0.9182
  484MPD2     C 7195   1.577   3.925  12.524 -0.3638  0.8693 -0.4090
  484MPD2    C1 7196   1.649   3.828  12.587  0.2113  0.4475  0.1086
  484MPD2    C2 7197   1.780   3.803  12.565  0.2836  0.2396 -0.5725
  484MPD2    C3 7198   1.855   3.882  12.474 -0.1071 -0.7285 -0.6806
  484MPD2    C4 7199   1.783   3.979  12.402 -0.1230 -0.0664  0.3365
  484MPD2    C5 7200   1.648   3.996  12.425  0.1346 -0.0517 -0.0521
  484MPD2     H 7201   1.825   3.717  12.613 -0.2172  0.0693 -0.4106
  484MPD2    H1 7202   1.817   4.025  12.310  0.1304 -0.7752  0.0702
  484MPD2    H2 7203   1.471   3.939  12.535 -0.6905 -1.6530 -0.2268
  484MPD2    H3 7204   1.595   4.066  12.362  1.4391 -0.5952 -1.7619
  484MPD2     N 7205   1.984   3.858  12.444 -0.2173  0.4619  0.2266
  484MPD2    H5 7206   2.026   3.930  12.387  0.9554 -0.6148 -0.2760
  484MPD2    N1 7207   1.577   3.750  12.679 -0.3533 -0.0613 -1.2054
  484MPD2    H7 7208   1.476   3.751  12.673 -0.4339 -1.4996 -0.1057
  485TMC3    C1 7209   2.203   3.771  12.463  0.3724 -0.6194 -0.0641
  485TMC3    C2 7210   2.289   3.707  12.552 -0.3553 -0.1610  0.5944
  485TMC3    C3 7211   2.418   3.695  12.516 -0.3792 -0.3209  0.4874
  485TMC3    C4 7212   2.233   3.828  12.344 -0.0800 -0.2108  0.4267
  485TMC3    C5 7213   2.366   3.809  12.309  0.0451 -0.1066 -0.0521
  485TMC3    C6 7214   2.457   3.749  12.391  0.0618 -0.1458 -0.3763
  485TMC3     C 7215   2.060   3.752  12.496  0.3496  0.4609 -0.1949
  485TMC3     O 7216   2.035   3.666  12.579  0.3858 -0.4103 -0.4123
  485TMC3     H 7217   2.247   3.663  12.641  1.1235 -2.6958  0.0426
  485TMC3    H1 7218   2.153   3.844  12.273 -1.3857 -0.8599  1.7500
  485TMC3    H2 7219   2.560   3.748  12.360 -0.7858  0.2755 -3.1903
  485TMC3    C7 7220   2.397   3.784  12.168  0.5274  0.1534  1.0402
  485TMC3    C8 7221   2.486   3.566  12.532  0.3137  0.2594  0.5445
  485TMC3    O1 7222   2.351   3.855  12.079  0.5927 -0.3887  0.3803
  485TMC3    O2 7223   2.522   3.518  12.422 -0.1875 -1.1884  0.0955
  486MPD2     C 7224   4.401   2.517  13.315 -0.5218 -0.3786 -0.0446
  486MPD2    C1 7225   4.298   2.454  13.241  0.5408 -0.3385 -0.1393
  486MPD2    C2 7226   4.196   2.534  13.199 -0.1153 -0.3966  0.1323
  486MPD2    C3 7227   4.196   2.674  13.230 -0.4887 -0.1649  0.3191
  486MPD2    C4 7228   4.301   2.726  13.306  0.2249  0.3265 -0.1675
  486MPD2    C5 7229   4.392   2.642  13.365 -0.4116  0.3942 -0.1765
  486MPD2     H 7230   4.112   2.486  13.151 -0.9458  0.4328  0.7435
  486MPD2    H1 7231   4.314   2.829  13.338 -0.8380  0.7513 -1.0917
  486MPD2    H2 7232   4.490   2.461  13.342 -1.5666 -1.4226  1.2451
  486MPD2    H3 7233   4.467   2.686  13.430  0.2905 -1.0600 -0.0035
  486MPD2     N 7234   4.099   2.755  13.168 -0.4372  0.0137 -1.0506
  486MPD2    H5 7235   4.034   2.704  13.109 -2.1310  0.6814  0.2446
  486MPD2    N1 7236   4.313   2.317  13.211  0.1652  0.8265 -0.5071
  486MPD2    H7 7237   4.393   2.263  13.244 -1.1999 -1.0188 -0.2261
  487TMC3    C1 7238   4.265   2.103  13.126 -0.3963  0.0793 -0.8146
  487TMC3    C2 7239   4.221   2.043  13.013 -0.3604  0.2611  0.1603
  487TMC3    C3 7240   4.155   1.926  13.021  0.4652  0.6663  0.0044
  487TMC3    C4 7241   4.240   2.046  13.246  0.0114 -0.1544  0.7483
  487TMC3    C5 7242   4.174   1.916  13.256 -0.0526  0.2929 -0.1244
  487TMC3    C6 7243   4.136   1.854  13.138 -0.2256 -0.0856  0.6230
  487TMC3     C 7244   4.234   2.248  13.127  0.2013 -0.1537  0.4165
  487TMC3     O 7245   4.142   2.292  13.055 -0.7214 -0.4683 -0.3393
  487TMC3     H 7246   4.227   2.101  12.922 -0.2745  0.8991  0.5711
  487TMC3    H1 7247   4.250   2.116  13.328  0.6771 -0.0319  0.5594
  487TMC3    H2 7248   4.081   1.761  13.135  0.2493 -0.3652  0.5996
  487TMC3    C7 7249   4.090   1.904  13.373  0.8339  0.1893  0.8806
  487TMC3    C8 7250   4.135   1.859  12.891  0.0311 -0.0250  0.1087
  487TMC3    O1 7251   4.103   1.996  13.451 -0.0601  0.4906 -0.0084
  487TMC3    O2 7252   4.225   1.873  12.810 -0.5827 -0.0310  0.3154
  488MPD2     C 7253   4.671   4.159  16.528  0.2885  0.1148  0.6204
  488MPD2    C1 7254   4.643   4.278  16.588  0.3246 -0.6112 -0.3184
  488MPD2    C2 7255   4.595   4.269  16.717  0.0179  0.1971 -0.3311
  488MPD2    C3 7256   4.560   4.152  16.776  0.1039  0.9616  0.3340
  488MPD2    C4 7257   4.582   4.037  16.710 -0.5186  0.3483  0.2343
  488MPD2    C5 7258   4.637   4.039  16.584  0.0662  0.4575  0.4299
  488MPD2     H 7259   4.569   4.363  16.765 -0.6356  0.8283 -1.9138
  488MPD2    H1 7260   4.561   3.943  16.760  2.8162 -0.8219 -0.6129
  488MPD2    H2 7261   4.707   4.153  16.426  0.1986 -2.5692  0.7654
  488MPD2    H3 7262   4.642   3.950  16.523 -0.6390  1.5806 -1.2825
  488MPD2     N 7263   4.497   4.158  16.906 -0.0219 -0.4786  0.3690
  488MPD2    H5 7264   4.494   4.253  16.943  0.9579 -1.0596  1.9435
  488MPD2    N1 7265   4.675   4.402  16.536 -0.5513  0.4850 -1.0759
  488MPD2    H7 7266   4.678   4.480  16.600 -3.8553  0.1882 -0.5221
  489TMC3    C1 7267   4.406   4.094  17.117  0.5323  0.4664  0.5125
  489TMC3    C2 7268   4.360   4.220  17.139 -0.2228  1.0751  0.7510
  489TMC3    C3 7269   4.291   4.250  17.251 -0.0593 -0.6862  0.0074
  489TMC3    C4 7270   4.389   3.989  17.206  0.2339  0.1582  0.8722
  489TMC3    C5 7271   4.305   4.025  17.313  0.2072 -0.6125  0.4807
  489TMC3    C6 7272   4.274   4.157  17.346 -0.2041 -0.4790 -0.1836
  489TMC3     C 7273   4.452   4.051  16.981 -0.5042 -0.0456 -0.3973
  489TMC3     O 7274   4.448   3.934  16.947 -0.8763 -0.1488  0.4187
  489TMC3     H 7275   4.368   4.300  17.067  1.5410 -1.5088 -1.9122
  489TMC3    H1 7276   4.420   3.888  17.181 -0.4162 -0.1670  1.3989
  489TMC3    H2 7277   4.220   4.178  17.437 -1.3456  1.4668 -1.3177
  489TMC3    C7 7278   4.275   3.936  17.421 -0.5625  0.2892 -0.4446
  489TMC3    C8 7279   4.293   4.395  17.294  0.0701  0.7227 -0.0690
  489TMC3    O1 7280   4.248   3.979  17.530  0.8280  0.0861 -0.8515
  489TMC3    O2 7281   4.383   4.468  17.256  0.3020  0.2643  0.8189
  490MPD2     C 7282   0.796   3.343  17.462 -0.0866 -0.6861  0.4668
  490MPD2    C1 7283   0.673   3.386  17.507 -0.3863 -0.6833  0.0916
  490MPD2    C2 7284   0.635   3.518  17.499 -0.2402  0.0277  0.0327
  490MPD2    C3 7285   0.727   3.613  17.454  0.0845 -0.0652  0.2990
  490MPD2    C4 7286   0.847   3.557  17.402 -0.3397  0.3145 -0.1888
  490MPD2    C5 7287   0.884   3.426  17.404 -0.2640  0.3130  0.2942
  490MPD2     H 7288   0.536   3.548  17.531 -0.5369 -0.0120 -0.8634
  490MPD2    H1 7289   0.918   3.627  17.359  2.0127 -1.9413  0.0325
  490MPD2    H2 7290   0.841   3.246  17.479  0.7793 -0.3389  0.1328
  490MPD2    H3 7291   0.977   3.384  17.369 -0.5869  1.3872 -1.8427
  490MPD2     N 7292   0.717   3.755  17.457  0.0540  0.0203 -0.3044
  490MPD2    H5 7293   0.801   3.802  17.425 -1.7911  1.4591 -3.0326
  490MPD2    N1 7294   0.585   3.299  17.569  0.4377  0.1066  0.1039
  490MPD2    H7 7295   0.492   3.333  17.592 -0.4086 -0.2392 -2.8263
  491TMC3    C1 7296   0.510   3.097  17.658  0.0920  0.2962 -0.8910
  491TMC3    C2 7297   0.490   3.077   0.082  0.8653 -0.4281  0.7657
  491TMC3    C3 7298   0.394   2.991   0.131  0.3984 -0.0417  0.5685
  491TMC3    C4 7299   0.426   3.035  17.569 -0.6273 -0.4894  0.4597
  491TMC3    C5 7300   0.320   2.960  17.622  0.5436 -0.2917  0.0823
  491TMC3    C6 7301   0.309   2.937   0.047  0.5531  0.2681 -0.6734
  491TMC3     C 7302   0.625   3.173  17.612 -0.8203  1.0313  1.1784
  491TMC3     O 7303   0.735   3.127  17.645 -0.0545 -0.4700 -0.0984
  491TMC3     H 7304   0.558   3.125   0.152 -1.0722 -0.0702  2.4000
  491TMC3    H1 7305   0.460   3.024  17.466 -0.1870 -0.3869  0.5922
  491TMC3    H2 7306   0.239   2.866   0.089  1.3390  1.0571  2.0377
  491TMC3    C7 7307   0.205   2.935  17.549  0.5387 -0.1467 -0.1313
  491TMC3    C8 7308   0.342   3.045   0.247  0.3392  0.6341 -0.1967
  491TMC3    O1 7309   0.138   2.832  17.566  0.1403  0.3414 -0.3988
  491TMC3    O2 7310   0.303   3.157   0.250  0.7860 -0.0038  0.1346
  492MPD2     C 7311   1.044   3.586  11.573 -0.6054  0.3024  0.3018
  492MPD2    C1 7312   1.029   3.492  11.482 -0.0472  0.3517 -0.0248
  492MPD2    C2 7313   0.945   3.390  11.510 -0.5451  0.3650  0.3408
  492MPD2    C3 7314   0.875   3.376  11.626 -0.6514 -0.6390  0.5923
  492MPD2    C4 7315   0.894   3.470  11.724 -0.4768  0.4133 -0.2558
  492MPD2    C5 7316   0.982   3.572  11.693  0.2357 -0.1239  0.2200
  492MPD2     H 7317   0.938   3.318  11.429 -2.2422 -1.7980  2.4059
  492MPD2    H1 7318   0.847   3.474  11.821  1.0577  0.9597  0.4722
  492MPD2    H2 7319   1.099   3.677  11.553 -0.0064 -0.2529 -0.5645
  492MPD2    H3 7320   0.996   3.653  11.763  1.7013  0.2131 -0.4579
  492MPD2     N 7321   0.794   3.267  11.660 -0.2118 -0.1042  0.6682
  492MPD2    H5 7322   0.738   3.281  11.744  1.7894 -0.1190  1.9893
  492MPD2    N1 7323   1.071   3.521  11.354 -0.2278  0.3891 -0.0546
  492MPD2    H7 7324   1.116   3.612  11.345  0.3217  0.2499  1.4905
  493TMC3    C1 7325   1.048   3.491  11.121  0.0663  0.0228  0.3657
  493TMC3    C2 7326   1.015   3.622  11.111  0.3534 -0.4576 -0.1438
  493TMC3    C3 7327   0.911   3.655  11.028  0.0934  0.3541  0.1032
  493TMC3    C4 7328   0.985   3.391  11.050 -0.2852 -0.0069  0.3139
  493TMC3    C5 7329   0.881   3.435  10.970 -0.1105  0.3865  0.7777
  493TMC3    C6 7330   0.845   3.564  10.949 -0.7028  0.7684  0.5960
  493TMC3     C 7331   1.083   3.434  11.252 -0.3100  0.1157  0.1042
  493TMC3     O 7332   1.094   3.318  11.269  0.5922 -0.4406  0.0710
  493TMC3     H 7333   1.074   3.695  11.165 -1.2058  0.5136  0.2640
  493TMC3    H1 7334   1.014   3.287  11.058  0.8991  0.2692 -0.3506
  493TMC3    H2 7335   0.759   3.595  10.890  0.2763  1.4755 -0.4694
  493TMC3    C7 7336   0.787   3.338  10.929 -0.1991  0.4589  0.2601
  493TMC3    C8 7337   0.840   3.778  11.055  0.5419 -0.3223 -0.5625
  493TMC3    O1 7338   0.681   3.378  10.895  0.2517  0.1466  0.2735
  493TMC3    O2 7339   0.718   3.763  11.051  0.4802 -0.1710 -0.5273
  494TMC3    C1 7340   1.262   1.065   0.627  0.4001 -0.5311  0.3784
  494TMC3    C2 7341   1.197   0.965   0.687 -0.1133 -0.5325  0.2358
  494TMC3    C3 7342   1.148   0.865   0.608  0.7811  0.8860  0.6665
  494TMC3    C4 7343   1.294   1.056   0.492  0.1787  0.1075  0.2238
  494TMC3    C5 7344   1.248   0.953   0.416 -0.0406 -0.0998 -0.3675
  494TMC3    C6 7345   1.168   0.860   0.473  0.3883  0.6889  0.1632
  494TMC3     C 7346   1.252   1.195   0.693  0.5602 -0.2518  0.2677
  494TMC3     O 7347   1.206   1.187   0.809 -0.7002  0.3196 -0.3899
  494TMC3     H 7348   1.160   0.974   0.788 -0.9142  1.8604 -0.2756
  494TMC3    H1 7349   1.335   1.139   0.434  2.7679 -0.8312  0.7219
  494TMC3    H2 7350   1.125   0.782   0.412  0.7673 -0.9017  1.9148
  494TMC3    C7 7351   1.246   0.953   0.273 -0.0979  0.2231 -0.0229
  494TMC3    C8 7352   1.047   0.778   0.668  0.0617 -0.1377 -0.3279
  494TMC3    O1 7353   1.247   0.851   0.212  0.1283 -0.4919  0.4124
  494TMC3    O2 7354   1.039   0.760   0.787  0.3376  0.0266 -0.4757
  495TMC3    C1 7355   4.366   2.576  14.892 -0.1132  0.3623  0.0603
  495TMC3    C2 7356   4.300   2.602  14.769  0.1553  0.1685 -0.0659
  495TMC3    C3 7357   4.183   2.674  14.776  0.7155  0.4232 -0.0935
  495TMC3    C4 7358   4.303   2.607  15.012 -0.6402  0.0761  0.3201
  495TMC3    C5 7359   4.183   2.669  15.006  0.5917  0.1762  0.2967
  495TMC3    C6 7360   4.129   2.713  14.890 -0.6265 -0.3459 -0.2107
  495TMC3     C 7361   4.439   2.456  14.903 -0.3788 -0.1573 -0.1385
  495TMC3     O 7362   4.422   2.377  14.991  0.2818  0.0160 -0.3682
  495TMC3     H 7363   4.363   2.584  14.682  0.2122  3.4461 -0.6709
  495TMC3    H1 7364   4.341   2.568  15.105  0.2269  0.4312  0.1196
  495TMC3    H2 7365   4.043   2.777  14.884 -1.5441 -1.6205 -0.6838
  495TMC3    C7 7366   4.095   2.641  15.119 -0.1813 -0.2766 -0.2497
  495TMC3    C8 7367   4.098   2.688  14.657 -0.3673  0.5529 -0.0191
  495TMC3    O1 7368   4.154   2.612  15.220 -0.5903 -0.6354  0.0822
  495TMC3    O2 7369   4.017   2.781  14.657  0.2330 -0.5021  0.3622
  496MPD2     C 7370   1.773   2.506  15.150 -0.6289 -0.2376  0.9085
  496MPD2    C1 7371   1.832   2.482  15.270  0.5438 -0.5858  0.9340
  496MPD2    C2 7372   1.748   2.499  15.381 -0.1089 -1.1828 -0.1510
  496MPD2    C3 7373   1.628   2.571  15.377  0.1203 -0.1190 -0.2377
  496MPD2    C4 7374   1.580   2.606  15.256  0.1858 -0.1459  0.2913
  496MPD2    C5 7375   1.652   2.568  15.146  0.0281  0.6429  0.2353
  496MPD2     H 7376   1.793   2.485  15.478 -1.6621  1.3717  0.9373
  496MPD2    H1 7377   1.498   2.677  15.249  0.2347 -0.2161 -1.0622
  496MPD2    H2 7378   1.823   2.501  15.054 -0.6709 -0.5618  0.9032
  496MPD2    H3 7379   1.612   2.604  15.052  0.3861 -0.0605 -0.1844
  496MPD2     N 7380   1.560   2.624  15.489 -0.2517 -0.0683  0.4397
  496MPD2    H5 7381   1.472   2.675  15.477 -0.1082 -0.0345 -0.4543
  496MPD2    N1 7382   1.957   2.412  15.273  0.2023 -0.3082 -0.2295
  496MPD2    H7 7383   2.003   2.401  15.183 -2.2499 -1.0288 -1.4267
  497TMC3    C1 7384   1.482   2.620  15.712 -0.3296 -0.8237 -0.4541
  497TMC3    C2 7385   1.354   2.609  15.662  0.9289 -0.3135 -0.8331
  497TMC3    C3 7386   1.271   2.700  15.721  0.1789  0.2237  0.0502
  497TMC3    C4 7387   1.523   2.674  15.828 -1.0698  0.3337  0.5407
  497TMC3    C5 7388   1.439   2.773  15.875  0.0078  0.0119 -0.4351
  497TMC3    C6 7389   1.313   2.786  15.819  1.0973  0.4504  0.6252
  497TMC3     C 7390   1.593   2.595  15.622 -0.2280  0.3172  0.2006
  497TMC3     O 7391   1.695   2.556  15.670 -0.2196 -0.0753 -0.2422
  497TMC3     H 7392   1.329   2.548  15.576 -0.4633  0.7945 -1.2368
  497TMC3    H1 7393   1.626   2.657  15.859 -0.3921  1.8121 -0.9377
  497TMC3    H2 7394   1.250   2.867  15.854  0.6688  0.3557  0.0737
  497TMC3    C7 7395   1.450   2.857  15.990  0.2377 -0.2759  0.7104
  497TMC3    C8 7396   1.133   2.702  15.683 -0.0934 -0.0757  0.7565
  497TMC3    O1 7397   1.386   2.961  16.002  0.2274  0.0161 -0.0211
  497TMC3    O2 7398   1.069   2.803  15.689  0.3872 -0.2519  0.4232
  498MPD2     C 7399   3.329   3.929  10.177 -0.0078  0.2161  0.1653
  498MPD2    C1 7400   3.425   3.849  10.128 -0.6539  0.0168 -0.6497
  498MPD2    C2 7401   3.430   3.712  10.142 -0.8852  0.1480  0.8681
  498MPD2    C3 7402   3.343   3.656  10.226  0.8190 -0.6102 -0.6964
  498MPD2    C4 7403   3.248   3.735  10.287 -0.2233 -0.3199 -0.4003
  498MPD2    C5 7404   3.232   3.864  10.252  0.1479  0.0169  0.1018
  498MPD2     H 7405   3.502   3.650  10.090 -0.2126  0.6345  1.2234
  498MPD2    H1 7406   3.180   3.695  10.361  0.6117 -0.0163  0.5360
  498MPD2    H2 7407   3.328   4.034  10.151  0.5446  0.7027  2.1771
  498MPD2    H3 7408   3.152   3.927  10.288 -0.1272  0.1784 -0.7933
  498MPD2     N 7409   3.340   3.511  10.219  0.0819 -0.3459  0.2741
  498MPD2    H5 7410   3.413   3.468  10.161  2.7854  0.5313  3.0127
  498MPD2    N1 7411   3.522   3.916  10.053 -0.1765  0.4669  0.8331
  498MPD2    H7 7412   3.504   4.016  10.047  0.3545  0.6238  1.8066
  499TMC3    C1 7413   3.735   3.958   9.965  0.6404  0.1567 -0.1369
  499TMC3    C2 7414   3.872   3.956  10.004 -0.3499  0.0702 -0.1892
  499TMC3    C3 7415   3.946   4.053   9.945 -0.0305  0.3146 -0.3935
  499TMC3    C4 7416   3.682   4.022   9.860 -0.3088 -0.0235  0.0683
  499TMC3    C5 7417   3.769   4.108   9.804  0.1208 -0.1373 -0.0006
  499TMC3    C6 7418   3.892   4.132   9.844 -0.0695 -0.1199 -0.5057
  499TMC3     C 7419   3.649   3.859  10.033 -0.0776  0.4800 -0.2030
  499TMC3     O 7420   3.709   3.762  10.075  0.0590  0.2062 -0.1215
  499TMC3     H 7421   3.910   3.902  10.090  0.7434  0.4360 -0.4381
  499TMC3    H1 7422   3.579   4.006   9.830  0.3603 -0.9299 -1.6851
  499TMC3    H2 7423   3.952   4.218   9.817  1.7604 -1.3637 -0.4154
  499TMC3    C7 7424   3.710   4.212   9.719 -0.1626  0.0663 -0.2567
  499TMC3    C8 7425   4.083   4.050   9.982 -0.6368  0.0376  0.3407
  499TMC3    O1 7426   3.792   4.295   9.678 -0.6317 -0.1593  0.2637
  499TMC3    O2 7427   4.122   3.996  10.085  0.1081  0.0751  0.2781
  500MPD2     C 7428   4.489   4.326  10.891  0.1591  1.2562  0.0031
  500MPD2    C1 7429   4.570   4.385  10.793  0.0837  0.1503 -0.2831
  500MPD2    C2 7430   4.517   4.393  10.668  0.3151  0.0361  0.1305
  500MPD2    C3 7431   4.399   4.332  10.630 -0.2148  0.5214 -0.5610
  500MPD2    C4 7432   4.325   4.281  10.733  0.4426  0.2353 -0.0958
  500MPD2    C5 7433   4.364   4.286  10.860  0.1006 -0.4581  0.0245
  500MPD2     H 7434   4.574   4.445  10.592 -0.1737  0.0685 -0.2127
  500MPD2    H1 7435   4.226   4.242  10.714 -0.1064  0.9922  1.2420
  500MPD2    H2 7436   4.526   4.317  10.993  3.2427  1.7556 -1.0610
  500MPD2    H3 7437   4.304   4.240  10.938  0.1150 -0.1308  0.2322
  500MPD2     N 7438   4.344   4.336  10.501 -0.2003  0.5397 -0.2094
  500MPD2    H5 7439   4.247   4.306  10.498 -0.0551  0.4096 -3.2928
  500MPD2    N1 7440   4.683   4.463  10.820 -0.4117  0.2009  0.3710
  500MPD2    H7 7441   4.708   4.523  10.741 -0.5760 -2.5354 -1.7646
  501TMC3    C1 7442   0.151   4.539  10.932 -0.1422  0.3940 -0.5268
  501TMC3    C2 7443   0.156   4.649  10.858  0.5387  0.6410  0.0865
  501TMC3    C3 7444   0.283   4.710  10.845  0.8492  0.2476 -0.0826
  501TMC3    C4 7445   0.249   4.491  11.010 -1.1615 -0.1481  0.0177
  501TMC3    C5 7446   0.378   4.548  10.991 -0.4438 -0.8171  0.4449
  501TMC3    C6 7447   0.392   4.662  10.911 -0.7212  0.4148  0.2137
  501TMC3     C 7448   0.028   4.460  10.936  0.3013 -0.9380 -0.1803
  501TMC3     O 7449   0.011   4.380  11.027  0.4966  0.3015 -0.3063
  501TMC3     H 7450   0.071   4.695  10.810  1.0724 -1.4130 -2.8285
  501TMC3    H1 7451   0.233   4.406  11.076 -1.6094  1.8925  2.5378
  501TMC3    H2 7452   0.486   4.716  10.897 -0.5536  0.1413  0.2905
  501TMC3    C7 7453   0.473   4.517  11.093  0.0022 -0.7503 -0.3059
  501TMC3    C8 7454   0.301   0.099  10.766  0.1625  1.0045 -0.6292
  501TMC3    O1 7455   0.453   4.414  11.157 -0.7006 -0.4604  0.1686
  501TMC3    O2 7456   0.408   0.158  10.775 -0.0665  0.5144 -0.0719
  502TMC3    C1 7457   3.920   3.754  15.890  0.5978  0.3600  0.6629
  502TMC3    C2 7458   3.898   3.851  15.796 -0.1486  0.3809 -0.2971
  502TMC3    C3 7459   3.773   3.891  15.772  0.4984 -0.8060 -0.6406
  502TMC3    C4 7460   3.810   3.673  15.922 -0.1598 -0.8425  0.2587
  502TMC3    C5 7461   3.687   3.718  15.896  1.0999  0.1706  0.5080
  502TMC3    C6 7462   3.661   3.831  15.827 -0.1615 -0.4577  0.2181
  502TMC3     C 7463   4.053   3.743  15.947  0.2880 -0.1959  0.2694
  502TMC3     O 7464   4.120   3.847  15.960  0.2949 -0.9773  0.2848
  502TMC3     H 7465   3.983   3.897  15.746  0.8223 -0.9266  0.1551
  502TMC3    H1 7466   3.827   3.591  15.990  1.8840 -1.9930 -1.6476
  502TMC3    H2 7467   3.562   3.873  15.818 -0.6606 -1.7324 -0.2662
  502TMC3    C7 7468   3.570   3.656  15.965  0.1872 -1.0989 -0.2192
  502TMC3    C8 7469   3.762   3.975  15.654  0.9252 -0.0239  0.7954
  502TMC3    O1 7470   3.578   3.612  16.080 -0.0488 -0.2159 -0.0512
  502TMC3    O2 7471   3.856   4.026  15.594  0.1997  0.2500 -0.3048
  503MPD2     C 7472   1.127   4.337  17.050 -0.2291 -0.6088  0.1234
  503MPD2    C1 7473   1.224   4.388  17.134 -0.3180 -0.1256 -0.1015
  503MPD2    C2 7474   1.323   4.299  17.170  0.4289 -0.4998  0.4193
  503MPD2    C3 7475   1.336   4.173  17.118 -0.4356 -0.0323  0.1616
  503MPD2    C4 7476   1.242   4.127  17.029  0.3225 -0.5002 -0.2506
  503MPD2    C5 7477   1.143   4.212  16.995  0.5290  0.6822  0.3975
  503MPD2     H 7478   1.398   4.338  17.238  1.0043 -1.8584  0.5514
  503MPD2    H1 7479   1.252   4.027  16.989 -2.6744 -0.9648  0.1835
  503MPD2    H2 7480   1.045   4.391  17.004 -1.3768  0.1536  3.0308
  503MPD2    H3 7481   1.068   4.193  16.919 -0.8877 -3.3055  2.8223
  503MPD2     N 7482   1.439   4.097  17.172  0.3675  0.1534 -0.3934
  503MPD2    H5 7483   1.496   4.122  17.253  0.4369  0.1062 -0.4277
  503MPD2    N1 7484   1.224   4.515  17.188  0.3235  0.0525 -0.1544
  503MPD2    H7 7485   1.301   4.537  17.251  1.2760 -2.6178 -0.3678
  504TMC3    C1 7486   1.573   3.914  17.201  0.6234  0.0916 -0.4058
  504TMC3    C2 7487   1.544   3.908  17.331  0.1174 -1.0578 -0.7589
  504TMC3    C3 7488   1.610   3.824  17.409  0.2267  0.5570  0.1395
  504TMC3    C4 7489   1.661   3.823  17.142 -0.2387 -0.0276 -0.1954
  504TMC3    C5 7490   1.735   3.736  17.221  0.2157 -0.1078  0.0900
  504TMC3    C6 7491   1.714   3.746  17.356 -0.0858  0.2729 -0.3534
  504TMC3     C 7492   1.486   3.986  17.107  0.3187  0.4813 -0.0491
  504TMC3     O 7493   1.466   3.946  16.994 -0.4032  0.8367 -0.4965
  504TMC3     H 7494   1.452   3.947  17.375  0.6855  1.2730 -1.6021
  504TMC3    H1 7495   1.678   3.828  17.036 -0.2865  1.1255 -0.1503
  504TMC3    H2 7496   1.785   3.692  17.418  1.6709  3.5167  0.4950
  504TMC3    C7 7497   1.843   3.667  17.160  0.7185 -0.6054 -0.9979
  504TMC3    C8 7498   1.622   3.880  17.542  0.1221 -0.2576 -0.2370
  504TMC3    O1 7499   1.886   3.704  17.053 -0.1622 -0.0488 -0.3576
  504TMC3    O2 7500   1.590   3.998  17.555  0.3887 -0.3317 -0.3520
  505MPD2     C 7501   2.460   2.858   9.548 -0.2440 -0.0519 -0.4765
  505MPD2    C1 7502   2.506   2.739   9.608 -0.0824 -0.5937  0.6739
  505MPD2    C2 7503   2.461   2.714   9.742 -0.4204  0.4539  0.5730
  505MPD2    C3 7504   2.382   2.798   9.813 -0.2106  0.2753  0.3517
  505MPD2    C4 7505   2.357   2.918   9.757 -0.5547 -0.5960 -0.0933
  505MPD2    C5 7506   2.401   2.945   9.633 -0.0571  0.2579  0.0684
  505MPD2     H 7507   2.512   2.641   9.805  3.7359  2.3005 -0.6769
  505MPD2    H1 7508   2.301   2.994   9.810  1.9563  1.4641 -0.4038
  505MPD2    H2 7509   2.502   2.889   9.453  0.4823  0.5937  0.0626
  505MPD2    H3 7510   2.370   3.042   9.597  3.4453  1.0087 -0.8628
  505MPD2     N 7511   2.342   2.774   9.953  0.5098  0.2204 -0.6369
  505MPD2    H5 7512   2.293   2.844  10.007 -0.6084  1.4732 -3.2401
  505MPD2    N1 7513   2.597   2.652   9.542  0.1588  0.0004 -0.1253
  505MPD2    H7 7514   2.654   2.691   9.468 -1.9244  2.5004 -0.3992
  506TMC3    C1 7515   2.736   2.466   9.524 -0.2323 -0.3900 -0.7863
  506TMC3    C2 7516   2.847   2.542   9.501  0.7278 -0.0275 -0.2284
  506TMC3    C3 7517   2.964   2.477   9.503 -0.0325  0.5941  0.1436
  506TMC3    C4 7518   2.741   2.330   9.545  0.2799 -0.3272 -0.1015
  506TMC3    C5 7519   2.866   2.271   9.570  0.7020  0.5708 -0.2329
  506TMC3    C6 7520   2.979   2.342   9.540  0.3035  0.3790  0.0991
  506TMC3     C 7521   2.618   2.521   9.581  0.1298 -0.5292  0.5469
  506TMC3     O 7522   2.562   2.455   9.667 -0.4721  0.2356  0.1825
  506TMC3     H 7523   2.840   2.648   9.480 -0.2809  0.4064  2.2703
  506TMC3    H1 7524   2.645   2.280   9.549  0.3002 -0.1929  2.0424
  506TMC3    H2 7525   3.081   2.314   9.565  0.6561  2.4437  0.9497
  506TMC3    C7 7526   2.872   2.206   9.696 -0.9409  0.3610  0.5219
  506TMC3    C8 7527   3.083   2.559   9.511  0.2019 -0.3595  0.2278
  506TMC3    O1 7528   2.976   2.151   9.731  0.1990 -0.3557  0.1182
  506TMC3    O2 7529   3.184   2.502   9.469  0.2329  0.1484  0.5235
  507TMC3    C1 7530   2.142   3.862  14.596 -0.4200 -0.2492 -0.0946
  507TMC3    C2 7531   2.105   3.891  14.467  0.4437  0.1678  0.3805
  507TMC3    C3 7532   2.204   3.928  14.382  1.4642  0.1396 -0.3522
  507TMC3    C4 7533   2.261   3.887  14.648 -0.6309 -0.6615  0.2837
  507TMC3    C5 7534   2.358   3.948  14.571  0.1679 -0.6118  0.2069
  507TMC3    C6 7535   2.325   3.963  14.435  0.0562  0.2630 -0.4533
  507TMC3     C 7536   2.080   3.749  14.650 -0.3898  0.1514  0.2859
  507TMC3     O 7537   2.146   3.675  14.719  0.5127  0.2236  0.2278
  507TMC3     H 7538   2.010   3.870  14.419  0.1327 -0.8692  1.4736
  507TMC3    H1 7539   2.271   3.857  14.752  0.8439 -3.1064 -0.5408
  507TMC3    H2 7540   2.406   3.984  14.366  0.9037 -1.0112  0.1560
  507TMC3    C7 7541   2.395   4.068  14.636 -0.2134  0.2736  0.3408
  507TMC3    C8 7542   2.179   4.048  14.311 -0.2288  1.4545 -0.2926
  507TMC3    O1 7543   2.417   4.062  14.755  0.2036  0.3149  0.4085
  507TMC3    O2 7544   2.264   4.078  14.230  0.2254  0.3738  1.0672
  508MPD2     C 7545   3.391   1.562  16.330  0.4120  0.3284  0.0560
  508MPD2    C1 7546   3.385   1.674  16.408  0.5460 -0.7122  0.0648
  508MPD2    C2 7547   3.308   1.777  16.363  0.7949  0.0115  0.0034
  508MPD2    C3 7548   3.241   1.774  16.240  0.6541  0.2124 -0.1610
  508MPD2    C4 7549   3.247   1.659  16.165  0.6636  0.2614  0.3528
  508MPD2    C5 7550   3.321   1.554  16.212 -0.3983  0.4433  0.0526
  508MPD2     H 7551   3.303   1.867  16.422  1.6065  0.1472 -0.1452
  508MPD2    H1 7552   3.191   1.655  16.073 -0.2821  1.4514  0.8736
  508MPD2    H2 7553   3.470   1.489  16.348  0.0204  0.3465  1.7883
  508MPD2    H3 7554   3.327   1.458  16.161  0.5933  0.5645 -0.0729
  508MPD2     N 7555   3.164   1.889  16.215 -0.1989  0.0158 -0.5389
  508MPD2    H5 7556   3.184   1.961  16.284  1.0902 -0.7267 -0.1374
  508MPD2    N1 7557   3.439   1.669  16.539 -0.0941  0.1492  0.2093
  508MPD2    H7 7558   3.474   1.577  16.564  0.3519  0.1227 -0.5063
  509TMC3    C1 7559   2.908   2.230  16.084 -0.4786 -0.8296 -0.1481
  509TMC3    C2 7560   3.014   2.321  16.071 -0.0392 -0.0110  0.3791
  509TMC3    C3 7561   3.143   2.277  16.060  0.3848  0.3578 -0.5492
  509TMC3    C4 7562   2.931   2.099  16.102  0.5507 -0.1232  0.0686
  509TMC3    C5 7563   3.062   2.054  16.091 -0.8858 -0.3684  0.4611
  509TMC3    C6 7564   3.169   2.140  16.070  0.4041  0.1704 -0.1116
  509TMC3     C 7565   2.798   2.253  15.993 -0.8651 -0.1613 -0.1265
  509TMC3     O 7566   2.681   2.241  16.033  0.1361 -0.5220  0.4000
  509TMC3     H 7567   2.980   2.422  16.052 -0.6753 -0.4369 -0.7754
  509TMC3    H1 7568   2.850   2.031  16.124 -0.5771  1.6864  1.5405
  509TMC3    H2 7569   3.261   2.091  16.038  0.0314  0.0997 -1.0612
  509TMC3    C7 7570   3.092   1.917  16.105  0.4319  0.1655  0.1396
  509TMC3    C8 7571   3.218   2.332  15.940  0.3148 -0.0196  0.0500
  509TMC3    O1 7572   3.071   1.856  16.003  0.2726  0.9071 -0.1858
  509TMC3    O2 7573   3.295   2.257  15.881 -0.2738 -0.6466 -0.5558
  510MPD2     C 7574   1.142   2.647  15.128 -0.4187  0.3897 -0.4107
  510MPD2    C1 7575   1.101   2.772  15.157 -0.7682  0.6069  0.1720
  510MPD2    C2 7576   1.166   2.879  15.104 -0.3738  0.0698  0.8888
  510MPD2    C3 7577   1.284   2.868  15.035  0.1586  0.3447  0.2143
  510MPD2    C4 7578   1.320   2.741  15.000 -0.0133 -0.0659 -0.3448
  510MPD2    C5 7579   1.256   2.633  15.048  0.2180 -0.0789 -0.7704
  510MPD2     H 7580   1.125   2.979  15.119  1.7959  1.3124 -1.6191
  510MPD2    H1 7581   1.411   2.718  14.946 -0.8738 -1.0707 -1.3658
  510MPD2    H2 7582   1.084   2.557  15.145  0.7835  0.0158  1.7254
  510MPD2    H3 7583   1.293   2.535  15.024  1.8860  0.7468 -1.5516
  510MPD2     N 7584   1.344   2.979  14.971 -0.8275  0.0490  0.1727
  510MPD2    H5 7585   1.300   3.070  14.965  0.0672  0.5157  0.6088
  510MPD2    N1 7586   0.987   2.780  15.240 -0.2921 -0.5436  0.5851
  510MPD2    H7 7587   0.933   2.697  15.263 -4.1044  1.6577 -0.3285
  511TMC3    C1 7588   0.854   2.885  15.403  0.6197  0.7855 -0.8198
  511TMC3    C2 7589   0.850   2.951  15.521  0.1147  0.0498 -0.7349
  511TMC3    C3 7590   0.725   2.978  15.566  0.0327  0.4366 -0.2600
  511TMC3    C4 7591   0.739   2.833  15.339 -0.2950 -0.8192  0.1228
  511TMC3    C5 7592   0.620   2.854  15.398 -0.1373  0.1123 -0.2325
  511TMC3    C6 7593   0.611   2.919  15.519  0.1386  0.3357 -0.3968
  511TMC3     C 7594   0.978   2.881  15.333 -0.1668 -0.0723  0.6163
  511TMC3     O 7595   1.064   2.961  15.371  0.7186 -0.2984 -0.4911
  511TMC3     H 7596   0.935   2.998  15.570 -1.2450  0.4062  1.2603
  511TMC3    H1 7597   0.755   2.805  15.235  0.9997  2.0192 -0.4543
  511TMC3    H2 7598   0.528   2.898  15.585 -0.3995 -0.0968 -1.2159
  511TMC3    C7 7599   0.519   2.752  15.388  0.3856  0.1350 -0.5707
  511TMC3    C8 7600   0.715   3.007  15.706 -0.2142 -1.1795 -0.7315
  511TMC3    O1 7601   0.407   2.783  15.425 -0.1127  0.4524 -0.0832
  511TMC3    O2 7602   0.614   3.060  15.746  0.2201 -0.2141  0.0200
  512TMC3    C1 7603   4.548   2.130  13.743 -0.5911  0.1329  0.8899
  512TMC3    C2 7604   4.675   2.150  13.786 -0.2653 -0.4523 -0.5147
  512TMC3    C3 7605   0.031   2.046  13.754  0.6022 -0.8479 -0.1198
  512TMC3    C4 7606   4.502   2.037  13.661 -0.1216  0.6589 -0.1145
  512TMC3    C5 7607   4.581   1.925  13.639  0.4625 -0.5131 -0.8456
  512TMC3    C6 7608   4.714   1.935  13.685  0.0669  0.1769  0.1329
  512TMC3     C 7609   4.483   2.256  13.736  0.3004 -0.4856  0.1474
  512TMC3     O 7610   4.363   2.257  13.748  0.0043  0.7324 -0.5812
  512TMC3     H 7611   4.700   2.227  13.859  2.1708 -3.4483  1.7677
  512TMC3    H1 7612   4.398   2.036  13.629 -0.0259  2.8963 -0.5223
  512TMC3    H2 7613   0.057   1.856  13.658 -0.7295 -0.3941 -0.2345
  512TMC3    C7 7614   4.561   1.882  13.499 -1.0061  0.8685 -0.1424
  512TMC3    C8 7615   0.165   2.041  13.815 -0.7238 -0.2696 -0.5641
  512TMC3    O1 7616   4.479   1.952  13.438 -0.1381  0.1081  0.5090
  512TMC3    O2 7617   0.222   1.933  13.820  0.2429 -0.3324  0.1900
  513MPD2     C 7618   1.769   2.052  13.190  0.5574  0.5531  0.0084
  513MPD2    C1 7619   1.840   2.125  13.096  0.0353  0.7070 -0.3529
  513MPD2    C2 7620   1.865   2.255  13.128 -0.3206 -0.4258 -0.1024
  513MPD2    C3 7621   1.842   2.299  13.252  0.1119  0.3482 -0.2089
  513MPD2    C4 7622   1.781   2.220  13.348  0.3124 -0.4681 -0.0136
  513MPD2    C5 7623   1.740   2.096  13.310 -0.1520 -0.0475  0.2106
  513MPD2     H 7624   1.900   2.332  13.060  1.1786 -0.5917  0.4879
  513MPD2    H1 7625   1.764   2.254  13.449  2.8323 -1.1492  0.6419
  513MPD2    H2 7626   1.730   1.952  13.176  2.8325 -0.2771 -0.3681
  513MPD2    H3 7627   1.684   2.033  13.377 -0.1805 -1.5658 -1.2652
  513MPD2     N 7628   1.888   2.432  13.282 -0.3462  0.4630  0.0447
  513MPD2    H5 7629   1.928   2.485  13.206  3.3522 -2.3639  0.0486
  513MPD2    N1 7630   1.893   2.074  12.980  0.0999 -1.3306 -0.3416
  513MPD2    H7 7631   1.938   2.142  12.920 -2.6335 -1.0246 -2.0767
  514TMC3    C1 7632   1.919   1.955  12.790 -0.6848  0.1953  0.0070
  514TMC3    C2 7633   1.837   1.932  12.679  0.4075 -0.1132 -0.0026
  514TMC3    C3 7634   1.866   2.005  12.567 -0.4329  0.0238  0.1825
  514TMC3    C4 7635   2.031   2.030  12.791 -0.3372 -0.0350 -0.1960
  514TMC3    C5 7636   2.044   2.108  12.679  0.0430 -0.5682  0.1715
  514TMC3    C6 7637   1.973   2.095  12.561 -0.0486 -0.2322  1.1239
  514TMC3     C 7638   1.854   1.955  12.920 -0.2754 -0.3976  0.4492
  514TMC3     O 7639   1.771   1.870  12.944 -0.6137  0.4926 -0.4199
  514TMC3     H 7640   1.757   1.858  12.687  0.8437 -0.1421  4.4221
  514TMC3    H1 7641   2.096   2.034  12.877  1.1908 -1.3340 -1.2954
  514TMC3    H2 7642   2.000   2.154  12.474 -0.6491 -2.1323 -0.3487
  514TMC3    C7 7643   2.098   2.239  12.709 -0.0619 -0.2679 -0.5459
  514TMC3    C8 7644   1.814   1.947  12.443  0.3915 -0.0622  0.3588
  514TMC3    O1 7645   2.158   2.247  12.816  0.1261  0.0924 -0.1592
  514TMC3    O2 7646   1.710   1.884  12.450  0.3499 -0.0199  0.6817
  515MPD2     C 7647   4.601   4.231  15.187 -0.0320 -0.3506 -0.4936
  515MPD2    C1 7648   4.620   4.314  15.077  0.4478  0.1506  1.1050
  515MPD2    C2 7649   0.013   4.378  15.060  0.5405  0.5150  0.1991
  515MPD2    C3 7650   0.107   4.384  15.163 -0.3524 -0.4407  0.2164
  515MPD2    C4 7651   0.087   4.311  15.278 -0.1586 -0.0310 -0.5930
  515MPD2    C5 7652   4.704   4.225  15.280 -0.4033  0.0475 -0.1255
  515MPD2     H 7653   0.013   4.443  14.973  1.5611  0.2905  0.0396
  515MPD2    H1 7654   0.151   4.302  15.364 -0.4382 -1.0043 -0.4847
  515MPD2    H2 7655   4.523   4.156  15.200  0.3264 -0.9799 -1.9541
  515MPD2    H3 7656   4.694   4.159  15.366 -1.1681  1.9261  1.2191
  515MPD2     N 7657   0.219   4.463  15.163 -0.4048  0.1442 -0.0992
  515MPD2    H5 7658   0.269   4.467  15.252  0.6143 -1.7077 -0.5855
  515MPD2    N1 7659   4.527   4.333  14.975  0.3774  0.4942 -0.4174
  515MPD2    H7 7660   4.559   4.383  14.892 -0.2829  1.7565  0.0818
  516TMC3    C1 7661   4.314   4.290  14.860 -0.7360  0.8595  0.0418
  516TMC3    C2 7662   4.380   4.284  14.742  0.4760 -0.0138  0.4776
  516TMC3    C3 7663   4.308   4.246  14.631  0.0518 -1.1694 -0.6723
  516TMC3    C4 7664   4.184   4.243  14.876  0.1186 -0.5129  0.1720
  516TMC3    C5 7665   4.118   4.192  14.765  0.6155  0.3534 -0.2922
  516TMC3    C6 7666   4.177   4.199  14.641 -0.0656 -0.3509  0.1803
  516TMC3     C 7667   4.392   4.286  14.981  0.1995  0.6207 -0.7601
  516TMC3     O 7668   4.329   4.256  15.081  0.1150 -0.1374 -0.3473
  516TMC3     H 7669   4.480   4.325  14.735 -0.1453  1.5228  0.6637
  516TMC3    H1 7670   4.134   4.231  14.971 -0.0504 -0.2764  0.1127
  516TMC3    H2 7671   4.139   4.153  14.551 -0.0565 -1.1457  0.5822
  516TMC3    C7 7672   4.010   4.105  14.791 -0.6034  0.1030 -0.5485
  516TMC3    C8 7673   4.377   4.214  14.505  0.0145 -0.1920  0.9106
  516TMC3    O1 7674   3.984   4.074  14.905 -0.4640 -0.1487 -0.5920
  516TMC3    O2 7675   4.336   4.125  14.432  0.6687  0.0072  0.5088
  517MPD2     C 7676   4.234   0.924  17.521 -0.5961  0.0687  0.1409
  517MPD2    C1 7677   4.341   0.924  17.612  0.3253  0.1430 -0.4827
  517MPD2    C2 7678   4.373   1.042  17.679  0.0953 -0.0158  0.5777
  517MPD2    C3 7679   4.315   1.166  17.655  0.1574  0.5926  0.6857
  517MPD2    C4 7680   4.214   1.167  17.554  0.1602 -0.8257  0.0278
  517MPD2    C5 7681   4.180   1.048  17.492 -0.1611 -0.1072  0.5982
  517MPD2     H 7682   4.454   1.030   0.041 -0.6377 -0.2146  1.3963
  517MPD2    H1 7683   4.172   1.264  17.532  1.9219  0.1302  0.8733
  517MPD2    H2 7684   4.197   0.833  17.475 -0.9451  0.4336 -0.3113
  517MPD2    H3 7685   4.107   1.050  17.412 -0.0274  0.2683  0.4848
  517MPD2     N 7686   4.345   1.286   0.015  0.5983  0.1996  0.4619
  517MPD2    H5 7687   4.288   1.368  17.705 -0.2403 -0.5217 -0.1603
  517MPD2    N1 7688   4.412   0.808  17.657  0.1130  0.2726 -0.0479
  517MPD2    H7 7689   4.475   0.821   0.027 -1.8292 -0.4557  1.6309
  518TMC3    C1 7690   4.507   0.591  17.628 -0.2339  0.2151  0.4508
  518TMC3    C2 7691   4.489   0.459  17.607 -0.3485 -0.0948 -0.2132
  518TMC3    C3 7692   4.596   0.383  17.643 -0.3253 -0.5878 -0.7426
  518TMC3    C4 7693   4.628   0.648  17.670 -0.1959 -0.0657  0.0695
  518TMC3    C5 7694   0.004   0.562  17.685 -0.5073 -0.5984 -0.4841
  518TMC3    C6 7695   4.718   0.424  17.683  0.2679  0.2075  0.2284
  518TMC3     C 7696   4.401   0.684  17.598  0.0644  0.2182  0.1116
  518TMC3     O 7697   4.320   0.644  17.516  0.0777  0.2018  0.2916
  518TMC3     H 7698   4.401   0.421  17.556  0.0234 -0.1041 -0.8561
  518TMC3    H1 7699   4.656   0.751  17.649  1.1685 -0.1070  1.7100
  518TMC3    H2 7700   0.073   0.357  17.706  0.1519  1.2796  3.8054
  518TMC3    C7 7701   0.126   0.621   0.033 -0.5846  0.1243 -0.2069
  518TMC3    C8 7702   4.572   0.242  17.633 -0.2866 -0.5110  0.2669
  518TMC3    O1 7703   0.116   0.736   0.069 -0.2911  0.0544 -0.3575
  518TMC3    O2 7704   4.670   0.168  17.620 -0.0854 -0.2884 -0.4523
  519MPD2     C 7705   1.340   4.350  13.973  0.1548  0.6886 -0.2813
  519MPD2    C1 7706   1.222   4.283  14.014  0.6525  0.5898 -0.0503
  519MPD2    C2 7707   1.228   4.154  14.069  0.0899 -0.2674 -0.3960
  519MPD2    C3 7708   1.352   4.090  14.068  0.6733 -0.1074 -0.0469
  519MPD2    C4 7709   1.465   4.157  14.035 -0.5835 -0.1271  0.4653
  519MPD2    C5 7710   1.460   4.281  13.973 -0.0050  0.3676 -0.4730
  519MPD2     H 7711   1.140   4.106  14.112  0.0048 -2.9144 -3.4782
  519MPD2    H1 7712   1.559   4.103  14.041 -1.2659 -1.5299 -1.6864
  519MPD2    H2 7713   1.343   4.450  13.931 -2.4028  1.2619  0.9390
  519MPD2    H3 7714   1.550   4.329  13.935 -1.0994  0.2621 -3.1647
  519MPD2     N 7715   1.375   3.961  14.117  0.0609 -0.2102 -0.2284
  519MPD2    H5 7716   1.473   3.937  14.128  0.3700  1.0703 -0.1564
  519MPD2    N1 7717   1.106   4.350  13.983  0.5894 -0.1810 -0.0739
  519MPD2    H7 7718   1.111   4.431  13.922 -2.1053  1.3364  1.6952
  520TMC3    C1 7719   1.313   3.729  14.148 -0.3640  0.1752  0.4966
  520TMC3    C2 7720   1.236   3.628  14.101  0.0305  0.1393 -0.0113
  520TMC3    C3 7721   1.276   3.504  14.136 -0.7288  0.7659 -0.0622
  520TMC3    C4 7722   1.435   3.710  14.220 -0.9776 -0.0212  0.5064
  520TMC3    C5 7723   1.471   3.581  14.251 -0.6678  0.4330 -0.9257
  520TMC3    C6 7724   1.395   3.477  14.202  0.1484  0.0794  0.0773
  520TMC3     C 7725   1.277   3.864  14.126  0.2827  0.8084 -0.7470
  520TMC3     O 7726   1.159   3.880  14.103 -0.3323 -0.4732  0.0784
  520TMC3     H 7727   1.141   3.653  14.054 -0.7750  0.1060  1.5826
  520TMC3    H1 7728   1.493   3.792  14.261  1.3014 -0.1997 -2.3109
  520TMC3    H2 7729   1.414   3.371  14.216  1.3106  0.3561  0.6000
  520TMC3    C7 7730   1.605   3.543  14.308 -0.1151  0.5380  0.2776
  520TMC3    C8 7731   1.216   3.388  14.061  0.6540  0.5299 -0.5370
  520TMC3    O1 7732   1.614   3.430  14.340  0.2671  0.1923 -0.0840
  520TMC3    O2 7733   1.270   3.282  14.065 -0.0442  1.0102 -0.5608
  521MPD2     C 7734   1.921   1.962  17.590  0.3789  0.6599  0.0783
  521MPD2    C1 7735   1.935   1.923  17.464 -0.3355  1.3782 -0.0446
  521MPD2    C2 7736   2.042   1.859  17.419 -0.0196  0.1334 -0.3855
  521MPD2    C3 7737   2.146   1.841  17.512  0.1368 -0.3332  0.1478
  521MPD2    C4 7738   2.128   1.870  17.646  0.1377 -0.3211 -0.9940
  521MPD2    C5 7739   2.016   1.937  17.686  0.1072  0.1328  0.8882
  521MPD2     H 7740   2.055   1.825  17.317 -0.9005  0.7180 -0.6902
  521MPD2    H1 7741   2.205   1.853   0.012  1.0210  1.8057 -1.4330
  521MPD2    H2 7742   1.831   2.013  17.621  1.0150  0.8623  1.5899
  521MPD2    H3 7743   1.995   1.953   0.083  0.3196  0.8007  0.8275
  521MPD2     N 7744   2.258   1.763  17.468  0.0493  0.2041 -0.1185
  521MPD2    H5 7745   2.254   1.739  17.370 -1.3793  0.3651 -0.1019
  521MPD2    N1 7746   1.830   1.948  17.372  0.9435 -0.0829 -0.4584
  521MPD2    H7 7747   1.754   1.997  17.417  1.9976  1.9783 -0.9257
  522TMC3    C1 7748   2.498   1.732  17.443 -0.4579 -0.2356 -0.2119
  522TMC3    C2 7749   2.618   1.735  17.502 -0.3267  0.2973 -0.3094
  522TMC3    C3 7750   2.732   1.750  17.430 -0.0808 -0.9735  0.2273
  522TMC3    C4 7751   2.489   1.744  17.308  0.5526 -0.2964 -0.4344
  522TMC3    C5 7752   2.603   1.788  17.244 -0.2239 -0.3390 -0.6691
  522TMC3    C6 7753   2.732   1.786  17.297  0.3545 -0.2911 -0.5698
  522TMC3     C 7754   2.384   1.763  17.533  0.1666 -0.1542  0.1675
  522TMC3     O 7755   2.410   1.784  17.651 -0.1162  0.2096 -0.0814
  522TMC3     H 7756   2.621   1.718  17.609  1.3903  1.0616 -0.2425
  522TMC3    H1 7757   2.396   1.749  17.252 -1.0933 -0.6219  2.2988
  522TMC3    H2 7758   2.823   1.820  17.249  0.8160 -2.2805 -1.0727
  522TMC3    C7 7759   2.606   1.778  17.102 -0.7721 -0.0024 -1.1395
  522TMC3    C8 7760   2.859   1.742  17.508  0.2927 -0.4505  0.9883
  522TMC3    O1 7761   2.689   1.695  17.059 -0.0925  0.2677  0.3416
  522TMC3    O2 7762   2.854   1.726  17.631  0.5840  0.2633  0.3613
  523MPD2     C 7763   0.256   2.008  10.119 -0.0273  0.5221 -0.1339
  523MPD2    C1 7764   0.231   1.886  10.064  0.1079 -0.2859  0.9040
  523MPD2    C2 7765   0.163   1.870   9.946 -0.4696  0.3232  0.2161
  523MPD2    C3 7766   0.133   1.978   9.872 -0.3539 -0.1029  0.4679
  523MPD2    C4 7767   0.159   2.102   9.924 -0.7186  0.1401 -0.3992
  523MPD2    C5 7768   0.221   2.118  10.047 -0.1691 -0.3362  0.8510
  523MPD2     H 7769   0.142   1.767   9.917  0.7803  1.1151 -3.4128
  523MPD2    H1 7770   0.130   2.189   9.866 -0.5717 -0.6831 -1.7075
  523MPD2    H2 7771   0.307   2.009  10.215  0.3244 -3.2547 -0.2833
  523MPD2    H3 7772   0.235   2.215  10.093 -1.0800  0.4123 -0.4377
  523MPD2     N 7773   0.086   1.970   9.738 -0.1997  0.2743 -0.3261
  523MPD2    H5 7774   0.069   2.060   9.694  2.0213  1.5559  1.4092
  523MPD2    N1 7775   0.268   1.774  10.141 -0.0221  0.0617 -0.0288
  523MPD2    H7 7776   0.331   1.794  10.218 -0.4255 -1.6505  0.7569
  524TMC3    C1 7777   4.695   1.863   9.550  0.3372  0.2443  0.6079
  524TMC3    C2 7778   4.605   1.769   9.513 -0.0910 -0.4655 -0.2981
  524TMC3    C3 7779   4.546   1.792   9.394  0.3161 -0.3250  0.2452
  524TMC3    C4 7780   4.688   1.988   9.498 -0.0439  0.0231  0.9327
  524TMC3    C5 7781   4.614   2.013   9.385  0.0466 -0.2144 -0.1451
  524TMC3    C6 7782   4.547   1.914   9.322 -0.1838  0.0886  0.5488
  524TMC3     C 7783   0.032   1.854   9.682 -0.0514 -0.4616  0.1671
  524TMC3     O 7784   0.051   1.739   9.711  0.0901 -0.5282 -0.1170
  524TMC3     H 7785   4.618   1.667   9.545  0.9680 -0.4789 -0.7678
  524TMC3    H1 7786   0.034   2.065   9.520  0.3591  0.6358 -2.5435
  524TMC3    H2 7787   4.491   1.925   9.230 -2.4254  1.3246  2.0537
  524TMC3    C7 7788   4.579   2.152   9.370  0.5825 -0.2588 -0.4607
  524TMC3    C8 7789   4.448   1.697   9.339 -0.9111 -0.6009  0.2885
  524TMC3    O1 7790   4.621   2.229   9.456 -0.9284  0.2957  0.3733
  524TMC3    O2 7791   4.428   1.711   9.219  0.1728  0.1643 -0.0330
  525MPD2     C 7792   2.561   3.465  14.704 -0.0647  0.3177  0.9503
  525MPD2    C1 7793   2.682   3.515  14.746  0.3339 -0.8238 -0.2634
  525MPD2    C2 7794   2.735   3.630  14.679  1.0621  0.0381 -1.0471
  525MPD2    C3 7795   2.670   3.691  14.577 -0.5063 -0.0426 -0.3030
  525MPD2    C4 7796   2.550   3.636  14.533  0.4578 -0.6266  0.0829
  525MPD2    C5 7797   2.497   3.523  14.589  0.3587  0.7163  0.3090
  525MPD2     H 7798   2.836   3.656  14.709  0.4579 -1.3142  2.1147
  525MPD2    H1 7799   2.500   3.685  14.450  0.8657 -2.1443 -1.0627
  525MPD2    H2 7800   2.508   3.377  14.740  0.4140 -0.3996 -0.1050
  525MPD2    H3 7801   2.401   3.483  14.558  0.6941  0.8066 -0.8462
  525MPD2     N 7802   2.722   3.798  14.503 -0.0421  0.1938 -0.0839
  525MPD2    H5 7803   2.661   3.840  14.434 -1.9606  0.3164  1.6923
  525MPD2    N1 7804   2.755   3.453  14.856 -0.2531  0.1553 -0.2182
  525MPD2    H7 7805   2.837   3.504  14.886 -0.7821 -0.3199  2.0435
  526TMC3    C1 7806   2.791   3.309  15.040 -0.3884  0.0527  0.1268
  526TMC3    C2 7807   2.740   3.288  15.160 -0.1627 -0.2216  1.0400
  526TMC3    C3 7808   2.829   3.268  15.267  0.1222  0.7337  0.6271
  526TMC3    C4 7809   2.918   3.304  15.013  0.4901 -0.1576  0.1831
  526TMC3    C5 7810   3.006   3.279  15.118  0.0064 -0.1493 -0.5787
  526TMC3    C6 7811   2.967   3.276  15.247  0.0650 -0.0259 -0.2454
  526TMC3     C 7812   2.697   3.356  14.941 -0.5703 -0.3114  0.0760
  526TMC3     O 7813   2.577   3.337  14.958 -0.2026 -0.4170 -0.5973
  526TMC3     H 7814   2.634   3.294  15.183 -0.0482  1.3128  1.1854
  526TMC3    H1 7815   2.964   3.321  14.916  1.0791  0.0920  0.5013
  526TMC3    H2 7816   3.033   3.258  15.331 -1.0804  1.6312  1.0247
  526TMC3    C7 7817   3.145   3.241  15.098  0.8120  0.1026 -0.5652
  526TMC3    C8 7818   2.792   3.285  15.407 -0.1813  0.1271 -0.0064
  526TMC3    O1 7819   3.211   3.243  15.202 -0.0968  0.1005  0.3187
  526TMC3    O2 7820   2.847   3.384  15.465  0.3824 -0.3987 -0.2694
  527MPD2     C 7821   0.847   1.972   1.384 -0.5413  0.2047 -0.2823
  527MPD2    C1 7822   0.902   1.855   1.421 -0.0449 -0.4794  0.1769
  527MPD2    C2 7823   1.007   1.805   1.346 -0.0689 -0.8509 -0.8801
  527MPD2    C3 7824   1.045   1.867   1.228 -0.6365  0.2391  0.6866
  527MPD2    C4 7825   0.978   1.980   1.184 -0.1564  0.1897  0.3684
  527MPD2    C5 7826   0.885   2.036   1.270  0.2573  0.2968  0.5717
  527MPD2     H 7827   1.051   1.712   1.381  0.0491  0.0407  1.3387
  527MPD2    H1 7828   1.012   2.029   1.093  1.4706 -0.5602  0.5700
  527MPD2    H2 7829   0.768   2.020   1.441 -0.5161 -0.3490  0.2221
  527MPD2    H3 7830   0.833   2.125   1.237 -1.0444 -0.2405  1.1914
  527MPD2     N 7831   1.143   1.800   1.158  0.1494 -0.0679 -0.1800
  527MPD2    H5 7832   1.179   1.716   1.201 -0.6109 -1.6050 -2.5458
  527MPD2    N1 7833   0.859   1.782   1.539 -0.2952 -0.0190 -0.6822
  527MPD2    H7 7834   0.908   1.694   1.547  1.2897  1.0751  1.6906
  528TMC3    C1 7835   0.727   1.727   1.732  0.4264  0.5199 -1.2834
  528TMC3    C2 7836   0.817   1.627   1.767 -0.2256 -0.1188 -0.3479
  528TMC3    C3 7837   0.777   1.533   1.857  0.8808 -0.2004  0.1287
  528TMC3    C4 7838   0.602   1.739   1.788  0.0163  0.3496  0.2309
  528TMC3    C5 7839   0.563   1.624   1.858 -0.1899 -0.3686  0.1321
  528TMC3    C6 7840   0.650   1.530   1.905 -0.3695 -0.2472  0.3244
  528TMC3     C 7841   0.751   1.817   1.620 -0.0771 -0.4180 -0.3007
  528TMC3     O 7842   0.671   1.904   1.590  0.6064  0.6769 -0.2755
  528TMC3     H 7843   0.921   1.637   1.741 -0.4753  2.4089 -0.3904
  528TMC3    H1 7844   0.528   1.817   1.772  1.2004  1.1702 -1.1310
  528TMC3    H2 7845   0.605   1.453   1.966  2.4269 -0.0314  2.6675
  528TMC3    C7 7846   0.433   1.622   1.921 -0.0360  1.1314  0.5020
  528TMC3    C8 7847   0.878   1.433   1.892  0.3260 -0.1101 -0.1483
  528TMC3    O1 7848   0.398   1.513   1.974 -0.1838 -0.5650 -0.0390
  528TMC3    O2 7849   0.990   1.455   1.850 -0.0376 -0.4347 -0.3587
  529MPD2     C 7850   3.776   4.511   0.348  0.4797 -0.9147 -1.0046
  529MPD2    C1 7851   3.642   4.525   0.313  0.4565 -0.7107  0.2661
  529MPD2    C2 7852   3.607   4.605   0.207  0.3959 -0.1995 -0.4458
  529MPD2    C3 7853   3.710   4.675   0.137  0.1930  0.0406  0.4068
  529MPD2    C4 7854   3.839   4.660   0.180  0.1291 -0.2093  0.8147
  529MPD2    C5 7855   3.869   4.580   0.280 -0.1137  0.3229  0.9134
  529MPD2     H 7856   3.504   4.619   0.177  0.3348  0.7454  0.2188
  529MPD2    H1 7857   3.921   4.699   0.122 -0.7061  0.0176 -0.1953
  529MPD2    H2 7858   3.822   4.457   0.429 -0.3653  2.4930  1.7059
  529MPD2    H3 7859   3.974   4.574   0.306 -0.3135 -2.3808  1.1118
  529MPD2     N 7860   3.691   0.031   0.031 -0.6227  0.2511  0.7207
  529MPD2    H5 7861   3.762   0.101   0.010 -1.5089  0.6453 -0.8980
  529MPD2    N1 7862   3.537   4.465   0.385  0.6885 -0.2057  0.4604
  529MPD2    H7 7863   3.442   4.494   0.362  1.1851  1.9020  1.0912
  530TMC3    C1 7864   3.419   4.371   0.568 -0.2772 -0.1219 -0.4819
  530TMC3    C2 7865   3.425   4.321   0.696 -0.2062 -0.1255 -0.4602
  530TMC3    C3 7866   3.303   4.274   0.734 -0.2349  0.6003 -0.1773
  530TMC3    C4 7867   3.309   4.346   0.491 -0.3138  0.2447 -0.0757
  530TMC3    C5 7868   3.194   4.282   0.532 -0.7666  0.1280  0.1257
  530TMC3    C6 7869   3.184   4.257   0.666  0.3445  0.2142  0.3587
  530TMC3     C 7870   3.550   4.391   0.502  0.1104 -0.6896 -0.4803
  530TMC3     O 7871   3.657   4.355   0.549 -0.1309  0.6465 -0.2838
  530TMC3     H 7872   3.517   4.328   0.754 -0.2657  0.0696 -0.3873
  530TMC3    H1 7873   3.313   4.385   0.390 -0.4581  2.3400  0.7443
  530TMC3    H2 7874   3.094   4.226   0.718 -0.5500  2.4229  0.1524
  530TMC3    C7 7875   3.066   4.306   0.465 -0.1991  0.0993  0.0315
  530TMC3    C8 7876   3.277   4.289   0.873 -0.4693  0.1363 -0.0793
  530TMC3    O1 7877   2.961   4.327   0.531 -0.4306 -0.4778 -0.0490
  530TMC3    O2 7878   3.161   4.309   0.918 -0.3787  0.2424 -0.4554
  531MPD2     C 7879   2.127   2.744  12.706 -0.3420  0.1792 -0.6225
  531MPD2    C1 7880   2.099   2.663  12.819  0.3458  0.3648 -1.0995
  531MPD2    C2 7881   2.071   2.529  12.792  0.5492  0.4035  1.0836
  531MPD2    C3 7882   2.075   2.483  12.661 -0.1087 -0.6091  0.0933
  531MPD2    C4 7883   2.088   2.565  12.551  1.2485 -0.1656  0.0546
  531MPD2    C5 7884   2.109   2.699  12.577  0.2101  0.0205 -0.5570
  531MPD2     H 7885   2.047   2.460  12.872 -0.6653 -2.8361 -2.0558
  531MPD2    H1 7886   2.083   2.535  12.447 -2.2509 -0.1021  0.2105
  531MPD2    H2 7887   2.144   2.850  12.724  1.9814 -0.9704  3.7428
  531MPD2    H3 7888   2.121   2.765  12.492 -1.5020  0.0847 -0.7536
  531MPD2     N 7889   2.061   2.344  12.628 -0.2238  0.4413  0.3756
  531MPD2    H5 7890   2.054   2.308  12.533  2.7217 -0.8747  0.6500
  531MPD2    N1 7891   2.079   2.721  12.946 -0.6861 -0.1802  0.1246
  531MPD2    H7 7892   2.080   2.823  12.948  1.7413 -0.2240  1.7484
  532TMC3    C1 7893   2.044   2.732  13.177  0.1642  0.0634 -0.5371
  532TMC3    C2 7894   1.934   2.675  13.236 -0.7808 -0.1861 -0.7853
  532TMC3    C3 7895   1.935   2.629  13.366 -0.0696 -0.5216 -0.0608
  532TMC3    C4 7896   2.159   2.752  13.243 -0.0656 -0.5162 -0.1738
  532TMC3    C5 7897   2.151   2.717  13.375  0.8746 -0.0850  0.3402
  532TMC3    C6 7898   2.043   2.662  13.441  0.2118 -0.5202  0.1076
  532TMC3     C 7899   2.060   2.653  13.062  0.3612  0.3890  0.9470
  532TMC3     O 7900   2.033   2.531  13.080  0.1879  0.0265 -0.5517
  532TMC3     H 7901   1.847   2.648  13.177 -3.0275 -0.8097  2.7994
  532TMC3    H1 7902   2.247   2.773  13.183  0.0123  1.8064  0.7718
  532TMC3    H2 7903   2.048   2.640  13.547 -0.8312 -3.8114 -0.5223
  532TMC3    C7 7904   2.279   2.679  13.433 -0.1636 -0.2335  0.7737
  532TMC3    C8 7905   1.876   2.500  13.399 -0.1559  0.8286 -0.8815
  532TMC3    O1 7906   2.291   2.687  13.551 -0.0121  0.1213 -0.1426
  532TMC3    O2 7907   1.847   2.466  13.516  0.1501 -0.3467  0.0934
  533TMC3    C1 7908   2.824   3.999  14.496  0.0190 -0.0380 -0.1101
  533TMC3    C2 7909   2.931   4.066  14.447 -0.4825 -0.1999 -0.2330
  533TMC3    C3 7910   2.943   4.198  14.491 -0.4934 -1.1928  0.5881
  533TMC3    C4 7911   2.756   4.047  14.599 -0.4341  0.7736  0.5709
  533TMC3    C5 7912   2.768   4.172  14.652  0.5300 -0.0837 -0.6860
  533TMC3    C6 7913   2.855   4.255  14.580 -0.0845 -0.5343  0.3111
  533TMC3     C 7914   2.840   3.858  14.518 -0.1929  0.1422  1.0688
  533TMC3     O 7915   2.942   3.831  14.582  0.1606 -0.2338  0.4423
  533TMC3     H 7916   3.002   4.021  14.378 -1.0051 -0.0583 -0.8652
  533TMC3    H1 7917   2.714   3.975  14.669  0.5969  1.8414  2.2674
  533TMC3    H2 7918   2.865   4.357  14.615  1.7962 -0.3603 -0.7480
  533TMC3    C7 7919   2.776   4.175  14.798  0.2896 -0.1094  0.1198
  533TMC3    C8 7920   3.075   4.234  14.512 -0.9523  0.3423  0.4356
  533TMC3    O1 7921   2.682   4.120  14.856 -0.1605 -0.2207 -0.2729
  533TMC3    O2 7922   3.087   4.284  14.624  0.3176  0.6103  0.0023
  534MPD2     C 7923   0.550   0.657   2.115 -0.2400  0.4739 -0.6426
  534MPD2    C1 7924   0.565   0.684   1.981  0.5233  0.2069  0.1483
  534MPD2    C2 7925   0.467   0.624   1.907  0.2826  0.3037 -0.1725
  534MPD2    C3 7926   0.370   0.533   1.968  0.2263 -0.3805  0.1355
  534MPD2    C4 7927   0.370   0.508   2.097 -0.1361  0.2640  0.1199
  534MPD2    C5 7928   0.459   0.578   2.177  0.4426  0.1238 -0.4810
  534MPD2     H 7929   0.472   0.631   1.799 -0.4155 -0.8626 -0.2845
  534MPD2    H1 7930   0.294   0.444   2.140  0.3783  1.1091  2.2971
  534MPD2    H2 7931   0.613   0.718   2.178  0.2007  1.0401 -1.6183
  534MPD2    H3 7932   0.443   0.558   2.282 -0.5685 -1.0302 -0.8568
  534MPD2     N 7933   0.275   0.459   1.898 -0.2187 -0.5093 -0.7636
  534MPD2    H5 7934   0.221   0.385   1.943  0.7317 -1.4286 -1.1253
  534MPD2    N1 7935   0.660   0.772   1.926  0.2221  0.4878  0.2697
  534MPD2    H7 7936   0.644   0.802   1.830  0.8735 -0.0082  0.0022
  535TMC3    C1 7937   0.163   0.373   1.707 -0.3661 -0.1045 -0.2999
  535TMC3    C2 7938   0.055   0.350   1.786 -0.1988  0.0751  0.0824
  535TMC3    C3 7939   4.702   0.247   1.746 -0.8461 -0.2817 -0.8163
  535TMC3    C4 7940   0.202   0.306   1.593  0.3246  0.5869  0.0093
  535TMC3    C5 7941   0.119   0.205   1.555 -0.4051 -0.6075  0.4790
  535TMC3    C6 7942   0.012   0.170   1.631  0.3850  0.2290 -0.8972
  535TMC3     C 7943   0.272   0.455   1.762 -0.5868  0.3659  0.3195
  535TMC3     O 7944   0.329   0.524   1.679 -0.7723  0.3692 -0.1470
  535TMC3     H 7945   0.020   0.417   1.864  1.8260 -2.5038  3.2163
  535TMC3    H1 7946   0.285   0.339   1.531 -0.2936  0.4034 -0.9178
  535TMC3    H2 7947   4.675   0.084   1.613  0.2589  0.1141  0.0734
  535TMC3    C7 7948   0.137   0.138   1.430  0.2243 -0.1993  0.2010
  535TMC3    C8 7949   4.577   0.215   1.815 -0.3236 -0.3685 -0.0044
  535TMC3    O1 7950   0.255   0.113   1.401  0.1849  0.4265 -0.3101
  535TMC3    O2 7951   4.505   0.149   1.747 -0.4395 -0.3741  0.3467
  536MPD2     C 7952   4.722   2.690  16.543  0.0032 -0.7150  0.4885
  536MPD2    C1 7953   4.591   2.665  16.580  0.5090  0.4779  0.0565
  536MPD2    C2 7954   4.488   2.696  16.485 -0.5767 -0.1035  0.2434
  536MPD2    C3 7955   4.524   2.753  16.359 -0.3924 -0.6649  0.1099
  536MPD2    C4 7956   4.652   2.787  16.337 -0.0853  0.2822  0.1743
  536MPD2    C5 7957   0.022   2.752  16.423  0.1210  0.1768 -0.8753
  536MPD2     H 7958   4.385   2.670  16.508 -0.8459  2.0229  1.4186
  536MPD2    H1 7959   4.671   2.849  16.251 -0.4151  0.3719  0.1694
  536MPD2    H2 7960   0.077   2.665  16.610  0.6757  0.5039  0.1040
  536MPD2    H3 7961   0.119   2.773  16.381  0.6367 -0.8842 -0.2097
  536MPD2     N 7962   4.431   2.798  16.264  0.5157 -0.4108 -0.1434
  536MPD2    H5 7963   4.472   2.854  16.190  0.0575  2.2251  1.6168
  536MPD2    N1 7964   4.563   2.624  16.713  0.0122  0.8150 -0.1320
  536MPD2    H7 7965   4.643   2.610  16.772 -0.0081  0.6124 -0.1500
  537TMC3    C1 7966   4.443   2.577  16.906  0.3010  0.0414 -0.1041
  537TMC3    C2 7967   4.509   2.665  16.982  0.2671  0.4230  0.8651
  537TMC3    C3 7968   4.522   2.652  17.118 -0.0381 -0.3361 -0.2887
  537TMC3    C4 7969   4.359   2.487  16.967  0.1660 -0.2464 -0.6037
  537TMC3    C5 7970   4.358   2.489  17.103 -0.6631 -0.6780 -0.7292
  537TMC3    C6 7971   4.431   2.573  17.181 -0.9413  0.1723  0.0785
  537TMC3     C 7972   4.441   2.592  16.761 -0.0088 -0.5219 -0.5154
  537TMC3     O 7973   4.328   2.586  16.709  0.2653  0.4432  0.1519
  537TMC3     H 7974   4.563   2.737  16.922  0.0474 -3.0200 -3.4048
  537TMC3    H1 7975   4.293   2.431  16.901 -0.9588  1.6393 -1.0772
  537TMC3    H2 7976   4.443   2.547  17.286  1.6027  1.1924  0.0590
  537TMC3    C7 7977   4.267   2.397  17.175  0.6849  0.4094  0.0724
  537TMC3    C8 7978   4.587   2.756  17.195  0.1378  0.3379 -0.0536
  537TMC3    O1 7979   4.246   2.292  17.115 -0.2573 -0.2054  0.7675
  537TMC3    O2 7980   4.568   2.734  17.314  0.1898 -0.4174 -0.2113
  538TMC3    C1 7981   0.521   1.829  11.105  0.0304  0.3910 -0.3820
  538TMC3    C2 7982   0.652   1.837  11.118  0.1249  0.6055 -0.2702
  538TMC3    C3 7983   0.718   1.898  11.018  0.6171  0.0808  1.4839
  538TMC3    C4 7984   0.451   1.879  11.001 -0.3126 -0.5818  0.4464
  538TMC3    C5 7985   0.526   1.936  10.905  0.2216  0.1376  0.2452
  538TMC3    C6 7986   0.660   1.946  10.910  0.1369 -0.3513  0.7258
  538TMC3     C 7987   0.443   1.732  11.187 -0.3880 -0.9612 -1.0290
  538TMC3     O 7988   0.348   1.685  11.127 -0.0988  0.1079 -0.0598
  538TMC3     H 7989   0.706   1.783  11.195 -0.1983  0.0526 -0.4266
  538TMC3    H1 7990   0.344   1.890  11.002 -0.4243 -1.5905 -0.0092
  538TMC3    H2 7991   0.712   1.987  10.824  0.2890  0.0828  1.0245
  538TMC3    C7 7992   0.468   1.929  10.778 -0.0329  0.1152  0.5844
  538TMC3    C8 7993   0.864   1.901  11.017 -0.0050  0.1882 -0.0949
  538TMC3    O1 7994   0.497   2.005  10.687  0.3299 -0.1041  0.1545
  538TMC3    O2 7995   0.911   1.946  10.912 -0.4868  0.4358 -0.1459
  539MPD2     C 7996   0.573   0.853  12.008 -0.4276  0.1824  0.1293
  539MPD2    C1 7997   0.547   0.776  11.898 -0.0995  0.4089  0.0148
  539MPD2    C2 7998   0.421   0.766  11.849 -0.2739 -0.0153 -0.2939
  539MPD2    C3 7999   0.309   0.821  11.909  1.0613  0.2465 -0.1013
  539MPD2    C4 8000   0.332   0.883  12.029 -0.2924  0.2360 -0.3296
  539MPD2    C5 8001   0.465   0.911  12.070 -0.4922  0.1640 -0.4261
  539MPD2     H 8002   0.412   0.710  11.757 -2.1326  1.0485 -0.7541
  539MPD2    H1 8003   0.247   0.922  12.083  0.3065 -0.2628  0.9770
  539MPD2    H2 8004   0.674   0.856  12.049 -0.6267 -0.5631  0.6877
  539MPD2    H3 8005   0.478   0.957  12.167 -4.0499  2.9584 -1.2514
  539MPD2     N 8006   0.174   0.799  11.877 -0.4792 -0.3560 -0.3938
  539MPD2    H5 8007   0.095   0.825  11.935  1.7209  0.7283  2.0836
  539MPD2    N1 8008   0.647   0.716  11.812 -0.4269 -0.0549 -0.3696
  539MPD2    H7 8009   0.623   0.675  11.722  1.5559 -0.7616 -0.5745
  540TMC3    C1 8010   0.002   0.734  11.720 -0.2846 -0.0453 -0.4469
  540TMC3    C2 8011   4.687   0.724  11.591 -0.0804  0.0068 -0.0692
  540TMC3    C3 8012   4.556   0.709  11.569  0.1392 -0.1804  0.2023
  540TMC3    C4 8013   4.641   0.728  11.820 -0.0799  0.2392 -0.4842
  540TMC3    C5 8014   4.505   0.700  11.799  0.5249  0.4681  0.4799
  540TMC3    C6 8015   4.457   0.689  11.670 -0.5761 -0.0555 -0.8671
  540TMC3     C 8016   0.137   0.756  11.750  0.8557 -0.8514 -0.0813
  540TMC3     O 8017   0.213   0.767  11.660  0.3016  0.1339  0.7877
  540TMC3     H 8018   0.028   0.736  11.507 -0.2344  1.0051 -0.0434
  540TMC3    H1 8019   4.677   0.724  11.922  3.0995  1.0427 -1.5765
  540TMC3    H2 8020   4.351   0.684  11.647 -0.6697  1.0830 -0.6923
  540TMC3    C7 8021   4.405   0.714  11.902  0.3329  0.5665  0.7179
  540TMC3    C8 8022   4.498   0.711  11.434  0.0735 -0.1632 -0.6854
  540TMC3    O1 8023   4.293   0.743  11.864  0.7269  0.9273 -0.3508
  540TMC3    O2 8024   4.387   0.656  11.420 -0.2194  0.0917  0.4103
  541MPD2     C 8025   3.389   2.766  13.231 -0.2501 -0.2908 -0.4351
  541MPD2    C1 8026   3.472   2.675  13.163 -0.0131 -0.2806 -0.0384
  541MPD2    C2 8027   3.481   2.679  13.026 -0.0874  0.2731  0.4119
  541MPD2    C3 8028   3.426   2.777  12.953 -0.3102  0.5986 -0.9686
  541MPD2    C4 8029   3.349   2.875  13.018 -0.1722 -0.2848  0.1151
  541MPD2    C5 8030   3.338   2.878  13.154  0.7146  0.1997 -0.4176
  541MPD2     H 8031   3.544   2.609  12.971  0.8509  2.0883 -0.8251
  541MPD2    H1 8032   3.308   2.962  12.969  1.0483  0.9421  1.2561
  541MPD2    H2 8033   3.363   2.745  13.334  0.0803 -0.7527 -0.4454
  541MPD2    H3 8034   3.274   2.949  13.206  2.3441  0.9695  0.5428
  541MPD2     N 8035   3.423   2.773  12.813  0.5301 -0.4919  0.1354
  541MPD2    H5 8036   3.375   2.848  12.765  0.8025 -0.5321 -0.1972
  541MPD2    N1 8037   3.525   2.563  13.234  0.2379  0.4033 -0.1564
  541MPD2    H7 8038   3.501   2.559  13.333  0.5855 -0.0377 -0.0914
  542TMC3    C1 8039   3.397   2.699  12.604  0.1732 -0.4003 -0.0684
  542TMC3    C2 8040   3.465   2.650  12.493  0.0338 -0.4664  0.1854
  542TMC3    C3 8041   3.438   2.700  12.369  0.8822  0.0633 -0.1901
  542TMC3    C4 8042   3.292   2.789  12.583  0.0163  0.2641  0.0050
  542TMC3    C5 8043   3.264   2.832  12.460 -0.6238  0.0950  0.2125
  542TMC3    C6 8044   3.336   2.789  12.346 -0.1855  0.3302  0.2036
  542TMC3     C 8045   3.460   2.673  12.731 -0.7783 -0.5236  0.2702
  542TMC3     O 8046   3.543   2.582  12.743 -0.3000 -0.4107 -0.4683
  542TMC3     H 8047   3.541   2.573  12.496  0.2928 -0.2200 -0.0171
  542TMC3    H1 8048   3.223   2.817  12.662 -0.2757  1.0597 -0.5309
  542TMC3    H2 8049   3.313   2.810  12.242  1.0626  0.4557 -0.0460
  542TMC3    C7 8050   3.164   2.942  12.452 -0.3024 -0.2272 -0.9746
  542TMC3    C8 8051   3.521   2.660  12.251  1.1857  0.5486 -0.2036
  542TMC3    O1 8052   3.094   2.957  12.550 -0.2924 -0.2329  0.1022
  542TMC3    O2 8053   3.479   2.694  12.136  0.3552  0.3579 -0.2593
  543TMC3    C1 8054   3.014   3.913  16.878 -0.6413 -0.1697 -0.1643
  543TMC3    C2 8055   2.928   3.808  16.902 -0.2532 -0.8228 -0.7162
  543TMC3    C3 8056   2.859   3.799  17.018  0.0618  0.7145  0.0170
  543TMC3    C4 8057   3.026   4.017  16.965 -0.2228 -0.7029 -0.1095
  543TMC3    C5 8058   2.959   3.998  17.084 -0.1154  0.4009  0.2777
  543TMC3    C6 8059   2.870   3.895  17.116  0.3540 -0.2595 -0.2758
  543TMC3     C 8060   3.127   3.882  16.791  0.0849  0.5975  0.8653
  543TMC3     O 8061   3.131   3.766  16.747 -0.3317  0.3858 -0.1530
  543TMC3     H 8062   2.933   3.718  16.841  1.8402 -0.2874 -1.3185
  543TMC3    H1 8063   3.095   4.100  16.959 -0.7266 -0.2703  0.0485
  543TMC3    H2 8064   2.830   3.894  17.217 -0.4361  1.3112 -0.5711
  543TMC3    C7 8065   2.991   4.068  17.204 -0.4103 -0.5908 -0.5915
  543TMC3    C8 8066   2.809   3.665  17.053  0.1340 -0.5146  0.5169
  543TMC3    O1 8067   2.911   4.120  17.273 -0.0251  0.1580  0.2527
  543TMC3    O2 8068   2.798   3.585  16.958  0.3465 -0.6738  0.3465
  544MPD2     C 8069   2.538   3.332  17.330  0.1950 -0.3499  0.4104
  544MPD2    C1 8070   2.617   3.307  17.216  1.2171  0.0838 -0.0152
  544MPD2    C2 8071   2.693   3.413  17.163  0.4552  0.5390  0.2209
  544MPD2    C3 8072   2.679   3.543  17.214 -0.0160  0.5260 -0.6607
  544MPD2    C4 8073   2.600   3.561  17.326  0.4182  0.2315 -0.2905
  544MPD2    C5 8074   2.518   3.463  17.376  0.6351  0.2328 -0.0999
  544MPD2     H 8075   2.753   3.402  17.074 -0.1290  1.8341 -0.3457
  544MPD2    H1 8076   2.579   3.661  17.362  1.7014  0.4601 -0.1704
  544MPD2    H2 8077   2.491   3.247  17.377  0.0419 -1.5102 -1.8816
  544MPD2    H3 8078   2.462   3.490  17.465 -1.1723  0.5673 -1.3455
  544MPD2     N 8079   2.739   3.659  17.165 -0.0235 -0.3235 -0.1242
  544MPD2    H5 8080   2.731   3.741  17.224  0.8755  0.3160 -0.8947
  544MPD2    N1 8081   2.621   3.175  17.161 -0.3018  0.7094 -0.2465
  544MPD2    H7 8082   2.570   3.106  17.216 -0.5275  1.2867  0.2732
  545TMC3    C1 8083   2.737   2.995  17.090 -0.6032 -0.1613  0.9740
  545TMC3    C2 8084   2.756   2.925  16.975  0.0472 -0.0117 -0.0140
  545TMC3    C3 8085   2.732   2.785  16.983  0.2755 -0.1572  0.0143
  545TMC3    C4 8086   2.708   2.929  17.201 -0.1216 -0.7216  0.7314
  545TMC3    C5 8087   2.700   2.798  17.207 -0.3534 -0.1247  0.5258
  545TMC3    C6 8088   2.702   2.722  17.100  0.1560  0.5482  0.2887
  545TMC3     C 8089   2.717   3.136  17.072  0.5687  0.1487  0.9523
  545TMC3     O 8090   2.756   3.193  16.971  0.4105  0.0647 -0.4387
  545TMC3     H 8091   2.758   2.980  16.881 -0.7006 -0.8415 -0.5152
  545TMC3    H1 8092   2.706   2.979  17.297 -1.2034 -2.7429  1.7437
  545TMC3    H2 8093   2.717   2.614  17.103 -1.2324  0.3821  1.2197
  545TMC3    C7 8094   2.632   2.748  17.326  0.0240  0.9780  0.3360
  545TMC3    C8 8095   2.717   2.715  16.858 -0.2804  0.7758 -0.3531
  545TMC3    O1 8096   2.545   2.814  17.386  0.4221  0.0251 -0.0121
  545TMC3    O2 8097   2.783   2.758  16.765 -0.1677 -0.2901 -0.4927
  546MPD2     C 8098   4.552   3.481   0.185  0.3459 -0.4897 -0.7675
  546MPD2    C1 8099   4.548   3.485   0.048  0.1057  1.0121 -0.1430
  546MPD2    C2 8100   4.570   3.610  17.699  0.0041  0.6895  0.1145
  546MPD2    C3 8101   4.570   3.721   0.063 -0.0906  0.6906  0.4407
  546MPD2    C4 8102   4.569   3.720   0.203 -0.3044 -0.3514 -0.3244
  546MPD2    C5 8103   4.557   3.594   0.259 -0.0643  0.5615 -0.0276
  546MPD2     H 8104   4.574   3.614  17.590  4.1776  0.6306  0.2749
  546MPD2    H1 8105   4.562   3.805   0.269 -0.4010 -0.1424 -0.6069
  546MPD2    H2 8106   4.530   3.393   0.244 -3.1909  0.5354 -0.5491
  546MPD2    H3 8107   4.548   3.598   0.367 -2.4067  0.0034 -0.2124
  546MPD2     N 8108   4.589   3.850   0.002 -0.6320  0.0555 -0.6516
  546MPD2    H5 8109   4.579   3.928   0.065 -3.8911  1.1285 -2.5099
  546MPD2    N1 8110   4.533   3.366  17.684 -0.2396 -0.2450  0.2721
  546MPD2    H7 8111   4.505   3.283   0.028  2.3939 -0.6589  1.0115
  547TMC3    C1 8112   4.501   3.220  17.509 -0.1117  0.8734 -0.3297
  547TMC3    C2 8113   4.455   3.204  17.380 -0.0116 -0.1138  0.2331
  547TMC3    C3 8114   4.388   3.088  17.353  0.1852  0.3104 -0.0498
  547TMC3    C4 8115   4.501   3.113  17.602  0.8169 -0.1902  0.3110
  547TMC3    C5 8116   4.452   2.995  17.562  0.7864  0.6687  0.1833
  547TMC3    C6 8117   4.384   2.981  17.446  0.8080  0.6033 -0.4422
  547TMC3     C 8118   4.540   3.356  17.545 -0.8301 -0.3686  0.5054
  547TMC3     O 8119   4.581   3.428  17.454 -0.5154  0.3916  0.1693
  547TMC3     H 8120   4.483   3.276  17.305  1.7835 -2.0116 -0.9310
  547TMC3    H1 8121   4.556   3.124  17.695  0.3655  0.0900  0.5446
  547TMC3    H2 8122   4.332   2.888  17.424  1.6255 -0.0279  0.3124
  547TMC3    C7 8123   4.465   2.882  17.655  0.0015  0.1694 -0.0782
  547TMC3    C8 8124   4.298   3.091  17.242  0.9193  0.1162 -0.2567
  547TMC3    O1 8125   4.459   2.915   0.062 -0.1238  0.3486 -0.3868
  547TMC3    O2 8126   4.253   3.198  17.219  0.2771  0.1304 -0.0430
  548MPD2     C 8127   4.206   4.131  12.774 -0.1087 -0.2419 -0.1653
  548MPD2    C1 8128   4.141   4.005  12.757  0.0460  0.6560  0.1950
  548MPD2    C2 8129   4.215   3.896  12.709 -0.8437  0.7103  0.2525
  548MPD2    C3 8130   4.341   3.913  12.661  0.4377 -0.1955  0.2035
  548MPD2    C4 8131   4.400   4.037  12.668  0.2774 -0.0105 -0.5674
  548MPD2    C5 8132   4.335   4.142  12.730 -0.9283 -0.1527  1.0687
  548MPD2     H 8133   4.163   3.802  12.707 -3.1716  1.9637  1.6477
  548MPD2    H1 8134   4.505   4.056  12.651  0.2511  1.7645  1.2559
  548MPD2    H2 8135   4.154   4.211  12.826 -0.4668  1.3021 -2.8782
  548MPD2    H3 8136   4.380   4.240  12.743  0.7922 -0.8265  0.1896
  548MPD2     N 8137   4.408   3.813  12.590 -0.1961 -0.1049 -0.3008
  548MPD2    H5 8138   4.353   3.727  12.586  0.6661 -0.5750 -1.7963
  548MPD2    N1 8139   4.009   3.997  12.800  0.1337  0.6169  0.7561
  548MPD2    H7 8140   3.970   4.088  12.823  0.7429  1.3195 -0.9351
  549TMC3    C1 8141   3.787   3.909  12.824  0.7655 -1.0703 -0.1995
  549TMC3    C2 8142   3.741   4.023  12.761 -0.3002  0.0032 -0.2805
  549TMC3    C3 8143   3.608   4.041  12.760  0.1556  0.2250 -0.8065
  549TMC3    C4 8144   3.709   3.817  12.887  0.3177  0.1722  0.0227
  549TMC3    C5 8145   3.572   3.853  12.892  0.6692 -0.0791  0.0740
  549TMC3    C6 8146   3.523   3.957  12.825  0.2869  0.1535  0.4839
  549TMC3     C 8147   3.931   3.886  12.807 -0.3307 -0.3331  0.5311
  549TMC3     O 8148   3.967   3.770  12.806 -0.1605 -0.1019  0.0634
  549TMC3     H 8149   3.810   4.080  12.700  0.1219  0.1810  0.3590
  549TMC3    H1 8150   3.755   3.729  12.930 -2.3083  0.0205  2.5236
  549TMC3    H2 8151   3.418   3.981  12.837 -0.3065 -3.3101  2.4675
  549TMC3    C7 8152   3.481   3.737  12.888 -0.3580  0.4738  0.6128
  549TMC3    C8 8153   3.546   4.166  12.707 -0.8125  0.3000 -0.0240
  549TMC3    O1 8154   3.378   3.756  12.822  0.0802  0.2848  0.3962
  549TMC3    O2 8155   3.425   4.164  12.676  0.2611 -0.2877  0.6602
  550TMC3    C1 8156   3.013   1.987  12.394  0.2726 -0.1729 -0.3815
  550TMC3    C2 8157   2.991   2.058  12.511  0.5132 -0.0111 -0.4578
  550TMC3    C3 8158   2.906   2.163  12.509  0.2187 -0.2227 -1.1333
  550TMC3    C4 8159   2.956   2.037  12.275  0.4522  0.5652  0.1726
  550TMC3    C5 8160   2.873   2.146  12.278  0.3552 -0.0871  0.0513
  550TMC3    C6 8161   2.845   2.211  12.394 -0.2940  0.7587  0.5035
  550TMC3     C 8162   3.001   1.849  12.411 -0.2860 -0.4942 -0.5703
  550TMC3     O 8163   3.012   1.812  12.527  1.2376 -0.5085 -0.1635
  550TMC3     H 8164   3.031   2.029  12.608 -1.1580  0.7858  0.4568
  550TMC3    H1 8165   3.005   2.016  12.181  1.8134 -0.5558  1.1279
  550TMC3    H2 8166   2.783   2.300  12.404 -0.5124  0.7945 -1.0733
  550TMC3    C7 8167   2.803   2.169  12.153  0.1831 -0.5638 -0.5466
  550TMC3    C8 8168   2.908   2.256  12.624  0.2100 -0.0595 -0.6063
  550TMC3    O1 8169   2.810   2.078  12.069  0.0190  0.5316  0.5970
  550TMC3    O2 8170   2.807   2.326  12.642  0.1034  0.1530 -0.1514
  551TMC3    C1 8171   0.495   0.092  13.328  1.1609 -0.1557  0.3291
  551TMC3    C2 8172   0.623   0.079  13.272 -0.2134  0.8047  0.0367
  551TMC3    C3 8173   0.701   0.191  13.283  0.7206 -0.5693  0.2118
  551TMC3    C4 8174   0.447   0.202  13.389  0.9244  0.3749  0.0257
  551TMC3    C5 8175   0.524   0.311  13.381  0.0600  0.2811  0.4858
  551TMC3    C6 8176   0.651   0.306  13.327  0.3792  0.6564  0.2423
  551TMC3     C 8177   0.409   4.704  13.302 -0.3611 -0.0764 -0.0870
  551TMC3     O 8178   0.441   4.626  13.214 -0.3442 -0.0719 -0.1541
  551TMC3     H 8179   0.664   4.712  13.235  1.3913  1.3402  0.4712
  551TMC3    H1 8180   0.342   0.214  13.416  1.0322  2.4676 -0.5258
  551TMC3    H2 8181   0.717   0.391  13.313  0.5089 -0.0518 -3.3518
  551TMC3    C7 8182   0.494   0.404  13.487 -0.1009  0.3539 -0.0046
  551TMC3    C8 8183   0.844   0.168  13.269  0.1824  0.6030  0.1673
  551TMC3    O1 8184   0.426   0.348  13.576  0.2479 -0.0455  0.0004
  551TMC3    O2 8185   0.880   0.060  13.231  0.6061  0.2547  0.2973
  552MPD2     C 8186   1.939   2.280  13.950 -0.4937 -0.2767 -0.2767
  552MPD2    C1 8187   2.057   2.203  13.944 -0.6745 -0.1257  1.0260
  552MPD2    C2 8188   2.155   2.209  14.048  0.1163  0.1085 -0.0260
  552MPD2    C3 8189   2.140   2.289  14.157 -0.1573  0.1750  0.1375
  552MPD2    C4 8190   2.024   2.367  14.164  0.5181  0.1518 -0.2494
  552MPD2    C5 8191   1.935   2.358  14.058 -0.6029 -0.3498 -0.5651
  552MPD2     H 8192   2.247   2.155  14.028  0.6154  1.3933 -1.2436
  552MPD2    H1 8193   1.993   2.435  14.242  1.4192 -0.1809  0.4013
  552MPD2    H2 8194   1.851   2.265  13.889  0.9209  0.6450 -2.5489
  552MPD2    H3 8195   1.842   2.412  14.073 -1.1249 -1.7053  1.0965
  552MPD2     N 8196   2.239   2.298  14.255 -0.1577 -0.2562 -0.0774
  552MPD2    H5 8197   2.220   2.361  14.333  0.0392 -0.4021  0.0887
  552MPD2    N1 8198   2.084   2.115  13.837 -0.1466  0.7949 -0.3809
  552MPD2    H7 8199   2.177   2.074  13.842  0.2041  1.5324 -0.9856
  553TMC3    C1 8200   2.081   2.017  13.619 -0.2062 -0.4311  1.0025
  553TMC3    C2 8201   2.041   2.016  13.491 -0.0060 -0.6683 -0.3039
  553TMC3    C3 8202   2.075   1.921  13.402  0.1725  0.8396  0.2714
  553TMC3    C4 8203   2.155   1.909  13.661  0.1275 -0.1844  0.6660
  553TMC3    C5 8204   2.192   1.807  13.571  0.0548  0.0173 -0.6001
  553TMC3    C6 8205   2.156   1.822  13.442  0.1836  0.1249  1.1090
  553TMC3     C 8206   2.022   2.113  13.714 -0.6902 -0.0291 -0.7994
  553TMC3     O 8207   1.917   2.164  13.678  0.3017 -0.3699  0.7369
  553TMC3     H 8208   1.979   2.099  13.458 -1.9151 -1.6314  0.8184
  553TMC3    H1 8209   2.184   1.898  13.765  0.3753 -0.2336  0.5928
  553TMC3    H2 8210   2.208   1.753  13.377  0.2838 -0.3834  1.7262
  553TMC3    C7 8211   2.296   1.720  13.591 -0.2114 -0.3745 -0.0623
  553TMC3    C8 8212   2.110   1.967  13.269  0.9347  0.3975  0.6293
  553TMC3    O1 8213   2.296   1.614  13.528  0.0363  0.3415  0.0629
  553TMC3    O2 8214   2.143   2.082  13.249 -0.2270 -0.0281  0.2682
  554TMC3    C1 8215   3.917   0.727  11.633  0.9493  0.2879 -0.0174
  554TMC3    C2 8216   3.844   0.663  11.539 -0.1929 -0.3245 -0.3405
  554TMC3    C3 8217   3.907   0.649  11.416  0.3033  0.4380 -0.0716
  554TMC3    C4 8218   4.040   0.783  11.611 -0.3353  0.0063 -0.1824
  554TMC3    C5 8219   4.101   0.762  11.492 -0.5968  0.1602  0.4259
  554TMC3    C6 8220   4.031   0.701  11.396 -0.0951 -0.1010  0.6124
  554TMC3     C 8221   3.880   0.690  11.775 -1.0805  0.1562 -0.4765
  554TMC3     O 8222   3.759   0.675  11.800 -0.7492  0.1459  0.5568
  554TMC3     H 8223   3.750   0.618  11.567  0.2677 -0.8205  0.3994
  554TMC3    H1 8224   4.098   0.835  11.686  1.3251 -0.0112 -1.4552
  554TMC3    H2 8225   4.079   0.691  11.300  1.9126  1.5081  1.4615
  554TMC3    C7 8226   4.188   0.870  11.430  0.1109 -0.4079  0.4235
  554TMC3    C8 8227   3.824   0.651  11.295  0.0236  0.2086  0.4981
  554TMC3    O1 8228   4.165   0.891  11.312 -0.4780 -0.0076 -0.5375
  554TMC3    O2 8229   3.884   0.689  11.195 -0.3902 -0.8930 -0.0131
  555TMC3    C1 8230   3.705   0.318  14.793 -0.8140  0.1482 -0.8543
  555TMC3    C2 8231   3.814   0.336  14.873 -0.0891 -0.3736  0.5173
  555TMC3    C3 8232   3.842   0.238  14.965 -0.1007  0.3488  0.4393
  555TMC3    C4 8233   3.612   0.223  14.808 -0.2425 -0.6807  0.2735
  555TMC3    C5 8234   3.645   0.121  14.899  0.3167  0.3074  0.1463
  555TMC3    C6 8235   3.755   0.131  14.988 -1.1357 -0.2441  0.4952
  555TMC3     C 8236   3.676   0.413  14.688 -0.3681  0.2386  0.1294
  555TMC3     O 8237   3.734   0.406  14.583 -0.6236  0.2432 -0.1349
  555TMC3     H 8238   3.886   0.408  14.837  1.3137 -1.6057  0.8606
  555TMC3    H1 8239   3.534   0.215  14.733 -0.4197  2.9023  0.0785
  555TMC3    H2 8240   3.784   0.051  15.054  1.8162 -0.6967 -1.3416
  555TMC3    C7 8241   3.542   0.020  14.934 -0.1135  0.2072 -0.6482
  555TMC3    C8 8242   3.977   0.219  15.005 -0.0635 -0.1164 -0.4826
  555TMC3    O1 8243   3.555   4.686  15.038  0.1736  0.2651 -0.1957
  555TMC3    O2 8244   4.064   0.274  14.938  0.0610  0.4613 -0.7572
  556MPD2     C 8245   1.817   2.233  10.629  0.3017  0.5536  0.1353
  556MPD2    C1 8246   1.775   2.156  10.735  0.7118 -0.4253  0.4678
  556MPD2    C2 8247   1.697   2.044  10.707  0.8054 -0.0399  0.5394
  556MPD2    C3 8248   1.671   2.007  10.579  0.1139 -0.0485  0.0680
  556MPD2    C4 8249   1.719   2.076  10.475 -0.3103  0.0006  0.2434
  556MPD2    C5 8250   1.789   2.192  10.504 -0.2533  0.3340  0.1395
  556MPD2     H 8251   1.642   1.992  10.785  1.0134  3.7266  3.1588
  556MPD2    H1 8252   1.693   2.060  10.371  1.4140  1.3240 -0.4138
  556MPD2    H2 8253   1.880   2.321  10.631  0.9863  0.0494  0.8686
  556MPD2    H3 8254   1.814   2.255  10.420  0.6998  0.9346  0.8666
  556MPD2     N 8255   1.591   1.892  10.567  0.1040  0.6623  0.1262
  556MPD2    H5 8256   1.558   1.849  10.653 -0.6969  1.1963  0.0888
  556MPD2    N1 8257   1.788   2.188  10.871  0.8865 -0.1201 -0.2476
  556MPD2    H7 8258   1.755   2.130  10.947 -0.6584  0.4103 -0.5099
  557TMC3    C1 8259   1.477   1.707  10.491  0.3108 -0.2697  0.0530
  557TMC3    C2 8260   1.530   1.594  10.432  0.3154 -0.2456  0.3962
  557TMC3    C3 8261   1.538   1.484  10.512 -0.1888 -0.3811  0.1491
  557TMC3    C4 8262   1.427   1.712  10.623 -0.6444  0.3306 -0.6537
  557TMC3    C5 8263   1.431   1.591  10.690 -0.2573 -0.5724  0.3363
  557TMC3    C6 8264   1.488   1.481  10.640  0.0512  0.7149 -0.5306
  557TMC3     C 8265   1.556   1.816  10.457  0.2327 -0.8621 -0.5317
  557TMC3     O 8266   1.572   1.830  10.336 -0.5750  0.1721 -0.3330
  557TMC3     H 8267   1.559   1.596  10.328  1.4811 -0.9662  0.7129
  557TMC3    H1 8268   1.390   1.801  10.671  1.1263  2.1007 -2.5817
  557TMC3    H2 8269   1.495   1.390  10.697 -0.8898  0.9621 -0.0157
  557TMC3    C7 8270   1.395   1.595  10.829 -0.4701 -0.1229  0.2911
  557TMC3    C8 8271   1.610   1.367  10.455  0.0831 -0.3419 -0.5284
  557TMC3    O1 8272   1.452   1.512  10.901 -0.0388 -0.4792 -0.6829
  557TMC3    O2 8273   1.652   1.385  10.342 -0.2379 -0.0315 -0.2779
  558TMC3    C1 8274   4.322   4.375  10.262  0.6770  0.8567  0.4197
  558TMC3    C2 8275   4.191   4.346  10.270  0.0225  0.0340 -0.2363
  558TMC3    C3 8276   4.111   4.373  10.163  0.0961 -0.0052 -0.1550
  558TMC3    C4 8277   4.377   4.414  10.144 -0.5597 -0.5480 -0.1305
  558TMC3    C5 8278   4.297   4.445  10.041  0.5013 -0.2325 -0.0364
  558TMC3    C6 8279   4.164   4.413  10.047 -0.2748  0.0872 -0.1647
  558TMC3     C 8280   4.406   4.369  10.385 -0.1043  0.0977 -0.4748
  558TMC3     O 8281   4.529   4.380  10.363  0.1696 -0.0298  0.0158
  558TMC3     H 8282   4.146   4.317  10.364  0.6329 -0.7603 -0.1855
  558TMC3    H1 8283   4.484   4.431  10.139 -0.8270  0.8275 -1.1641
  558TMC3    H2 8284   4.105   4.427   9.957 -0.3503  0.3224 -0.0788
  558TMC3    C7 8285   4.350   4.529   9.933 -0.4101  0.3284 -0.3207
  558TMC3    C8 8286   3.966   4.388  10.176 -0.4285  0.2116 -0.1824
  558TMC3    O1 8287   4.473   4.557   9.942 -0.2060 -0.4383  0.1343
  558TMC3    O2 8288   3.893   4.400  10.076  0.3133  0.7056 -0.1277
  559MPD2     C 8289   4.067   0.469  10.264  0.1155 -0.2090  0.2106
  559MPD2    C1 8290   4.016   0.439  10.395  0.4864 -0.2891  0.4509
  559MPD2    C2 8291   4.112   0.433  10.497 -0.6185 -0.0787  0.6273
  559MPD2    C3 8292   4.241   0.473  10.481 -0.5045 -0.4248 -0.0389
  559MPD2    C4 8293   4.286   0.508  10.355  0.0110  0.8735 -0.1547
  559MPD2    C5 8294   4.198   0.511  10.251 -0.4978 -0.0840  0.5615
  559MPD2     H 8295   4.067   0.433  10.595 -1.5158  0.7330  0.2146
  559MPD2    H1 8296   4.387   0.524  10.319  0.2738 -0.6978 -0.1157
  559MPD2    H2 8297   4.008   0.471  10.173 -0.7136 -0.2524  0.7396
  559MPD2    H3 8298   4.241   0.517  10.151  0.2085  0.2904  0.8820
  559MPD2     N 8299   4.329   0.457  10.591  0.3310 -0.1589 -0.1218
  559MPD2    H5 8300   4.287   0.417  10.674  0.8102 -1.4909 -0.5162
  559MPD2    N1 8301   3.884   0.404  10.417  0.1694  0.3869  0.7546
  559MPD2    H7 8302   3.821   0.416  10.338  0.3457  1.1624  0.7279
  560TMC3    C1 8303   4.538   0.443  10.696  0.4295  0.1321 -0.2586
  560TMC3    C2 8304   4.511   0.317  10.738 -0.5417 -0.0849  0.0636
  560TMC3    C3 8305   4.584   0.267  10.847  0.5957  0.6182  0.1783
  560TMC3    C4 8306   4.640   0.523  10.750 -0.8127  0.2537 -0.5961
  560TMC3    C5 8307   4.721   0.467  10.848  0.7504 -0.0707  0.7893
  560TMC3    C6 8308   4.702   0.334  10.888 -0.1698  0.4672 -0.7009
  560TMC3     C 8309   4.458   0.505  10.591 -0.0477  0.4507  0.1782
  560TMC3     O 8310   4.509   0.586  10.514  0.0021 -0.0191 -0.8250
  560TMC3     H 8311   4.432   0.259  10.692 -0.5287  1.5007 -1.9618
  560TMC3    H1 8312   4.643   0.627  10.720 -1.5871  0.4120 -0.1353
  560TMC3    H2 8313   0.044   0.300  10.964 -2.0641  0.9671  1.2236
  560TMC3    C7 8314   0.065   0.551  10.943  0.2319  0.3698 -0.9067
  560TMC3    C8 8315   4.542   0.147  10.915 -0.7927 -0.1220  0.2634
  560TMC3    O1 8316   0.129   0.648  10.908 -0.1116  0.1596 -0.0935
  560TMC3    O2 8317   4.617   0.101  10.996  0.0690 -0.0280  0.7556
  561TMC3    C1 8318   2.010   3.828  11.508  0.2231 -0.2491 -0.3722
  561TMC3    C2 8319   1.917   3.795  11.601  0.3800 -0.3805  0.5404
  561TMC3    C3 8320   1.859   3.904  11.656  0.0395 -0.0559  0.2701
  561TMC3    C4 8321   2.062   3.951  11.484  0.8548 -0.4942 -0.7030
  561TMC3    C5 8322   2.004   4.054  11.559 -0.1089  0.2541 -0.0876
  561TMC3    C6 8323   1.897   4.035  11.643 -0.4326 -0.2171  0.0584
  561TMC3     C 8324   2.038   3.718  11.413 -0.8265  0.3855 -1.1991
  561TMC3     O 8325   1.946   3.642  11.389  0.1554 -0.7390  0.2764
  561TMC3     H 8326   1.887   3.691  11.612 -2.1591  0.5193  2.0275
  561TMC3    H1 8327   2.141   3.967  11.411  0.8586 -0.0499 -0.6048
  561TMC3    H2 8328   1.850   4.115  11.699 -1.9518 -1.0702 -0.0149
  561TMC3    C7 8329   2.061   4.183  11.547 -0.0587 -0.4807  0.2762
  561TMC3    C8 8330   1.754   3.868  11.754 -0.5020  0.8694  0.1665
  561TMC3    O1 8331   2.027   4.265  11.637 -0.2419 -0.2604 -0.0146
  561TMC3    O2 8332   1.767   3.749  11.787  0.3623 -0.2356  0.1884
  562TMC3    C1 8333   3.045   1.018  15.918 -0.6449  0.1230 -0.3917
  562TMC3    C2 8334   2.948   1.107  15.946  0.1545  0.6593 -0.1485
  562TMC3    C3 8335   2.864   1.140  15.845  0.2870 -0.6624  0.3027
  562TMC3    C4 8336   3.067   0.954  15.800 -0.1371  0.4014 -0.2332
  562TMC3    C5 8337   2.982   0.991  15.699  0.6837  0.8079 -0.0752
  562TMC3    C6 8338   2.886   1.085  15.718 -0.2823  0.1307 -0.0190
  562TMC3     C 8339   3.085   0.945  16.035 -0.6527  0.4790  0.1370
  562TMC3     O 8340   3.200   0.949  16.073 -0.3305  0.0819 -0.1525
  562TMC3     H 8341   2.937   1.146  16.047 -1.6731  0.4771 -0.2693
  562TMC3    H1 8342   3.144   0.882  15.775  1.8098  1.2160  3.3519
  562TMC3    H2 8343   2.812   1.109  15.642 -1.0147 -3.9476 -0.5907
  562TMC3    C7 8344   2.998   0.947  15.554 -0.3124  0.2616 -0.5812
  562TMC3    C8 8345   2.752   1.228  15.886  0.3858  0.4026 -0.2776
  562TMC3    O1 8346   2.918   0.987  15.470  0.6760  0.2797  0.1555
  562TMC3    O2 8347   2.729   1.243  16.008 -0.0301 -0.3803  0.4899
  563MPD2     C 8348   0.490   1.696  15.662  0.1395 -0.1158  0.4112
  563MPD2    C1 8349   0.519   1.829  15.672  0.2991 -0.7364 -0.2037
  563MPD2    C2 8350   0.647   1.866  15.709  0.3433  0.0057 -0.3754
  563MPD2    C3 8351   0.746   1.770  15.731  0.0443  0.2784 -0.4118
  563MPD2    C4 8352   0.717   1.643  15.716 -0.4960 -0.7863  0.1391
  563MPD2    C5 8353   0.587   1.605  15.683  0.1253  0.5077 -0.0822
  563MPD2     H 8354   0.674   1.971  15.718 -0.9522  0.1990  1.2491
  563MPD2    H1 8355   0.791   1.567  15.741  2.2216  1.0235 -2.4148
  563MPD2    H2 8356   0.392   1.671  15.622  0.5452  2.0835 -1.9543
  563MPD2    H3 8357   0.572   1.499  15.666 -0.6334  0.1421  2.9132
  563MPD2     N 8358   0.869   1.831  15.765  0.6737  0.1928 -0.4395
  563MPD2    H5 8359   0.857   1.931  15.778  1.8078  0.1551  1.0007
  563MPD2    N1 8360   0.415   1.927  15.645 -0.0358 -0.2980 -0.0688
  563MPD2    H7 8361   0.318   1.900  15.652 -0.0698 -0.2216 -0.2609
  564TMC3    C1 8362   0.293   2.130  15.635  0.0659  0.1002  0.0136
  564TMC3    C2 8363   0.212   2.059  15.554 -0.2549  0.5540  0.0038
  564TMC3    C3 8364   0.088   2.020  15.607 -0.1405  0.4194 -0.6233
  564TMC3    C4 8365   0.255   2.179  15.758  0.2939 -0.1073 -0.1220
  564TMC3    C5 8366   0.155   2.109  15.817 -0.6273  0.3071 -1.1506
  564TMC3    C6 8367   0.062   2.043  15.742  0.3554 -1.1123 -0.4459
  564TMC3     C 8368   0.423   2.066  15.649 -0.2186  0.0352 -0.1592
  564TMC3     O 8369   0.516   2.121  15.702  0.2710  0.4478  1.0171
  564TMC3     H 8370   0.243   2.024  15.456 -3.7153  0.4703 -1.0622
  564TMC3    H1 8371   0.334   2.209  15.826 -0.8208  2.7511 -0.0986
  564TMC3    H2 8372   4.706   1.995  15.794  0.2357  0.0446  0.4230
  564TMC3    C7 8373   0.210   2.022  15.919 -0.1497  0.7303 -0.0542
  564TMC3    C8 8374   0.035   1.897  15.568  0.3810 -0.3592  0.0890
  564TMC3    O1 8375   0.291   2.068  15.999 -0.2744  0.0425 -0.0390
  564TMC3    O2 8376   4.689   1.849  15.652  0.5332  0.0054 -0.7659
  565TMC3    C1 8377   0.430   2.671   9.931 -0.7123 -0.0134 -0.0158
  565TMC3    C2 8378   0.482   2.556   9.877  0.3992 -0.2580 -0.5026
  565TMC3    C3 8379   0.391   2.459   9.848  0.1237 -0.5335  0.1493
  565TMC3    C4 8380   0.288   2.690   9.957 -0.2137  0.4651  0.8106
  565TMC3    C5 8381   0.206   2.585   9.919 -0.1073 -0.9119  0.6708
  565TMC3    C6 8382   0.259   2.464   9.869  0.4934 -0.1443  0.2414
  565TMC3     C 8383   0.525   2.783   9.944 -0.4970 -0.1938 -0.1886
  565TMC3     O 8384   0.639   2.752   9.966  0.1920  0.2464 -0.1572
  565TMC3     H 8385   0.588   2.543   9.859  0.4551  0.0210 -0.3646
  565TMC3    H1 8386   0.252   2.777  10.009 -0.9597  1.0904 -0.7474
  565TMC3    H2 8387   0.191   2.391   9.826  1.6520 -0.7259 -0.5973
  565TMC3    C7 8388   0.065   2.583   9.955  0.2118 -0.1100 -0.0236
  565TMC3    C8 8389   0.441   2.334   9.805  0.4202  0.2420 -0.0297
  565TMC3    O1 8390   0.009   2.475   9.954 -0.0369  0.0359 -0.2281
  565TMC3    O2 8391   0.540   2.300   9.863 -0.1496  0.4371  0.2104
  566MPD2     C 8392   2.497   1.013  14.324 -0.4378 -0.2665 -0.2582
  566MPD2    C1 8393   2.581   0.909  14.279  0.1202 -0.0313  0.0966
  566MPD2    C2 8394   2.536   0.793  14.214 -0.3855  0.6538 -0.2007
  566MPD2    C3 8395   2.402   0.767  14.203 -0.2834  0.2009  0.1732
  566MPD2    C4 8396   2.325   0.875  14.237  0.6636 -0.1125 -0.3798
  566MPD2    C5 8397   2.371   0.991  14.292 -0.0405  0.3125  0.5821
  566MPD2     H 8398   2.608   0.719  14.182 -0.4025 -0.0612  1.4249
  566MPD2    H1 8399   2.217   0.883  14.233  0.5661 -2.1490 -1.6919
  566MPD2    H2 8400   2.531   1.100  14.378 -0.6404 -0.3019 -0.0751
  566MPD2    H3 8401   2.301   1.063  14.333 -1.8038 -0.0959 -1.7187
  566MPD2     N 8402   2.345   0.659  14.136  0.6612  0.4384  0.0032
  566MPD2    H5 8403   2.248   0.664  14.105 -0.4457  0.8730  3.4795
  566MPD2    N1 8404   2.722   0.916  14.305 -0.4087  0.2808 -0.5653
  566MPD2    H7 8405   2.770   0.827  14.290  1.4310  1.0902  0.5744
  567TMC3    C1 8406   2.936   0.990  14.306  0.2633 -0.4303  0.0551
  567TMC3    C2 8407   2.976   1.018  14.177  0.1557 -0.5230 -0.6543
  567TMC3    C3 8408   3.041   0.919  14.104  0.4515  0.4784  0.7151
  567TMC3    C4 8409   2.962   0.868  14.363  0.3143  1.1990  0.4750
  567TMC3    C5 8410   3.024   0.772  14.288  0.3777 -0.0678 -0.3324
  567TMC3    C6 8411   3.075   0.791  14.162  0.2178 -0.6043 -0.0179
  567TMC3     C 8412   2.794   1.028  14.327  0.1160 -0.0992  0.4595
  567TMC3     O 8413   2.748   1.140  14.321  0.6058  0.6726 -0.2178
  567TMC3     H 8414   2.943   1.103  14.119 -0.7563  0.6475  1.6003
  567TMC3    H1 8415   2.929   0.847  14.464 -1.2445  0.4532 -0.1751
  567TMC3    H2 8416   3.117   0.712  14.100 -0.2902 -0.8755 -0.0172
  567TMC3    C7 8417   3.086   0.655  14.348 -0.2023 -0.0766 -0.1590
  567TMC3    C8 8418   3.056   0.933  13.966  0.2365 -0.6879 -0.5761
  567TMC3    O1 8419   3.180   0.605  14.284 -0.3693 -0.1549  0.3835
  567TMC3    O2 8420   2.962   0.973  13.902 -0.3682 -0.2795 -0.0710
  568MPD2     C 8421   0.593   0.804  16.329 -0.4189 -0.6676  0.3151
  568MPD2    C1 8422   0.572   0.927  16.383 -0.0049  0.0229 -0.0444
  568MPD2    C2 8423   0.468   1.008  16.336 -0.2068 -0.2174 -1.3731
  568MPD2    C3 8424   0.375   0.963  16.249 -0.0166 -0.4957  0.3287
  568MPD2    C4 8425   0.383   0.829  16.213  0.1395  0.7534  0.9878
  568MPD2    C5 8426   0.496   0.759  16.242  0.4032 -0.1714 -0.1674
  568MPD2     H 8427   0.466   1.110  16.373 -0.1126 -0.6665 -0.1340
  568MPD2    H1 8428   0.313   0.767  16.158 -0.8900  1.8353  1.0840
  568MPD2    H2 8429   0.671   0.735  16.359  0.5119 -0.8292 -2.4367
  568MPD2    H3 8430   0.506   0.662  16.195  0.3601 -0.9568  1.4522
  568MPD2     N 8431   0.274   1.050  16.208 -0.1050  0.1259  0.4360
  568MPD2    H5 8432   0.280   1.148  16.234  0.7422 -0.5793  2.9280
  568MPD2    N1 8433   0.663   0.969  16.483  0.0812 -0.0021  0.2378
  568MPD2    H7 8434   0.751   0.918  16.486  0.1134  0.0676  0.4525
  569TMC3    C1 8435   0.099   1.145  16.083 -0.2586 -0.1119 -0.0529
  569TMC3    C2 8436   0.083   1.253  16.162  0.7173  0.2353 -0.6152
  569TMC3    C3 8437   0.029   1.358  16.103 -0.9353  0.1225  0.7393
  569TMC3    C4 8438   0.065   1.149  15.951 -0.0895  0.3279 -0.0578
  569TMC3    C5 8439   0.015   1.258  15.887 -0.6270 -0.3995 -0.3471
  569TMC3    C6 8440   4.725   1.372  15.971  0.5947  0.5483  0.3133
  569TMC3     C 8441   0.177   1.022  16.122 -0.0361  0.1898  0.4599
  569TMC3     O 8442   0.154   0.917  16.067  0.1859  0.2109  0.5755
  569TMC3     H 8443   0.089   1.258  16.270 -1.8316 -1.0301 -0.4213
  569TMC3    H1 8444   0.097   1.063  15.892  1.6437  1.2153 -0.4035
  569TMC3    H2 8445   4.701   1.474  15.943 -1.3520  0.2554  0.9270
  569TMC3    C7 8446   0.057   1.280  15.749  0.3984 -0.5591 -0.0422
  569TMC3    C8 8447   0.016   1.482  16.171 -0.1096 -0.0916  0.1066
  569TMC3    O1 8448   0.123   1.191  15.699  0.4137 -0.3355 -1.0308
  569TMC3    O2 8449   4.648   1.556  16.143 -0.5363  0.0941 -0.0012
  570TMC3    C1 8450   4.715   4.560  16.363 -0.5753  0.3199  0.1970
  570TMC3    C2 8451   0.078   4.609  16.271  0.6783  0.1363 -0.4328
  570TMC3    C3 8452   0.064   0.013  16.246  0.8730  0.2717  0.8928
  570TMC3    C4 8453   4.613   4.628  16.425  0.1090  0.1950  0.0298
  570TMC3    C5 8454   4.605   0.030  16.399  0.1460  0.0371  0.5316
  570TMC3    C6 8455   4.694   0.088  16.308 -0.0284 -0.6928 -0.5285
  570TMC3     C 8456   4.716   4.413  16.410 -0.4840 -0.3708  0.1966
  570TMC3     O 8457   4.723   4.335  16.313 -0.2724 -0.4833  0.7012
  570TMC3     H 8458   0.146   4.540  16.221 -0.6430 -1.1522 -0.4439
  570TMC3    H1 8459   4.527   4.597  16.483 -0.0838  1.4285  0.3963
  570TMC3    H2 8460   4.687   0.191  16.276 -1.3143 -0.5407  0.2122
  570TMC3    C7 8461   4.538   0.121  16.492  0.0363 -0.0359 -0.9687
  570TMC3    C8 8462   0.165   0.079  16.173 -0.3501  0.4536 -0.8948
  570TMC3    O1 8463   4.503   0.075  16.600 -0.2188  0.0537 -0.4991
  570TMC3    O2 8464   0.142   0.189  16.116 -0.0319 -0.2674  0.6672
  571MPD2     C 8465   2.916   1.164  17.403  0.0546  0.4297  0.5631
  571MPD2    C1 8466   2.788   1.151  17.448 -0.1025  0.3192  0.1598
  571MPD2    C2 8467   2.740   1.239  17.546  0.4175  0.1373 -0.1328
  571MPD2    C3 8468   2.824   1.331  17.598 -0.3805  0.6706  0.0116
  571MPD2    C4 8469   2.943   1.344  17.542  0.2832 -0.3523  0.2669
  571MPD2    C5 8470   2.995   1.266  17.446  0.5128  0.0039  0.1128
  571MPD2     H 8471   2.647   1.222  17.599  2.1806  1.9160  3.4896
  571MPD2    H1 8472   3.011   1.422  17.575  1.0310 -0.2700 -1.4731
  571MPD2    H2 8473   2.958   1.106  17.322  2.9863  2.8752  0.3228
  571MPD2    H3 8474   3.093   1.292  17.409 -0.7501  2.4666 -1.5494
  571MPD2     N 8475   2.790   1.412   0.002 -0.2942 -0.2568 -0.2206
  571MPD2    H5 8476   2.862   1.476   0.033 -0.2840  0.2208 -1.2553
  571MPD2    N1 8477   2.711   1.051  17.393  0.1683 -0.0043  0.0888
  571MPD2    H7 8478   2.767   0.999  17.326  1.5385  1.5989 -0.0052
  572TMC3    C1 8479   2.683   1.499   0.180 -0.6379 -0.2288 -0.1388
  572TMC3    C2 8480   2.782   1.461   0.264  0.0842  0.1927  0.2063
  572TMC3    C3 8481   2.778   1.505   0.385 -0.3212 -0.5647  0.4320
  572TMC3    C4 8482   2.565   1.552   0.233  0.2480  0.6600  0.9074
  572TMC3    C5 8483   2.570   1.605   0.356  0.5323  1.0029  0.5682
  572TMC3    C6 8484   2.676   1.588   0.435  0.4269 -0.2537  0.8164
  572TMC3     C 8485   2.668   1.430   0.056  0.2245  0.6341  0.1604
  572TMC3     O 8486   2.556   1.380   0.034  0.0380  0.0584 -0.1576
  572TMC3     H 8487   2.839   1.374   0.234  0.9771  0.9971 -0.4557
  572TMC3    H1 8488   2.480   1.568   0.168 -0.2892 -1.2923  1.1255
  572TMC3    H2 8489   2.664   1.620   0.538  0.5438  1.8391  0.1912
  572TMC3    C7 8490   2.490   1.726   0.372  0.2280  0.0471  1.0527
  572TMC3    C8 8491   2.875   1.450   0.472  0.1365  0.1380  0.5310
  572TMC3    O1 8492   2.388   1.738   0.306 -0.0109 -0.4235 -0.0257
  572TMC3    O2 8493   2.940   1.355   0.427 -0.4874  0.2063 -0.4086
  573MPD2     C 8494   3.285   1.744   0.760  0.2017  0.1869 -0.1715
  573MPD2    C1 8495   3.270   1.880   0.768 -0.0322 -0.2618  0.1447
  573MPD2    C2 8496   3.241   1.948   0.648  0.3186  0.4063  0.3546
  573MPD2    C3 8497   3.237   1.879   0.531 -0.4463 -0.0916  0.1093
  573MPD2    C4 8498   3.256   1.743   0.529  0.3009 -0.0737  0.1112
  573MPD2    C5 8499   3.279   1.676   0.643  0.6361  0.2482  0.7325
  573MPD2     H 8500   3.234   2.056   0.645  1.4020  0.4407 -1.0353
  573MPD2    H1 8501   3.251   1.684   0.439  1.5099  0.5943 -0.3918
  573MPD2    H2 8502   3.296   1.686   0.851  1.7221  1.4651  0.4423
  573MPD2    H3 8503   3.292   1.568   0.646 -1.5408 -0.0066  1.0293
  573MPD2     N 8504   3.212   1.939   0.409 -0.2198  0.0205  0.2895
  573MPD2    H5 8505   3.216   1.873   0.332 -0.9684  2.3587 -1.7766
  573MPD2    N1 8506   3.293   1.943   0.894  0.6792  0.1078  0.2548
  573MPD2    H7 8507   3.339   1.889   0.966 -1.3679 -0.6033  1.0267
  574TMC3    C1 8508   3.119   2.086   0.254 -0.5188  0.0586  0.3272
  574TMC3    C2 8509   3.021   2.176   0.234  0.8212 -0.2980 -0.2714
  574TMC3    C3 8510   2.972   2.193   0.110 -0.2782 -0.7139  0.1597
  574TMC3    C4 8511   3.182   2.025   0.149 -0.0026  1.0251  0.0257
  574TMC3    C5 8512   3.130   2.054   0.023  0.2659  0.3516 -0.0869
  574TMC3    C6 8513   3.017   2.127   0.001  0.2142  0.0525 -0.4576
  574TMC3     C 8514   3.175   2.069   0.386  0.2601  0.0966 -0.6527
  574TMC3     O 8515   3.156   2.166   0.459  0.0480  0.7631  0.3269
  574TMC3     H 8516   2.964   2.220   0.315 -0.3269  0.8658 -1.7076
  574TMC3    H1 8517   3.275   1.969   0.147 -0.7888 -0.3226  0.9924
  574TMC3    H2 8518   2.978   2.148  17.610 -2.0631 -2.1533 -0.0170
  574TMC3    C7 8519   3.209   2.042  17.611  0.2821  0.3499  0.4111
  574TMC3    C8 8520   2.838   2.254   0.100  0.3282  0.2555 -0.1728
  574TMC3    O1 8521   3.141   2.052  17.510  0.2532 -0.6965 -0.1799
  574TMC3    O2 8522   2.759   2.261   0.198 -0.1106 -0.3299 -0.4413
  575TMC3    C1 8523   0.676   1.563  10.053 -0.4710 -0.2390 -0.4581
  575TMC3    C2 8524   0.643   1.447   9.987 -0.4582 -0.3856  0.2539
  575TMC3    C3 8525   0.563   1.463   9.873 -0.2597 -0.2553 -1.1424
  575TMC3    C4 8526   0.652   1.685  10.004  0.4853  0.0043 -0.5405
  575TMC3    C5 8527   0.589   1.696   9.883  0.9836  0.3724  0.2036
  575TMC3    C6 8528   0.543   1.584   9.813  0.1475 -0.2855 -0.3283
  575TMC3     C 8529   0.754   1.559  10.170  0.0405  0.2384  0.8894
  575TMC3     O 8530   0.793   1.665  10.210 -0.4963  0.4731  0.0622
  575TMC3     H 8531   0.672   1.347  10.020 -1.9926 -0.5278  1.1601
  575TMC3    H1 8532   0.677   1.772  10.065  1.0007  0.5570 -1.5447
  575TMC3    H2 8533   0.503   1.578   9.712  2.8499 -0.7341 -1.3782
  575TMC3    C7 8534   0.569   1.829   9.838  0.2868 -0.8493  0.0982
  575TMC3    C8 8535   0.511   1.347   9.814 -0.2689  0.0474 -0.9202
  575TMC3    O1 8536   0.624   1.925   9.894  0.0751  0.5130 -0.4659
  575TMC3    O2 8537   0.578   1.248   9.844 -0.2474  0.1800  0.0429
  576MPD2     C 8538   0.874   4.681  12.645 -0.0573  0.7731 -0.1879
  576MPD2    C1 8539   0.987   0.005  12.589  0.4738 -0.2496 -0.4891
  576MPD2    C2 8540   1.039   0.126  12.635 -0.0680 -0.1323 -0.3324
  576MPD2    C3 8541   0.985   0.190  12.746 -0.8957  0.0661 -0.0463
  576MPD2    C4 8542   0.869   0.134  12.796 -0.0796  0.1228 -0.3070
  576MPD2    C5 8543   0.819   0.013  12.755  0.6057  0.0169 -0.0655
  576MPD2     H 8544   1.130   0.156  12.585  1.3419 -1.3253  1.5308
  576MPD2    H1 8545   0.832   0.180  12.887 -0.5451 -0.6042 -0.1316
  576MPD2    H2 8546   0.832   4.586  12.611  0.3997  0.3287  0.4976
  576MPD2    H3 8547   0.728   4.700  12.799 -1.0614  3.5249 -0.3860
  576MPD2     N 8548   1.042   0.311  12.789  0.4873 -0.6290  0.3447
  576MPD2    H5 8549   1.125   0.342  12.739  0.7274  1.3071  1.9173
  576MPD2    N1 8550   1.047   4.674  12.474 -0.5288 -0.5856 -0.0178
  576MPD2    H7 8551   1.121   0.001  12.430 -1.3388  0.1812 -0.4531
  577TMC3    C1 8552   1.121   4.521  12.321 -0.0890  0.3012 -0.4500
  577TMC3    C2 8553   1.153   4.389  12.298 -0.7845  0.4523 -0.8543
  577TMC3    C3 8554   1.238   4.364  12.195 -0.6446  0.9267 -0.7644
  577TMC3    C4 8555   1.150   4.614  12.225  0.9580 -0.0458 -0.7954
  577TMC3    C5 8556   1.221   4.576  12.119 -0.0543 -0.3139  0.3965
  577TMC3    C6 8557   1.280   4.455  12.108  0.0740  0.3091  0.2001
  577TMC3     C 8558   1.021   4.553  12.420 -0.0428 -0.0954  0.1223
  577TMC3     O 8559   0.944   4.466  12.454 -0.1940 -0.3309 -0.3426
  577TMC3     H 8560   1.114   4.316  12.368 -1.0139 -2.7611 -4.3372
  577TMC3    H1 8561   1.108   4.712  12.240  1.7059  0.3921 -1.5999
  577TMC3    H2 8562   1.350   4.442  12.026 -1.0500 -1.9091 -0.3941
  577TMC3    C7 8563   1.226   4.680  12.021 -0.0089 -0.7333  0.0295
  577TMC3    C8 8564   1.291   4.231  12.190  0.0748 -0.1298 -0.5042
  577TMC3    O1 8565   1.224   0.069  12.050 -0.1142  0.2604 -0.2184
  577TMC3    O2 8566   1.276   4.172  12.295 -0.1520 -0.3939 -0.9434
  578MPD2     C 8567   3.439   4.628   1.287  0.3425  0.5479 -0.4927
  578MPD2    C1 8568   3.569   4.591   1.252  0.2616  0.8764  0.9161
  578MPD2    C2 8569   3.661   4.579   1.355  0.8830  0.1589  0.0838
  578MPD2    C3 8570   3.629   4.610   1.479  0.0896  0.9164  0.1206
  578MPD2    C4 8571   3.498   4.633   1.519 -0.2036 -0.2539  0.3973
  578MPD2    C5 8572   3.402   4.642   1.420 -0.0015 -0.2249  0.2757
  578MPD2     H 8573   3.762   4.550   1.328  0.7186 -0.5251  0.1936
  578MPD2    H1 8574   3.463   4.640   1.622 -0.4850 -0.5978  0.3268
  578MPD2    H2 8575   3.364   4.626   1.209  0.3305  1.5789 -0.5041
  578MPD2    H3 8576   3.299   4.660   1.447  0.3748  0.7442  1.0803
  578MPD2     N 8577   3.734   4.605   1.578  1.0491  0.2587  0.2492
  578MPD2    H5 8578   3.827   4.576   1.548  0.7694  0.3342 -0.6933
  578MPD2    N1 8579   3.597   4.570   1.117 -0.4494  0.5571  0.6039
  578MPD2    H7 8580   3.521   4.590   1.054  0.2004 -0.3119 -0.4494
  579TMC3    C1 8581   3.841   4.614   1.792  0.1429  0.6693 -0.4511
  579TMC3    C2 8582   3.851   4.686   1.909 -0.7713  0.1273  0.3437
  579TMC3    C3 8583   3.958   4.665   1.991 -0.7983  0.0057 -0.4041
  579TMC3    C4 8584   3.922   4.509   1.764  0.6663 -0.4289 -0.1834
  579TMC3    C5 8585   4.029   4.488   1.850  0.1339 -0.0286 -0.2579
  579TMC3    C6 8586   4.054   4.569   1.957 -0.0997  0.5089 -0.4525
  579TMC3     C 8587   3.730   4.650   1.710 -0.3555  1.0625  0.3458
  579TMC3     O 8588   3.635   4.703   1.766  0.1035 -0.8051  0.0743
  579TMC3     H 8589   3.787   0.045   1.929  1.0032  1.6868 -0.7180
  579TMC3    H1 8590   3.906   4.445   1.678 -0.0714  0.3082 -0.5940
  579TMC3    H2 8591   4.140   4.559   2.021  0.3492 -0.0292 -1.1345
  579TMC3    C7 8592   4.121   4.380   1.817  0.4047  0.2262 -0.2123
  579TMC3    C8 8593   4.018   0.049   2.055 -0.5802 -0.3565  0.3093
  579TMC3    O1 8594   4.191   4.336   1.912  0.0401  0.0894  0.2421
  579TMC3    O2 8595   3.953   0.141   2.097  0.0298 -0.0870  0.7211
  580TMC3    C1 8596   3.613   3.772  12.467 -0.0353  0.0399  0.2847
  580TMC3    C2 8597   3.740   3.824  12.463 -0.1103 -0.8406 -0.2624
  580TMC3    C3 8598   3.849   3.755  12.506  0.4909  0.1871 -0.1248
  580TMC3    C4 8599   3.587   3.651  12.523 -0.4847 -0.2661 -0.7629
  580TMC3    C5 8600   3.699   3.592  12.578 -0.6263  0.3267 -0.2814
  580TMC3    C6 8601   3.831   3.639  12.573  0.6355 -0.1221  0.6124
  580TMC3     C 8602   3.505   3.863  12.433  0.7175 -0.3516  0.0625
  580TMC3     O 8603   3.414   3.868  12.512  0.0258  0.1745 -0.0512
  580TMC3     H 8604   3.764   3.919  12.416 -1.7263  0.7008  2.0550
  580TMC3    H1 8605   3.486   3.613  12.529 -1.2200  1.8626  0.3007
  580TMC3    H2 8606   3.911   3.571  12.600  2.4632  2.3937  1.4478
  580TMC3    C7 8607   3.684   3.465  12.635 -0.5861  0.5315  0.2432
  580TMC3    C8 8608   3.981   3.779  12.448 -0.5155 -0.3381 -0.0777
  580TMC3    O1 8609   3.752   3.444  12.732  0.1792  0.5293 -0.2994
  580TMC3    O2 8610   4.072   3.710  12.498  0.1570 -0.0946 -0.0857
  581MPD2     C 8611   0.915   3.483  14.951  0.3902 -0.6986 -0.6226
  581MPD2    C1 8612   0.801   3.499  15.026 -0.7644 -0.2706 -0.3328
  581MPD2    C2 8613   0.714   3.599  14.991  0.2036  0.6278  0.5009
  581MPD2    C3 8614   0.745   3.669  14.872 -0.3753  0.3850  0.3130
  581MPD2    C4 8615   0.850   3.645  14.790 -0.3069  0.3533 -0.2888
  581MPD2    C5 8616   0.937   3.551  14.831 -0.7263 -0.1777  0.2697
  581MPD2     H 8617   0.626   3.618  15.051 -0.8641  0.5358 -1.0313
  581MPD2    H1 8618   0.878   3.692  14.697 -2.0564  1.8860 -0.0406
  581MPD2    H2 8619   0.970   3.393  14.978  0.4047 -0.4654  0.1210
  581MPD2    H3 8620   1.015   3.527  14.759 -1.0152 -1.0009  0.2327
  581MPD2     N 8621   0.659   3.766  14.840  0.0100  0.2265 -0.1351
  581MPD2    H5 8622   0.575   3.773  14.897 -0.3100  0.7414 -0.6722
  581MPD2    N1 8623   0.788   3.420  15.140  0.2793  0.5377  0.0888
  581MPD2    H7 8624   0.866   3.356  15.155 -0.7690 -0.3574  1.7394
  582TMC3    C1 8625   0.694   3.346  15.347 -0.6250  0.2162  0.2014
  582TMC3    C2 8626   0.826   3.304  15.386 -0.3707 -0.0219 -0.2220
  582TMC3    C3 8627   0.845   3.309  15.523  0.5073  0.4033 -0.2098
  582TMC3    C4 8628   0.589   3.367  15.439 -0.0980  0.9406 -0.1778
  582TMC3    C5 8629   0.617   3.359  15.572  0.7985 -0.3626 -0.5188
  582TMC3    C6 8630   0.745   3.339  15.619 -0.0155 -0.8800  0.2870
  582TMC3     C 8631   0.678   3.420  15.220 -0.4945 -0.5477 -0.2474
  582TMC3     O 8632   0.567   3.467  15.198  0.4120 -0.1160 -0.2507
  582TMC3     H 8633   0.911   3.310  15.320 -1.8753  1.5074 -2.0251
  582TMC3    H1 8634   0.487   3.382  15.405  0.1576 -0.7157 -1.6768
  582TMC3    H2 8635   0.763   3.334  15.726 -0.7981 -2.9483  0.3246
  582TMC3    C7 8636   0.536   3.441  15.662  0.1888  0.2507  0.7578
  582TMC3    C8 8637   0.974   3.354  15.564 -0.5914 -0.5240  1.2469
  582TMC3    O1 8638   0.491   3.393  15.763  0.1171 -0.1206  0.4099
  582TMC3    O2 8639   0.980   3.437  15.650  0.3079  0.6483 -0.5147
  583MPD2     C 8640   1.589   0.185  16.818 -0.2790 -0.2451 -0.0830
  583MPD2    C1 8641   1.593   0.302  16.743 -0.1314 -0.7417 -0.8700
  583MPD2    C2 8642   1.571   0.421  16.808  0.4459 -0.7562 -0.2983
  583MPD2    C3 8643   1.533   0.433  16.943 -0.2843  0.2165 -0.8920
  583MPD2    C4 8644   1.529   0.313  17.013  0.4579  0.6882  0.4322
  583MPD2    C5 8645   1.561   0.195  16.951  0.7807 -0.3129 -0.0938
  583MPD2     H 8646   1.575   0.512  16.750 -2.7459 -1.0745 -1.0086
  583MPD2    H1 8647   1.489   0.302  17.114  0.9102 -2.5658  0.2587
  583MPD2    H2 8648   1.627   0.097  16.766 -2.2322 -0.1427 -1.7237
  583MPD2    H3 8649   1.577   0.109  17.015  0.5430 -1.1305 -1.1299
  583MPD2     N 8650   1.507   0.563  16.993 -0.2180  0.0786 -0.0068
  583MPD2    H5 8651   1.499   0.636  16.923 -1.4225 -1.0035 -0.9942
  583MPD2    N1 8652   1.630   0.312  16.608 -0.0087 -0.3071  0.4236
  583MPD2    H7 8653   1.609   0.402  16.567 -0.1141 -1.0118 -1.0929
  584TMC3    C1 8654   1.465   0.727  17.152  0.2294  0.0046 -0.3990
  584TMC3    C2 8655   1.475   0.823  17.053 -0.0080 -0.3671  0.0771
  584TMC3    C3 8656   1.455   0.954  17.081 -0.7021  0.1400  0.5779
  584TMC3    C4 8657   1.437   0.761  17.282  0.6209  0.0788  0.1218
  584TMC3    C5 8658   1.412   0.893  17.303  0.2832 -0.2308 -0.4704
  584TMC3    C6 8659   1.419   0.989  17.206  0.3673  0.9825 -0.0217
  584TMC3     C 8660   1.497   0.589  17.129  0.5491  0.5359 -0.1722
  584TMC3     O 8661   1.494   0.508  17.220  0.1912  0.3158 -0.5511
  584TMC3     H 8662   1.509   0.797  16.954 -1.6714  1.5209 -0.9775
  584TMC3    H1 8663   1.426   0.683  17.356 -0.5224 -0.1038 -0.2361
  584TMC3    H2 8664   1.383   1.090  17.227 -1.9899  0.2896 -0.7539
  584TMC3    C7 8665   1.368   0.926  17.444 -0.3701  0.2785  0.7466
  584TMC3    C8 8666   1.433   1.039  16.970  0.1061  0.1747 -0.3926
  584TMC3    O1 8667   1.371   0.842  17.530 -0.0484  0.3191 -0.3841
  584TMC3    O2 8668   1.403   0.981  16.866 -0.2363  0.3567 -0.6072
  585MPD2     C 8669   0.354   3.906   0.594  0.3399 -0.1658 -0.2516
  585MPD2    C1 8670   0.435   4.015   0.561  0.1390 -0.0315 -0.0529
  585MPD2    C2 8671   0.500   4.012   0.439 -0.2744  0.2095 -0.0109
  585MPD2    C3 8672   0.490   3.899   0.358  0.4149 -0.3184  0.1960
  585MPD2    C4 8673   0.416   3.790   0.395 -0.2992  0.0973 -0.5397
  585MPD2    C5 8674   0.345   3.790   0.513 -0.1019  0.2915 -0.1349
  585MPD2     H 8675   0.542   4.104   0.399  1.9385 -1.0979 -0.6968
  585MPD2    H1 8676   0.402   3.706   0.328 -0.0533 -0.9953  0.7749
  585MPD2    H2 8677   0.298   3.911   0.686  0.4302 -0.9385 -0.1616
  585MPD2    H3 8678   0.287   3.705   0.546 -0.3414  0.4403 -0.1701
  585MPD2     N 8679   0.571   3.891   0.249  0.4544  0.2240 -0.4581
  585MPD2    H5 8680   0.554   3.818   0.180 -0.2373 -1.0693  1.0884
  585MPD2    N1 8681   0.446   4.125   0.654 -0.4377 -0.0170  0.0477
  585MPD2    H7 8682   0.391   4.124   0.739 -0.3464 -1.0083  0.1039
  586TMC3    C1 8683   0.726   3.953   0.088 -0.4532  0.4139 -0.4637
  586TMC3    C2 8684   0.855   3.968   0.049 -0.0457 -0.7698 -0.1095
  586TMC3    C3 8685   0.886   3.969  17.624 -0.5431 -0.6647  0.4933
  586TMC3    C4 8686   0.630   3.955  17.703  0.1731  0.1531  0.0566
  586TMC3    C5 8687   0.661   3.953  17.573  0.3167  0.5048 -0.1912
  586TMC3    C6 8688   0.788   3.959  17.530 -0.0742  0.2980 -0.2756
  586TMC3     C 8689   0.683   3.966   0.225 -0.2721  0.3756  0.8377
  586TMC3     O 8690   0.756   4.036   0.292  0.4291 -0.3618  0.2668
  586TMC3     H 8691   0.934   3.964   0.123 -1.3046 -0.4732  1.2486
  586TMC3    H1 8692   0.523   3.946   0.010 -0.0068  1.2063 -0.5819
  586TMC3    H2 8693   0.813   3.984  17.427  2.1456  2.3171  0.7519
  586TMC3    C7 8694   0.619   3.819  17.529 -0.3372  0.2319  0.5620
  586TMC3    C8 8695   1.010   3.901  17.588  0.3767  0.1105  0.3136
  586TMC3    O1 8696   0.505   3.781  17.559 -0.1537  0.3564 -0.5579
  586TMC3    O2 8697   1.079   3.845  17.673 -0.5437  0.3960  0.0138
  587TMC3    C1 8698   3.149   2.753  16.212  0.1950  0.5624 -0.3840
  587TMC3    C2 8699   3.120   2.885  16.248  0.5534 -0.1685  0.1120
  587TMC3    C3 8700   3.220   2.973  16.204  0.4907 -0.7347 -0.1196
  587TMC3    C4 8701   3.254   2.714  16.131  0.1343 -0.0343  0.4150
  587TMC3    C5 8702   3.340   2.809  16.081 -0.2164  0.1581  0.2637
  587TMC3    C6 8703   3.324   2.938  16.125 -1.0140  0.2455  0.1626
  587TMC3     C 8704   3.028   2.697  16.164  0.0390  0.0186 -0.0656
  587TMC3     O 8705   3.039   2.645  16.055  0.6301 -0.1180 -0.2749
  587TMC3     H 8706   3.022   2.926  16.270  0.6856 -0.7786  1.8309
  587TMC3    H1 8707   3.268   2.609  16.106  2.5724  0.5746 -0.7973
  587TMC3    H2 8708   3.405   3.005  16.100  0.2751 -1.1479  0.6087
  587TMC3    C7 8709   3.427   2.761  15.973 -0.7904  0.1330  0.7719
  587TMC3    C8 8710   3.207   3.113  16.233 -0.2193  0.1164 -0.4330
  587TMC3    O1 8711   3.468   2.646  15.978  0.3832  0.0009 -0.1168
  587TMC3    O2 8712   3.269   3.189  16.163  0.3165 -0.3626  0.6837
  588TMC3    C1 8713   0.927   0.855  10.310 -0.7187 -0.1598  0.6180
  588TMC3    C2 8714   0.880   0.729  10.300 -0.5221 -0.2030 -0.0867
  588TMC3    C3 8715   0.936   0.622  10.359 -0.0790 -0.1751  0.3852
  588TMC3    C4 8716   1.043   0.877  10.378  0.0072 -0.1612 -0.3160
  588TMC3    C5 8717   1.107   0.768  10.432  0.0646  0.2014  0.0014
  588TMC3    C6 8718   1.055   0.641  10.434 -0.5121  0.0019  0.5738
  588TMC3     C 8719   0.892   0.951  10.210  0.5737 -0.1795  0.1211
  588TMC3     O 8720   0.798   0.928  10.138 -0.2388  0.0990 -0.3373
  588TMC3     H 8721   0.785   0.711  10.251  1.0499 -1.3534 -2.6975
  588TMC3    H1 8722   1.075   0.977  10.406  1.3268 -0.8483  0.6748
  588TMC3    H2 8723   1.106   0.560  10.487  1.9199  2.1291  1.4892
  588TMC3    C7 8724   1.252   0.778  10.433 -0.2965  0.2402 -0.7741
  588TMC3    C8 8725   0.891   0.488  10.330 -0.2225  0.4031 -0.5887
  588TMC3    O1 8726   1.313   0.676  10.460  0.9080 -0.2974 -0.1862
  588TMC3    O2 8727   0.805   0.477  10.239  0.1430 -0.5234  0.5516
  589TMC3    C1 8728   4.121   2.461   1.402  0.2904 -0.3932  0.0532
  589TMC3    C2 8729   4.232   2.479   1.485  0.4937 -0.1373 -0.8420
  589TMC3    C3 8730   4.357   2.425   1.450 -0.5662 -0.1180  0.6971
  589TMC3    C4 8731   4.145   2.372   1.301  0.3938 -0.8467 -0.2342
  589TMC3    C5 8732   4.271   2.320   1.270  0.2367  0.4277  0.5309
  589TMC3    C6 8733   4.383   2.352   1.339 -0.4741  0.2205 -0.0879
  589TMC3     C 8734   4.022   2.557   1.381 -0.0766  0.3337 -0.4746
  589TMC3     O 8735   3.943   2.533   1.287 -0.2708  0.1160  0.2047
  589TMC3     H 8736   4.231   2.547   1.570 -0.8406  0.6539 -1.4892
  589TMC3    H1 8737   4.060   2.334   1.244 -1.1331  2.2318  0.0041
  589TMC3    H2 8738   4.475   2.297   1.323  0.9203  2.3995  0.4933
  589TMC3    C7 8739   4.265   2.213   1.166  0.0625  0.1766 -0.6952
  589TMC3    C8 8740   4.449   2.406   1.557 -0.5932 -0.6417 -0.0702
  589TMC3    O1 8741   4.159   2.162   1.136 -0.0397 -0.6508 -0.0578
  589TMC3    O2 8742   4.414   2.418   1.673  0.4979  0.1119 -0.1328
  590MPD2     C 8743   3.953   1.320  16.803 -0.1990 -0.2025  0.1394
  590MPD2    C1 8744   3.856   1.356  16.719 -0.5007 -0.0157 -0.1910
  590MPD2    C2 8745   3.861   1.311  16.586 -0.3978  0.5963  0.8614
  590MPD2    C3 8746   3.965   1.248  16.532 -0.7524 -0.4440 -0.2328
  590MPD2    C4 8747   4.066   1.212  16.615  0.0282 -0.0943 -0.0217
  590MPD2    C5 8748   4.062   1.253  16.747 -0.2323 -0.6090 -0.4788
  590MPD2     H 8749   3.778   1.345  16.526 -0.5965 -1.7753 -0.2027
  590MPD2    H1 8750   4.161   1.172  16.583  0.9585  1.8603  0.2727
  590MPD2    H2 8751   3.966   1.369  16.900 -1.0012  0.3606 -0.0422
  590MPD2    H3 8752   4.145   1.227  16.813 -0.6155 -0.2754  0.1423
  590MPD2     N 8753   3.966   1.222  16.388 -0.0139 -0.2490 -0.2796
  590MPD2    H5 8754   3.887   1.265  16.340 -0.9407 -0.7302  0.7951
  590MPD2    N1 8755   3.739   1.429  16.760  0.0752  0.1593  0.3841
  590MPD2    H7 8756   3.664   1.445  16.692  1.2538  1.7291 -0.5487
  591TMC3    C1 8757   4.035   1.137  16.173 -0.5433  0.0964  0.1807
  591TMC3    C2 8758   4.144   1.134  16.099  0.0480  0.4327 -0.1231
  591TMC3    C3 8759   4.144   1.199  15.974 -0.5400 -0.5064 -0.0642
  591TMC3    C4 8760   3.916   1.184  16.131 -0.4854  0.0547  0.5777
  591TMC3    C5 8761   3.910   1.233  16.004 -0.3060  0.9001 -0.3394
  591TMC3    C6 8762   4.021   1.249  15.924 -0.0764 -0.9663 -0.0914
  591TMC3     C 8763   4.064   1.160  16.318  0.1456  0.2565  0.1208
  591TMC3     O 8764   4.173   1.123  16.355 -0.6607 -0.8203 -0.5909
  591TMC3     H 8765   4.232   1.085  16.138 -1.1164  0.2244  2.2338
  591TMC3    H1 8766   3.822   1.180  16.185 -0.6434  1.9436  0.4215
  591TMC3    H2 8767   4.000   1.279  15.821  4.0712 -0.8046 -0.8993
  591TMC3    C7 8768   3.788   1.307  15.978 -0.3808  0.1834 -0.8959
  591TMC3    C8 8769   4.242   1.168  15.873 -0.0973  0.7678 -0.0697
  591TMC3    O1 8770   3.682   1.261  16.018 -0.2808 -0.6184 -0.1589
  591TMC3    O2 8771   4.301   1.063  15.886 -0.1286  0.0196  0.1122
  592MPD2     C 8772   4.343   3.294  11.388  0.0590  0.5703  0.1236
  592MPD2    C1 8773   4.362   3.323  11.524  0.0779 -0.3600 -0.0541
  592MPD2    C2 8774   4.259   3.277  11.610 -1.0557  0.1726  0.3883
  592MPD2    C3 8775   4.154   3.196  11.568  0.2286  0.3863  0.5988
  592MPD2    C4 8776   4.146   3.164  11.433  0.3001  0.6499 -0.7765
  592MPD2    C5 8777   4.245   3.207  11.343  0.4357  0.5933 -0.1911
  592MPD2     H 8778   4.266   3.291  11.717 -1.8801 -0.4729  0.5253
  592MPD2    H1 8779   4.065   3.102  11.395  1.1943 -2.0825  1.7209
  592MPD2    H2 8780   4.420   3.311  11.314 -0.7430  1.4223 -0.5218
  592MPD2    H3 8781   4.247   3.177  11.239  0.1909  1.8396 -0.5596
  592MPD2     N 8782   4.074   3.142  11.669  0.3220  0.0325  0.6555
  592MPD2    H5 8783   4.100   3.171  11.763 -2.0266  0.6545  1.1117
  592MPD2    N1 8784   4.468   3.389  11.578 -0.3034  0.4399 -0.3871
  592MPD2    H7 8785   4.451   3.399  11.678 -0.3839 -1.6233 -0.1968
  593TMC3    C1 8786   4.686   3.464  11.613 -0.2546 -0.4159 -0.6373
  593TMC3    C2 8787   4.643   3.527  11.727  0.0199  0.0448  0.8120
  593TMC3    C3 8788   0.012   3.561  11.820  0.5271  0.2593  0.1519
  593TMC3    C4 8789   0.089   3.422  11.594 -0.5733 -0.4946 -0.7384
  593TMC3    C5 8790   0.181   3.449  11.691  0.1745 -0.3461 -0.1192
  593TMC3    C6 8791   0.144   3.520  11.802 -0.3099  0.6798 -0.5417
  593TMC3     C 8792   4.586   3.411  11.520 -0.0812  0.4955  0.4149
  593TMC3     O 8793   4.630   3.365  11.415 -0.1755  0.2654 -0.3462
  593TMC3     H 8794   4.543   3.565  11.748 -0.7509 -2.5217  1.7174
  593TMC3    H1 8795   0.122   3.386  11.497 -2.1100  1.9776 -2.1622
  593TMC3    H2 8796   0.212   3.521  11.886 -0.0701 -2.5340 -0.6897
  593TMC3    C7 8797   0.312   3.480  11.649  0.0352  0.3843 -0.2202
  593TMC3    C8 8798   4.713   3.673  11.913  0.1921 -0.1810 -0.6960
  593TMC3    O1 8799   0.356   3.583  11.694  0.0773  0.1813  0.1142
  593TMC3    O2 8800   4.595   3.712  11.913  0.1072 -0.1956  0.5317
  594MPD2     C 8801   2.838   2.571  14.021 -0.4042  0.7157 -0.7090
  594MPD2    C1 8802   2.867   2.543  14.154 -0.0177  0.6876 -0.0261
  594MPD2    C2 8803   2.981   2.589  14.212  1.2363  0.2750  0.4215
  594MPD2    C3 8804   3.072   2.657  14.137 -0.3530  0.5870 -0.8659
  594MPD2    C4 8805   3.052   2.674  14.000  0.2965  0.3700 -0.4133
  594MPD2    C5 8806   2.928   2.640  13.944  0.0562 -0.5701  0.1077
  594MPD2     H 8807   3.007   2.578  14.316  0.8015  1.4389  0.6485
  594MPD2    H1 8808   3.117   2.742  13.947  0.5830 -0.5372 -1.2169
  594MPD2    H2 8809   2.740   2.547  13.982  0.3625  0.1281 -2.2597
  594MPD2    H3 8810   2.899   2.674  13.845  1.0628  0.4891  0.1788
  594MPD2     N 8811   3.183   2.702  14.210 -0.4018 -0.0043  0.3689
  594MPD2    H5 8812   3.176   2.698  14.311  1.8854 -0.2808  0.5141
  594MPD2    N1 8813   2.764   2.471  14.234  0.1692  0.6633 -0.2689
  594MPD2    H7 8814   2.674   2.460  14.188 -0.0742 -2.6370  1.0366
  595TMC3    C1 8815   3.615   2.875  14.292  0.0512 -0.4451  1.2949
  595TMC3    C2 8816   3.529   2.800  14.217  0.2314  0.5503  0.1890
  595TMC3    C3 8817   3.399   2.790  14.254 -0.1578  0.5308  0.2133
  595TMC3    C4 8818   3.578   2.947  14.398  0.0679 -0.2725 -0.0382
  595TMC3    C5 8819   3.444   2.930  14.432  0.2606  0.0714 -0.5936
  595TMC3    C6 8820   3.348   2.861  14.358  0.0038  0.7068 -0.8886
  595TMC3     C 8821   3.750   2.826  14.306 -0.0308 -0.1822  0.7391
  595TMC3     O 8822   3.835   2.897  14.354 -0.1380  0.2693 -0.0598
  595TMC3     H 8823   3.564   2.743  14.131 -0.5220  0.9556 -0.3858
  595TMC3    H1 8824   3.650   3.010  14.449  1.2824 -1.0374 -0.8041
  595TMC3    H2 8825   3.243   2.871  14.385 -0.2860 -0.7823 -1.4793
  595TMC3    C7 8826   3.390   3.006  14.548 -0.5721 -0.0813 -0.3550
  595TMC3    C8 8827   3.302   2.745  14.156  0.4896 -0.1343 -1.0168
  595TMC3    O1 8828   3.269   3.026  14.556  0.7831 -0.1306  0.3962
  595TMC3    O2 8829   3.337   2.738  14.037 -0.0759  0.2122  0.1940
  596MPD2     C 8830   2.301   0.265  16.686  0.0326 -0.1017  0.1592
  596MPD2    C1 8831   2.294   0.379  16.610 -0.2571  0.9945  0.0673
  596MPD2    C2 8832   2.289   0.362  16.472 -0.1318 -0.8036 -0.7585
  596MPD2    C3 8833   2.297   0.235  16.411  0.1385 -0.2138  0.0638
  596MPD2    C4 8834   2.303   0.126  16.493 -0.2515 -0.4535  0.1628
  596MPD2    C5 8835   2.301   0.141  16.631  1.3367 -0.1612  0.5497
  596MPD2     H 8836   2.275   0.456  16.421  2.5092 -0.1368 -0.2191
  596MPD2    H1 8837   2.315   0.024  16.459  1.0381  0.8941 -3.3905
  596MPD2    H2 8838   2.298   0.259  16.794  2.1385  0.3341  0.2293
  596MPD2    H3 8839   2.310   0.057  16.699  0.1179 -0.5170  0.2768
  596MPD2     N 8840   2.283   0.218  16.271 -0.0497  0.0533 -0.3727
  596MPD2    H5 8841   2.287   0.120  16.246 -0.1526 -0.1236  0.3134
  596MPD2    N1 8842   2.299   0.509  16.661 -0.2362 -0.7221  0.6669
  596MPD2    H7 8843   2.328   0.587  16.603  1.0243  1.3953  4.0837
  597TMC3    C1 8844   2.288   0.679  16.824 -0.2358  0.1029  0.7029
  597TMC3    C2 8845   2.358   0.759  16.739  0.7368  0.8470 -0.0710
  597TMC3    C3 8846   2.345   0.896  16.750  0.3454 -0.3031  0.1052
  597TMC3    C4 8847   2.215   0.736  16.925  0.0677 -0.2346 -0.3478
  597TMC3    C5 8848   2.208   0.870  16.938 -0.2645  0.2058 -0.3120
  597TMC3    C6 8849   2.275   0.958  16.855  0.2122  0.3141 -0.3554
  597TMC3     C 8850   2.259   0.540  16.792 -0.4713 -0.1276  0.3184
  597TMC3     O 8851   2.213   0.471  16.877 -0.2798 -0.2765 -0.5761
  597TMC3     H 8852   2.429   0.722  16.666  0.5291 -0.6098  0.4789
  597TMC3    H1 8853   2.171   0.663  16.992  0.4329 -0.9493 -0.8848
  597TMC3    H2 8854   2.275   1.066  16.864 -2.8422  0.0483  2.9904
  597TMC3    C7 8855   2.127   0.930  17.048  1.1661 -0.0755  0.1275
  597TMC3    C8 8856   2.436   0.987  16.673 -0.2351 -0.7698 -0.9369
  597TMC3    O1 8857   2.107   0.861  17.144  0.0976  0.5143  0.1290
  597TMC3    O2 8858   2.452   1.095  16.724 -0.2422  0.0861 -0.1328
  598TMC3    C1 8859   0.834   1.846  15.416 -0.3290 -0.2106 -1.0312
  598TMC3    C2 8860   0.805   1.715  15.379  0.2695  0.4515 -0.1117
  598TMC3    C3 8861   0.687   1.689  15.309 -0.4637 -0.0939  0.5439
  598TMC3    C4 8862   0.756   1.952  15.375  0.8110  0.1891  0.4927
  598TMC3    C5 8863   0.636   1.927  15.307  0.1681 -0.1291 -0.5453
  598TMC3    C6 8864   0.605   1.792  15.280  0.0174  0.1808 -0.3226
  598TMC3     C 8865   0.961   1.886  15.476  0.2627 -0.3818 -0.6722
  598TMC3     O 8866   0.957   1.997  15.533 -0.3832  0.4886 -0.0315
  598TMC3     H 8867   0.862   1.632  15.420  1.0127  0.3538 -1.3466
  598TMC3    H1 8868   0.786   2.055  15.390  0.5254  0.1803  1.1552
  598TMC3    H2 8869   0.514   1.763  15.228 -0.5455  0.0790  0.7211
  598TMC3    C7 8870   0.541   2.031  15.291  0.4007 -0.0132 -0.0565
  598TMC3    C8 8871   0.642   1.548  15.284  0.2081 -0.6145 -0.7300
  598TMC3    O1 8872   0.429   1.989  15.260  0.3008  0.2386  0.7366
  598TMC3    O2 8873   0.522   1.528  15.267 -0.3269  0.1642  0.0699
  599MPD2     C 8874   0.498   4.243  16.213 -0.0521 -0.3741  0.0261
  599MPD2    C1 8875   0.530   4.132  16.297 -0.6588 -0.2317  0.0747
  599MPD2    C2 8876   0.496   4.122  16.429  0.4835 -0.6912 -0.0548
  599MPD2    C3 8877   0.399   4.218  16.474 -0.0826  0.4508  0.7756
  599MPD2    C4 8878   0.350   4.317  16.387  0.5029 -0.7285  0.5963
  599MPD2    C5 8879   0.418   4.336  16.266 -0.5598 -0.0161  0.5377
  599MPD2     H 8880   0.531   4.045  16.497  0.0959  0.0907  1.0279
  599MPD2    H1 8881   0.272   4.383  16.421 -1.0704 -2.1442 -0.2560
  599MPD2    H2 8882   0.536   4.258  16.113  2.1048 -0.6267  0.8160
  599MPD2    H3 8883   0.384   4.416  16.201 -1.6126 -1.5207 -0.7610
  599MPD2     N 8884   0.343   4.214  16.605  0.0870 -0.1159  0.5449
  599MPD2    H5 8885   0.281   4.293  16.624 -0.4174 -0.2724 -0.4271
  599MPD2    N1 8886   0.630   4.047  16.243 -0.2129 -0.7999 -0.2069
  599MPD2    H7 8887   0.665   4.068  16.150 -0.0053  1.1098  0.3053
  600TMC3    C1 8888   0.263   4.132  16.805 -0.7347  0.4043 -0.2193
  600TMC3    C2 8889   0.194   4.033  16.864 -0.0119 -0.0018  0.2964
  600TMC3    C3 8890   0.137   4.061  16.983  0.0012 -0.1188 -0.2207
  600TMC3    C4 8891   0.272   4.257  16.858  0.2922  0.0308 -0.0761
  600TMC3    C5 8892   0.207   4.286  16.978 -0.3163 -0.2023  0.5032
  600TMC3    C6 8893   0.131   4.190  17.035 -0.2876 -0.5463  0.3917
  600TMC3     C 8894   0.338   4.103  16.689  0.1325  0.7087 -0.6081
  600TMC3     O 8895   0.377   3.988  16.685  0.2268 -0.1220 -0.0596
  600TMC3     H 8896   0.185   3.936  16.817  1.6199  0.3990 -0.8524
  600TMC3    H1 8897   0.325   4.341  16.814  0.8364 -0.5887 -0.5912
  600TMC3    H2 8898   0.073   4.205  17.126 -1.6562 -0.2338 -0.5415
  600TMC3    C7 8899   0.179   4.417  17.032 -0.9555  0.3553 -0.5533
  600TMC3    C8 8900   0.072   3.960  17.058  0.0184 -0.9481  0.5089
  600TMC3    O1 8901   0.098   4.429  17.119 -0.0556 -0.0133  0.5415
  600TMC3    O2 8902   0.058   3.983  17.182 -0.1397  0.1427  0.2574
  601MPD2     C 8903   2.423   2.207   0.538  0.1752  0.2442  0.6300
  601MPD2    C1 8904   2.329   2.114   0.496  0.1957  0.4740 -0.1734
  601MPD2    C2 8905   2.369   1.988   0.464  0.2138  0.2322 -0.0748
  601MPD2    C3 8906   2.505   1.954   0.468 -0.3461 -0.2194  0.1264
  601MPD2    C4 8907   2.597   2.047   0.511  0.4240 -0.1898 -0.2879
  601MPD2    C5 8908   2.551   2.171   0.546  0.1151 -0.0148 -0.7082
  601MPD2     H 8909   2.296   1.911   0.440  0.1979 -0.0425  0.8642
  601MPD2    H1 8910   2.703   2.028   0.520  0.4099  0.9899  2.4524
  601MPD2    H2 8911   2.398   2.308   0.569  0.4167  1.4735 -3.1771
  601MPD2    H3 8912   2.620   2.245   0.584  1.2570 -1.0885 -0.7006
  601MPD2     N 8913   2.561   1.821   0.438  0.0398  0.4249  0.2743
  601MPD2    H5 8914   2.660   1.808   0.457  0.0233  1.6892  1.2689
  601MPD2    N1 8915   2.192   2.136   0.506  0.2503 -0.2930  0.1409
  601MPD2    H7 8916   2.127   2.060   0.485  2.0714 -1.8579  0.1633
  602TMC3    C1 8917   1.991   2.255   0.535  0.0514 -0.3868 -0.3063
  602TMC3    C2 8918   1.929   2.364   0.585  0.3471 -0.1983  0.0727
  602TMC3    C3 8919   1.806   2.400   0.542 -0.1247 -0.1722 -0.1694
  602TMC3    C4 8920   1.934   2.172   0.437 -0.8725  0.1975 -0.7619
  602TMC3    C5 8921   1.803   2.212   0.396 -0.2451 -0.0501 -0.0029
  602TMC3    C6 8922   1.742   2.334   0.435 -0.8389 -0.2486  0.1308
  602TMC3     C 8923   2.137   2.253   0.551 -0.3020  0.9124 -0.5330
  602TMC3     O 8924   2.187   2.342   0.621 -0.2828 -0.0523 -0.0471
  602TMC3     H 8925   1.982   2.427   0.656  2.6533  1.7689 -3.4438
  602TMC3    H1 8926   1.963   2.072   0.405  1.1605  1.2528 -2.2420
  602TMC3    H2 8927   1.646   2.368   0.397 -0.4722  0.5646 -0.0683
  602TMC3    C7 8928   1.739   2.127   0.301 -0.8413  0.2583  0.4617
  602TMC3    C8 8929   1.753   2.529   0.588  0.1256 -0.2634  0.7197
  602TMC3    O1 8930   1.797   2.039   0.237  0.9594  0.1757  0.2507
  602TMC3    O2 8931   1.830   2.617   0.628 -0.7716 -0.0176 -0.0793
  603TMC3    C1 8932   1.263   2.827  10.861  0.2507  0.7303 -0.1835
  603TMC3    C2 8933   1.241   2.802  10.996  0.4246  0.2451  0.1610
  603TMC3    C3 8934   1.236   2.912  11.083  0.1242 -0.1441  0.3105
  603TMC3    C4 8935   1.258   2.957  10.816  0.4244  0.0520  0.2578
  603TMC3    C5 8936   1.262   3.057  10.907 -0.0054  0.2361  0.6051
  603TMC3    C6 8937   1.257   3.041  11.041  0.0589  0.2089  0.0558
  603TMC3     C 8938   1.246   2.728  10.761  0.0005  0.2105  0.2763
  603TMC3     O 8939   1.282   2.767  10.647 -0.0242  0.5432  0.0344
  603TMC3     H 8940   1.234   2.700  11.034  0.4436 -0.5108 -1.8376
  603TMC3    H1 8941   1.268   2.975  10.709  2.4247 -0.4455  0.3523
  603TMC3    H2 8942   1.225   3.130  11.094  1.9227  1.4046 -0.8095
  603TMC3    C7 8943   1.212   3.187  10.862  0.3193 -0.8196  0.0348
  603TMC3    C8 8944   1.180   2.881  11.214 -0.0183  0.6074  0.5328
  603TMC3    O1 8945   1.251   3.281  10.930  0.0211  0.3289  0.2400
  603TMC3    O2 8946   1.137   2.767  11.221  0.1300 -0.3803  0.0184
  604MPD2     C 8947   1.277   1.368  16.341 -0.1677  0.5851 -0.6708
  604MPD2    C1 8948   1.213   1.428  16.237  0.3322  0.3431 -0.2477
  604MPD2    C2 8949   1.242   1.382  16.113  0.3841  0.5620 -0.3587
  604MPD2    C3 8950   1.315   1.264  16.079 -0.1364  0.3756 -0.3881
  604MPD2    C4 8951   1.374   1.204  16.188 -0.3682  0.1565 -0.9160
  604MPD2    C5 8952   1.359   1.259  16.312 -0.4628 -0.0893 -0.3681
  604MPD2     H 8953   1.211   1.438  16.025 -0.5611 -0.5135 -0.7090
  604MPD2    H1 8954   1.440   1.119  16.171  0.2162  0.9369 -2.4718
  604MPD2    H2 8955   1.264   1.413  16.439  0.9621 -3.5422  1.3527
  604MPD2    H3 8956   1.403   1.215  16.401  0.9303  1.8360 -0.1026
  604MPD2     N 8957   1.327   1.230  15.943  0.1593 -0.0997 -0.0110
  604MPD2    H5 8958   1.290   1.297  15.876 -3.0336 -0.1964  1.6667
  604MPD2    N1 8959   1.124   1.538  16.264 -0.2967  0.4817 -0.5212
  604MPD2    H7 8960   1.130   1.562  16.362 -0.4535  0.8651 -0.6034
  605TMC3    C1 8961   0.944   1.670  16.252 -0.2825 -0.3055  0.3008
  605TMC3    C2 8962   1.004   1.746  16.342  0.1517  0.0002  0.4346
  605TMC3    C3 8963   0.922   1.839  16.407  0.2601  0.3899 -0.1157
  605TMC3    C4 8964   0.810   1.667  16.214  0.5081 -0.5943  0.0669
  605TMC3    C5 8965   0.735   1.762  16.275  1.0502 -0.1233 -0.3242
  605TMC3    C6 8966   0.791   1.850  16.372 -0.9799  0.0286  0.1092
  605TMC3     C 8967   1.024   1.570  16.184  0.3348 -0.6419 -0.7249
  605TMC3     O 8968   0.986   1.529  16.080 -0.1294  0.2830  0.0017
  605TMC3     H 8969   1.112   1.756  16.337 -0.1870  2.2826 -2.0177
  605TMC3    H1 8970   0.778   1.597  16.138  2.8629 -1.7743  0.1787
  605TMC3    H2 8971   0.730   1.926  16.419 -1.4075 -0.0934 -0.2445
  605TMC3    C7 8972   0.608   1.797  16.211  0.9561  0.4943 -0.1649
  605TMC3    C8 8973   0.970   1.930  16.506  0.1099  0.3475  1.0713
  605TMC3    O1 8974   0.567   1.906  16.232 -0.2667  0.0549  0.2543
  605TMC3    O2 8975   0.887   1.980  16.577 -0.4617  0.2672 -0.5320
  606TMC3    C1 8976   2.649   4.696  16.771  0.3938 -0.1073  0.2151
  606TMC3    C2 8977   2.734   0.047  16.842  0.1896 -0.1362 -0.3224
  606TMC3    C3 8978   2.745   0.013  16.973 -0.0562  0.1909 -0.0265
  606TMC3    C4 8979   2.572   4.591  16.826  0.4782  0.2054  0.1782
  606TMC3    C5 8980   2.564   4.577  16.962  0.5300 -0.0080 -0.1110
  606TMC3    C6 8981   2.662   4.649  17.033 -0.1479  0.4825 -0.5505
  606TMC3     C 8982   2.628   0.005  16.635  1.0432  0.7652  0.1403
  606TMC3     O 8983   2.534   4.672  16.583  0.8879 -0.6927  0.3870
  606TMC3     H 8984   2.780   0.139  16.809  1.3237 -0.5051  0.2232
  606TMC3    H1 8985   2.514   4.531  16.756 -1.7715  2.9591 -0.3227
  606TMC3    H2 8986   2.681   4.620  17.135  1.4781  1.4059 -0.5893
  606TMC3    C7 8987   2.544   4.439  17.007  0.8469 -0.4283 -0.1075
  606TMC3    C8 8988   2.826   0.106  17.055 -0.0271  1.0284 -0.3602
  606TMC3    O1 8989   2.587   4.349  16.935 -0.1887  0.3385 -0.1018
  606TMC3    O2 8990   2.937   0.138  17.017  0.1812 -0.1777  0.3199
  607MPD2     C 8991   0.444   2.447  11.646  0.5618  0.0459  0.0665
  607MPD2    C1 8992   0.373   2.559  11.681  0.1704 -0.2414  0.8575
  607MPD2    C2 8993   0.237   2.550  11.722 -0.0839  0.5925 -0.1760
  607MPD2    C3 8994   0.176   2.428  11.723  0.0604  0.1068  0.7755
  607MPD2    C4 8995   0.242   2.317  11.680 -0.3201 -0.8748 -0.2136
  607MPD2    C5 8996   0.379   2.324  11.651 -0.8853 -0.3199 -0.4795
  607MPD2     H 8997   0.185   2.640  11.755 -2.0422  0.1812 -2.1612
  607MPD2    H1 8998   0.198   2.218  11.679 -2.4203  0.0625 -0.7238
  607MPD2    H2 8999   0.550   2.451  11.625  0.8270  0.9522  1.5863
  607MPD2    H3 9000   0.430   2.234  11.617  0.5435  0.8649 -1.5025
  607MPD2     N 9001   0.038   2.434  11.772  0.0317  0.2381  0.3249
  607MPD2    H5 9002   4.725   2.525  11.793 -0.6954 -0.1656  0.7022
  607MPD2    N1 9003   0.428   2.694  11.689 -0.0691 -0.2989 -0.1537
  607MPD2    H7 9004   0.357   2.765  11.705 -0.3464 -0.9093  1.2678
  608TMC3    C1 9005   0.578   2.869  11.685 -0.8202  0.0824 -0.0108
  608TMC3    C2 9006   0.496   2.930  11.777  0.3408  0.0991  0.2584
  608TMC3    C3 9007   0.495   3.068  11.790  0.8540 -0.0300  0.4892
  608TMC3    C4 9008   0.664   2.947  11.618 -0.1497  0.4389  0.2914
  608TMC3    C5 9009   0.659   3.083  11.637 -0.7286  0.2395  0.4959
  608TMC3    C6 9010   0.570   3.150  11.720 -0.5558  1.3100 -0.5523
  608TMC3     C 9011   0.559   2.731  11.655 -0.1328  0.0805 -0.1874
  608TMC3     O 9012   0.650   2.664  11.608 -0.0027 -0.0307  0.3470
  608TMC3     H 9013   0.462   2.859  11.852 -0.3944  1.0257  0.8075
  608TMC3    H1 9014   0.743   2.909  11.554 -1.2081 -0.0336 -0.7479
  608TMC3    H2 9015   0.558   3.256  11.736  0.1200  0.9085  2.7162
  608TMC3    C7 9016   0.773   3.158  11.582 -0.1519 -0.9945 -0.2347
  608TMC3    C8 9017   0.381   3.119  11.865  0.8781 -0.1948 -0.3578
  608TMC3    O1 9018   0.827   3.118  11.477  0.1082  0.0208 -0.3723
  608TMC3    O2 9019   0.388   3.238  11.904 -0.3544 -0.1413  0.1837
  609TMC3    C1 9020   3.783   1.585   9.264 -0.2317  0.1651 -0.0419
  609TMC3    C2 9021   3.780   1.491   9.162 -0.8601 -0.0927  0.1229
  609TMC3    C3 9022   3.869   1.384   9.179 -0.3419 -0.3513  0.5590
  609TMC3    C4 9023   3.856   1.563   9.378 -0.3207 -0.3663  0.2039
  609TMC3    C5 9024   3.933   1.455   9.386 -0.4787  0.0554 -0.5994
  609TMC3    C6 9025   3.940   1.363   9.288  0.3232  0.5372  0.3917
  609TMC3     C 9026   3.682   1.688   9.248  0.2765  0.1150  0.9463
  609TMC3     O 9027   3.638   1.702   9.135 -0.4744 -0.1686 -0.2372
  609TMC3     H 9028   3.729   1.512   9.069 -0.3567 -1.2752 -0.4312
  609TMC3    H1 9029   3.875   1.637   9.455 -1.5108 -1.6191  1.6884
  609TMC3    H2 9030   3.996   1.270   9.299 -2.5945 -1.1512  0.9186
  609TMC3    C7 9031   3.981   1.429   9.517 -0.4678 -0.8367 -0.0929
  609TMC3    C8 9032   3.874   1.279   9.080  0.4683  0.5724 -0.8489
  609TMC3    O1 9033   4.009   1.529   9.588  0.1050  0.5659 -0.2639
  609TMC3    O2 9034   3.973   1.208   9.063 -0.1497 -0.2393  0.1285
  610TMC3    C1 9035   0.440   3.028  12.172  0.2290 -1.4521 -0.8499
  610TMC3    C2 9036   0.541   3.107  12.131 -0.0939 -0.0299  0.3680
  610TMC3    C3 9037   0.655   3.055  12.098  0.3303  0.5023 -0.1307
  610TMC3    C4 9038   0.454   2.892  12.181 -1.1743 -1.0063 -0.2650
  610TMC3    C5 9039   0.571   2.838  12.152 -0.2103  0.3930  0.3730
  610TMC3    C6 9040   0.674   2.920  12.103  0.0578 -0.1117  0.2170
  610TMC3     C 9041   0.340   3.078  12.259 -0.0041  1.2147  0.1219
  610TMC3     O 9042   0.251   3.003  12.282  0.0090 -0.7017  0.0921
  610TMC3     H 9043   0.526   3.211  12.104  3.1423  0.4747  0.5276
  610TMC3    H1 9044   0.362   2.835  12.184 -1.3693 -0.4749  2.8302
  610TMC3    H2 9045   0.764   2.867  12.072  0.8319  0.3368  1.7073
  610TMC3    C7 9046   0.607   2.721  12.228  0.4227 -0.0596  0.0073
  610TMC3    C8 9047   0.770   3.138  12.059  0.5811  0.0437 -0.0701
  610TMC3    O1 9048   0.726   2.685  12.229 -0.1674 -0.6070  0.3711
  610TMC3    O2 9049   0.743   3.254  12.028 -0.3979 -0.0633 -0.0891
  611MPD2     C 9050   0.559   2.489  10.370 -0.2986  0.4391  0.0157
  611MPD2    C1 9051   0.433   2.548  10.345 -0.0650 -0.9341 -0.4594
  611MPD2    C2 9052   0.436   2.689  10.322  0.1985 -0.2278 -0.8845
  611MPD2    C3 9053   0.554   2.759  10.326  0.1160 -0.1313 -0.6605
  611MPD2    C4 9054   0.682   2.696  10.347 -0.7071  0.2267  0.0775
  611MPD2    C5 9055   0.675   2.559  10.366 -0.6448 -0.1408 -0.1514
  611MPD2     H 9056   0.341   2.740  10.314 -0.3024 -0.7245  1.8914
  611MPD2    H1 9057   0.774   2.752  10.355  0.7929 -2.3299  0.4982
  611MPD2    H2 9058   0.575   2.383  10.385 -1.0225  0.2928 -0.2109
  611MPD2    H3 9059   0.764   2.497  10.370 -1.2118 -1.0103 -1.2225
  611MPD2     N 9060   0.560   2.895  10.295  0.2792 -0.4509  0.0972
  611MPD2    H5 9061   0.651   2.936  10.313 -0.4992  0.3963  2.1937
  611MPD2    N1 9062   0.317   2.473  10.346  0.1680 -0.8647 -0.4834
  611MPD2    H7 9063   0.321   2.374  10.366 -0.0790 -0.7347  0.1978
  612TMC3    C1 9064   0.485   3.121  10.254 -0.4526  0.0110  0.2913
  612TMC3    C2 9065   0.602   3.171  10.303  0.1463  0.2588 -0.0783
  612TMC3    C3 9066   0.622   3.306  10.292 -0.3915 -0.6840  0.1056
  612TMC3    C4 9067   0.387   3.202  10.192  0.3518 -0.0778  0.2478
  612TMC3    C5 9068   0.418   3.335  10.169 -0.0689  0.1488  0.7244
  612TMC3    C6 9069   0.527   3.388  10.233 -0.3536  0.1095  0.2360
  612TMC3     C 9070   0.456   2.980  10.260 -0.5727 -0.1401  0.3112
  612TMC3     O 9071   0.347   2.950  10.226  0.6828 -0.9837  0.1477
  612TMC3     H 9072   0.675   3.105  10.348  2.4330  1.6417 -1.7320
  612TMC3    H1 9073   0.296   3.158  10.153  0.9709  0.0413 -1.3428
  612TMC3    H2 9074   0.533   3.496  10.239  1.5499  0.1473 -2.5319
  612TMC3    C7 9075   0.305   3.417  10.126 -0.4458  0.4410 -0.4089
  612TMC3    C8 9076   0.712   3.375  10.377  0.6768 -0.9743  0.2576
  612TMC3    O1 9077   0.194   3.365  10.122 -0.1344  1.2718 -0.3634
  612TMC3    O2 9078   0.693   3.495  10.393  0.5246  0.1029  0.7734
  613MPD2     C 9079   4.227   0.399  15.744 -0.1374  0.1840 -0.3756
  613MPD2    C1 9080   4.145   0.294  15.771  0.2921 -0.0587  0.9585
  613MPD2    C2 9081   4.032   0.280  15.695 -0.1631 -0.0239  0.1174
  613MPD2    C3 9082   3.994   0.362  15.597  0.0532  0.2323  0.8750
  613MPD2    C4 9083   4.077   0.467  15.563 -1.2794  0.0695 -0.6230
  613MPD2    C5 9084   4.188   0.479  15.639 -0.5691  0.9945 -0.0319
  613MPD2     H 9085   3.965   0.196  15.708 -1.9456  1.7299  2.3024
  613MPD2    H1 9086   4.060   0.523  15.472 -2.2159 -1.2782 -1.2775
  613MPD2    H2 9087   4.326   0.405  15.788 -0.7868  3.2837  0.6641
  613MPD2    H3 9088   4.249   0.566  15.613  0.5830 -0.1346 -1.1099
  613MPD2     N 9089   3.869   0.343  15.522 -0.7146  0.4707 -0.5253
  613MPD2    H5 9090   3.815   0.261  15.546 -2.9066  1.8102 -0.8028
  613MPD2    N1 9091   4.186   0.197  15.860 -0.1648 -1.2821 -0.3392
  613MPD2    H7 9092   4.285   0.197  15.883  0.0953 -1.7452 -1.4654
  614TMC3    C1 9093   4.192   4.699  15.898 -1.0315 -0.5285  0.0720
  614TMC3    C2 9094   4.103   4.601  15.872 -0.5566 -0.0211 -0.0831
  614TMC3    C3 9095   4.122   4.527  15.753 -0.1589 -0.5728 -0.2204
  614TMC3    C4 9096   4.304   4.710  15.823  1.1062 -0.1126  0.3938
  614TMC3    C5 9097   4.313   4.646  15.703  0.9475  0.0322 -0.1922
  614TMC3    C6 9098   4.224   4.549  15.671  0.1135  0.3608 -0.2638
  614TMC3     C 9099   4.108   0.088  15.888 -0.3044  0.4388  1.2194
  614TMC3     O 9100   3.990   0.089  15.920  0.1274  0.3015  0.8886
  614TMC3     H 9101   4.012   4.585  15.928 -1.0534  0.8019 -0.6457
  614TMC3    H1 9102   4.383   0.052  15.852  2.5551 -2.8901  3.0709
  614TMC3    H2 9103   4.234   4.486  15.584 -2.9677  1.0976 -1.1256
  614TMC3    C7 9104   4.348   0.008  15.596 -0.1295 -0.1858  0.2122
  614TMC3    C8 9105   4.011   4.533  15.664  0.3638 -0.0290 -0.5744
  614TMC3    O1 9106   4.455   0.066  15.613  0.0435 -0.4039 -0.8817
  614TMC3    O2 9107   4.031   4.598  15.567 -0.5474 -0.3324 -0.1807
  615MPD2     C 9108   3.033   1.688  16.749  0.2458  0.1901 -0.6112
  615MPD2    C1 9109   2.949   1.778  16.691 -0.3599  0.8553 -0.1097
  615MPD2    C2 9110   2.915   1.758  16.555  0.4522 -0.2521 -0.5312
  615MPD2    C3 9111   2.960   1.646  16.487  0.2100  0.8880 -0.0056
  615MPD2    C4 9112   3.046   1.560  16.546  0.3838 -0.1959  0.3701
  615MPD2    C5 9113   3.088   1.584  16.674  0.3133  0.3797 -0.2559
  615MPD2     H 9114   2.833   1.820  16.522  2.1172  1.9305 -0.5544
  615MPD2    H1 9115   3.089   1.485  16.480  0.0753 -1.5382  1.6761
  615MPD2    H2 9116   3.083   1.698  16.845  1.2442 -0.7571 -1.0387
  615MPD2    H3 9117   3.168   1.527  16.719  2.0666  2.1247 -1.1592
  615MPD2     N 9118   2.904   1.602  16.364 -0.5833  0.2405 -0.1981
  615MPD2    H5 9119   2.947   1.521  16.321 -2.3099 -0.5230 -0.4510
  615MPD2    N1 9120   2.913   1.908  16.753  0.6871  0.5397  0.4480
  615MPD2    H7 9121   2.879   1.986  16.698  0.3223  0.2553  0.2667
  616TMC3    C1 9122   2.883   2.071  16.914  1.3108  0.0102 -0.6885
  616TMC3    C2 9123   2.944   2.167  16.830  0.0055 -0.2186  0.4915
  616TMC3    C3 9124   2.924   2.301  16.866 -0.0723 -0.2458  0.2866
  616TMC3    C4 9125   2.811   2.091  17.026  0.6566  0.2247 -0.7119
  616TMC3    C5 9126   2.796   2.222  17.059 -0.2572 -0.2774  1.0994
  616TMC3    C6 9127   2.856   2.324  16.983 -0.0350  0.0584 -0.0688
  616TMC3     C 9128   2.922   1.931  16.887  0.1251  0.3596  0.0807
  616TMC3     O 9129   2.948   1.854  16.979 -0.4765 -0.4049 -0.2262
  616TMC3     H 9130   3.005   2.134  16.747 -0.2115  0.1792  0.1775
  616TMC3    H1 9131   2.777   2.007  17.086  2.6389 -0.5854 -0.7013
  616TMC3    H2 9132   2.850   2.430  17.007 -2.4229 -0.3786  1.3211
  616TMC3    C7 9133   2.683   2.253  17.138 -0.2430  0.3713 -0.0301
  616TMC3    C8 9134   2.976   2.406  16.781  0.0176 -0.2265 -0.1232
  616TMC3    O1 9135   2.629   2.363  17.124 -0.2287 -0.1372 -0.0200
  616TMC3    O2 9136   2.980   2.525  16.819 -0.2220  0.2807  0.3046
  617MPD2     C 9137   0.938   0.261  13.719 -0.0395  0.5612 -0.1554
  617MPD2    C1 9138   0.969   0.127  13.684  0.1621  0.1627  0.0196
  617MPD2    C2 9139   0.862   0.045  13.650  0.1843  0.2133 -0.6224
  617MPD2    C3 9140   0.735   0.098  13.647 -0.0347 -0.1297  0.2441
  617MPD2    C4 9141   0.712   0.228  13.673  0.2524 -0.3325 -0.3325
  617MPD2    C5 9142   0.811   0.306  13.702 -0.0912 -0.4071 -0.3787
  617MPD2     H 9143   0.880   4.666  13.636  0.8724  0.2796 -0.2616
  617MPD2    H1 9144   0.615   0.274  13.684  0.2185 -0.6072  0.5321
  617MPD2    H2 9145   1.020   0.330  13.741  0.2357 -0.1728  1.1749
  617MPD2    H3 9146   0.804   0.412  13.726  1.4708 -0.1623 -0.9626
  617MPD2     N 9147   0.616   0.017  13.637  0.3062  0.2087  0.1278
  617MPD2    H5 9148   0.524   0.051  13.664 -0.4233 -2.4033  0.9171
  617MPD2    N1 9149   1.101   0.084  13.715 -0.2333 -0.7298  0.7052
  617MPD2    H7 9150   1.167   0.154  13.749  1.1998 -2.5338  1.6529
  618TMC3    C1 9151   1.302   4.692  13.706  0.1533 -0.3673 -0.5025
  618TMC3    C2 9152   1.359   4.567  13.687 -0.2325  0.2410  0.2806
  618TMC3    C3 9153   1.494   4.563  13.713 -0.4006 -0.6722  0.6124
  618TMC3    C4 9154   1.372   0.072  13.761 -0.1961  0.6189 -0.6880
  618TMC3    C5 9155   1.498   0.052  13.797 -0.0424  0.6709  1.3344
  618TMC3    C6 9156   1.561   4.660  13.782  0.3082  0.2026  0.0930
  618TMC3     C 9157   1.158   4.689  13.688 -0.0365  0.5707  0.4418
  618TMC3     O 9158   1.110   4.584  13.663 -0.2513 -0.3554 -0.2806
  618TMC3     H 9159   1.305   4.490  13.632  0.1940 -0.7255  1.2276
  618TMC3    H1 9160   1.342   0.176  13.775 -2.3333  0.3344 -3.1085
  618TMC3    H2 9161   1.664   4.644  13.814 -0.5169 -1.0288  2.0847
  618TMC3    C7 9162   1.546   0.157  13.882  0.7945 -0.0662 -0.2977
  618TMC3    C8 9163   1.572   4.498  13.605 -0.6072  0.5147 -0.2880
  618TMC3    O1 9164   1.468   0.192  13.976  0.7889  0.3828 -0.3932
  618TMC3    O2 9165   1.506   4.448  13.510 -0.0493  0.1120  0.3861
  619MPD2     C 9166   2.854   1.523  13.213  0.1133 -0.2140 -0.7595
  619MPD2    C1 9167   2.746   1.598  13.169 -0.2773  0.6422 -0.0881
  619MPD2    C2 9168   2.618   1.548  13.186 -0.1589  0.2259 -0.9296
  619MPD2    C3 9169   2.589   1.430  13.251 -0.0760 -0.8591 -0.1653
  619MPD2    C4 9170   2.697   1.352  13.288 -0.4447 -0.1357  0.0492
  619MPD2    C5 9171   2.822   1.395  13.257  0.0947 -0.5702 -0.3053
  619MPD2     H 9172   2.536   1.611  13.153  2.4904  2.7765 -2.6350
  619MPD2    H1 9173   2.672   1.255  13.331 -0.9912  0.5008  1.1672
  619MPD2    H2 9174   2.954   1.563  13.201  1.1420 -2.0016  1.9311
  619MPD2    H3 9175   2.903   1.336  13.299 -0.1231  1.0392  2.4081
  619MPD2     N 9176   2.461   1.387  13.290 -0.6469  0.1001  0.2257
  619MPD2    H5 9177   2.453   1.300  13.343 -0.2995 -0.2950 -0.3635
  619MPD2    N1 9178   2.754   1.731  13.120 -0.0688  0.3877  0.4128
  619MPD2    H7 9179   2.665   1.775  13.103 -0.0898  0.2950  0.2868
  620TMC3    C1 9180   2.823   1.923  13.041  0.2497  0.6444  0.4162
  620TMC3    C2 9181   2.732   1.925  12.942 -0.1815 -0.0581  0.3588
  620TMC3    C3 9182   2.672   2.040  12.920 -0.4948 -0.7208  0.3136
  620TMC3    C4 9183   2.864   2.033  13.110 -0.2014 -0.6474  0.5370
  620TMC3    C5 9184   2.819   2.155  13.067  0.8277 -0.3962 -0.0357
  620TMC3    C6 9185   2.724   2.159  12.972  0.7951 -0.2253 -0.0279
  620TMC3     C 9186   2.871   1.801  13.092 -0.2575 -0.8308  0.0778
  620TMC3     O 9187   2.986   1.774  13.122  0.0738 -0.5564 -0.4818
  620TMC3     H 9188   2.710   1.830  12.895  2.0231  0.6212 -2.1233
  620TMC3    H1 9189   2.937   2.027  13.190 -2.3307  0.4995  2.5686
  620TMC3    H2 9190   2.692   2.252  12.926 -3.0011 -0.9777  1.1687
  620TMC3    C7 9191   2.822   2.268  13.161 -0.2840  0.3819 -0.0180
  620TMC3    C8 9192   2.528   2.046  12.921  0.1982 -0.4642  0.1094
  620TMC3    O1 9193   2.928   2.279  13.226 -0.1349 -0.1876 -0.2197
  620TMC3    O2 9194   2.483   2.135  12.994  0.5569 -0.2199 -0.3105
  621MPD2     C 9195   3.289   1.347   9.582 -0.6452  0.3106  0.1869
  621MPD2    C1 9196   3.303   1.306   9.713  0.6802  0.4458 -0.6701
  621MPD2    C2 9197   3.412   1.347   9.780  0.0036  0.3429  0.4784
  621MPD2    C3 9198   3.504   1.426   9.719  0.4747 -0.3742  0.1516
  621MPD2    C4 9199   3.494   1.460   9.585  0.0390 -0.8853 -0.1844
  621MPD2    C5 9200   3.389   1.413   9.519 -0.3739  0.3093  0.5447
  621MPD2     H 9201   3.431   1.307   9.880  0.8803 -0.4465 -0.0059
  621MPD2    H1 9202   3.570   1.510   9.526  1.0514  0.3239  2.0954
  621MPD2    H2 9203   3.207   1.306   9.524 -0.2792  1.5455 -1.1942
  621MPD2    H3 9204   3.380   1.435   9.413 -0.7657  0.1073  0.5375
  621MPD2     N 9205   3.614   1.470   9.797 -0.1238 -0.1543 -0.0769
  621MPD2    H5 9206   3.639   1.430   9.887  0.5734  1.8612  0.6245
  621MPD2    N1 9207   3.202   1.223   9.784  0.6275 -0.4173  0.2894
  621MPD2    H7 9208   3.219   1.200   9.881 -1.4528  0.5441  0.8856
  622TMC3    C1 9209   3.004   1.093   9.810 -0.0207 -0.7871  0.5312
  622TMC3    C2 9210   2.999   1.095   9.943 -0.6554  0.4643 -0.0135
  622TMC3    C3 9211   2.927   0.994  10.004 -0.4257  0.4925  0.0388
  622TMC3    C4 9212   2.954   0.987   9.745 -0.0768 -0.7416  0.1261
  622TMC3    C5 9213   2.897   0.880   9.811 -0.2046  0.4053 -0.0071
  622TMC3    C6 9214   2.877   0.884   9.942  0.5823 -0.0959  0.4387
  622TMC3     C 9215   3.085   1.178   9.720 -0.2362 -0.3468 -1.1587
  622TMC3     O 9216   3.045   1.193   9.609  0.2968  0.0518  0.0123
  622TMC3     H 9217   3.039   1.181   9.997 -0.4402 -0.0086  0.5733
  622TMC3    H1 9218   2.967   0.984   9.637 -0.8841  1.9670 -0.0436
  622TMC3    H2 9219   2.818   0.806   9.988 -0.8851 -0.2236 -1.6763
  622TMC3    C7 9220   2.787   0.815   9.739  0.6632  0.4511 -0.6571
  622TMC3    C8 9221   2.823   1.057  10.090 -0.0472  0.0102  0.7076
  622TMC3    O1 9222   2.758   0.701   9.764 -0.0481  0.0909 -0.0854
  622TMC3    O2 9223   2.741   0.976  10.124  0.2181  0.6438  0.1021
  623MPD2     C 9224   1.625   1.753  15.966  0.5485 -0.3352  0.3277
  623MPD2    C1 9225   1.538   1.781  16.066  0.1314  0.5615  0.0839
  623MPD2    C2 9226   1.596   1.831  16.179 -0.5754 -0.1701  0.4790
  623MPD2    C3 9227   1.726   1.866  16.189 -0.8211 -0.6233 -0.2921
  623MPD2    C4 9228   1.815   1.827  16.087  0.2914 -1.0713  0.3496
  623MPD2    C5 9229   1.760   1.778  15.974  0.3504 -0.1374  0.4580
  623MPD2     H 9230   1.533   1.873  16.257  0.2464 -0.7884  1.4669
  623MPD2    H1 9231   1.923   1.832  16.078 -0.0965  1.6530 -2.6916
  623MPD2    H2 9232   1.590   1.736  15.865  0.0277 -1.0300  0.6201
  623MPD2    H3 9233   1.824   1.756  15.889  0.7699  0.4150  0.6301
  623MPD2     N 9234   1.751   1.928  16.310 -0.3555  0.5073 -1.0677
  623MPD2    H5 9235   1.691   1.904  16.388  3.4561 -1.9390  1.1527
  623MPD2    N1 9236   1.404   1.769  16.041  0.6539  0.4343 -0.2308
  623MPD2    H7 9237   1.381   1.716  15.957 -1.1720 -1.1772  1.3005
  624TMC3    C1 9238   1.999   2.095  16.658  0.2510 -0.1798  0.6229
  624TMC3    C2 9239   1.878   2.135  16.723  0.2748 -0.0576  0.3485
  624TMC3    C3 9240   1.763   2.146  16.644  0.1283  0.3833  0.0874
  624TMC3    C4 9241   1.996   2.059  16.527 -1.1808 -0.0305 -0.0372
  624TMC3    C5 9242   1.878   2.063  16.456  0.0388  0.7261  0.6011
  624TMC3    C6 9243   1.760   2.106  16.512  0.1544  0.1879 -0.4067
  624TMC3     C 9244   2.106   2.042  16.752  0.9115 -0.0482 -0.0205
  624TMC3     O 9245   2.095   2.056  16.874 -0.2453 -0.0651  0.4527
  624TMC3     H 9246   1.875   2.143  16.831 -0.9762  0.0005  0.3074
  624TMC3    H1 9247   2.080   2.032  16.463  0.4306 -0.5817  2.3167
  624TMC3    H2 9248   1.677   2.100  16.443  0.8814 -0.3984 -1.2284
  624TMC3    C7 9249   1.868   2.004  16.329 -0.1743 -0.2013  0.1192
  624TMC3    C8 9250   1.644   2.122  16.732  0.2414 -0.0926 -0.1222
  624TMC3    O1 9251   1.958   2.032  16.247 -0.6890  0.1957 -0.2242
  624TMC3    O2 9252   1.636   2.180  16.840  0.1793 -0.8743 -0.3377
  625MPD2     C 9253   2.621   3.185   0.751 -0.5539  0.2085 -0.0575
  625MPD2    C1 9254   2.635   3.273   0.644 -0.3144 -0.9801 -0.0671
  625MPD2    C2 9255   2.771   3.311   0.605  0.2904 -0.5198 -0.1019
  625MPD2    C3 9256   2.878   3.257   0.666  0.3047 -0.2366 -0.1413
  625MPD2    C4 9257   2.854   3.184   0.784  0.0212  0.3981  0.1440
  625MPD2    C5 9258   2.729   3.140   0.821  0.0769  0.5616  0.1811
  625MPD2     H 9259   2.791   3.367   0.514  0.2185 -1.3643 -0.6426
  625MPD2    H1 9260   2.931   3.143   0.848  0.6905  1.0311 -0.2538
  625MPD2    H2 9261   2.522   3.156   0.785 -2.2246  3.8194 -1.7677
  625MPD2    H3 9262   2.725   3.068   0.901 -2.4711 -0.0834 -0.5227
  625MPD2     N 9263   3.013   3.289   0.627 -0.2894  0.1040 -0.1702
  625MPD2    H5 9264   3.034   3.363   0.561  1.1865 -0.1727 -0.0077
  625MPD2    N1 9265   2.520   3.322   0.587 -0.4589  1.1269  0.6088
  625MPD2    H7 9266   2.434   3.287   0.628  0.7126 -1.6898  0.6650
  626TMC3    C1 9267   2.360   3.424   0.446  0.0985  0.6010 -0.2346
  626TMC3    C2 9268   2.310   3.541   0.392 -0.1455 -0.4023 -0.1706
  626TMC3    C3 9269   2.174   3.558   0.389  0.0180 -0.1355 -0.9021
  626TMC3    C4 9270   2.275   3.327   0.491  0.7110 -0.3996 -0.5471
  626TMC3    C5 9271   2.134   3.343   0.472  0.1150  0.1715  0.4203
  626TMC3    C6 9272   2.080   3.463   0.423 -0.0598  0.2067 -0.2993
  626TMC3     C 9273   2.502   3.405   0.480  0.5710  0.0491 -0.0690
  626TMC3     O 9274   2.592   3.447   0.408 -0.1194  0.5325  0.0953
  626TMC3     H 9275   2.373   3.623   0.361  2.0887 -0.7186  3.4716
  626TMC3    H1 9276   2.312   3.230   0.522 -1.4623 -1.3766 -1.0252
  626TMC3    H2 9277   1.975   3.489   0.412 -0.2462  0.7201  2.5457
  626TMC3    C7 9278   2.054   3.252   0.547 -0.0891 -0.0926 -0.1626
  626TMC3    C8 9279   2.124   3.680   0.322 -0.0262 -0.9667  0.0754
  626TMC3    O1 9280   2.107   3.149   0.585  0.2073  0.1970 -0.3215
  626TMC3    O2 9281   2.166   3.781   0.369 -0.0438  0.1690  0.2841
  627MPD2     C 9282   0.045   3.735  14.469 -0.5410  0.2899 -0.4579
  627MPD2    C1 9283   0.175   3.701  14.501  0.0619 -0.2549 -0.2669
  627MPD2    C2 9284   0.219   3.576  14.462 -0.0827 -0.3856 -0.6854
  627MPD2    C3 9285   0.132   3.488  14.396  0.4687  0.4250  1.0706
  627MPD2    C4 9286   4.726   3.522  14.373 -0.0683  0.5309 -0.9105
  627MPD2    C5 9287   4.690   3.644  14.408  0.4726 -0.1510 -0.3038
  627MPD2     H 9288   0.320   3.543  14.484  0.5901  1.8260 -0.4863
  627MPD2    H1 9289   4.653   3.455  14.329 -0.3429 -1.8240  3.1433
  627MPD2    H2 9290   4.715   3.819  14.505 -2.3451 -1.3356  0.4664
  627MPD2    H3 9291   4.589   3.673  14.383  0.2687 -0.1322  0.5317
  627MPD2     N 9292   0.186   3.361  14.367  0.0900 -0.3556  0.2146
  627MPD2    H5 9293   0.286   3.347  14.381  0.2942 -1.4405 -2.3251
  627MPD2    N1 9294   0.259   3.781  14.575 -0.3724  0.0581  0.1403
  627MPD2    H7 9295   0.354   3.746  14.576 -0.6022 -0.5737 -0.2964
  628TMC3    C1 9296   0.353   3.975  14.668 -0.4473  0.7313 -0.4863
  628TMC3    C2 9297   0.455   3.905  14.727  0.3919  0.4873  0.2580
  628TMC3    C3 9298   0.578   3.958  14.751  0.2326  0.9231 -0.0792
  628TMC3    C4 9299   0.377   4.101  14.627  0.2772 -0.3678 -0.1613
  628TMC3    C5 9300   0.508   4.150  14.640  0.0779  0.6719 -0.0931
  628TMC3    C6 9301   0.610   4.080  14.690  0.2711  0.0376  0.1855
  628TMC3     C 9302   0.234   3.907  14.615  0.3388 -0.1432 -0.0389
  628TMC3     O 9303   0.134   3.973  14.591 -0.2709 -0.3368 -0.2001
  628TMC3     H 9304   0.439   3.800  14.749  1.0008  0.3509  0.0586
  628TMC3    H1 9305   0.294   4.166  14.600 -0.0888 -0.0944  1.6719
  628TMC3    H2 9306   0.700   4.136  14.713 -0.8568  1.5871  0.8424
  628TMC3    C7 9307   0.520   4.289  14.599  0.5981  0.1483  0.6998
  628TMC3    C8 9308   0.694   3.872  14.759 -0.0793 -0.1276  0.4371
  628TMC3    O1 9309   0.610   4.352  14.652 -0.2162  1.0119  0.5745
  628TMC3    O2 9310   0.806   3.907  14.717 -0.0214  0.0656 -0.0869
  629MPD2     C 9311   3.333   2.530  16.426 -0.2108  0.1159 -0.1901
  629MPD2    C1 9312   3.298   2.396  16.407 -0.3954  0.0520 -0.2899
  629MPD2    C2 9313   3.192   2.352  16.484  0.0315 -0.2158 -0.7333
  629MPD2    C3 9314   3.126   2.426  16.581  0.3823 -0.2324 -0.0692
  629MPD2    C4 9315   3.159   2.555  16.593  0.2515  0.2865 -0.0338
  629MPD2    C5 9316   3.254   2.608  16.512 -0.3173  0.2463  0.1655
  629MPD2     H 9317   3.160   2.248  16.491 -1.7150  0.1521 -3.2114
  629MPD2    H1 9318   3.100   2.619  16.657  0.8410  0.6453  0.1511
  629MPD2    H2 9319   3.423   2.578  16.388  0.8360 -1.0314  0.8563
  629MPD2    H3 9320   3.282   2.709  16.537 -0.6738 -0.1462  2.1050
  629MPD2     N 9321   3.036   2.356  16.667  0.0543 -0.0770  0.1730
  629MPD2    H5 9322   3.022   2.256  16.656  1.3672 -0.1783 -0.6222
  629MPD2    N1 9323   3.386   2.313  16.332  0.2279  0.3470 -0.1459
  629MPD2    H7 9324   3.465   2.354  16.283  1.2021  1.0430  1.9918
  630TMC3    C1 9325   3.527   2.121  16.295 -1.2571 -0.0582  0.3042
  630TMC3    C2 9326   3.612   2.182  16.206 -0.2109 -0.6805  0.3991
  630TMC3    C3 9327   3.744   2.136  16.188  0.2401  0.1773  0.0111
  630TMC3    C4 9328   3.569   2.024  16.368  0.3158  0.3707 -0.7981
  630TMC3    C5 9329   3.701   1.988  16.363 -0.1685 -0.5268  0.0326
  630TMC3    C6 9330   3.785   2.041  16.272  0.6984  0.4387 -0.0414
  630TMC3     C 9331   3.396   2.176  16.339 -0.1426  0.1887 -0.2008
  630TMC3     O 9332   3.318   2.099  16.392  0.0335  0.6514 -0.4184
  630TMC3     H 9333   3.573   2.269  16.153 -0.6039 -1.7461 -1.0425
  630TMC3    H1 9334   3.516   1.999  16.459  1.0484  2.1096  0.0954
  630TMC3    H2 9335   3.889   2.008  16.276  1.6874  3.5595 -0.0870
  630TMC3    C7 9336   3.744   1.922  16.484  0.0310 -0.1358  0.1425
  630TMC3    C8 9337   3.852   2.213  16.135 -0.0996 -0.1952  0.0748
  630TMC3    O1 9338   3.704   1.957  16.594  0.2384  0.3463  0.2579
  630TMC3    O2 9339   3.969   2.181  16.153 -0.4955 -0.3743  0.4679
  631MPD2     C 9340   2.139   1.814  15.663  0.1466 -0.1616 -0.3389
  631MPD2    C1 9341   2.266   1.867  15.617  0.0322  0.5344  0.2012
  631MPD2    C2 9342   2.381   1.807  15.667  0.8396 -0.2527  0.3996
  631MPD2    C3 9343   2.358   1.719  15.774 -0.3266  0.0628  0.4817
  631MPD2    C4 9344   2.237   1.669  15.819 -0.0182 -0.0866  0.1522
  631MPD2    C5 9345   2.130   1.713  15.756 -0.4327  0.0706  0.5573
  631MPD2     H 9346   2.483   1.839  15.648  0.4977 -0.8096 -2.3596
  631MPD2    H1 9347   2.229   1.593  15.896 -0.5746 -0.0481  0.1280
  631MPD2    H2 9348   2.045   1.855  15.627 -0.3423  0.7219  1.9248
  631MPD2    H3 9349   2.033   1.674  15.785 -1.2201  2.0726  0.5792
  631MPD2     N 9350   2.480   1.670  15.830 -0.3077  0.2402  0.2527
  631MPD2    H5 9351   2.562   1.691  15.774  0.7231 -0.3216  1.5498
  631MPD2    N1 9352   2.262   1.977  15.528 -0.4469 -0.3532  0.1403
  631MPD2    H7 9353   2.169   2.012  15.508 -0.2072  1.5882  2.4846
  632TMC3    C1 9354   2.328   2.151  15.395  0.8183 -0.0699  0.2794
  632TMC3    C2 9355   2.210   2.218  15.425  0.5125 -0.7776  0.5914
  632TMC3    C3 9356   2.158   2.320  15.347  0.1233 -0.3482 -0.1051
  632TMC3    C4 9357   2.405   2.190  15.286 -0.2909  0.4432  0.9701
  632TMC3    C5 9358   2.353   2.299  15.215 -0.3681  0.4264  0.0699
  632TMC3    C6 9359   2.241   2.368  15.245 -0.4298 -0.4606  0.2166
  632TMC3     C 9360   2.371   2.043  15.484  0.2982 -0.5692  0.2125
  632TMC3     O 9361   2.483   1.996  15.472  0.3578 -0.1519 -0.0830
  632TMC3     H 9362   2.147   2.195  15.510 -0.1362  0.8192  0.5462
  632TMC3    H1 9363   2.503   2.146  15.271  0.5038  2.7674 -0.6964
  632TMC3    H2 9364   2.216   2.457  15.188  1.1391  0.1171  0.4124
  632TMC3    C7 9365   2.436   2.358  15.110  0.4234  0.3425 -0.2669
  632TMC3    C8 9366   2.027   2.379  15.379 -0.2856 -0.3126  0.5127
  632TMC3    O1 9367   2.385   2.445  15.036  0.4348 -0.0341  0.0558
  632TMC3    O2 9368   1.988   2.370  15.500 -0.6272  0.4023  0.2975
  633MPD2     C 9369   1.766   0.148  17.461  0.5232 -0.1522 -0.0433
  633MPD2    C1 9370   1.797   0.074  17.348 -0.1490 -0.6085 -0.5056
  633MPD2    C2 9371   1.807   4.656  17.352  0.8038 -0.2497  0.1926
  633MPD2    C3 9372   1.766   4.585  17.468  0.0533  0.0303 -0.0840
  633MPD2    C4 9373   1.737   4.662  17.579 -0.5572 -0.4955 -0.1153
  633MPD2    C5 9374   1.749   0.073  17.576  1.0715 -0.0775  0.2907
  633MPD2     H 9375   1.849   4.607  17.265 -1.7504  2.0014 -2.3487
  633MPD2    H1 9376   1.704   4.607  17.667  2.1784 -0.3681  0.9827
  633MPD2    H2 9377   1.770   0.257  17.461  3.1765 -0.2503  3.4080
  633MPD2    H3 9378   1.724   0.122  17.669  0.1429  2.1938 -1.1723
  633MPD2     N 9379   1.785   4.446  17.485  0.2697  0.1817  0.0925
  633MPD2    H5 9380   1.785   4.417  17.582 -3.0294 -1.8880 -0.5480
  633MPD2    N1 9381   1.842   0.133  17.229 -0.3235  0.1827 -0.2429
  633MPD2    H7 9382   1.857   0.064  17.156  0.7395 -1.0512  1.1366
  634TMC3    C1 9383   1.917   0.289  17.072  0.2127  0.0277 -0.8112
  634TMC3    C2 9384   1.967   0.176  17.008  0.6173  0.5286  0.5102
  634TMC3    C3 9385   1.976   0.181  16.867 -0.7031 -0.3138 -0.5429
  634TMC3    C4 9386   1.887   0.404  16.998 -0.4662 -0.0387  0.5356
  634TMC3    C5 9387   1.899   0.404  16.862  0.2432 -0.3282 -0.9876
  634TMC3    C6 9388   1.942   0.292  16.793 -0.1543  0.0836  0.1211
  634TMC3     C 9389   1.845   0.267  17.198 -0.0172 -0.1890 -0.4131
  634TMC3     O 9390   1.828   0.362  17.273 -0.2230 -0.6791  0.6901
  634TMC3     H 9391   1.985   0.077  17.050  1.0091 -0.6114 -2.3862
  634TMC3    H1 9392   1.840   0.481  17.057 -0.4768 -0.1840  0.7179
  634TMC3    H2 9393   1.977   0.299  16.691 -2.5438 -0.1970 -0.7121
  634TMC3    C7 9394   1.881   0.533  16.794 -0.4411 -0.5038 -0.8950
  634TMC3    C8 9395   2.016   0.054  16.798  0.4147 -0.1372 -0.1378
  634TMC3    O1 9396   1.878   0.533  16.673  0.2274 -0.2584 -0.2038
  634TMC3    O2 9397   2.041   4.680  16.867 -0.4414 -0.4936  0.5069
  635TMC3    C1 9398   2.546   0.892  17.357 -0.3153  0.2076 -0.1495
  635TMC3    C2 9399   2.588   0.867  17.228  0.3859  0.1523 -0.1128
  635TMC3    C3 9400   2.519   0.783  17.149  0.5633  0.1405 -0.2951
  635TMC3    C4 9401   2.450   0.814  17.418  0.3720  0.1538  0.5522
  635TMC3    C5 9402   2.391   0.719  17.338  0.1460  0.4571 -0.8358
  635TMC3    C6 9403   2.427   0.698  17.200  0.0592  0.2024  0.2767
  635TMC3     C 9404   2.588   1.008  17.437 -0.3075 -0.3271  0.1964
  635TMC3     O 9405   2.528   1.033  17.542  0.0618 -0.2139  0.0343
  635TMC3     H 9406   2.674   0.921  17.192  0.3196  1.4594  1.6944
  635TMC3    H1 9407   2.426   0.828  17.523  0.5539  0.4453  0.5538
  635TMC3    H2 9408   2.389   0.613  17.143 -1.9604 -0.1599  2.1554
  635TMC3    C7 9409   2.283   0.630  17.392  0.2565  0.4055  0.9387
  635TMC3    C8 9410   2.561   0.773  17.008  0.1420 -0.4227 -0.4196
  635TMC3    O1 9411   2.254   0.540  17.319  0.7339  0.2694 -0.1286
  635TMC3    O2 9412   2.600   0.878  16.961  0.3163  0.5568 -0.0885
  636MPD2     C 9413   3.037   0.763  15.315 -0.3740  0.9050 -0.0294
  636MPD2    C1 9414   3.106   0.757  15.439 -0.0646  0.0481 -0.1281
  636MPD2    C2 9415   3.197   0.653  15.456  0.1427  0.0516  0.4157
  636MPD2    C3 9416   3.212   0.553  15.359  0.0881  0.5209  0.1743
  636MPD2    C4 9417   3.143   0.565  15.237 -0.4322 -0.1465 -0.2688
  636MPD2    C5 9418   3.054   0.667  15.222 -0.0417 -0.1899 -0.1208
  636MPD2     H 9419   3.256   0.640  15.546 -0.7103  0.7348  1.0776
  636MPD2    H1 9420   3.175   0.513  15.147 -2.0943 -0.3861 -0.7217
  636MPD2    H2 9421   2.963   0.838  15.290 -0.2729  0.8185 -0.5695
  636MPD2    H3 9422   3.012   0.682  15.123 -1.2393  0.9152  0.5565
  636MPD2     N 9423   3.312   0.456  15.375 -0.5379  0.1454  0.0964
  636MPD2    H5 9424   3.363   0.462  15.462 -1.4638 -3.1508  0.8558
  636MPD2    N1 9425   3.093   0.848  15.543 -0.4313 -0.2793  0.3879
  636MPD2    H7 9426   3.152   0.822  15.621  0.1013 -0.7994 -0.1883
  637TMC3    C1 9427   3.483   0.314  15.305  0.5543 -0.2552  0.1931
  637TMC3    C2 9428   3.579   0.407  15.349 -0.1647  0.4608 -0.3457
  637TMC3    C3 9429   3.710   0.356  15.360  0.8011 -1.3366  0.1895
  637TMC3    C4 9430   3.516   0.183  15.275  0.2767 -0.4852 -0.3071
  637TMC3    C5 9431   3.650   0.144  15.295 -0.1050 -0.2948 -0.2718
  637TMC3    C6 9432   3.746   0.228  15.331 -0.0199  0.8935  0.3179
  637TMC3     C 9433   3.347   0.352  15.293 -0.1068  0.8252  0.2049
  637TMC3     O 9434   3.286   0.310  15.197 -0.5581 -0.3030  0.1020
  637TMC3     H 9435   3.549   0.507  15.378 -0.8925  0.2619 -0.4249
  637TMC3    H1 9436   3.444   0.111  15.238  1.2022 -1.2438 -0.6345
  637TMC3    H2 9437   3.845   0.189  15.353 -0.7848 -0.3439  1.6510
  637TMC3    C7 9438   3.683   0.004  15.317 -0.3984  0.0199 -0.5114
  637TMC3    C8 9439   3.813   0.422  15.429 -0.3777 -0.5528  0.4992
  637TMC3    O1 9440   3.800   4.701  15.287 -0.2341  0.0659 -0.2564
  637TMC3    O2 9441   3.819   0.538  15.401  0.0224 -0.5666  0.1267
  638MPD2     C 9442   3.101   4.164  14.969  0.2720  0.4857  1.4594
  638MPD2    C1 9443   2.962   4.155  14.960 -0.0191  0.3595  0.0317
  638MPD2    C2 9444   2.883   4.110  15.062 -0.3056  0.0885  0.0577
  638MPD2    C3 9445   2.945   4.069  15.179 -0.0975 -0.6872 -0.5535
  638MPD2    C4 9446   3.081   4.085  15.191 -0.5353  0.3672 -0.7154
  638MPD2    C5 9447   3.157   4.123  15.089 -0.0430 -0.2344 -0.6567
  638MPD2     H 9448   2.775   4.109  15.060 -0.3194  0.8827  0.2295
  638MPD2    H1 9449   3.130   4.038  15.275 -0.0120 -2.0730 -2.3922
  638MPD2    H2 9450   3.174   4.201  14.897  0.0554 -1.1973  0.3788
  638MPD2    H3 9451   3.263   4.122  15.109 -0.6058 -0.3456  2.2873
  638MPD2     N 9452   2.860   4.010  15.277  0.0214 -0.0641 -0.1156
  638MPD2    H5 9453   2.761   4.006  15.254 -0.0788  0.7675  0.1492
  638MPD2    N1 9454   2.912   4.194  14.836  0.1678 -0.3793  0.5216
  638MPD2    H7 9455   2.976   4.241  14.772 -0.0972 -0.4860  0.1805
  639TMC3    C1 9456   2.804   3.887  15.466 -0.5230 -0.3200  0.0861
  639TMC3    C2 9457   2.718   3.809  15.389 -0.4076  0.0020 -0.7015
  639TMC3    C3 9458   2.662   3.702  15.455 -0.2290 -0.2608 -0.1600
  639TMC3    C4 9459   2.849   3.849  15.590  0.0625 -0.3000  0.0721
  639TMC3    C5 9460   2.796   3.735  15.636 -0.2034 -0.5395  0.2872
  639TMC3    C6 9461   2.693   3.668  15.582  0.8974 -0.3868 -0.0929
  639TMC3     C 9462   2.903   3.959  15.398  0.1769 -0.1811 -0.0476
  639TMC3     O 9463   3.007   3.984  15.452 -0.1190 -0.2651  0.0251
  639TMC3     H 9464   2.692   3.829  15.286  0.4356 -1.3137 -1.1628
  639TMC3    H1 9465   2.933   3.897  15.639 -0.7779 -0.0547  1.2390
  639TMC3    H2 9466   2.644   3.583  15.628 -0.0388 -0.3516 -1.0152
  639TMC3    C7 9467   2.868   3.668  15.744 -0.4982 -0.2280 -0.1319
  639TMC3    C8 9468   2.596   3.606  15.371  0.1786  0.2552 -0.8218
  639TMC3    O1 9469   2.800   3.597  15.817 -0.4718  0.3198 -0.0183
  639TMC3    O2 9470   2.639   3.593  15.260 -0.5880 -0.9709  0.8371
  640MPD2     C 9471   3.506   2.287   9.592 -0.7412  0.2724 -0.1716
  640MPD2    C1 9472   3.624   2.347   9.621  0.1168 -0.4745  0.5256
  640MPD2    C2 9473   3.626   2.466   9.691 -0.3447 -0.9310  0.4778
  640MPD2    C3 9474   3.507   2.520   9.744 -0.0418 -0.0850  0.2052
  640MPD2    C4 9475   3.396   2.454   9.724  0.3667  0.3041 -0.0525
  640MPD2    C5 9476   3.392   2.338   9.650 -0.1294  0.2820 -0.3481
  640MPD2     H 9477   3.721   2.510   9.719 -0.3480 -1.6986  1.7095
  640MPD2    H1 9478   3.300   2.496   9.751 -0.3632 -0.9951 -0.6145
  640MPD2    H2 9479   3.497   2.195   9.535 -0.5223 -1.8853  3.2364
  640MPD2    H3 9480   3.293   2.296   9.633  0.3412 -0.0765 -2.2142
  640MPD2     N 9481   3.508   2.625   9.836  0.3384  0.0325  0.0865
  640MPD2    H5 9482   3.420   2.651   9.880  0.5515  2.0727 -0.7331
  640MPD2    N1 9483   3.742   2.280   9.576  0.1798  0.3351  0.5809
  640MPD2    H7 9484   3.722   2.202   9.514 -0.1243  1.3722 -0.6237
  641TMC3    C1 9485   3.966   2.233   9.533  0.0753 -0.2496 -0.4276
  641TMC3    C2 9486   4.084   2.215   9.594 -0.0010  0.3923 -0.6987
  641TMC3    C3 9487   4.170   2.119   9.542  0.3779  0.2100  0.1653
  641TMC3    C4 9488   3.923   2.156   9.423  0.2640 -0.0294 -0.2961
  641TMC3    C5 9489   4.009   2.058   9.376  0.2567 -1.1352 -0.2848
  641TMC3    C6 9490   4.135   2.042   9.434 -0.6120  0.2343 -0.0070
  641TMC3     C 9491   3.877   2.326   9.592 -0.0249  0.3368  0.2991
  641TMC3     O 9492   3.918   2.410   9.672 -0.3133  0.2230  0.2472
  641TMC3     H 9493   4.118   2.290   9.665  0.1608  0.4271 -0.8162
  641TMC3    H1 9494   3.836   2.194   9.371  0.1481  2.0518  1.4060
  641TMC3    H2 9495   4.222   1.999   9.387 -0.6946  1.3181 -1.1694
  641TMC3    C7 9496   3.954   1.996   9.260  0.1943  0.7810  0.3171
  641TMC3    C8 9497   4.272   2.066   9.631  0.0670 -0.1011  0.8896
  641TMC3    O1 9498   3.876   2.064   9.201  0.8317 -0.1151  0.1800
  641TMC3    O2 9499   4.283   1.945   9.621 -0.8602 -0.2952  0.3235
  642TMC3    C1 9500   4.547   3.705  12.439  0.5509  0.4050 -0.6517
  642TMC3    C2 9501   4.668   3.677  12.386 -0.2271 -0.1401 -0.4424
  642TMC3    C3 9502   4.693   3.566  12.310 -0.2514  0.1061  1.0550
  642TMC3    C4 9503   4.435   3.631  12.407  0.2657 -0.1950 -0.1010
  642TMC3    C5 9504   4.457   3.527  12.317  1.1975 -0.4126 -0.1931
  642TMC3    C6 9505   4.580   3.492  12.275  0.3400  0.0970  0.4426
  642TMC3     C 9506   4.528   3.820  12.523  0.1837 -0.4440 -0.1073
  642TMC3     O 9507   4.585   3.922  12.487 -0.5548  0.6189 -0.0223
  642TMC3     H 9508   0.016   3.752  12.407 -0.0785 -0.1225 -1.0236
  642TMC3    H1 9509   4.333   3.656  12.434  0.2244  0.2133 -0.6362
  642TMC3    H2 9510   4.587   3.419  12.194 -0.4075 -0.7419  1.1312
  642TMC3    C7 9511   4.349   3.437  12.286 -0.4767 -0.1874  0.0863
  642TMC3    C8 9512   0.082   3.552  12.230  0.1636  0.2777 -1.1359
  642TMC3    O1 9513   4.368   3.364  12.189 -0.1114  0.3780  0.3705
  642TMC3    O2 9514   0.076   3.485  12.128 -0.0876  0.6126  0.0599
  643TMC3    C1 9515   4.098   2.860   0.359 -0.5937 -0.1181 -0.0519
  643TMC3    C2 9516   4.039   2.887   0.240 -0.1725  0.0420  1.0921
  643TMC3    C3 9517   4.058   2.796   0.138 -0.5146  0.5346 -0.1588
  643TMC3    C4 9518   4.177   2.751   0.382 -0.0253 -0.3263 -0.2857
  643TMC3    C5 9519   4.187   2.657   0.278 -0.2404  0.0450 -1.0087
  643TMC3    C6 9520   4.125   2.670   0.156 -0.1710  0.2950 -0.1997
  643TMC3     C 9521   4.071   2.959   0.459  0.7919 -0.2921  1.2432
  643TMC3     O 9522   3.975   3.030   0.445  0.0431 -0.0499 -0.0225
  643TMC3     H 9523   3.971   2.971   0.233  0.8372  0.7663  0.0808
  643TMC3    H1 9524   4.215   2.723   0.480 -2.4391  1.5806  1.2249
  643TMC3    H2 9525   4.136   2.600   0.073 -0.7902 -0.2689  0.1965
  643TMC3    C7 9526   4.247   2.529   0.321 -0.5465 -0.4352 -0.0634
  643TMC3    C8 9527   4.035   2.835   0.005  0.4371  0.3325 -0.0201
  643TMC3    O1 9528   4.243   2.497   0.440  0.7648  0.4800  0.6788
  643TMC3    O2 9529   4.063   2.756  17.621  0.2276  0.0051  0.1813
  644MPD2     C 9530   3.320   2.273   9.208 -0.0067  0.2151  0.1077
  644MPD2    C1 9531   3.341   2.287   9.074 -0.7020  0.4718 -0.0735
  644MPD2    C2 9532   3.236   2.308   8.988 -0.4555  0.1742 -0.2624
  644MPD2    C3 9533   3.104   2.308   9.036  0.7094 -0.4748 -0.6544
  644MPD2    C4 9534   3.083   2.288   9.172  0.6364 -0.5385 -0.3638
  644MPD2    C5 9535   3.192   2.272   9.258  0.0897 -0.4502 -0.0232
  644MPD2     H 9536   3.253   2.349   8.889 -0.7641 -2.0914 -1.2656
  644MPD2    H1 9537   2.983   2.284   9.214  0.1289  0.7488 -1.4441
  644MPD2    H2 9538   3.403   2.270   9.278 -0.4167 -1.0123  0.5220
  644MPD2    H3 9539   3.178   2.262   9.365 -0.6843  2.5079  0.1413
  644MPD2     N 9540   3.006   2.322   8.931  0.2677  0.2609 -0.3371
  644MPD2    H5 9541   3.039   2.338   8.837  2.2123  1.0607  0.4830
  644MPD2    N1 9542   3.476   2.281   9.031  0.0948  0.2906 -0.3635
  644MPD2    H7 9543   3.539   2.249   9.104 -1.0315 -0.0374  0.4845
  645TMC3    C1 9544   2.796   2.332   8.827  0.5788 -0.3852 -0.0952
  645TMC3    C2 9545   2.672   2.272   8.827 -0.0617  0.0340 -0.0196
  645TMC3    C3 9546   2.615   2.245   8.705  0.2448  0.5805 -0.6100
  645TMC3    C4 9547   2.866   2.341   8.708  0.2164  0.3599  0.0865
  645TMC3    C5 9548   2.801   2.317   8.588 -0.0966 -0.1896 -0.8797
  645TMC3    C6 9549   2.670   2.280   8.588  0.4737 -0.9683  0.0098
  645TMC3     C 9550   2.873   2.314   8.950  0.5312  0.2104  0.2320
  645TMC3     O 9551   2.808   2.285   9.049  0.3796  0.0592  0.3163
  645TMC3     H 9552   2.620   2.253   8.921 -0.9691 -0.9747 -0.7314
  645TMC3    H1 9553   2.963   2.390   8.704  0.9229 -1.1940 -1.8225
  645TMC3    H2 9554   2.625   2.259   8.492  0.4880 -0.1881 -0.1710
  645TMC3    C7 9555   2.872   2.367   8.467 -0.0070  0.6889 -0.2515
  645TMC3    C8 9556   2.470   2.215   8.705  0.1895  0.1799  0.0142
  645TMC3    O1 9557   2.803   2.366   8.367 -0.4264 -0.5375  0.4896
  645TMC3    O2 9558   2.408   2.228   8.599 -0.4985  0.2107 -0.2558
  646MPD2     C 9559   2.985   2.989  14.794  0.6388 -0.1052  0.1999
  646MPD2    C1 9560   2.900   2.921  14.882  0.0518  0.3517 -0.4856
  646MPD2    C2 9561   2.767   2.935  14.873  0.5729 -0.2252 -0.0472
  646MPD2    C3 9562   2.715   3.020  14.774  0.5594  0.0596 -0.9164
  646MPD2    C4 9563   2.793   3.100  14.692 -0.2113 -0.3483 -0.3027
  646MPD2    C5 9564   2.931   3.079  14.702  0.3360 -0.0380 -0.0144
  646MPD2     H 9565   2.692   2.880  14.928  0.4982 -0.6132 -0.5324
  646MPD2    H1 9566   2.761   3.175  14.620  0.7497  0.6870  0.3435
  646MPD2    H2 9567   3.093   2.981  14.796  0.6137 -0.3814  0.3938
  646MPD2    H3 9568   2.993   3.141  14.638  0.3983 -0.4260 -0.3268
  646MPD2     N 9569   2.576   3.024  14.757 -0.3968  0.0441 -0.4708
  646MPD2    H5 9570   2.519   2.984  14.831  1.5526 -1.1904  0.3430
  646MPD2    N1 9571   2.969   2.844  14.977 -0.7717 -0.4444  0.3574
  646MPD2    H7 9572   3.069   2.836  14.963 -0.5166 -1.7695  2.9632
  647TMC3    C1 9573   3.005   2.657  15.122  0.2811 -0.1891 -0.4990
  647TMC3    C2 9574   2.952   2.598  15.236 -0.0193  0.3477 -1.0429
  647TMC3    C3 9575   3.019   2.484  15.273 -0.0625 -0.1127  0.3118
  647TMC3    C4 9576   3.104   2.604  15.042  0.0729 -0.2016  0.5080
  647TMC3    C5 9577   3.166   2.491  15.083  0.5402  1.0593 -0.0464
  647TMC3    C6 9578   3.126   2.433  15.201 -0.0852  0.5883 -1.0469
  647TMC3     C 9579   2.915   2.765  15.075 -0.2136  0.0388 -0.5358
  647TMC3     O 9580   2.802   2.773  15.124 -0.4459 -0.0966 -0.3807
  647TMC3     H 9581   2.877   2.649  15.296  0.5068  0.0518 -0.1433
  647TMC3    H1 9582   3.110   2.636  14.939 -0.4750 -0.8947  0.2609
  647TMC3    H2 9583   3.166   2.336  15.230 -1.4952  0.4236  0.3300
  647TMC3    C7 9584   3.295   2.449  15.042  0.4194 -0.4814 -0.7183
  647TMC3    C8 9585   2.969   2.419  15.388  0.4754  0.7579 -0.6820
  647TMC3    O1 9586   3.338   2.341  15.085  0.1991  0.1997 -0.3201
  647TMC3    O2 9587   3.046   2.339  15.436  0.0109  0.5644  0.0992
  648TMC3    C1 9588   2.245   0.270  16.036 -0.6361 -0.6731  0.2176
  648TMC3    C2 9589   2.299   0.155  15.992  0.2065 -0.0397  0.5444
  648TMC3    C3 9590   2.289   0.130  15.857  0.4260 -1.3028  0.3762
  648TMC3    C4 9591   2.186   0.358  15.954 -0.0074 -0.2804 -1.0511
  648TMC3    C5 9592   2.186   0.332  15.816  0.1048  0.0133  0.6921
  648TMC3    C6 9593   2.228   0.213  15.765 -0.0064  1.5451 -0.2630
  648TMC3     C 9594   2.280   0.320  16.175 -0.5705 -0.3804 -0.2772
  648TMC3     O 9595   2.273   0.440  16.202 -0.1983 -0.3257 -0.1492
  648TMC3     H 9596   2.358   0.091  16.056  0.1555 -0.0444  0.5867
  648TMC3    H1 9597   2.169   0.461  15.986  2.1002 -0.0552 -0.6213
  648TMC3    H2 9598   2.234   0.189  15.659 -0.0983 -0.3989  0.1649
  648TMC3    C7 9599   2.118   0.430  15.735  0.4715  0.5788 -0.2268
  648TMC3    C8 9600   2.369   0.013  15.808 -0.5870  0.5482 -0.0187
  648TMC3    O1 9601   2.103   0.387  15.620  0.2185 -0.5998 -0.1881
  648TMC3    O2 9602   2.468   4.707  15.869 -0.1446  0.2622  1.0940
  649TMC3    C1 9603   1.602   1.463  12.399  0.5365  0.5680  0.6679
  649TMC3    C2 9604   1.728   1.518  12.405 -0.4283 -0.1842  0.8019
  649TMC3    C3 9605   1.795   1.507  12.520  0.2235  0.3292  0.1669
  649TMC3    C4 9606   1.534   1.406  12.507  0.0663 -0.3545  0.8633
  649TMC3    C5 9607   1.611   1.405  12.625  0.4674  0.1466 -0.0316
  649TMC3    C6 9608   1.736   1.448  12.634 -0.6257 -0.0322  0.2257
  649TMC3     C 9609   1.512   1.500  12.297  0.2409 -0.5538 -0.3964
  649TMC3     O 9610   1.403   1.552  12.318 -0.7075 -0.0909  0.2333
  649TMC3     H 9611   1.760   1.578  12.320 -1.9916 -0.2386  0.1782
  649TMC3    H1 9612   1.434   1.364  12.511 -0.5227  1.0088  0.2852
  649TMC3    H2 9613   1.792   1.445  12.727  1.4699  3.5117 -0.9069
  649TMC3    C7 9614   1.542   1.391  12.751  0.0065  0.4178  0.2135
  649TMC3    C8 9615   1.912   1.589  12.549 -0.3746  1.1075 -0.2554
  649TMC3    O1 9616   1.434   1.447  12.773 -0.1535 -0.6592  0.1806
  649TMC3    O2 9617   1.944   1.602  12.663 -0.0478  0.4713  0.1669
  650TMC3    C1 9618   3.958   2.935  13.136  0.2257 -0.0444  0.3128
  650TMC3    C2 9619   3.877   3.008  13.212  0.1278  0.0528  0.0164
  650TMC3    C3 9620   3.748   3.026  13.176  0.0104  0.1831  0.6352
  650TMC3    C4 9621   3.914   2.861  13.024 -0.1388 -0.5048  0.3668
  650TMC3    C5 9622   3.782   2.873  12.995 -0.2164  0.9711  0.5221
  650TMC3    C6 9623   3.700   2.956  13.070  0.1783 -0.4178  0.0878
  650TMC3     C 9624   4.081   2.890  13.196  0.4053  0.2579  0.2702
  650TMC3     O 9625   4.140   2.960  13.283 -0.2718  0.5335  0.4739
  650TMC3     H 9626   3.913   3.056  13.302 -0.4973  2.1171 -0.8428
  650TMC3    H1 9627   3.974   2.822  12.943  0.0082 -0.4530  0.4517
  650TMC3    H2 9628   3.593   2.954  13.050 -0.3374 -1.4018  2.9730
  650TMC3    C7 9629   3.752   2.874  12.857  0.3997 -0.3995  0.4322
  650TMC3    C8 9630   3.715   3.164  13.148  0.0032 -0.0396  0.1053
  650TMC3    O1 9631   3.800   2.791  12.785  0.6349  0.4029  0.6422
  650TMC3    O2 9632   3.807   3.239  13.132 -0.4061 -0.2160 -0.2064
  651MPD2     C 9633   3.197   4.677  11.140  0.3223  0.1817  0.2769
  651MPD2    C1 9634   3.166   4.632  11.016  0.1461  0.6999  0.3332
  651MPD2    C2 9635   3.217   4.700  10.901  0.0911  0.4010 -0.9808
  651MPD2    C3 9636   3.292   0.089  10.911 -0.2168 -0.4198 -0.3600
  651MPD2    C4 9637   3.324   0.129  11.039  0.5901  0.4045  0.3265
  651MPD2    C5 9638   3.275   0.059  11.147  0.6581  0.8084  0.1918
  651MPD2     H 9639   3.193   4.672  10.799  0.1726  1.0238 -1.1737
  651MPD2    H1 9640   3.380   0.220  11.059 -1.1295  1.0742  2.0626
  651MPD2    H2 9641   3.155   4.632  11.229 -1.1636 -0.3388 -0.7036
  651MPD2    H3 9642   3.302   0.091  11.247  2.5904  1.1587 -0.4563
  651MPD2     N 9643   3.345   0.150  10.795  0.2384 -0.1567 -0.1055
  651MPD2    H5 9644   3.306   0.113  10.709  0.0652  0.8851 -0.4656
  651MPD2    N1 9645   3.084   4.518  10.990 -0.4468  0.2995  0.3893
  651MPD2    H7 9646   3.068   4.492  10.894  0.4039  0.2293  0.2668
  652TMC3    C1 9647   3.701   0.301  10.528 -0.5646 -0.1405  0.4235
  652TMC3    C2 9648   3.646   0.262  10.647  0.2097 -0.1910 -0.0884
  652TMC3    C3 9649   3.507   0.255  10.652 -0.2454 -0.0279 -0.7464
  652TMC3    C4 9650   3.623   0.328  10.419  0.3138  0.0148  0.3429
  652TMC3    C5 9651   3.486   0.310  10.429  0.3846  0.4718 -0.2937
  652TMC3    C6 9652   3.422   0.270  10.548 -0.3346 -0.3863 -0.2604
  652TMC3     C 9653   3.845   0.324  10.523 -0.1649  0.4183  0.2322
  652TMC3     O 9654   3.913   0.255  10.596 -0.0032  0.2849  0.2179
  652TMC3     H 9655   3.709   0.241  10.732  1.3728 -2.9502 -1.6210
  652TMC3    H1 9656   3.660   0.365  10.324 -0.8433 -0.5526 -0.3309
  652TMC3    H2 9657   3.315   0.269  10.566  0.0808  1.4343  2.3708
  652TMC3    C7 9658   3.405   0.390  10.337 -0.4520 -0.1023 -0.3820
  652TMC3    C8 9659   3.453   0.239  10.786  0.1583  0.2785 -0.7670
  652TMC3    O1 9660   3.459   0.497  10.303  0.1750 -0.4679 -0.4334
  652TMC3    O2 9661   3.524   0.283  10.877  0.0677 -0.4153 -0.2980
  653MPD2     C 9662   1.588   0.479   0.113  0.2634 -0.2308  0.1250
  653MPD2    C1 9663   1.545   0.562   0.008  0.1354  0.7187  0.0344
  653MPD2    C2 9664   1.471   0.505  17.623  0.2833  0.4351  0.2570
  653MPD2    C3 9665   1.446   0.370  17.618 -0.2204 -0.2824  0.5538
  653MPD2    C4 9666   1.481   0.288   0.010 -0.1126  0.2946 -1.0109
  653MPD2    C5 9667   1.549   0.344   0.114 -0.7016  0.3976  0.2798
  653MPD2     H 9668   1.423   0.561  17.544 -1.0252  1.2304  1.6232
  653MPD2    H1 9669   1.461   0.181   0.013  0.5334  0.2308  1.0437
  653MPD2    H2 9670   1.643   0.513   0.200  0.5752  0.2359 -0.2537
  653MPD2    H3 9671   1.570   0.287   0.203  0.8192  0.4699 -0.0327
  653MPD2     N 9672   1.379   0.319  17.499  0.3048 -0.0993 -0.7343
  653MPD2    H5 9673   1.336   0.384  17.434 -1.0998  0.4986  0.8116
  653MPD2    N1 9674   1.579   0.700  17.702 -0.0912  0.5261  0.0328
  653MPD2    H7 9675   1.559   0.742  17.612  1.8099  1.2612 -0.0272
  654TMC3    C1 9676   1.302   0.165  17.337  0.7214 -0.2683  0.4325
  654TMC3    C2 9677   1.271   0.277  17.262  0.3615  0.0401 -0.0271
  654TMC3    C3 9678   1.206   0.252  17.144 -0.4562  0.2284  0.1589
  654TMC3    C4 9679   1.261   0.038  17.306  0.5446 -0.3821  0.5547
  654TMC3    C5 9680   1.179   0.022  17.196  0.0005 -0.1741  0.1401
  654TMC3    C6 9681   1.158   0.132  17.108  0.5197  0.6162  0.0732
  654TMC3     C 9682   1.359   0.185  17.470  0.1230  0.2239  0.3276
  654TMC3     O 9683   1.380   0.079  17.528  0.1100 -0.0347  0.2400
  654TMC3     H 9684   1.308   0.377  17.281 -1.8154  0.6625  0.8593
  654TMC3    H1 9685   1.267   4.681  17.373 -2.6747 -0.8161  0.2702
  654TMC3    H2 9686   1.098   0.119  17.018 -1.0230  0.0814  1.1948
  654TMC3    C7 9687   1.140   4.616  17.148  0.0760  0.9211 -0.7938
  654TMC3    C8 9688   1.189   0.362  17.054  0.0383  0.5931 -0.8148
  654TMC3    O1 9689   1.048   4.614  17.072  0.6095 -0.1350  0.1931
  654TMC3    O2 9690   1.189   0.476  17.107  0.0556  0.3849 -0.0832
  655MPD2     C 9691   2.874   0.605  15.713 -0.2863  0.3723  0.1444
  655MPD2    C1 9692   2.763   0.655  15.642  0.1363  0.4143  0.5241
  655MPD2    C2 9693   2.732   0.588  15.525  0.0922 -0.2112 -0.0813
  655MPD2    C3 9694   2.815   0.494  15.471  0.2197  0.1108 -0.1697
  655MPD2    C4 9695   2.931   0.456  15.532 -0.5328 -0.1698 -0.2503
  655MPD2    C5 9696   2.956   0.512  15.658  0.4180  0.0491 -0.6024
  655MPD2     H 9697   2.645   0.620  15.469 -0.9421 -0.8796  1.1297
  655MPD2    H1 9698   3.003   0.383  15.497 -0.6825 -0.3745 -0.1336
  655MPD2    H2 9699   2.899   0.636  15.814 -1.1027  0.3805  0.3458
  655MPD2    H3 9700   3.023   0.473  15.734 -0.7916 -0.2397  0.3171
  655MPD2     N 9701   2.796   0.426  15.352 -0.0121 -0.9040  0.3310
  655MPD2    H5 9702   2.874   0.367  15.324 -0.6459 -2.1803  1.2411
  655MPD2    N1 9703   2.674   0.756  15.686 -0.3753 -0.5086 -0.4163
  655MPD2    H7 9704   2.589   0.766  15.632 -1.7619  2.2317  2.2942
  656TMC3    C1 9705   2.551   0.900  15.827 -0.1329  0.4882  0.3801
  656TMC3    C2 9706   2.496   0.864  15.946 -0.5352 -0.1660 -0.0263
  656TMC3    C3 9707   2.361   0.881  15.948  0.2180  0.2708  0.3994
  656TMC3    C4 9708   2.489   0.969  15.725  0.2459 -0.0048  0.2991
  656TMC3    C5 9709   2.354   0.997  15.745  0.4669  0.0984  0.4625
  656TMC3    C6 9710   2.288   0.951  15.859 -0.0264  0.2128  0.4977
  656TMC3     C 9711   2.678   0.834  15.801 -0.0712  0.0710  0.4578
  656TMC3     O 9712   2.757   0.826  15.893 -0.1036 -0.1000 -0.1481
  656TMC3     H 9713   2.543   0.794  16.013 -0.1929 -0.3923 -0.5048
  656TMC3    H1 9714   2.549   0.995  15.638  1.2544 -0.9813  0.7066
  656TMC3    H2 9715   2.180   0.945  15.867 -0.2456 -0.5721 -3.1289
  656TMC3    C7 9716   2.285   1.045  15.635 -0.3034 -0.2568 -0.4288
  656TMC3    C8 9717   2.281   0.803  16.039 -0.1598 -0.0816  0.2101
  656TMC3    O1 9718   2.358   1.075  15.539  0.2633 -0.0307  0.1858
  656TMC3    O2 9719   2.225   0.700  16.002 -0.2374  0.1357  0.3407
  657TMC3    C1 9720   1.529   4.459  14.734 -0.5157  0.4779  0.0070
  657TMC3    C2 9721   1.440   4.364  14.785  0.3733  0.0581  0.0128
  657TMC3    C3 9722   1.312   4.402  14.785 -0.5132 -0.6157 -0.7658
  657TMC3    C4 9723   1.505   4.582  14.688 -0.5638  0.4347 -0.4128
  657TMC3    C5 9724   1.375   4.615  14.702  0.1019 -0.0296 -0.5579
  657TMC3    C6 9725   1.276   4.526  14.742  0.1917 -0.5398  0.1887
  657TMC3     C 9726   1.669   4.415  14.729 -0.5083 -0.5031  0.6892
  657TMC3     O 9727   1.751   4.506  14.709  0.4854 -1.3166  0.4412
  657TMC3     H 9728   1.475   4.275  14.837  0.0320  1.4911  2.6971
  657TMC3    H1 9729   1.582   4.650  14.655 -0.5218  0.3036 -0.5883
  657TMC3    H2 9730   1.169   4.545  14.734  0.2053 -0.8285 -0.6500
  657TMC3    C7 9731   1.333   4.726  14.622 -0.0257  0.2645  0.7386
  657TMC3    C8 9732   1.205   4.318  14.846  0.4498 -0.1346  0.3011
  657TMC3    O1 9733   1.376   0.010  14.509  0.2511 -0.7345  0.0550
  657TMC3    O2 9734   1.096   4.367  14.871  0.2903  0.2836  0.4577
  658MPD2     C 9735   3.150   0.341  14.736 -0.3263 -0.6377  0.1046
  658MPD2    C1 9736   3.022   0.391  14.736 -0.0771 -0.1424  1.2059
  658MPD2    C2 9737   2.976   0.485  14.641  0.1663  0.3014  0.5490
  658MPD2    C3 9738   3.071   0.518  14.543 -0.0922  0.7736  0.2506
  658MPD2    C4 9739   3.194   0.459  14.540  0.1003  0.2703 -0.1505
  658MPD2    C5 9740   3.247   0.384  14.642  0.5258  0.3640 -0.9541
  658MPD2     H 9741   2.878   0.530  14.651 -0.8366 -2.1040  1.4978
  658MPD2    H1 9742   3.261   0.484  14.459  1.2061 -0.7314  0.4585
  658MPD2    H2 9743   3.173   0.257  14.799 -2.2780 -2.0437 -1.0705
  658MPD2    H3 9744   3.349   0.345  14.641  0.7403  0.9215 -1.0415
  658MPD2     N 9745   3.019   0.612  14.455  0.3604 -0.1061  0.1885
  658MPD2    H5 9746   2.926   0.650  14.472 -0.8249 -1.8548 -2.4578
  658MPD2    N1 9747   2.929   0.349  14.844 -0.1174  0.3855  0.3279
  658MPD2    H7 9748   2.973   0.293  14.916  1.5463 -0.4100 -1.2941
  659TMC3    C1 9749   2.730   0.308  14.948 -0.5347 -0.0203 -0.1005
  659TMC3    C2 9750   2.764   0.347  15.078 -0.1093  0.3470  0.0155
  659TMC3    C3 9751   2.676   0.313  15.181 -0.6382  0.1611 -1.1482
  659TMC3    C4 9752   2.614   0.237  14.917 -0.0625 -0.9811 -0.7064
  659TMC3    C5 9753   2.526   0.212  15.018  0.0674 -0.3075 -0.1812
  659TMC3    C6 9754   2.558   0.253  15.147  0.9101  0.0319 -0.7350
  659TMC3     C 9755   2.793   0.384  14.848  0.1425  0.8670  1.2504
  659TMC3     O 9756   2.709   0.426  14.770  0.0323  0.1085 -0.0053
  659TMC3     H 9757   2.847   0.416  15.091  0.3574  0.0532 -1.3213
  659TMC3    H1 9758   2.593   0.219  14.812 -0.6647 -1.1204 -0.5621
  659TMC3    H2 9759   2.493   0.226  15.229  3.8245 -2.0071  0.9228
  659TMC3    C7 9760   2.398   0.146  14.992 -0.0416 -0.3097 -0.4645
  659TMC3    C8 9761   2.670   0.402  15.292  0.3851 -0.2268  0.3844
  659TMC3    O1 9762   2.366   0.062  15.075 -0.3896  0.0526  0.1116
  659TMC3    O2 9763   2.558   0.431  15.329  0.4058 -0.1604  0.0856
  660MPD2     C 9764   1.006   3.966  12.802  0.7523 -0.1182  0.5362
  660MPD2    C1 9765   0.909   3.908  12.717 -0.3414 -0.3557 -0.1930
  660MPD2    C2 9766   0.878   3.778  12.746  0.1727 -0.8826 -0.2443
  660MPD2    C3 9767   0.930   3.711  12.856  0.3642 -0.3781  0.2859
  660MPD2    C4 9768   1.032   3.768  12.923 -0.2315 -0.1231  0.2355
  660MPD2    C5 9769   1.071   3.898  12.896 -0.1492  0.8211  0.1757
  660MPD2     H 9770   0.825   3.712  12.678 -0.6410  0.5528 -1.0057
  660MPD2    H1 9771   1.072   3.707  13.003 -0.8209 -1.4450 -0.4678
  660MPD2    H2 9772   1.035   4.070  12.793 -1.6512  0.6089  1.4776
  660MPD2    H3 9773   1.158   3.942  12.943 -0.2541 -0.4513  1.5676
  660MPD2     N 9774   0.897   3.580  12.897 -0.5821  0.6688  0.5712
  660MPD2    H5 9775   0.943   3.539  12.978 -1.0755  0.3730  0.7040
  660MPD2    N1 9776   0.864   3.982  12.611 -0.2556 -0.3436  0.2203
  660MPD2    H7 9777   0.912   4.071  12.597  1.6897 -1.1207  1.9721
  661TMC3    C1 9778   0.741   4.040  12.421  0.2813  0.5763  0.4028
  661TMC3    C2 9779   0.847   4.094  12.354 -0.1752 -0.6657 -0.3195
  661TMC3    C3 9780   0.825   4.149  12.233  0.0914  0.1246 -0.3936
  661TMC3    C4 9781   0.623   4.025  12.359 -0.2235 -0.2549  0.0200
  661TMC3    C5 9782   0.595   4.073  12.233  0.2557  0.8350 -0.0784
  661TMC3    C6 9783   0.700   4.143  12.168  0.2890  0.3070  0.3365
  661TMC3     C 9784   0.778   3.939  12.512  0.1456 -0.0948 -0.3407
  661TMC3     O 9785   0.717   3.832  12.506  0.4856 -0.6934 -0.0973
  661TMC3     H 9786   0.949   4.076  12.385 -0.7670  0.2283  2.1522
  661TMC3    H1 9787   0.564   3.958  12.421 -3.0155  1.1845 -1.0995
  661TMC3    H2 9788   0.685   4.182  12.068  1.0185 -1.3423 -0.4084
  661TMC3    C7 9789   0.476   4.024  12.157 -0.6173 -0.3366 -0.1761
  661TMC3    C8 9790   0.937   4.147  12.143 -0.3068  0.3153 -0.0302
  661TMC3    O1 9791   0.475   4.025  12.034 -0.1895 -0.2900  0.1181
  661TMC3    O2 9792   1.002   4.040  12.148 -0.4767 -0.3171  0.6188
  662MPD2     C 9793   1.276   3.651  17.218  0.0946 -0.2474 -0.4768
  662MPD2    C1 9794   1.245   3.615  17.346 -0.7365  0.0349  0.1384
  662MPD2    C2 9795   1.179   3.710  17.436  0.2502 -0.1161 -0.0670
  662MPD2    C3 9796   1.123   3.819  17.382 -0.1206 -0.0168  0.5164
  662MPD2    C4 9797   1.163   3.855  17.261  0.3981  0.7790 -0.0021
  662MPD2    C5 9798   1.234   3.773  17.176  0.0409 -0.5238  0.4311
  662MPD2     H 9799   1.162   3.676  17.538  0.5460  0.7830  0.2733
  662MPD2    H1 9800   1.124   3.949  17.222 -2.9553 -1.2501 -1.5170
  662MPD2    H2 9801   1.340   3.596  17.151 -0.2771 -0.3331 -0.7633
  662MPD2    H3 9802   1.270   3.815  17.083 -1.9671 -2.7546 -1.3489
  662MPD2     N 9803   1.031   3.898  17.452  0.2287  0.3087  0.5348
  662MPD2    H5 9804   1.008   3.992  17.420  0.0308 -0.4645 -1.6006
  662MPD2    N1 9805   1.280   3.490  17.399 -0.3177  0.1996 -0.3190
  662MPD2    H7 9806   1.273   3.477  17.499  1.6059  2.5123  0.1279
  663TMC3    C1 9807   1.315   3.254  17.391 -0.4270  0.3156  0.0730
  663TMC3    C2 9808   1.316   3.279  17.530  0.0815  0.7265  0.3742
  663TMC3    C3 9809   1.214   3.228  17.612  0.1051 -0.2766 -0.3158
  663TMC3    C4 9810   1.220   3.172  17.337 -0.2764  0.5933 -0.0963
  663TMC3    C5 9811   1.124   3.120  17.421  0.3830 -0.2319 -0.3093
  663TMC3    C6 9812   1.126   3.140  17.554  0.1716 -0.6326 -0.6047
  663TMC3     C 9813   1.319   3.382  17.321 -0.4440  0.2592 -0.4079
  663TMC3     O 9814   1.304   3.364  17.201 -0.0325  0.2903  0.3696
  663TMC3     H 9815   1.406   3.327  17.565  0.0143  0.8640  0.3593
  663TMC3    H1 9816   1.227   3.153  17.230 -4.1592  0.1927 -0.2752
  663TMC3    H2 9817   1.043   3.106  17.615  0.9447  0.2069  0.9086
  663TMC3    C7 9818   1.004   3.074  17.357 -0.2224 -0.1831 -0.0525
  663TMC3    C8 9819   1.148   3.334  17.678  0.4324 -0.1648  0.0321
  663TMC3    O1 9820   0.992   3.106  17.240  0.5231 -0.4447 -0.2574
  663TMC3    O2 9821   1.205   3.441  17.676 -0.2267 -0.1026  0.4089
  664MPD2     C 9822   3.662   1.484  17.593 -0.0160  0.5883 -0.0488
  664MPD2    C1 9823   3.711   1.609  17.618 -0.4815 -0.7088 -0.3242
  664MPD2    C2 9824   3.712   1.655   0.043  0.2794 -0.5076 -0.1524
  664MPD2    C3 9825   3.682   1.565   0.142 -0.7688 -0.1568  0.0002
  664MPD2    C4 9826   3.631   1.444   0.113  0.9003  0.4788  0.6810
  664MPD2    C5 9827   3.612   1.412  17.694  0.2355 -0.5881 -0.0658
  664MPD2     H 9828   3.735   1.758   0.070 -0.5001 -0.2792 -0.3614
  664MPD2    H1 9829   3.584   1.373   0.180 -2.1720  0.0139 -1.9043
  664MPD2    H2 9830   3.671   1.442  17.494  1.2736 -1.7542  1.0739
  664MPD2    H3 9831   3.564   1.318  17.668 -0.5903 -0.1334 -0.1959
  664MPD2     N 9832   3.693   1.612   0.273  0.1530 -0.1629  0.4623
  664MPD2    H5 9833   3.719   1.710   0.275 -0.6942  0.0432  1.5323
  664MPD2    N1 9834   3.758   1.699  17.524 -0.3400 -0.2683 -0.5569
  664MPD2    H7 9835   3.804   1.787  17.543 -0.2544 -0.2647 -0.7758
  665TMC3    C1 9836   3.655   1.625   0.510 -0.5399  0.3301  0.6491
  665TMC3    C2 9837   3.668   1.566   0.631 -0.2745 -0.3748 -0.3952
  665TMC3    C3 9838   3.649   1.634   0.744  0.0143 -0.6863 -0.4099
  665TMC3    C4 9839   3.619   1.754   0.498 -0.0409 -0.4147 -0.1605
  665TMC3    C5 9840   3.610   1.831   0.618 -0.2634  0.4099 -0.0351
  665TMC3    C6 9841   3.618   1.769   0.738  0.0105  0.8044  0.0360
  665TMC3     C 9842   3.662   1.541   0.388 -0.3480  0.5812  0.5149
  665TMC3     O 9843   3.623   1.427   0.408 -0.6563  0.5772 -0.2576
  665TMC3     H 9844   3.708   1.466   0.642  0.1079 -0.2608 -0.7894
  665TMC3    H1 9845   3.595   1.795   0.400  0.1664  2.5471  1.0374
  665TMC3    H2 9846   3.590   1.824   0.827 -2.5555 -1.0336  0.3994
  665TMC3    C7 9847   3.582   1.975   0.603  0.0040  0.7269 -0.4114
  665TMC3    C8 9848   3.603   1.575   0.859 -0.5856 -0.1658 -0.0474
  665TMC3    O1 9849   3.581   2.020   0.487 -0.3225  0.0283 -0.0302
  665TMC3    O2 9850   3.587   1.650   0.950  0.4678  0.1322  0.5411
  666TMC3    C1 9851   3.807   1.586   9.858  0.4025 -0.0008 -0.1272
  666TMC3    C2 9852   3.836   1.478   9.934 -0.3108  0.2165  0.3403
  666TMC3    C3 9853   3.866   1.485  10.069 -0.2782 -0.0775  0.7792
  666TMC3    C4 9854   3.810   1.712   9.918  0.2376  0.3562  0.4661
  666TMC3    C5 9855   3.842   1.721  10.049 -0.6326  0.1552 -0.3257
  666TMC3    C6 9856   3.865   1.605  10.129  1.1531  0.2147 -0.1371
  666TMC3     C 9857   3.702   1.570   9.761 -0.0710 -0.3270 -0.0173
  666TMC3     O 9858   3.694   1.662   9.679 -0.4425 -0.1140 -0.1972
  666TMC3     H 9859   3.830   1.378   9.892  1.0951 -0.1242  0.9246
  666TMC3    H1 9860   3.789   1.792   9.848  0.1745  0.1981  0.3011
  666TMC3    H2 9861   3.865   1.599  10.238  0.5277 -0.3721 -0.1714
  666TMC3    C7 9862   3.799   1.844  10.111  0.2448 -1.1258 -0.5388
  666TMC3    C8 9863   3.780   1.383  10.135  0.3378 -0.7455 -0.2427
  666TMC3    O1 9864   3.743   1.836  10.218 -0.5531 -0.0123  0.5586
  666TMC3    O2 9865   3.680   1.351  10.072 -0.2998  0.2571  0.3012
  667MPD2     C 9866   4.629   1.407  14.824 -0.1496 -0.2936  0.3016
  667MPD2    C1 9867   4.518   1.463  14.879  0.1907  0.2395  0.3793
  667MPD2    C2 9868   4.393   1.425  14.825 -0.2356 -0.3541 -0.4232
  667MPD2    C3 9869   4.379   1.322  14.733  0.4085  0.8505  0.2778
  667MPD2    C4 9870   4.491   1.254  14.689  0.1159  0.1913 -0.5633
  667MPD2    C5 9871   4.606   1.307  14.730  0.4526  0.0255 -0.0581
  667MPD2     H 9872   4.309   1.480  14.865  0.2447  0.7916 -0.9881
  667MPD2    H1 9873   4.492   1.181  14.609 -0.3005  1.6682 -1.9241
  667MPD2    H2 9874   0.003   1.426  14.859 -0.8956  1.8136  1.2958
  667MPD2    H3 9875   4.696   1.270  14.682  0.5484 -0.3912  0.4333
  667MPD2     N 9876   4.256   1.289  14.670 -0.4348  0.0593 -0.0291
  667MPD2    H5 9877   4.268   1.223  14.594  1.0063 -1.4752  1.5348
  667MPD2    N1 9878   4.520   1.571  14.974  0.2983  0.1199  0.3194
  667MPD2    H7 9879   4.428   1.592  15.010  0.6042  1.2262  0.4770
  668TMC3    C1 9880   4.608   1.753  15.102 -0.1255 -1.0102  0.3863
  668TMC3    C2 9881   4.668   1.872  15.078  0.3891 -0.6416  0.2710
  668TMC3    C3 9882   4.642   1.976  15.162  0.1498  0.7967 -0.0117
  668TMC3    C4 9883   4.516   1.729  15.206  0.4238 -0.0813 -0.0974
  668TMC3    C5 9884   4.498   1.828  15.292  0.1434  0.0203  0.0791
  668TMC3    C6 9885   4.556   1.950  15.265  0.1944  0.1139 -0.5122
  668TMC3     C 9886   4.634   1.652  15.005 -0.0733  0.2305  0.0312
  668TMC3     O 9887   0.012   1.651  14.944 -0.1219  0.0719  0.0035
  668TMC3     H 9888   4.723   1.887  14.986  0.7624  0.3671  0.6594
  668TMC3    H1 9889   4.504   1.622  15.225  2.5347  0.0837  2.1872
  668TMC3    H2 9890   4.536   2.029  15.336 -1.3635 -0.9038  0.1819
  668TMC3    C7 9891   4.390   1.827  15.385 -0.9317 -0.0949 -0.3035
  668TMC3    C8 9892   4.691   2.106  15.146 -0.2193  0.1661 -0.2165
  668TMC3    O1 9893   4.410   1.883  15.492  0.0519  0.2414 -0.2883
  668TMC3    O2 9894   4.645   2.194  15.217  0.5417 -0.1704 -0.3195
  669TMC3    C1 9895   2.539   2.282  14.574 -0.6571  0.8449 -0.0638
  669TMC3    C2 9896   2.431   2.259  14.490 -0.0974 -0.0478  0.2584
  669TMC3    C3 9897   2.452   2.278  14.356  0.0417  0.4878  1.1769
  669TMC3    C4 9898   2.655   2.338  14.528 -0.1426 -0.2603 -0.4560
  669TMC3    C5 9899   2.665   2.346  14.388  0.0406 -0.0251  0.4767
  669TMC3    C6 9900   2.566   2.321  14.298  0.0696 -0.0218  0.0728
  669TMC3     C 9901   2.533   2.195  14.684  0.2937  0.1156  1.1903
  669TMC3     O 9902   2.425   2.177  14.737  0.0721 -0.2468  0.2052
  669TMC3     H 9903   2.339   2.211  14.519  0.3308  0.0334  1.7731
  669TMC3    H1 9904   2.733   2.354  14.602 -1.3708  1.9504  0.3489
  669TMC3    H2 9905   2.590   2.303  14.194 -0.1795  2.1496 -0.3509
  669TMC3    C7 9906   2.781   2.415  14.353  0.1544 -0.6478  0.1745
  669TMC3    C8 9907   2.358   2.231  14.256  0.2609  0.2656  0.2532
  669TMC3    O1 9908   2.879   2.417  14.430 -0.0214 -0.0788  0.0416
  669TMC3    O2 9909   2.415   2.163  14.177 -0.0249 -0.1732  0.0708
  670MPD2     C 9910   1.193   4.314  13.142 -0.2463 -0.4847  0.2219
  670MPD2    C1 9911   1.253   4.382  13.244 -0.5360 -0.1616  0.3319
  670MPD2    C2 9912   1.182   4.401  13.363 -0.5263  1.1192  0.4034
  670MPD2    C3 9913   1.051   4.360  13.382  0.0025 -0.2553  0.0928
  670MPD2    C4 9914   1.000   4.281  13.279  0.1093 -0.4139 -0.1287
  670MPD2    C5 9915   1.079   4.262  13.166  0.0936 -0.5968 -0.0478
  670MPD2     H 9916   1.237   4.442  13.447  0.6549 -0.9835  0.6788
  670MPD2    H1 9917   0.900   4.240  13.282 -0.0633  0.0251  0.1148
  670MPD2    H2 9918   1.228   4.314  13.039 -2.8134  0.3219 -0.6317
  670MPD2    H3 9919   1.049   4.205  13.079  3.0313  0.1833 -1.5674
  670MPD2     N 9920   0.992   4.367  13.512  0.4558  0.2071  0.1722
  670MPD2    H5 9921   1.037   4.431  13.576  1.0728 -1.0573  1.0144
  670MPD2    N1 9922   1.383   4.430  13.240  0.1577 -0.5413  0.0215
  670MPD2    H7 9923   1.429   4.471  13.321 -2.2342  2.7343 -0.2725
  671TMC3    C1 9924   0.843   4.303  13.693  0.2244  0.9959 -0.1494
  671TMC3    C2 9925   0.931   4.354  13.783  0.0429  0.5196  0.0041
  671TMC3    C3 9926   0.887   4.351  13.913 -0.3623 -0.3983 -0.3865
  671TMC3    C4 9927   0.712   4.280  13.724 -0.3906 -0.4003 -0.2256
  671TMC3    C5 9928   0.662   4.292  13.850 -0.1942 -0.6156 -0.4271
  671TMC3    C6 9929   0.756   4.318  13.951  0.0725 -0.7061 -0.2332
  671TMC3     C 9930   0.886   4.291  13.551 -0.2162  0.1108  0.7818
  671TMC3     O 9931   0.812   4.224  13.481 -0.1839  0.2447 -0.1580
  671TMC3     H 9932   1.036   4.330  13.766  0.3504  1.2361  0.8614
  671TMC3    H1 9933   0.654   4.234  13.644 -0.5085  0.6351 -0.7454
  671TMC3    H2 9934   0.740   4.308  14.057  0.1799  1.2721 -0.0305
  671TMC3    C7 9935   0.570   4.182  13.874  0.1953  0.1051 -0.1280
  671TMC3    C8 9936   0.977   4.299  14.007  0.1041  0.1198  0.2594
  671TMC3    O1 9937   0.513   4.126  13.782  0.1433 -0.3287 -0.3504
  671TMC3    O2 9938   0.932   4.207  14.077  0.1646  0.0081  1.0022
  672MPD2     C 9939   0.751   0.496   1.642  0.4030 -0.1053 -0.2125
  672MPD2    C1 9940   0.796   0.509   1.510  0.8631  0.7182  0.6535
  672MPD2    C2 9941   0.926   0.541   1.497 -0.0977  0.6501  0.8357
  672MPD2    C3 9942   1.007   0.578   1.599  0.2726 -0.1504 -0.2898
  672MPD2    C4 9943   0.957   0.551   1.726  0.5028  0.4222 -0.0157
  672MPD2    C5 9944   0.829   0.515   1.758  0.2622 -0.5465  0.1217
  672MPD2     H 9945   0.965   0.538   1.396 -1.5324  0.5228  0.2740
  672MPD2    H1 9946   1.018   0.563   1.815 -1.0390 -0.9166  1.2300
  672MPD2    H2 9947   0.650   0.461   1.660  0.7461 -0.8835  0.1823
  672MPD2    H3 9948   0.793   0.496   1.859  0.3852 -0.9194  0.0974
  672MPD2     N 9949   1.147   0.608   1.583 -1.1859 -1.1943  0.1926
  672MPD2    H5 9950   1.209   0.592   1.662 -0.3972 -1.8910 -0.5627
  672MPD2    N1 9951   0.722   0.471   1.398  0.3237  0.2443  0.0073
  672MPD2    H7 9952   0.770   0.463   1.310  0.6563  2.3513 -0.0065
  673TMC3    C1 9953   0.567   0.353   1.267  0.4098  0.5269  0.2873
  673TMC3    C2 9954   0.513   0.228   1.274 -0.0250 -0.6096  0.9075
  673TMC3    C3 9955   0.452   0.168   1.168 -0.0339 -1.2010 -0.6106
  673TMC3    C4 9956   0.567   0.429   1.154 -0.1819 -0.4828  0.2371
  673TMC3    C5 9957   0.515   0.372   1.044 -0.3967  0.6982 -0.4170
  673TMC3    C6 9958   0.460   0.244   1.052  0.0619 -0.0142 -0.4722
  673TMC3     C 9959   0.606   0.400   1.396 -0.2643 -0.4400  0.2339
  673TMC3     O 9960   0.546   0.353   1.489  0.4121 -0.1979  0.3758
  673TMC3     H 9961   0.510   0.159   1.357  1.2109 -0.6588  0.9174
  673TMC3    H1 9962   0.608   0.529   1.155 -1.1522 -0.0756 -1.0334
  673TMC3    H2 9963   0.406   0.196   0.970  0.1898 -1.3493  0.2170
  673TMC3    C7 9964   0.516   0.423   0.914  0.6879  0.4685  0.1681
  673TMC3    C8 9965   0.503   0.039   1.144  0.6765 -0.3701 -0.0479
  673TMC3    O1 9966   0.427   0.380   0.841  0.2683  0.6703 -0.2438
  673TMC3    O2 9967   0.426   4.669   1.130 -0.4559 -0.2499  0.0055
  674MPD2     C 9968   0.959   0.201   0.449  0.4755  0.5592  0.7798
  674MPD2    C1 9969   0.967   0.061   0.432  0.1869 -0.1533  0.5034
  674MPD2    C2 9970   0.862   4.711   0.473  0.4730 -0.2053  0.0357
  674MPD2    C3 9971   0.763   0.034   0.548  0.1797 -0.7093  0.6238
  674MPD2    C4 9972   0.758   0.168   0.566  0.1733  0.3702  0.5995
  674MPD2    C5 9973   0.849   0.251   0.507 -0.5088  0.0872 -0.1356
  674MPD2     H 9974   0.854   4.606   0.445 -0.0192 -0.6263  1.7152
  674MPD2    H1 9975   0.673   0.217   0.612  0.6537  3.2595 -1.6248
  674MPD2    H2 9976   1.039   0.267   0.419  0.3102  0.3589 -0.0993
  674MPD2    H3 9977   0.841   0.359   0.518  0.7340  0.5227 -3.4271
  674MPD2     N 9978   0.681   4.670   0.607 -0.2497 -1.1547 -0.1643
  674MPD2    H5 9979   0.703   4.576   0.574 -0.1849 -1.7870  1.6482
  674MPD2    N1 9980   1.085   0.009   0.376  0.8921 -0.7106  0.0545
  674MPD2    H7 9981   1.146   0.080   0.338 -0.6781  0.7062  0.2025
  675TMC3    C1 9982   1.252   4.577   0.308  0.8923  0.4502  0.1470
  675TMC3    C2 9983   1.274   4.444   0.284 -0.6223 -0.6617 -0.0562
  675TMC3    C3 9984   1.404   4.412   0.254  0.0893  1.2625 -0.3246
  675TMC3    C4 9985   1.353   4.672   0.313  0.5664 -0.1551  0.0896
  675TMC3    C5 9986   1.477   4.631   0.280 -0.4853 -0.3070  0.0946
  675TMC3    C6 9987   1.506   4.505   0.244  0.7697  0.1067 -0.4047
  675TMC3     C 9988   1.122   4.601   0.364  0.2120  0.4171 -0.4665
  675TMC3     O 9989   1.068   4.509   0.421  0.2576 -0.3890 -0.3541
  675TMC3     H 9990   1.196   4.369   0.279  0.0740 -1.6016  3.3706
  675TMC3    H1 9991   1.332   0.047   0.344  2.0466 -0.1517  1.0709
  675TMC3    H2 9992   1.608   4.468   0.248  1.1807  1.2791 -0.1365
  675TMC3    C7 9993   1.588   0.001   0.287  0.3150 -0.1165 -0.0183
  675TMC3    C8 9994   1.455   4.275   0.249  0.2546  0.4319  0.2038
  675TMC3    O1 9995   1.573   0.112   0.336 -0.0488  0.2587  0.6681
  675TMC3    O2 9996   1.559   4.259   0.186  0.2304 -0.3807 -0.0171
  676MPD2     C 9997   3.973   2.692  11.059  0.1706 -0.5503  0.2342
  676MPD2    C1 9998   3.876   2.632  11.134  0.0028  0.6516  0.4976
  676MPD2    C2 9999   3.859   2.502  11.134 -0.3928 -0.7211 -0.6523
  676MPD2    C310000   3.942   2.425  11.056 -0.2420 -0.3287 -0.5357
  676MPD2    C410001   4.034   2.484  10.970 -0.6690  0.2566  0.2202
  676MPD2    C510002   4.047   2.618  10.976 -1.2377  0.1027  0.5965
  676MPD2     H10003   3.801   2.460  11.215 -2.0410  0.3876 -1.2530
  676MPD2    H110004   4.113   2.436  10.915  0.6896  1.2723  1.2993
  676MPD2    H210005   3.975   2.799  11.042 -0.8714 -0.5842 -0.1137
  676MPD2    H310006   4.113   2.663  10.902 -1.5319  0.2398  0.4203
  676MPD2     N10007   3.951   2.285  11.055 -0.1649 -0.6407  0.6033
  676MPD2    H510008   4.018   2.254  10.986 -1.4894  2.1663 -1.9451
  676MPD2    N110009   3.785   2.703  11.215 -0.0502 -0.2786  0.0128
  676MPD2    H710010   3.711   2.650  11.260  0.2571 -1.7605 -1.2112
  677TMC3    C110011   3.662   2.871  11.326  0.4008  0.3690  0.7447
  677TMC3    C210012   3.548   2.796  11.315 -0.0869  0.4697 -0.3455
  677TMC3    C310013   3.436   2.820  11.394  0.2353  0.4189 -0.5592
  677TMC3    C410014   3.661   2.983  11.401  0.1182  0.5812  0.2321
  677TMC3    C510015   3.549   3.021  11.470 -0.3730  0.1274 -0.2842
  677TMC3    C610016   3.433   2.946  11.462  0.4954 -0.4974  0.4484
  677TMC3     C10017   3.774   2.842  11.239  0.4916 -0.6067 -0.1281
  677TMC3     O10018   3.852   2.925  11.200  0.4508  0.3403  1.0580
  677TMC3     H10019   3.542   2.706  11.255  1.6530  0.7447 -0.9241
  677TMC3    H110020   3.761   3.026  11.405  0.3746  0.1584 -1.7217
  677TMC3    H210021   3.345   2.970  11.521 -0.0077  0.7873 -0.8444
  677TMC3    C710022   3.562   3.099  11.590  0.0632  0.2060  0.6528
  677TMC3    C810023   3.324   2.734  11.392 -0.1706  0.1278 -0.3818
  677TMC3    O110024   3.473   3.086  11.673  0.1533 -0.5090  0.6127
  677TMC3    O210025   3.304   2.680  11.283 -0.8096 -0.2536 -0.1665
  678MPD2     C10026   0.196   2.284   1.734  0.9039  0.5507 -0.3416
  678MPD2    C110027   0.202   2.365   1.620  0.0399 -0.3631 -0.5244
  678MPD2    C210028   0.086   2.386   1.546 -0.7348 -0.5962  0.5297
  678MPD2    C310029   4.686   2.346   1.596  0.5494  0.3809 -1.0251
  678MPD2    C410030   4.681   2.278   1.712  0.1484 -0.7058  0.0291
  678MPD2    C510031   0.068   2.244   1.774 -0.1188  0.5072  1.1973
  678MPD2     H10032   0.080   2.429   1.447 -1.8309  0.8784  1.2417
  678MPD2    H110033   4.586   2.246   1.754 -0.3316  0.3830 -0.2255
  678MPD2    H210034   0.287   2.256   1.785  0.9497  1.2594 -0.0342
  678MPD2    H310035   0.058   2.194   1.869 -0.3740 -0.8180  0.4773
  678MPD2     N10036   4.577   2.383   1.512  0.0902  0.0636  0.1897
  678MPD2    H510037   4.582   2.425   1.420 -1.3259  2.5234  1.2520
  678MPD2    N110038   0.330   2.408   1.584  0.3198  0.1176  0.6033
  678MPD2    H710039   0.410   2.377   1.639  0.3593 -2.1142 -0.7301
  679TMC3    C110040   0.697   2.470   1.415 -0.1308  0.7334 -0.5788
  679TMC3    C210041   0.571   2.439   1.461 -1.2250 -0.3096 -0.7678
  679TMC3    C310042   0.484   2.544   1.478  0.4152  0.2069  0.2118
  679TMC3    C410043   0.718   2.593   1.356  0.0936 -0.3927  0.3880
  679TMC3    C510044   0.628   2.699   1.380  0.3010 -0.0538  0.2131
  679TMC3    C610045   0.510   2.671   1.441  0.0337 -0.6811 -0.1389
  679TMC3     C10046   0.808   2.396   1.450 -0.3879 -0.4637  0.6143
  679TMC3     O10047   0.913   2.412   1.386  0.2176 -0.7494  0.5937
  679TMC3     H10048   0.552   2.334   1.481  1.4811 -0.7220 -0.3700
  679TMC3    H110049   0.814   2.614   1.312  0.1991  2.9597  2.2521
  679TMC3    H210050   0.431   2.746   1.447  0.0689 -0.5468 -1.3285
  679TMC3    C710051   0.641   2.811   1.294  0.1545 -0.0854 -0.2740
  679TMC3    C810052   0.348   2.508   1.497 -0.0325 -0.6342  0.2413
  679TMC3    O110053   0.536   2.858   1.254  0.5166 -0.3121 -0.0624
  679TMC3    O210054   0.266   2.587   1.459 -0.2818  0.3087  0.0889
  680MPD2     C10055   0.781   1.817  13.162  0.7962 -0.1180  0.0030
  680MPD2    C110056   0.774   1.743  13.278  0.2613  0.2052  0.2681
  680MPD2    C210057   0.731   1.805  13.392  0.2201  0.1648  0.2459
  680MPD2    C310058   0.726   1.944  13.399 -0.2610 -0.1899 -1.0169
  680MPD2    C410059   0.728   2.018  13.283 -0.1635 -0.9425  0.0479
  680MPD2    C510060   0.750   1.956  13.166  0.4045  0.7017  0.1151
  680MPD2     H10061   0.737   1.747  13.483  1.5304  0.8297  0.5873
  680MPD2    H110062   0.701   2.122  13.288 -0.0778 -0.8975 -0.4518
  680MPD2    H210063   0.815   1.772  13.069  1.2864  0.4079 -0.0718
  680MPD2    H310064   0.748   2.009  13.071 -0.8530  0.1348 -0.1620
  680MPD2     N10065   0.708   2.021  13.516 -0.0123  0.3350 -0.4480
  680MPD2    H510066   0.691   2.120  13.506 -1.7001  0.0649 -0.3944
  680MPD2    N110067   0.822   1.609  13.300 -1.0311 -0.8626  0.2570
  680MPD2    H710068   0.793   1.565  13.387 -1.6749  1.7796  1.3685
  681TMC3    C110069   0.952   1.420  13.276  0.4560  0.5560  0.0516
  681TMC3    C210070   0.884   1.358  13.377  0.0797  0.2105  0.1089
  681TMC3    C310071   0.944   1.285  13.471  0.8248 -0.4305  0.1671
  681TMC3    C410072   1.091   1.410  13.280 -0.3400 -0.3572  0.1137
  681TMC3    C510073   1.148   1.343  13.386  0.5284 -0.1716 -0.3298
  681TMC3    C610074   1.080   1.288  13.488  0.0434 -0.5188  0.1319
  681TMC3     C10075   0.889   1.536  13.214 -0.4173 -0.9988  0.2955
  681TMC3     O10076   0.919   1.572  13.103  0.0845  0.6508 -0.2097
  681TMC3     H10077   0.776   1.353  13.376  0.2478 -2.7967 -1.4329
  681TMC3    H110078   1.147   1.485  13.225 -0.3277 -1.7811 -1.7801
  681TMC3    H210079   1.116   1.217  13.562  1.7676  3.1916  2.8481
  681TMC3    C710080   1.289   1.294  13.364 -0.4556  0.2149  0.0332
  681TMC3    C810081   0.862   1.241  13.578 -0.3943 -0.3002 -0.9866
  681TMC3    O110082   1.351   1.247  13.458  0.4345  0.3289 -0.2386
  681TMC3    O210083   0.753   1.192  13.552  0.3785 -0.1815 -0.0629
  682MPD2     C10084   3.218   2.842  10.876  0.3016 -0.1125 -0.3076
  682MPD2    C110085   3.155   2.722  10.851  0.2049 -0.0546 -0.2022
  682MPD2    C210086   3.037   2.692  10.913 -0.4473 -0.1966  0.5468
  682MPD2    C310087   2.967   2.782  10.995  0.1661 -0.4399  0.1018
  682MPD2    C410088   3.023   2.908  11.006 -0.3193 -0.2701 -0.3721
  682MPD2    C510089   3.147   2.934  10.943 -0.3054  0.5400 -0.2872
  682MPD2     H10090   3.003   2.590  10.901  0.5568 -0.3314 -1.2237
  682MPD2    H110091   2.966   2.983  11.059 -0.3137 -0.3122 -0.3058
  682MPD2    H210092   3.306   2.877  10.823  0.7599  2.7807  2.3608
  682MPD2    H310093   3.182   3.037  10.936  0.7460  0.2904  1.1983
  682MPD2     N10094   2.839   2.754  11.058  0.2824 -0.0260 -0.3515
  682MPD2    H510095   2.795   2.825  11.114  1.4167  0.3454  0.0747
  682MPD2    N110096   3.206   2.621  10.763  0.6660 -0.5288 -0.3114
  682MPD2    H710097   3.148   2.541  10.741  1.9763 -1.3071 -0.9824
  683TMC3    C110098   2.590   2.604  11.364  0.8668  0.0701 -0.0143
  683TMC3    C210099   2.517   2.492  11.341  0.8391  0.4001 -0.4059
  683TMC3    C310100   2.532   2.433  11.220  0.1220  1.0001 -0.0343
  683TMC3    C410101   2.653   2.670  11.261 -0.2005  0.3893 -0.5304
  683TMC3    C510102   2.650   2.616  11.133  0.6525  0.2120 -0.1852
  683TMC3    C610103   2.592   2.491  11.113  0.3529  1.1625 -0.1901
  683TMC3     C10104   2.627   2.645  11.497  0.0386 -1.2297 -0.4317
  683TMC3     O10105   2.653   2.761  11.519  0.1047 -0.6900 -0.3516
  683TMC3     H10106   2.464   2.444  11.423 -0.1030 -0.0086 -1.2553
  683TMC3    H110107   2.721   2.751  11.286 -1.9425  1.2467  1.4258
  683TMC3    H210108   2.591   2.443  11.016  2.7604  1.9933 -0.6134
  683TMC3    C710109   2.771   2.632  11.051 -0.6343 -0.3185 -0.0214
  683TMC3    C810110   2.445   2.329  11.176  0.6024 -0.5589  0.1527
  683TMC3    O110111   2.805   2.543  10.975 -0.1443 -0.1826  0.0430
  683TMC3    O210112   2.390   2.355  11.069  0.3033  0.0901 -0.4758
  684MPD2     C10113   0.815   2.366  16.082 -0.6031  0.9685 -0.3089
  684MPD2    C110114   0.928   2.320  16.146 -0.0624 -0.0513  0.3751
  684MPD2    C210115   0.975   2.396  16.249  0.2561 -0.0836  0.2216
  684MPD2    C310116   0.906   2.505  16.302 -0.7762 -0.2467 -0.4280
  684MPD2    C410117   0.786   2.538  16.244 -0.5206  0.6575  0.0341
  684MPD2    C510118   0.742   2.466  16.136  0.1369  0.4299 -0.1902
  684MPD2     H10119   1.061   2.361  16.304  0.3318 -0.3776 -0.0857
  684MPD2    H110120   0.732   2.625  16.279 -0.1042  0.8303  0.2351
  684MPD2    H210121   0.774   2.339  15.985  0.1569  2.6290 -1.0944
  684MPD2    H310122   0.654   2.507  16.088 -0.9169 -0.2331  1.1851
  684MPD2     N10123   0.945   2.590  16.414 -0.4031  0.1509 -0.1308
  684MPD2    H510124   0.894   2.678  16.410  1.2734  0.9977 -2.6396
  684MPD2    N110125   1.006   2.212  16.093 -0.0138  0.3036 -0.2454
  684MPD2    H710126   1.099   2.200  16.132  0.8157 -0.2145 -2.3776
  685TMC3    C110127   1.077   2.041  15.956  0.1237 -0.2995  0.1293
  685TMC3    C210128   1.063   1.977  15.837  0.4417  1.3796  0.3345
  685TMC3    C310129   1.099   1.844  15.830 -0.0955  0.2169 -0.4347
  685TMC3    C410130   1.141   1.979  16.059  0.3037 -0.1793 -0.8923
  685TMC3    C510131   1.183   1.846  16.046  0.1444 -0.0760 -0.3285
  685TMC3    C610132   1.164   1.780  15.927  0.5357 -0.0784 -0.0771
  685TMC3     C10133   0.961   2.121  16.001  0.5295 -0.4504  0.1714
  685TMC3     O10134   0.859   2.108  15.935 -0.0989  0.4105  0.3813
  685TMC3     H10135   1.001   2.030  15.766  1.8044  2.3429 -0.1146
  685TMC3    H110136   1.155   2.033  16.152  0.5954 -0.9359 -0.4949
  685TMC3    H210137   1.195   1.676  15.920  1.6655  0.1679  1.1744
  685TMC3    C710138   1.302   1.830  16.116 -0.1470  0.5423  0.1133
  685TMC3    C810139   0.993   1.761  15.776 -0.3462  0.5106  0.0908
  685TMC3    O110140   1.301   1.886  16.224 -0.3633  0.3729  0.2363
  685TMC3    O210141   1.005   1.637  15.765 -0.0028  0.0303 -0.3311
  686MPD2     C10142   2.763   1.959  15.618 -0.0594 -0.4894 -0.4035
  686MPD2    C110143   2.747   1.926  15.751  0.7113  0.0493 -0.0600
  686MPD2    C210144   2.830   1.826  15.807 -0.2585  0.1289 -0.0123
  686MPD2    C310145   2.907   1.745  15.723  0.8652  0.6493  0.3233
  686MPD2    C410146   2.939   1.795  15.596 -0.5109  0.4639  0.3753
  686MPD2    C510147   2.867   1.902  15.551 -0.0134 -0.1878 -0.2096
  686MPD2     H10148   2.832   1.805  15.913  1.1131 -1.1294 -0.2888
  686MPD2    H110149   3.012   1.743  15.534 -0.7160  0.1703  0.3766
  686MPD2    H210150   2.702   2.038  15.574 -0.1347 -0.5708 -0.4459
  686MPD2    H310151   2.904   1.940  15.456 -0.7992 -1.2090 -0.9296
  686MPD2     N10152   2.973   1.623  15.754  0.1279 -0.1156 -0.3165
  686MPD2    H510153   3.052   1.605  15.693 -0.7036  1.0264 -1.7552
  686MPD2    N110154   2.637   1.985  15.818  0.8172 -0.7066 -0.7656
  686MPD2    H710155   2.578   2.048  15.765 -1.7462 -0.6903  2.0751
  687TMC3    C110156   2.853   1.575  15.957  0.5259  0.9054  0.3065
  687TMC3    C210157   2.719   1.573  15.910  0.0676  0.1752 -0.1139
  687TMC3    C310158   2.620   1.589  15.999  0.0893  0.2505 -0.0224
  687TMC3    C410159   2.876   1.579  16.089 -0.2524  0.1197 -0.3214
  687TMC3    C510160   2.768   1.615  16.168 -0.3931 -0.0104  0.1198
  687TMC3    C610161   2.636   1.613  16.126  0.5191 -0.3024 -0.6346
  687TMC3     C10162   2.966   1.548  15.875  0.2624  0.3486 -0.3699
  687TMC3     O10163   3.046   1.459  15.908 -0.1424  0.0297 -0.9446
  687TMC3     H10164   2.691   1.571  15.806  0.2496  1.3086 -0.1810
  687TMC3    H110165   2.974   1.573  16.135 -1.0002 -1.5817  1.0309
  687TMC3    H210166   2.559   1.632  16.200  0.9064  0.0548 -0.3256
  687TMC3    C710167   2.796   1.662  16.306  0.2022 -0.1474  0.7212
  687TMC3    C810168   2.487   1.620  15.957 -0.1826  0.0752  0.1844
  687TMC3    O110169   2.710   1.730  16.359 -0.0540  0.0056  0.4474
  687TMC3    O210170   2.402   1.617  16.046 -0.0630 -0.3258  0.0259
  688MPD2     C10171   1.760   1.252  17.197 -0.1978 -0.0710  0.6173
  688MPD2    C110172   1.809   1.137  17.260 -0.1788 -1.0249 -0.5433
  688MPD2    C210173   1.915   1.074  17.197  0.0472  0.0824 -0.0718
  688MPD2    C310174   1.983   1.126  17.088 -0.2856  0.7948  0.3294
  688MPD2    C410175   1.931   1.241  17.030  0.4996  0.1616 -0.9220
  688MPD2    C510176   1.821   1.303  17.085  0.3778  0.2484 -0.2983
  688MPD2     H10177   1.956   0.983  17.240  1.6342  0.3566 -1.0223
  688MPD2    H110178   1.975   1.292  16.945 -1.9087  1.0346 -1.6410
  688MPD2    H210179   1.674   1.305  17.238  0.3729  1.2422  0.1321
  688MPD2    H310180   1.791   1.397  17.041  0.8236  0.5414  0.0304
  688MPD2     N10181   2.084   1.054  17.012 -0.5607  0.0957 -0.1642
  688MPD2    H510182   2.099   1.081  16.915  2.2641 -2.1611 -0.3423
  688MPD2    N110183   1.764   1.081  17.384 -0.2505 -0.1635  0.7489
  688MPD2    H710184   1.806   0.991  17.404 -1.8830 -1.1274 -0.1434
  689TMC3    C110185   1.659   1.098  17.606  0.1205 -0.1956  0.0099
  689TMC3    C210186   1.660   1.195  17.701 -0.9886 -0.0929  0.9613
  689TMC3    C310187   1.647   1.151   0.122  0.1465 -0.4105  0.6329
  689TMC3    C410188   1.646   0.964  17.634  0.2346 -0.8326  0.0617
  689TMC3    C510189   1.641   0.928   0.054 -0.1001 -0.3993  0.7330
  689TMC3    C610190   1.640   1.019   0.158 -0.3419  0.4753 -0.7353
  689TMC3     C10191   1.680   1.148  17.469 -0.1190  0.8699 -0.3018
  689TMC3     O10192   1.620   1.254  17.449  0.1507 -0.5788 -0.0946
  689TMC3     H10193   1.675   1.298  17.670  0.8435  0.2652  3.1043
  689TMC3    H110194   1.649   0.886  17.559 -1.4907  0.1556 -1.0476
  689TMC3    H210195   1.638   0.987   0.261  0.5272 -0.2594 -0.9418
  689TMC3    C710196   1.618   0.788   0.093  0.0414  0.5234  0.0953
  689TMC3    C810197   1.619   1.251   0.225 -0.0176  0.3015 -0.0158
  689TMC3    O110198   1.640   0.763   0.211  0.6002  0.0790 -0.1167
  689TMC3    O210199   1.567   1.212   0.329 -0.2439  0.1627  0.2509
  690MPD2     C10200   3.501   3.358  15.609  0.0394 -0.2208  0.3900
  690MPD2    C110201   3.435   3.337  15.492  0.4228  0.5474  0.3689
  690MPD2    C210202   3.491   3.361  15.369 -0.1057  0.2339 -0.7709
  690MPD2    C310203   3.623   3.389  15.356  0.3235 -0.0282 -0.4616
  690MPD2    C410204   3.692   3.418  15.473 -0.4112  0.1211  0.4059
  690MPD2    C510205   3.629   3.395  15.594  0.9001 -0.7030  0.4659
  690MPD2     H10206   3.426   3.366  15.282 -0.5526  1.1134 -0.3815
  690MPD2    H110207   3.798   3.443  15.478 -0.8232  1.9535 -0.0443
  690MPD2    H210208   3.460   3.357  15.710 -1.3955  0.5967 -0.1832
  690MPD2    H310209   3.676   3.423  15.688 -0.0154 -3.5629  1.7720
  690MPD2     N10210   3.678   3.402  15.227  0.3107  0.3450  0.8811
  690MPD2    H510211   3.615   3.394  15.147  0.0292 -1.6740  1.2991
  690MPD2    N110212   3.300   3.296  15.483  0.2903  0.3375 -0.2019
  690MPD2    H710213   3.256   3.279  15.393 -0.0136 -0.1441  0.0322
  691TMC3    C110214   3.110   3.210  15.580  0.1423  0.0774 -0.0619
  691TMC3    C210215   3.023   3.207  15.685  0.5489 -0.4327  0.2882
  691TMC3    C310216   2.930   3.100  15.699  0.0241  0.3692  0.5568
  691TMC3    C410217   3.120   3.103  15.491 -0.0292 -0.0709  0.0279
  691TMC3    C510218   3.028   3.002  15.503  0.3539 -0.0168 -0.0271
  691TMC3    C610219   2.929   2.999  15.603 -0.5772  0.2058  0.2739
  691TMC3     C10220   3.211   3.303  15.588  0.2938  0.6902 -0.0434
  691TMC3     O10221   3.222   3.362  15.693  0.0068 -0.0378 -0.9785
  691TMC3     H10222   3.025   3.289  15.755 -4.6340 -0.8971  0.9880
  691TMC3    H110223   3.200   3.089  15.419  0.7460  0.5436  0.7808
  691TMC3    H210224   2.877   2.906  15.621  0.6460 -0.2681  1.3998
  691TMC3    C710225   3.098   2.878  15.479 -0.2754  0.1762  0.0182
  691TMC3    C810226   2.908   3.052  15.837 -0.7550 -0.3281  0.1635
  691TMC3    O110227   3.166   2.862  15.380 -0.6314  0.1586  0.3302
  691TMC3    O210228   2.943   2.936  15.852  0.6310 -0.2695 -0.6072
  692TMC3    C110229   0.776   3.868  16.219  0.1311 -0.0596 -0.2331
  692TMC3    C210230   0.875   3.965  16.201  0.1468 -0.0479  0.2244
  692TMC3    C310231   1.010   3.926  16.227  0.4645 -0.0790 -0.6103
  692TMC3    C410232   0.809   3.734  16.245  0.1892  0.5736 -0.5072
  692TMC3    C510233   0.934   3.700  16.271  0.1194 -1.3966  0.4672
  692TMC3    C610234   1.027   3.796  16.265 -0.4283 -0.1915 -0.0364
  692TMC3     C10235   0.655   3.918  16.281  0.4341 -0.2621 -0.1012
  692TMC3     O10236   0.611   3.856  16.375 -0.3255  0.2123 -0.7143
  692TMC3     H10237   0.858   4.054  16.142  1.0693  0.9056  1.3991
  692TMC3    H110238   0.733   3.662  16.275  1.1590 -0.9198 -1.6039
  692TMC3    H210239   1.129   3.761  16.257 -0.2294  0.0679  1.3670
  692TMC3    C710240   0.985   3.574  16.220 -0.3703  0.5200  0.0867
  692TMC3    C810241   1.087   4.018  16.312  0.0034  0.1075  0.2383
  692TMC3    O110242   0.984   3.566  16.096  0.3379  0.3757 -0.3505
  692TMC3    O210243   1.185   3.965  16.362  0.9239 -0.1181 -1.0241
  693MPD2     C10244   0.042   1.715  10.534 -0.1390 -0.0951  1.0772
  693MPD2    C110245   0.075   1.658  10.654 -0.5405  0.0691 -0.4486
  693MPD2    C210246   0.196   1.690  10.715 -0.5369  0.5277  0.2586
  693MPD2    C310247   0.270   1.799  10.690  0.1943  0.0530  0.3646
  693MPD2    C410248   0.235   1.872  10.580 -0.0980  0.5359  0.4013
  693MPD2    C510249   0.129   1.822  10.500  0.1551 -0.0972  0.1149
  693MPD2     H10250   0.218   1.623  10.797 -2.4120  0.7788  0.9638
  693MPD2    H110251   0.288   1.960  10.545  0.8652 -0.1775  0.0491
  693MPD2    H210252   4.683   1.704  10.469  1.4985 -1.5808 -0.8033
  693MPD2    H310253   0.104   1.885  10.415  1.4468  1.1459  0.6481
  693MPD2     N10254   0.378   1.825  10.780  0.2947  0.9892  0.1745
  693MPD2    H510255   0.383   1.766  10.862 -1.1872  0.0225 -0.4304
  693MPD2    N110256   0.005   1.546  10.710 -0.0476 -0.3947  0.4605
  693MPD2    H710257   0.030   1.519  10.805 -1.0919 -2.5087  0.1218
  694TMC3    C110258   4.539   1.403  10.733 -0.1754 -0.2886  0.9159
  694TMC3    C210259   4.436   1.330  10.685 -0.0949  0.4220  0.4515
  694TMC3    C310260   4.370   1.243  10.765 -1.3590 -0.4552  0.6570
  694TMC3    C410261   4.575   1.391  10.871 -0.2626 -0.1113  0.5244
  694TMC3    C510262   4.506   1.304  10.951 -0.7744 -0.2930 -0.0737
  694TMC3    C610263   4.400   1.232  10.902  0.7496 -1.1781 -0.3405
  694TMC3     C10264   4.621   1.497  10.650 -0.7413 -0.3152 -1.0098
  694TMC3     O10265   4.580   1.514  10.537 -0.1407 -0.0123  0.0618
  694TMC3     H10266   4.396   1.350  10.585  3.1909 -1.3683 -1.1920
  694TMC3    H110267   4.652   1.451  10.917  2.4932 -2.4782 -0.9732
  694TMC3    H210268   4.335   1.173  10.966 -0.0096 -0.5952 -0.5654
  694TMC3    C710269   4.551   1.293  11.090 -0.7938 -0.0895 -0.0210
  694TMC3    C810270   4.298   1.142  10.695  0.4180 -0.1584  0.0513
  694TMC3    O110271   4.647   1.356  11.131  0.0693  0.4588 -0.1163
  694TMC3    O210272   4.209   1.087  10.748 -0.2084 -0.0018  0.0916
  695MPD2     C10273   1.087   3.248  13.830 -0.5547  0.6415  0.6527
  695MPD2    C110274   1.032   3.346  13.907 -0.5258  0.2850  0.2912
  695MPD2    C210275   0.896   3.372  13.889 -0.6842  0.5397  0.8489
  695MPD2    C310276   0.829   3.314  13.784 -0.2422 -0.0031  0.9411
  695MPD2    C410277   0.893   3.221  13.702  0.0343 -0.3467  0.4784
  695MPD2    C510278   1.021   3.182  13.728 -1.3161  0.4477 -0.0171
  695MPD2     H10279   0.830   3.443  13.937 -0.6143 -0.2352  2.0724
  695MPD2    H110280   0.855   3.175  13.612 -0.5797 -0.3275  0.7253
  695MPD2    H210281   1.193   3.229  13.847 -0.2349  2.1892  0.3913
  695MPD2    H310282   1.076   3.115  13.663  1.1394  1.3350  1.1538
  695MPD2     N10283   0.694   3.354  13.771  0.2626 -0.2253 -0.5239
  695MPD2    H510284   0.665   3.427  13.836  1.9537  0.5929 -0.6638
  695MPD2    N110285   1.092   3.421  14.007  0.4704 -0.1251 -1.1236
  695MPD2    H710286   1.046   3.499  14.051 -0.8726 -0.8189 -1.3216
  696TMC3    C110287   0.473   3.388  13.684  0.2507  0.1402 -0.4754
  696TMC3    C210288   0.450   3.465  13.795  0.0769 -0.4649 -0.3250
  696TMC3    C310289   0.343   3.555  13.797  0.6969  0.1631 -0.3450
  696TMC3    C410290   0.411   3.409  13.570 -0.3232 -0.7160 -0.0116
  696TMC3    C510291   0.303   3.499  13.573 -0.1765 -0.2154 -0.2953
  696TMC3    C610292   0.261   3.558  13.687  1.3695 -0.8556  0.3512
  696TMC3     C10293   0.606   3.318  13.673 -0.1034 -0.3028 -0.0044
  696TMC3     O10294   0.628   3.255  13.571  0.1278  0.5499  0.0715
  696TMC3     H10295   0.506   3.457  13.887 -1.2353  1.2883  0.6320
  696TMC3    H110296   0.441   3.360  13.478  1.1332 -0.2793  0.2307
  696TMC3    H210297   0.178   3.625  13.706  3.5143  1.4688  1.5043
  696TMC3    C710298   0.300   3.590  13.454  0.5864 -0.0213 -0.0724
  696TMC3    C810299   0.355   3.686  13.853  0.2318  0.7087  0.2084
  696TMC3    O110300   0.322   3.536  13.350 -0.2755  0.5297 -0.1439
  696TMC3    O210301   0.336   3.776  13.770 -0.1310  0.6675 -0.1258
  697MPD2     C10302   0.570   1.033  15.789 -0.5206  0.2631 -0.1463
  697MPD2    C110303   0.611   0.940  15.688  0.2724  0.0990 -0.4955
  697MPD2    C210304   0.716   0.979  15.612 -0.1897  0.7037 -0.4328
  697MPD2    C310305   0.777   1.103  15.621 -0.0965  0.2620 -0.0516
  697MPD2    C410306   0.735   1.192  15.714 -0.0788  0.2187  0.2815
  697MPD2    C510307   0.633   1.158  15.799 -0.8549  0.3892 -0.5029
  697MPD2     H10308   0.754   0.906  15.541 -0.7045 -0.6390  0.6824
  697MPD2    H110309   0.785   1.288  15.726 -0.6178  0.7231 -1.5475
  697MPD2    H210310   0.494   1.008  15.863 -2.0633 -0.1012 -1.8667
  697MPD2    H310311   0.614   1.223  15.884 -0.9272  0.6526 -0.7212
  697MPD2     N10312   0.901   1.106  15.550 -0.1306  0.3038  0.7415
  697MPD2    H510313   0.924   1.031  15.485 -2.0852  1.0879 -0.8664
  697MPD2    N110314   0.558   0.812  15.689  0.3479 -0.1339 -0.1308
  697MPD2    H710315   0.518   0.786  15.779 -0.0851 -0.5831 -0.4481
  698TMC3    C110316   1.107   1.219  15.480  0.2382  0.2707 -0.8191
  698TMC3    C210317   1.135   1.349  15.448 -0.3509 -0.7603 -0.4045
  698TMC3    C310318   1.197   1.383  15.330  0.0651  0.6886  0.1579
  698TMC3    C410319   1.139   1.118  15.393  0.4300 -0.0470 -0.4710
  698TMC3    C510320   1.188   1.148  15.273 -0.0797 -1.5523 -0.5083
  698TMC3    C610321   1.212   1.277  15.242 -0.3206  0.4917 -0.4347
  698TMC3     C10322   0.999   1.201  15.578  0.7006  0.3448 -0.7350
  698TMC3     O10323   0.991   1.285  15.665  0.2281  0.5574  0.1603
  698TMC3     H10324   1.105   1.432  15.511 -3.7139 -1.0138 -1.6707
  698TMC3    H110325   1.124   1.015  15.425 -1.0035  0.1638 -0.4588
  698TMC3    H210326   1.260   1.304  15.148  2.2743 -1.9520  0.1767
  698TMC3    C710327   1.196   1.037  15.184 -0.2342 -0.0330 -0.0736
  698TMC3    C810328   1.123   1.490  15.267 -0.5675 -0.0166 -0.4968
  698TMC3    O110329   1.248   0.936  15.227 -0.6015 -0.3230 -0.4889
  698TMC3    O210330   1.017   1.528  15.318 -0.3736 -0.2275  0.0477
  699TMC3    C110331   0.804   3.359  12.876  0.1970 -0.1009  0.8191
  699TMC3    C210332   0.895   3.302  12.963  0.2885 -0.6034 -0.6628
  699TMC3    C310333   0.862   3.185  13.029 -0.1485  0.3267 -0.5747
  699TMC3    C410334   0.692   3.283  12.848 -0.5673  0.5211 -0.1126
  699TMC3    C510335   0.662   3.160  12.908 -0.0810  0.7885  0.1849
  699TMC3    C610336   0.755   3.108  12.994  0.3651  0.5769 -0.2984
  699TMC3     C10337   0.803   3.493  12.834  0.4368  0.0107 -0.3906
  699TMC3     O10338   0.720   3.534  12.758 -0.4080 -0.1710  0.3427
  699TMC3     H10339   0.983   3.354  12.999 -0.9069  1.0385 -0.0895
  699TMC3    H110340   0.626   3.320  12.769 -0.3176 -0.9082 -0.9978
  699TMC3    H210341   0.739   3.017  13.052 -2.6334 -0.8414 -3.3571
  699TMC3    C710342   0.527   3.123  12.916 -0.5315  0.7588  0.7333
  699TMC3    C810343   0.956   3.135  13.121  0.2194  0.5018  0.1215
  699TMC3    O110344   0.445   3.206  12.879  0.2407 -0.1910  0.2715
  699TMC3    O210345   1.074   3.166  13.094 -0.5531 -0.3683  0.0015
  700TMC3    C110346   4.597   0.994  17.224 -0.0991 -0.0815  0.0137
  700TMC3    C210347   4.726   0.955  17.204 -0.2280  0.1981 -0.2720
  700TMC3    C310348   0.093   0.965  17.304 -0.0132 -0.3191 -0.1331
  700TMC3    C410349   4.563   1.039  17.349 -0.0779 -0.0060  0.2225
  700TMC3    C510350   4.658   1.069  17.442  0.3980  0.0524 -0.3275
  700TMC3    C610351   0.056   1.017  17.430 -0.3800  0.0264  0.0664
  700TMC3     C10352   4.532   1.065  17.118  0.3575  0.3601 -0.2068
  700TMC3     O10353   4.410   1.078  17.133 -0.8274 -0.6607 -0.3171
  700TMC3     H10354   0.028   0.934  17.102  3.5385  2.4537  0.2962
  700TMC3    H110355   4.458   1.063  17.365 -0.3694 -1.1670  0.0516
  700TMC3    H210356   0.136   1.039  17.500 -0.4662  1.4412 -0.2799
  700TMC3    C710357   4.659   1.210  17.474 -0.0482 -0.1656 -0.3881
  700TMC3    C810358   0.228   0.940  17.263 -0.5296  0.1815 -0.6818
  700TMC3    O110359   0.043   1.258  17.501 -0.1763 -0.0308 -0.0088
  700TMC3    O210360   0.244   0.896  17.149 -0.3194 -0.2694  0.4860
  701TMC3    C110361   4.677   4.560  15.494 -0.0093  0.6497 -1.0651
  701TMC3    C210362   4.602   4.569  15.388 -1.0387  0.1756 -0.3768
  701TMC3    C310363   4.664   4.648  15.289  0.8204  1.1454 -0.2552
  701TMC3    C410364   0.068   4.623  15.528  0.1822  0.1262  0.1297
  701TMC3    C510365   0.114   4.709  15.434 -0.4020 -0.4993 -0.7196
  701TMC3    C610366   0.051   4.714  15.312  0.9641 -0.3844  0.3955
  701TMC3     C10367   4.629   4.466  15.599 -0.0735  0.1510  0.4876
  701TMC3     O10368   4.685   4.467  15.708 -0.1675  0.5531  0.0827
  701TMC3     H10369   4.496   4.546  15.392 -0.9187 -0.3881 -0.3414
  701TMC3    H110370   0.118   4.605  15.623  0.1110 -0.7917 -0.0039
  701TMC3    H210371   0.096   0.045  15.233 -0.4816  0.4283  0.1772
  701TMC3    C710372   0.200   0.098  15.468  0.2402 -0.2506  0.0656
  701TMC3    C810373   4.595   4.683  15.161  0.2113  0.5108 -0.0516
  701TMC3    O110374   0.250   0.159  15.373  0.4954  0.4273 -0.4950
  701TMC3    O210375   4.666   0.008  15.071 -0.1421 -0.6364  0.2162
  702MPD2     C10376   4.504   1.887  10.966  0.2457 -0.5329  0.4928
  702MPD2    C110377   4.420   1.980  10.911  0.3641 -1.2013  0.0302
  702MPD2    C210378   4.468   2.062  10.815  0.3335  0.5939 -0.3986
  702MPD2    C310379   4.597   2.062  10.770 -0.6718  0.3099  0.1636
  702MPD2    C410380   4.689   1.981  10.836  0.0383 -0.6633 -0.3489
  702MPD2    C510381   4.638   1.888  10.925  0.4549  0.8471 -0.6470
  702MPD2     H10382   4.396   2.123  10.762 -0.3934  0.4503  0.4134
  702MPD2    H110383   0.063   1.965  10.801  0.4239 -1.5332  1.1689
  702MPD2    H210384   4.475   1.810  11.037 -0.0195 -0.4690  0.4555
  702MPD2    H310385   4.717   1.827  10.968  0.4426  0.7045 -0.8229
  702MPD2     N10386   4.624   2.152  10.671 -0.6923 -0.2374  0.1294
  702MPD2    H510387   4.545   2.210  10.643 -0.2026  0.7308  0.7847
  702MPD2    N110388   4.284   1.994  10.943  0.0656 -0.3532 -0.0913
  702MPD2    H710389   4.229   2.075  10.917  0.1150 -0.2819  0.0287
  703TMC3    C110390   4.722   2.267  10.492 -1.0543 -0.2789  0.6683
  703TMC3    C210391   4.610   2.261  10.418 -0.1580  0.4099  0.5318
  703TMC3    C310392   4.595   2.353  10.317 -0.0875  0.5338 -0.5206
  703TMC3    C410393   0.106   2.332  10.449 -0.0755 -0.1500 -0.8889
  703TMC3    C510394   0.093   2.411  10.341 -0.1714  0.2033 -0.5906
  703TMC3    C610395   4.704   2.422  10.269  0.5327  0.2660  0.1170
  703TMC3     C10396   0.016   2.180  10.616 -0.1419 -0.5982  0.2752
  703TMC3     O10397   0.129   2.134  10.634  0.1299 -0.1363  0.0366
  703TMC3     H10398   4.530   2.197  10.455 -0.3056  0.8975  1.0470
  703TMC3    H110399   0.186   2.346  10.520 -0.5057  2.8648 -1.0237
  703TMC3    H210400   4.704   2.474  10.174 -1.9610  0.4402  0.2036
  703TMC3    C710401   0.189   2.514  10.318 -0.0715  0.9938  0.0279
  703TMC3    C810402   4.481   2.436  10.352  0.4795 -0.3343  0.1703
  703TMC3    O110403   0.147   2.620  10.278  0.2255  0.4214  0.1313
  703TMC3    O210404   4.379   2.385  10.392  0.2604  0.3344  0.2540
  704TMC3    C110405   1.487   0.491  12.586  0.2054  0.1049 -0.1902
  704TMC3    C210406   1.599   0.509  12.514  0.2441 -0.4264 -0.4178
  704TMC3    C310407   1.714   0.544  12.580  0.2915  0.1397  0.2740
  704TMC3    C410408   1.488   0.509  12.723 -0.0283  0.0606 -0.2855
  704TMC3    C510409   1.605   0.517  12.789 -0.1384 -0.2457  0.8229
  704TMC3    C610410   1.722   0.547  12.722 -0.5032 -0.5537  0.3488
  704TMC3     C10411   1.402   0.381  12.545  0.5094  0.4702  0.7778
  704TMC3     O10412   1.308   0.345  12.617  0.5675  0.3926  0.0585
  704TMC3     H10413   1.599   0.555  12.416  0.1029  0.1505 -0.1523
  704TMC3    H110414   1.400   0.472  12.776  1.4584 -1.1581  1.3112
  704TMC3    H210415   1.812   0.557  12.782 -0.5348  1.5153  0.0595
  704TMC3    C710416   1.632   0.398  12.866 -0.5222  0.1275 -1.2557
  704TMC3    C810417   1.835   0.541  12.501  0.2152 -0.3225  0.6072
  704TMC3    O110418   1.731   0.330  12.832 -0.3575 -0.0438 -0.5749
  704TMC3    O210419   1.823   0.499  12.387  0.0408 -0.2941  0.2855
  705MPD2     C10420   1.355   3.319  16.603 -0.2506  0.5071 -0.4561
  705MPD2    C110421   1.340   3.453  16.575 -0.2685  0.3959  0.4601
  705MPD2    C210422   1.281   3.531  16.673  0.2146 -0.7039  0.1282
  705MPD2    C310423   1.229   3.469  16.782 -0.2623 -0.5525  0.3006
  705MPD2    C410424   1.233   3.333  16.806 -0.0201  0.5570 -0.2753
  705MPD2    C510425   1.315   3.262  16.722  0.2990 -0.4822 -0.2031
  705MPD2     H10426   1.259   3.634  16.648 -2.3784 -0.8176  1.9719
  705MPD2    H110427   1.179   3.289  16.889  0.9486  0.0962  0.1176
  705MPD2    H210428   1.388   3.252  16.524  0.4977  1.6481 -1.1169
  705MPD2    H310429   1.316   3.155  16.734  0.2321 -0.1013  3.1425
  705MPD2     N10430   1.133   3.534  16.864  0.0657 -0.2636 -0.0727
  705MPD2    H510431   1.087   3.478  16.934 -1.7662 -1.1568 -1.9813
  705MPD2    N110432   1.368   3.516  16.454 -0.2214 -0.1235 -0.3112
  705MPD2    H710433   1.351   3.616  16.450  0.9271 -0.0337 -3.7992
  706TMC3    C110434   1.436   3.560  15.992 -0.3297 -0.4388 -0.6580
  706TMC3    C210435   1.423   3.698  15.993  0.1845  0.8539  0.8368
  706TMC3    C310436   1.429   3.752  16.122  0.3090 -0.6130  0.5064
  706TMC3    C410437   1.466   3.488  16.106 -0.1181  0.2628 -0.0966
  706TMC3    C510438   1.450   3.544  16.221 -0.6457 -0.0579 -0.0567
  706TMC3    C610439   1.432   3.674  16.238 -0.1927  0.4173 -0.7559
  706TMC3     C10440   1.358   3.501  15.884 -0.3519 -0.3091 -0.0757
  706TMC3     O10441   1.293   3.586  15.820 -0.4059  0.3506  0.0847
  706TMC3     H10442   1.420   3.767  15.909 -1.6516 -0.1469  0.0942
  706TMC3    H110443   1.476   3.381  16.099 -0.2795  0.4165 -2.7161
  706TMC3    H210444   1.426   3.715  16.338  0.7014 -1.4947  0.0816
  706TMC3    C710445   1.417   3.458  16.338 -0.6154  0.5378  0.6602
  706TMC3    C810446   1.451   3.894  16.129 -0.0276  0.4566 -0.6979
  706TMC3    O110447   1.472   3.348  16.327  0.3192  0.2205 -0.4631
  706TMC3    O210448   1.427   3.966  16.033  0.0255 -0.1441  0.2772
  707TMC3    C110449   2.726   2.581   1.617 -0.0484  0.5847 -0.0874
  707TMC3    C210450   2.724   2.450   1.662  0.3930 -0.3839 -0.8450
  707TMC3    C310451   2.604   2.381   1.654 -0.2012  0.1896 -0.6376
  707TMC3    C410452   2.608   2.642   1.594 -0.1383  0.5608  0.3993
  707TMC3    C510453   2.486   2.578   1.618  0.1328 -0.5630  0.1069
  707TMC3    C610454   2.481   2.444   1.649  0.2717  0.5370  0.1414
  707TMC3     C10455   2.854   2.636   1.567  0.3899  0.7462 -0.1553
  707TMC3     O10456   2.958   2.587   1.607 -0.3560 -0.5900 -0.3819
  707TMC3     H10457   2.815   2.403   1.697  1.6785  1.2121 -2.0551
  707TMC3    H110458   2.616   2.748   1.571 -2.7184  0.9978  1.4822
  707TMC3    H210459   2.388   2.388   1.643  1.0505 -0.7767  0.2104
  707TMC3    C710460   2.373   2.656   1.583  0.0697 -0.1310  0.1039
  707TMC3    C810461   2.600   2.236   1.669  0.3175  0.0482  0.1416
  707TMC3    O110462   2.396   2.749   1.511  0.1878 -0.3427 -0.1736
  707TMC3    O210463   2.489   2.186   1.694 -0.1559 -0.2164  0.0917
  708MPD2     C10464   4.337   1.995  14.035 -0.1680  0.4061  0.7825
  708MPD2    C110465   4.233   1.979  14.117  0.9378  0.0086  0.0666
  708MPD2    C210466   4.258   1.899  14.233  0.0204 -0.2626 -0.4144
  708MPD2    C310467   4.383   1.853  14.258  0.1822 -0.6915 -0.4262
  708MPD2    C410468   4.490   1.888  14.180  0.0925 -0.2379 -0.6507
  708MPD2    C510469   4.468   1.958  14.068 -1.1148 -0.0922  0.0824
  708MPD2     H10470   4.181   1.883  14.308 -0.5701  2.4999 -0.4175
  708MPD2    H110471   4.587   1.845  14.200 -0.1933 -0.5984 -0.0333
  708MPD2    H210472   4.325   2.053  13.944  1.1368  0.1810  0.4656
  708MPD2    H310473   4.557   1.995  14.016 -0.9412  0.0437  0.4740
  708MPD2     N10474   4.390   1.766  14.372 -0.1494  0.0160 -0.3748
  708MPD2    H510475   4.304   1.752  14.424  0.1570 -0.6387 -0.0488
  708MPD2    N110476   4.112   2.036  14.085 -0.0963 -0.8372  0.1632
  708MPD2    H710477   4.112   2.091  14.000 -0.7472  0.7601  1.1908
  709TMC3    C110478   3.879   2.090  14.099 -0.3354 -0.5684 -0.2264
  709TMC3    C210479   3.844   2.038  13.977  0.2975 -0.1902 -0.9159
  709TMC3    C310480   3.719   1.991  13.972 -0.3010  0.3086 -0.3737
  709TMC3    C410481   3.788   2.124  14.196 -0.2578 -0.5289 -0.7109
  709TMC3    C510482   3.666   2.072  14.192  0.1161  0.4130 -0.2049
  709TMC3    C610483   3.633   2.009  14.078  0.2672 -0.1348  0.1499
  709TMC3     C10484   3.998   2.038  14.163 -0.1897  0.1770 -0.5211
  709TMC3     O10485   3.988   2.003  14.278  0.0072 -0.0362 -0.6164
  709TMC3     H10486   3.925   2.009  13.910 -1.4864 -0.8635 -2.7718
  709TMC3    H110487   3.825   2.173  14.286 -0.9501  1.5037 -1.5485
  709TMC3    H210488   3.539   1.955  14.079 -0.1261  0.5283 -1.0527
  709TMC3    C710489   3.626   1.988  14.297  0.3957 -0.2529 -0.0852
  709TMC3    C810490   3.670   1.931  13.850 -0.6191  0.2474  0.2071
  709TMC3    O110491   3.508   1.955  14.304 -0.0975 -0.8427  0.5494
  709TMC3    O210492   3.571   1.868  13.864 -0.1017 -0.0013 -0.2541
  710TMC3    C110493   0.386   3.329   0.634  0.5138  0.0144 -0.2703
  710TMC3    C210494   0.467   3.335   0.522  0.3367  0.7062  0.3226
  710TMC3    C310495   0.577   3.253   0.522 -0.0234 -0.0863 -0.6860
  710TMC3    C410496   0.412   3.260   0.748  0.1237 -0.2445 -0.2587
  710TMC3    C510497   0.541   3.197   0.746  0.3786 -0.1525  0.2060
  710TMC3    C610498   0.620   3.197   0.633 -0.1458 -0.0931 -1.0049
  710TMC3     C10499   0.264   3.404   0.624 -0.0655 -0.3644  1.0448
  710TMC3     O10500   0.215   3.429   0.518 -0.0032  0.4290  0.1889
  710TMC3     H10501   0.430   3.397   0.441 -0.2619 -0.7750 -0.5455
  710TMC3    H110502   0.345   3.245   0.831 -0.7066  1.0926 -0.6861
  710TMC3    H210503   0.716   3.147   0.642  0.4567  1.2990  0.1739
  710TMC3    C710504   0.577   3.119   0.868  0.0988  0.3804  0.4237
  710TMC3    C810505   0.665   3.246   0.409  0.0972 -0.2542  0.1467
  710TMC3    O110506   0.486   3.080   0.943  0.1203  0.3665 -0.4711
  710TMC3    O210507   0.759   3.169   0.413  0.0730 -0.3548  0.2110
  711TMC3    C110508   0.386   4.606  15.093  0.1191  0.3254 -0.3997
  711TMC3    C210509   0.395   4.650  15.218 -0.6074 -0.4768 -0.1344
  711TMC3    C310510   0.517   4.667  15.276  0.0782  0.0664 -0.5242
  711TMC3    C410511   0.491   4.603  15.004 -0.3671 -0.6521 -0.4062
  711TMC3    C510512   0.612   4.621  15.067  0.4363 -0.8320 -0.4599
  711TMC3    C610513   0.631   4.646  15.200 -0.3015 -0.1299  0.2226
  711TMC3     C10514   0.269   4.529  15.056 -0.1599  0.2428 -0.2279
  711TMC3     O10515   0.250   4.500  14.941  0.5931 -0.7898 -0.3828
  711TMC3     H10516   0.305   4.672  15.274  0.0380 -0.8229  1.0322
  711TMC3    H110517   0.476   4.573  14.901  1.2062  1.6008 -1.2890
  711TMC3    H210518   0.727   4.633  15.249  0.4792  2.0963 -0.7305
  711TMC3    C710519   0.725   4.543  15.017 -0.2982  0.4232  0.1806
  711TMC3    C810520   0.513   4.602  15.402 -0.5639 -0.1974  0.4250
  711TMC3    O110521   0.840   4.557  15.060 -0.6835  0.1861 -0.2545
  711TMC3    O210522   0.410   4.535  15.419 -0.0067 -0.2538 -0.5689
  712MPD2     C10523   2.152   0.895  13.923  0.3476  0.1449  0.1700
  712MPD2    C110524   2.092   0.851  13.809 -0.1478  0.3175  0.4073
  712MPD2    C210525   2.106   0.925  13.691  0.5441 -0.7990 -0.0544
  712MPD2    C310526   2.168   1.045  13.696  0.3553 -0.6885  0.5392
  712MPD2    C410527   2.233   1.084  13.808 -0.6716 -0.2506  0.7545
  712MPD2    C510528   2.226   1.006  13.921 -0.0036  0.0902 -0.4400
  712MPD2     H10529   2.058   0.888  13.601 -0.7934 -1.3944  0.9135
  712MPD2    H110530   2.277   1.183  13.817 -1.8054 -0.0354  3.7238
  712MPD2    H210531   2.148   0.833  14.012  3.9817 -0.3798 -0.0391
  712MPD2    H310532   2.281   1.042  14.007  0.5489 -0.4494 -0.5742
  712MPD2     N10533   2.153   1.143  13.594 -0.2582  0.5057  0.1472
  712MPD2    H510534   2.206   1.228  13.606 -1.5212  1.5229 -1.4925
  712MPD2    N110535   2.008   0.737  13.806 -0.0061  0.5730  0.3520
  712MPD2    H710536   1.945   0.736  13.727  0.4156 -0.4666  0.0271
  713TMC3    C110537   2.064   1.243  13.399  0.0394 -0.5290 -0.0567
  713TMC3    C210538   2.195   1.282  13.370  0.4481  0.8837  0.0848
  713TMC3    C310539   2.212   1.403  13.309  0.2678 -0.1667 -0.2587
  713TMC3    C410540   1.957   1.314  13.357 -0.4751  0.7903 -0.2382
  713TMC3    C510541   1.980   1.434  13.298  0.5470 -0.2460 -0.2218
  713TMC3    C610542   2.104   1.480  13.280 -0.2068  0.2919  0.0153
  713TMC3     C10543   2.046   1.139  13.501 -0.7434 -0.3109 -0.3292
  713TMC3     O10544   1.953   1.063  13.478  0.0571 -0.0233 -0.0799
  713TMC3     H10545   2.280   1.220  13.398 -0.3014  0.3940  1.2595
  713TMC3    H110546   1.853   1.296  13.381 -0.2748  1.1249  0.9202
  713TMC3    H210547   2.108   1.576  13.229 -3.9265  0.8925  0.8466
  713TMC3    C710548   1.887   1.540  13.328 -0.2461 -0.0105 -0.8679
  713TMC3    C810549   2.342   1.446  13.249  0.4203  0.4989 -0.9664
  713TMC3    O110550   1.930   1.637  13.390  0.7545 -0.2530 -0.0417
  713TMC3    O210551   2.333   1.548  13.177 -0.0553 -0.0185  0.8219
  714MPD2     C10552   3.418   4.238   1.369  0.3607  0.1505  0.1532
  714MPD2    C110553   3.498   4.158   1.287  0.5043  0.0668  1.6370
  714MPD2    C210554   3.492   4.169   1.146 -0.5580  0.3028 -0.0069
  714MPD2    C310555   3.391   4.241   1.083 -0.4205  0.4476 -0.8210
  714MPD2    C410556   3.309   4.316   1.165  0.3725 -0.3315  0.1262
  714MPD2    C510557   3.326   4.318   1.302 -0.1230  0.5086 -0.1911
  714MPD2     H10558   3.548   4.102   1.081 -1.4528  0.0405 -0.5114
  714MPD2    H110559   3.229   4.378   1.126  1.4969  1.2872  0.4017
  714MPD2    H210560   3.414   4.233   1.477 -0.9794  3.1932  0.2335
  714MPD2    H310561   3.260   4.380   1.362 -2.2670 -1.8457 -0.1462
  714MPD2     N10562   3.388   4.243   0.939 -0.1183 -0.2483  0.1544
  714MPD2    H510563   3.463   4.195   0.891 -0.2930  0.2490 -0.6031
  714MPD2    N110564   3.593   4.086   1.360 -0.8743 -0.3993  0.1260
  714MPD2    H710565   3.597   4.107   1.460 -1.6411 -0.9358  0.2683
  715TMC3    C110566   3.788   3.955   1.400 -0.6016  0.2416 -0.2917
  715TMC3    C210567   3.839   3.828   1.377 -0.3905 -0.9118  0.3990
  715TMC3    C310568   3.924   3.780   1.472  0.0678  0.0124  0.8022
  715TMC3    C410569   3.796   4.020   1.517  1.0080 -0.2888  0.2959
  715TMC3    C510570   3.852   3.948   1.616 -0.0255 -0.2279  0.4511
  715TMC3    C610571   3.919   3.832   1.598  0.0584 -0.6024 -0.5733
  715TMC3     C10572   3.691   4.005   1.306  0.8020  0.2560 -0.0549
  715TMC3     O10573   3.681   3.943   1.199 -0.7591 -0.0233 -0.1630
  715TMC3     H10574   3.831   3.776   1.282 -1.5020 -0.5983  0.3207
  715TMC3    H110575   3.776   4.125   1.534  0.4378 -0.3749  0.1622
  715TMC3    H210576   3.979   3.787   1.676  0.9341  4.0695  1.3992
  715TMC3    C710577   3.872   4.004   1.741 -0.3822  1.0545 -0.6194
  715TMC3    C810578   4.022   3.676   1.439  0.6905 -0.0640 -0.4041
  715TMC3    O110579   3.872   4.128   1.745 -0.0412 -0.3906  0.4006
  715TMC3    O210580   4.008   3.593   1.351  0.1242  0.1610  0.8235
  716MPD2     C10581   4.472   2.219   9.909 -0.0833 -0.3187 -0.3884
  716MPD2    C110582   4.414   2.122   9.830  0.0036 -0.3097 -0.2071
  716MPD2    C210583   4.433   1.989   9.871  0.0616  0.3286 -0.1637
  716MPD2    C310584   4.509   1.954   9.983 -1.1399 -0.1947  0.3132
  716MPD2    C410585   4.575   2.053  10.055 -0.3437 -0.7060 -0.3559
  716MPD2    C510586   4.549   2.183  10.014 -0.4411 -0.0049  0.7953
  716MPD2     H10587   4.382   1.906   9.823 -1.9922  1.5015 -0.0270
  716MPD2    H110588   4.625   2.035  10.149 -2.4176  0.4133  0.9712
  716MPD2    H210589   4.455   2.324   9.891 -0.7096 -0.6421 -1.7017
  716MPD2    H310590   4.582   2.272  10.067  1.4198 -1.4489  2.0186
  716MPD2     N10591   4.516   1.815  10.011 -0.5265  0.5261 -0.8062
  716MPD2    H510592   4.472   1.750   9.947  0.0597 -0.5635 -0.0983
  716MPD2    N110593   4.339   2.154   9.717  0.0156  0.1980 -0.1565
  716MPD2    H710594   4.324   2.252   9.693  0.8024  0.8793  2.0785
  717TMC3    C110595   4.520   1.619  10.132 -0.1684 -0.3951  0.1889
  717TMC3    C210596   4.418   1.578  10.050  0.4400  0.4041  0.3663
  717TMC3    C310597   4.362   1.454  10.070 -0.0706  0.1461  0.3355
  717TMC3    C410598   4.576   1.526  10.215  0.3733 -0.4003  0.2390
  717TMC3    C510599   4.527   1.402  10.217 -0.5594  0.9683  0.3329
  717TMC3    C610600   4.411   1.356  10.154  0.0051  0.7457 -0.1024
  717TMC3     C10601   4.564   1.758  10.128 -0.2367  0.2560  0.0723
  717TMC3     O10602   4.621   1.800  10.228  0.1358 -0.7651  0.3285
  717TMC3     H10603   4.348   1.648  10.006  0.1475 -1.2454 -1.8127
  717TMC3    H110604   4.662   1.553  10.275 -0.5590  0.7009  1.0850
  717TMC3    H210605   4.366   1.258  10.163 -1.7454  1.3506 -2.2080
  717TMC3    C710606   4.611   1.294  10.257  0.2060 -0.0361 -0.3673
  717TMC3    C810607   4.276   1.414   9.954 -0.9519  0.4387  0.3508
  717TMC3    O110608   4.604   1.198  10.177  0.0845 -0.0609 -0.0435
  717TMC3    O210609   4.285   1.482   9.853  0.1052  0.3346 -0.8743
  718MPD2     C10610   3.872   0.828  13.670 -0.1941 -0.2120 -0.7262
  718MPD2    C110611   3.853   0.882  13.546 -0.1871  0.1997 -0.1530
  718MPD2    C210612   3.787   0.802  13.456  0.0480 -0.1588 -0.0429
  718MPD2    C310613   3.731   0.684  13.488 -0.0808  0.5836  0.1279
  718MPD2    C410614   3.768   0.623  13.606 -0.3350 -0.1860  0.8403
  718MPD2    C510615   3.841   0.697  13.694  0.0560 -0.5496 -0.0576
  718MPD2     H10616   3.764   0.833  13.355 -1.2801  2.2650  0.9927
  718MPD2    H110617   3.731   0.527  13.639 -1.0741 -0.4676 -0.8117
  718MPD2    H210618   3.919   0.888  13.747 -0.9467  3.1857 -2.9041
  718MPD2    H310619   3.878   0.655  13.787  0.6523  0.0380 -0.0270
  718MPD2     N10620   3.647   0.622  13.393  0.0300 -0.5024  0.1643
  718MPD2    H510621   3.642   0.667  13.302  2.3860  2.2472  1.3831
  718MPD2    N110622   3.865   1.015  13.525  0.0085 -0.0832 -0.5745
  718MPD2    H710623   3.849   1.075  13.606 -0.7759  0.9157 -1.4728
  719TMC3    C110624   3.878   1.213  13.397 -0.6602 -0.1716 -0.3145
  719TMC3    C210625   3.756   1.260  13.433  0.0269  0.3861 -0.0649
  719TMC3    C310626   3.678   1.315  13.339  0.6907  0.0638 -0.3684
  719TMC3    C410627   3.938   1.263  13.285 -0.2456  0.0598  0.5522
  719TMC3    C510628   3.866   1.349  13.205 -0.7032  0.6060 -0.8613
  719TMC3    C610629   3.739   1.383  13.242  0.1872 -0.0654  1.4116
  719TMC3     C10630   3.889   1.067  13.404  0.2978 -0.1408 -0.6673
  719TMC3     O10631   3.916   1.009  13.299 -0.0920  0.2026 -0.0720
  719TMC3     H10632   3.710   1.212  13.517 -0.6427  3.0499  1.0967
  719TMC3    H110633   4.035   1.230  13.248 -0.1763  0.2401  0.5684
  719TMC3    H210634   3.684   1.433  13.162 -2.4008  1.3497  4.0683
  719TMC3    C710635   3.904   1.367  13.066 -0.6500  0.3945  0.4743
  719TMC3    C810636   3.595   1.214  13.284  0.0371 -0.2946  0.2541
  719TMC3    O110637   3.813   1.343  12.985  0.2261  0.1815 -0.0656
  719TMC3    O210638   3.532   1.150  13.362 -0.2804  0.0353  0.4278
  720MPD2     C10639   1.907   2.730  14.273  0.0422  0.6923  0.3766
  720MPD2    C110640   1.982   2.742  14.158 -0.7718  0.2020  0.5307
  720MPD2    C210641   2.119   2.754  14.176 -0.5306  0.3433  0.3291
  720MPD2    C310642   2.171   2.738  14.303 -0.7533  0.0922  0.9351
  720MPD2    C410643   2.097   2.713  14.414  0.2022 -0.1949  0.5061
  720MPD2    C510644   1.961   2.715  14.396  0.6401 -0.1838 -0.2221
  720MPD2     H10645   2.176   2.779  14.087 -0.6949  0.1453  0.1674
  720MPD2    H110646   2.139   2.707  14.514  1.5425 -1.1521 -0.1157
  720MPD2    H210647   1.799   2.739  14.272  0.2172  2.8810  1.2865
  720MPD2    H310648   1.895   2.706  14.482  0.7329  0.6903 -0.0577
  720MPD2     N10649   2.315   2.758  14.311 -0.0312  0.6061  0.3411
  720MPD2    H510650   2.366   2.750  14.223 -0.4317 -1.1052  0.2632
  720MPD2    N110651   1.930   2.763  14.035 -0.2623 -0.3542 -0.0747
  720MPD2    H710652   1.994   2.781  13.959 -1.3956 -0.0664 -0.9608
  721TMC3    C110653   2.535   2.746  14.410 -1.2531  0.7161 -0.5075
  721TMC3    C210654   2.596   2.695  14.526 -0.0638  0.3172  0.1483
  721TMC3    C310655   2.719   2.734  14.556  0.7188  0.2094 -0.3045
  721TMC3    C410656   2.594   2.832  14.321 -0.2157 -0.4492  0.4522
  721TMC3    C510657   2.719   2.866  14.353  0.2846 -0.1573  0.2150
  721TMC3    C610658   2.778   2.826  14.465 -0.0779 -1.1635 -0.2545
  721TMC3     C10659   2.390   2.766  14.426  0.0070 -0.8491 -0.1438
  721TMC3     O10660   2.351   2.777  14.541 -0.2102 -0.4297  0.6681
  721TMC3     H10661   2.546   2.622  14.589 -0.5020 -0.2145 -0.8183
  721TMC3    H110662   2.544   2.878  14.237  2.1843  3.9698  1.4225
  721TMC3    H210663   2.882   2.849  14.486 -0.3030  0.3151 -0.7935
  721TMC3    C710664   2.797   2.928  14.246 -0.5322  0.7242  0.0760
  721TMC3    C810665   2.789   2.680  14.668  0.6111  0.0388 -0.0355
  721TMC3    O110666   2.914   2.942  14.278 -0.1464  0.2045 -0.2297
  721TMC3    O210667   2.910   2.687  14.664  0.3257 -0.1042 -0.6445
  722MPD2     C10668   0.897   1.208  12.639  0.4583  0.2792 -0.5460
  722MPD2    C110669   0.846   1.315  12.707  0.2846  0.7366 -0.5456
  722MPD2    C210670   0.712   1.308  12.737 -0.1619  0.0870 -0.2404
  722MPD2    C310671   0.633   1.191  12.723 -0.5399 -0.2084  0.3153
  722MPD2    C410672   0.695   1.079  12.671 -0.2244  1.0473  0.4369
  722MPD2    C510673   0.824   1.096  12.621  0.5647 -0.2871  0.0047
  722MPD2     H10674   0.676   1.391  12.797 -0.8873  0.4043 -1.1122
  722MPD2    H110675   0.651   0.981  12.660 -1.2658  1.5257  0.3155
  722MPD2    H210676   0.998   1.209  12.599  0.7909  0.6961  0.3148
  722MPD2    H310677   0.865   1.016  12.560 -0.6545  1.6409 -3.3049
  722MPD2     N10678   0.502   1.203  12.772  0.1487  0.4495  0.3450
  722MPD2    H510679   0.464   1.295  12.789  0.2323  0.3048  1.3011
  722MPD2    N110680   0.905   1.435  12.730 -0.4050  0.6412  0.2081
  722MPD2    H710681   0.845   1.512  12.755  0.7180  1.4006  0.5860
  723TMC3    C110682   0.288   1.130  12.868 -0.0048 -0.3330 -0.0933
  723TMC3    C210683   0.223   1.031  12.933 -0.8458 -0.1807  0.6128
  723TMC3    C310684   0.123   1.056  13.029  0.1275 -0.2087  0.3510
  723TMC3    C410685   0.267   1.259  12.902 -0.8211 -0.6037 -0.1288
  723TMC3    C510686   0.180   1.288  13.011 -0.2972  0.0072  0.5594
  723TMC3    C610687   0.101   1.187  13.066 -0.9721 -0.6576 -0.0260
  723TMC3     C10688   0.409   1.095  12.785  0.4360 -0.0395 -0.1075
  723TMC3     O10689   0.430   0.974  12.783  0.3631 -0.0810 -0.1992
  723TMC3     H10690   0.254   0.931  12.902 -1.0656  0.2095 -0.8372
  723TMC3    H110691   0.310   1.339  12.842 -0.5362 -1.9314 -1.6897
  723TMC3    H210692   0.021   1.214  13.134 -0.5554 -1.4515  0.7607
  723TMC3    C710693   0.138   1.424  13.025 -0.6401 -0.3794  0.2447
  723TMC3    C810694   0.035   0.950  13.081  0.0832  0.5206 -0.0214
  723TMC3    O110695   0.175   1.504  12.934  0.1847  0.1873  0.0894
  723TMC3    O210696   4.712   0.983  13.188  0.6506  0.5263 -0.9433
  724TMC3    C110697   2.886   4.597  10.287 -0.2037 -0.1298  0.3139
  724TMC3    C210698   2.843   4.724  10.312  0.7651  0.1708  0.6990
  724TMC3    C310699   2.729   0.012  10.388  0.4669  0.5585  0.9893
  724TMC3    C410700   2.815   4.489  10.324 -0.7381 -0.3641  0.1007
  724TMC3    C510701   2.694   4.507  10.390  0.4013 -0.4711 -0.0485
  724TMC3    C610702   2.643   4.634  10.414  0.1289 -0.1471  0.3612
  724TMC3     C10703   3.018   4.578  10.233  0.3709 -0.2328  0.5225
  724TMC3     O10704   3.074   4.472  10.252 -0.0130  0.2489 -0.0541
  724TMC3     H10705   2.907   0.084  10.307  1.2033 -0.0832  2.0504
  724TMC3    H110706   2.855   4.390  10.307 -0.1793 -0.5438  2.4055
  724TMC3    H210707   2.539   4.650  10.442 -0.6235 -0.5806 -2.1614
  724TMC3    C710708   2.614   4.390  10.423 -0.1740 -0.0538 -0.5769
  724TMC3    C810709   2.682   0.153  10.405  0.0164  0.1712 -0.0128
  724TMC3    O110710   2.629   4.287  10.358  0.4577 -0.1761 -0.3138
  724TMC3    O210711   2.699   0.228  10.315 -0.5494  0.4632 -0.1781
  725TMC3    C110712   2.864   2.845  13.328 -0.2243 -0.1768 -0.0164
  725TMC3    C210713   2.729   2.885  13.335 -0.3219 -0.5959  0.3626
  725TMC3    C310714   2.637   2.833  13.242  0.1544 -0.1275  0.1170
  725TMC3    C410715   2.905   2.766  13.230 -0.4303 -0.2353  0.2916
  725TMC3    C510716   2.809   2.706  13.154 -0.3877 -0.2165 -0.0456
  725TMC3    C610717   2.676   2.744  13.151  0.3653  0.3588 -1.1998
  725TMC3     C10718   2.952   2.956  13.371 -0.0822 -0.4774  0.3825
  725TMC3     O10719   2.886   3.058  13.369  0.0086  0.3663  0.2809
  725TMC3     H10720   2.709   2.954  13.417 -0.1333  0.6108 -0.6146
  725TMC3    H110721   3.011   2.766  13.206 -0.2856 -0.2714  0.9198
  725TMC3    H210722   2.608   2.699  13.080 -1.0843  0.4811  0.1232
  725TMC3    C710723   2.852   2.631  13.039  0.6538 -1.5247 -0.6307
  725TMC3    C810724   2.509   2.901  13.240  0.9274  0.9764 -0.2249
  725TMC3    O110725   2.768   2.607  12.952  0.1906  0.3619  0.2359
  725TMC3    O210726   2.473   2.960  13.341 -0.0966 -0.0854 -0.1308
  726MPD2     C10727   0.571   4.397  10.657  0.2395 -0.7865 -0.2709
  726MPD2    C110728   0.457   4.447  10.596  0.0298 -0.0078  0.7182
  726MPD2    C210729   0.342   4.366  10.608 -0.7586 -0.1199  0.1832
  726MPD2    C310730   0.344   4.244  10.668  0.1727  0.0960 -0.0735
  726MPD2    C410731   0.447   4.204  10.749 -0.4008 -0.2725  0.3082
  726MPD2    C510732   0.565   4.274  10.720  0.2884  1.4828 -0.0817
  726MPD2     H10733   0.250   4.409  10.570  1.0984  0.9774 -2.9977
  726MPD2    H110734   0.456   4.105  10.794  2.4463  0.7485  1.9830
  726MPD2    H210735   0.668   4.445  10.652 -0.1506 -0.1445 -1.6678
  726MPD2    H310736   0.653   4.233  10.769 -1.7616 -1.2143  1.3472
  726MPD2     N10737   0.220   4.174  10.681 -0.6994  0.7672  0.3265
  726MPD2    H510738   0.210   4.110  10.759 -0.2645 -0.6507 -0.7882
  726MPD2    N110739   0.449   4.567  10.522 -0.4573  0.0643  0.0284
  726MPD2    H710740   0.364   4.587  10.471  0.3967 -0.8114 -1.7252
  727TMC3    C110741   0.534   0.056  10.446 -0.0368  0.3665 -0.6413
  727TMC3    C210742   0.594   0.171  10.496  0.6606  0.5582  0.4334
  727TMC3    C310743   0.532   0.282  10.461  0.4527 -0.2212 -0.6203
  727TMC3    C410744   0.434   0.055  10.354 -0.0016  0.0694  0.0393
  727TMC3    C510745   0.394   0.171  10.301 -0.3808 -0.0494  0.4482
  727TMC3    C610746   0.433   0.289  10.361 -0.4389  1.2659  1.2237
  727TMC3     C10747   0.554   4.661  10.525  0.3753 -0.0815  0.1566
  727TMC3     O10748   0.638   4.672  10.611 -0.5582  0.3024  0.0217
  727TMC3     H10749   0.687   0.166  10.551  0.5052  0.3518  0.6800
  727TMC3    H110750   0.405   4.688  10.309 -3.0819  2.0466 -2.1082
  727TMC3    H210751   0.376   0.382  10.353  0.1220  1.4725 -0.2607
  727TMC3    C710752   0.286   0.162  10.200  0.3922 -0.4468  0.6649
  727TMC3    C810753   0.575   0.407  10.524  0.7918  0.3467  0.1165
  727TMC3    O110754   0.262   0.049  10.161  0.3077  0.1015  0.0144
  727TMC3    O210755   0.655   0.398  10.616  0.3193 -0.0080  0.0235
  728TMC3    C110756   3.830   3.383  15.049 -0.0825 -0.6878  0.2211
  728TMC3    C210757   3.894   3.272  15.007  0.9110 -0.5004  0.1404
  728TMC3    C310758   3.901   3.248  14.875 -0.0670  0.9398  0.0773
  728TMC3    C410759   3.749   3.452  14.969  0.3394 -0.5313 -0.7753
  728TMC3    C510760   3.745   3.423  14.839  0.4662 -0.4457 -0.1108
  728TMC3    C610761   3.827   3.328  14.785  0.5895  0.4910  1.1081
  728TMC3     C10762   3.813   3.379  15.194 -0.4511  0.0334  0.0732
  728TMC3     O10763   3.910   3.359  15.264  0.0894 -0.1948 -0.4225
  728TMC3     H10764   3.933   3.205  15.082 -1.0190 -0.5934  1.0759
  728TMC3    H110765   3.682   3.524  15.014 -0.4465 -2.6858  1.4474
  728TMC3    H210766   3.854   3.332  14.680 -0.0146  0.9681  0.9734
  728TMC3    C710767   3.718   3.530  14.750 -0.4875 -0.5270 -0.1409
  728TMC3    C810768   4.015   3.173  14.822  0.6537 -0.0993 -0.2488
  728TMC3    O110769   3.700   3.508  14.630 -0.2782 -0.6269 -0.5636
  728TMC3    O210770   4.024   3.149  14.703  0.0975 -0.1208 -0.1777
  729MPD2     C10771   2.429   3.811  16.980 -0.2922  0.5712 -0.5553
  729MPD2    C110772   2.360   3.934  16.957  0.2381  0.0155  0.2682
  729MPD2    C210773   2.257   3.969  17.035 -0.4925  0.5413  0.6338
  729MPD2    C310774   2.220   3.884  17.137  0.8316 -0.2344 -0.0384
  729MPD2    C410775   2.275   3.760  17.150 -0.7029  0.3084  0.1730
  729MPD2    C510776   2.379   3.721  17.071  0.8503  0.0410  0.5036
  729MPD2     H10777   2.202   4.061  17.016 -2.6881 -1.0479 -0.5881
  729MPD2    H110778   2.225   3.685  17.211 -1.1781  0.6483  0.2070
  729MPD2    H210779   2.518   3.775  16.930 -0.5718 -0.4611 -0.3164
  729MPD2    H310780   2.429   3.626  17.084 -2.2293 -2.0307 -2.7509
  729MPD2     N10781   2.120   3.913  17.235  0.4218  0.1381  0.5397
  729MPD2    H510782   2.093   3.839  17.299 -0.3718 -0.6938 -0.7481
  729MPD2    N110783   2.403   4.017  16.853  0.0167 -0.5224 -0.3222
  729MPD2    H710784   2.356   4.106  16.838  0.9092 -0.0884 -0.5830
  730TMC3    C110785   1.959   4.023  17.370  0.3834 -0.5268  0.0774
  730TMC3    C210786   2.030   4.014  17.491  0.0907  0.3033 -0.5096
  730TMC3    C310787   2.050   4.132  17.556  0.4472 -0.0265 -0.0999
  730TMC3    C410788   1.870   4.124  17.356 -0.3282 -0.1167  0.1060
  730TMC3    C510789   1.877   4.235  17.433  0.9697  0.1397  0.2593
  730TMC3    C610790   1.969   4.240  17.531  0.8393 -0.0355  0.1354
  730TMC3     C10791   2.024   4.011  17.238  0.3729 -0.6580 -0.2353
  730TMC3     O10792   1.991   4.086  17.147 -0.0041  0.2620 -0.2724
  730TMC3     H10793   2.110   3.941  17.495 -0.6981 -0.4700  1.1748
  730TMC3    H110794   1.795   4.128  17.277  0.5689 -0.8895 -0.7815
  730TMC3    H210795   1.998   4.337  17.572  0.0150  0.2007  0.1654
  730TMC3    C710796   1.829   4.359  17.381 -1.0147 -0.5339  0.2488
  730TMC3    C810797   2.190   4.156  17.569  0.0019 -0.2861 -0.7781
  730TMC3    O110798   1.828   4.376  17.260 -0.9007 -0.0597  0.8792
  730TMC3    O210799   2.254   4.059  17.611  0.0635 -0.0664 -1.1056
  731MPD2     C10800   1.783   1.880  11.931  0.0407 -0.1916  0.5018
  731MPD2    C110801   1.911   1.905  11.971 -0.0937 -0.6769  0.0760
  731MPD2    C210802   1.945   1.949  12.096  0.0974  0.0975  0.1978
  731MPD2    C310803   1.851   1.940  12.199 -0.0276 -0.4198  0.1026
  731MPD2    C410804   1.724   1.896  12.164  0.4910  0.0653 -0.0596
  731MPD2    C510805   1.690   1.878  12.029 -0.6181 -1.0775 -0.0114
  731MPD2     H10806   2.047   1.976  12.119  0.1661  0.0121 -0.0066
  731MPD2    H110807   1.651   1.898  12.244 -0.3149 -0.5184 -0.7684
  731MPD2    H210808   1.751   1.849  11.833 -0.3972  0.9535  0.2867
  731MPD2    H310809   1.591   1.845  11.997 -0.8331 -0.4914  0.0562
  731MPD2     N10810   1.887   1.965  12.331  0.0315  0.6628  0.5813
  731MPD2    H510811   1.976   2.005  12.359 -0.9763  2.0301  1.7722
  731MPD2    N110812   2.000   1.896  11.863 -0.2892  0.8778 -0.6688
  731MPD2    H710813   1.962   1.861  11.775  0.4184  0.0611 -0.6474
  732TMC3    C110814   2.184   1.950  11.727  0.5685 -0.5720  0.2013
  732TMC3    C210815   2.087   1.975  11.631 -0.4954 -0.4181 -0.4472
  732TMC3    C310816   2.094   2.078  11.546 -0.1521  0.2600 -0.2016
  732TMC3    C410817   2.296   2.023  11.725 -0.0701 -1.3306 -0.0392
  732TMC3    C510818   2.304   2.135  11.639  0.2033 -0.4780 -0.4358
  732TMC3    C610819   2.198   2.167  11.561 -0.6071 -0.1477  0.2017
  732TMC3     C10820   2.132   1.935  11.859 -0.5756 -1.2962 -0.3426
  732TMC3     O10821   2.211   1.976  11.945 -0.1698 -0.0154 -0.4826
  732TMC3     H10822   1.994   1.921  11.626  0.8677 -2.8328  0.3990
  732TMC3    H110823   2.367   2.003  11.804 -0.4893  3.8010  1.6331
  732TMC3    H210824   2.196   2.258  11.502 -1.6587 -1.0540 -1.1608
  732TMC3    C710825   2.351   2.251  11.700 -0.5212 -0.0253  0.3595
  732TMC3    C810826   1.964   2.120  11.513 -0.1916 -0.3972 -0.0431
  732TMC3    O110827   2.296   2.356  11.676 -0.2931 -0.1224 -0.6803
  732TMC3    O210828   1.923   2.099  11.401  0.0388 -0.4788 -0.6981
  733TMC3    C110829   3.242   0.458  13.277 -0.4849  0.3445  0.2601
  733TMC3    C210830   3.359   0.437  13.353 -0.0130 -0.3283 -0.5669
  733TMC3    C310831   3.480   0.484  13.309  0.6395 -0.6857 -0.2133
  733TMC3    C410832   3.243   0.520  13.155  0.1377  0.2013 -0.5591
  733TMC3    C510833   3.366   0.555  13.114 -0.2273  1.1246  0.0008
  733TMC3    C610834   3.475   0.547  13.186  0.4241  0.1330  0.2490
  733TMC3     C10835   3.118   0.449  13.349 -0.3378 -0.2277 -0.3390
  733TMC3     O10836   3.134   0.423  13.467 -0.0305  0.4325  0.8904
  733TMC3     H10837   3.352   0.380  13.445 -3.2529  0.3903 -0.3749
  733TMC3    H110838   3.156   0.548  13.098 -0.7461  0.9157  1.1429
  733TMC3    H210839   3.571   0.576  13.144  0.4346 -2.0762 -1.2209
  733TMC3    C710840   3.376   0.659  13.018  0.0433 -0.0477  0.4670
  733TMC3    C810841   3.576   0.507  13.414 -0.0546  0.1617 -0.5479
  733TMC3    O110842   3.352   0.641  12.898  0.4270  0.1213  0.2976
  733TMC3    O210843   3.567   0.449  13.522  0.0607 -0.2219  0.1037
  734MPD2     C10844   4.674   3.039  12.116  0.0135  0.3667  0.5597
  734MPD2    C110845   4.704   2.922  12.042  0.3226 -0.0807  0.4153
  734MPD2    C210846   0.089   2.927  11.959 -0.0608  0.0506 -0.4254
  734MPD2    C310847   0.169   3.037  11.948 -0.0973 -0.3570 -0.0759
  734MPD2    C410848   0.134   3.148  12.016 -0.6165  0.2176  0.7316
  734MPD2    C510849   0.028   3.151  12.100 -0.0024  0.1889 -0.3184
  734MPD2     H10850   0.134   2.838  11.918 -0.3918 -0.6007  0.6350
  734MPD2    H110851   0.192   3.239  12.028 -1.3809  0.8545 -0.4675
  734MPD2    H210852   4.602   3.046  12.198 -1.0994  1.4656 -0.4962
  734MPD2    H310853   0.004   3.243  12.152  0.9519  0.0351  0.3889
  734MPD2     N10854   0.292   3.019  11.887  0.3978 -0.2538 -0.0263
  734MPD2    H510855   0.308   2.925  11.852  1.1232 -1.1810  2.7652
  734MPD2    N110856   4.626   2.805  12.059  0.5549 -0.6159  0.5256
  734MPD2    H710857   4.556   2.798  12.132 -1.4410  1.5157 -1.2134
  735TMC3    C110858   4.577   2.580  12.016  0.3005 -0.8158 -0.0892
  735TMC3    C210859   4.563   2.498  11.912 -0.2015  0.3097  0.0641
  735TMC3    C310860   4.600   2.368  11.923 -0.1526  0.3911 -0.0425
  735TMC3    C410861   4.653   2.537  12.119 -0.1675 -0.0912  0.7986
  735TMC3    C510862   4.683   2.406  12.135 -0.0005  0.3274  0.2154
  735TMC3    C610863   4.636   2.310  12.042  0.8232 -0.4201  0.5782
  735TMC3     C10864   4.634   2.704  11.970 -0.3213  0.6876 -0.5303
  735TMC3     O10865   4.683   2.702  11.859 -0.5641  0.4282 -0.5698
  735TMC3     H10866   4.508   2.532  11.825 -0.5990  0.1278  0.2483
  735TMC3    H110867   4.696   2.609  12.186 -2.2245  0.6479  1.3091
  735TMC3    H210868   4.673   2.208  12.040  1.0212 -0.3079 -1.2845
  735TMC3    C710869   0.103   2.383  12.157  0.4844 -0.2609 -1.1543
  735TMC3    C810870   4.690   2.329  11.810  0.7974  0.0058  0.2093
  735TMC3    O110871   0.174   2.480  12.136  0.6233  0.2850 -0.3075
  735TMC3    O210872   4.724   2.213  11.801 -0.2351 -0.3625 -0.5941
  736MPD2     C10873   0.298   2.076  12.224 -0.3463  0.6224 -0.4280
  736MPD2    C110874   0.272   2.203  12.171 -0.5090 -0.2561 -0.1303
  736MPD2    C210875   0.373   2.274  12.108 -0.1269 -0.0184 -0.5271
  736MPD2    C310876   0.501   2.220  12.094 -0.0490  0.1926 -0.1817
  736MPD2    C410877   0.527   2.091  12.149 -0.3091  0.1346  0.4956
  736MPD2    C510878   0.431   2.023  12.219 -0.1883 -0.5671  0.0044
  736MPD2     H10879   0.364   2.378  12.077  0.9261 -0.1036 -1.1092
  736MPD2    H110880   0.626   2.052  12.131 -0.0385 -0.1216  2.5584
  736MPD2    H210881   0.217   2.021  12.270 -0.1306  1.6809  1.2047
  736MPD2    H310882   0.458   1.928  12.264 -1.4241 -0.2860  1.3501
  736MPD2     N10883   0.608   2.285  12.030  0.5332  0.2877 -0.4439
  736MPD2    H510884   0.690   2.228  12.013 -0.4691 -1.1445 -0.4285
  736MPD2    N110885   0.139   2.251  12.186 -0.4595  0.2088  0.4942
  736MPD2    H710886   0.069   2.194  12.231 -2.9812  2.3447 -0.7207
  737TMC3    C110887   0.726   2.443  11.907  0.5755 -0.4204  0.5153
  737TMC3    C210888   0.773   2.572  11.896  0.0264  0.4742 -1.0228
  737TMC3    C310889   0.876   2.592  11.811  0.3080  0.5320 -0.4103
  737TMC3    C410890   0.760   2.345  11.811 -0.4652  0.0059 -0.3369
  737TMC3    C510891   0.867   2.372  11.732  0.0455  0.7985 -0.1309
  737TMC3    C610892   0.927   2.495  11.726 -0.7378 -0.6440 -0.1481
  737TMC3     C10893   0.613   2.413  11.988  0.3485 -0.7877  0.0294
  737TMC3     O10894   0.541   2.506  12.017  0.0842 -0.1328  0.1528
  737TMC3     H10895   0.721   2.655  11.943 -0.5722 -0.5832  0.1620
  737TMC3    H110896   0.698   2.260  11.788 -1.1419  0.6436 -0.8593
  737TMC3    H210897   1.015   2.514  11.665  0.4873 -0.9808  1.5184
  737TMC3    C710898   0.910   2.270  11.646  1.2093  0.3806 -0.1902
  737TMC3    C810899   0.911   2.724  11.794 -0.1400 -0.7550 -0.4649
  737TMC3    O110900   0.832   2.175  11.620  0.4942  0.5552 -0.1678
  737TMC3    O210901   0.904   2.798  11.890 -0.1232 -0.4345  0.4445
  738MPD2     C10902   1.030   1.732  15.094  0.2076 -0.2319  0.0701
  738MPD2    C110903   1.151   1.663  15.080  0.6973 -0.0369  0.4791
  738MPD2    C210904   1.242   1.710  14.983 -0.4985 -0.5393  0.3495
  738MPD2    C310905   1.209   1.818  14.904  0.4106 -0.3705  0.0695
  738MPD2    C410906   1.090   1.877  14.920 -0.1290  0.3812  0.2141
  738MPD2    C510907   0.991   1.833  15.005  0.7668 -0.4668 -0.4996
  738MPD2     H10908   1.332   1.653  14.961  0.7655  1.1848  1.0137
  738MPD2    H110909   1.050   1.949  14.850  2.1549  2.4827  1.0393
  738MPD2    H210910   0.954   1.711  15.169 -0.3225  1.6355  0.0468
  738MPD2    H310911   0.890   1.873  15.007 -0.3044 -3.2313  1.6094
  738MPD2     N10912   1.295   1.861  14.796 -1.2086  0.2776  0.0104
  738MPD2    H510913   1.269   1.948  14.751  0.6960  1.0140  0.3485
  738MPD2    N110914   1.190   1.551  15.160 -0.5765  0.1715 -0.0766
  738MPD2    H710915   1.283   1.513  15.146 -1.3780 -1.6228 -0.5454
  739TMC3    C110916   1.485   1.880  14.664 -0.9543  0.8888  0.1895
  739TMC3    C210917   1.408   1.912  14.553 -0.1650  0.1233 -0.1310
  739TMC3    C310918   1.472   1.959  14.444  0.7715  0.2228  0.9074
  739TMC3    C410919   1.616   1.900  14.666  0.2915  0.5144  0.8036
  739TMC3    C510920   1.677   1.953  14.549  0.3394  0.3874  0.1313
  739TMC3    C610921   1.606   1.989  14.439  0.0216  0.4592 -0.2204
  739TMC3     C10922   1.428   1.818  14.779  0.5332 -0.3592 -0.2079
  739TMC3     O10923   1.500   1.752  14.850  0.2038  0.0209  0.4894
  739TMC3     H10924   1.301   1.894  14.556 -0.1771  0.4411  1.5025
  739TMC3    H110925   1.680   1.871  14.748  0.9931 -0.5624 -0.1332
  739TMC3    H210926   1.647   2.053  14.363  0.6546 -1.3254 -1.3754
  739TMC3    C710927   1.819   1.953  14.542  0.0464  0.1046 -0.0243
  739TMC3    C810928   1.383   2.024  14.346 -0.5178 -0.1546 -0.1856
  739TMC3    O110929   1.882   1.973  14.641  0.2280 -0.1055  0.2435
  739TMC3    O210930   1.258   2.013  14.356  0.1004 -0.4127 -0.7111
  740TMC3    C110931   1.473   3.086  14.802 -0.2718  0.7230 -0.3633
  740TMC3    C210932   1.363   3.119  14.723  0.2144 -1.4464 -0.6238
  740TMC3    C310933   1.380   3.189  14.612  0.5296 -0.0203  0.0968
  740TMC3    C410934   1.595   3.099  14.753 -0.1412 -0.1583 -0.5664
  740TMC3    C510935   1.613   3.169  14.638  0.6019  0.0927 -0.3197
  740TMC3    C610936   1.507   3.226  14.570  0.0294  0.9003  0.1343
  740TMC3     C10937   1.462   2.973  14.893 -0.3296 -0.5084  0.7422
  740TMC3     O10938   1.551   2.887  14.899  0.2587  0.2833 -0.1972
  740TMC3     H10939   1.260   3.095  14.747  0.2247  1.0694  1.9286
  740TMC3    H110940   1.681   3.066  14.810 -0.3976  0.7458  0.3424
  740TMC3    H210941   1.506   3.279  14.475  0.1050 -1.4208 -1.1599
  740TMC3    C710942   1.746   3.157  14.573  0.0623 -0.7882 -0.0721
  740TMC3    C810943   1.265   3.257  14.552 -0.1631  0.5159 -0.0135
  740TMC3    O110944   1.837   3.112  14.639  0.0456  0.5540  0.3411
  740TMC3    O210945   1.167   3.183  14.547  0.1986  0.3049 -0.3909
  741TMC3    C110946   1.270   2.456  14.398  0.0859  0.0875 -0.3651
  741TMC3    C210947   1.153   2.409  14.344  0.6184  0.5797 -0.1741
  741TMC3    C310948   1.098   2.301  14.406  0.3310 -0.0310  0.6884
  741TMC3    C410949   1.330   2.406  14.514 -0.2157  0.1542  0.4083
  741TMC3    C510950   1.267   2.300  14.569 -0.1372 -0.4320  0.6589
  741TMC3    C610951   1.155   2.253  14.523  0.3840  0.0508  0.2859
  741TMC3     C10952   1.346   2.561  14.330  0.0369  0.1772  0.4850
  741TMC3     O10953   1.459   2.579  14.372 -0.0354 -0.3545  0.8337
  741TMC3     H10954   1.110   2.432  14.247  0.8533  0.8312 -0.2197
  741TMC3    H110955   1.427   2.438  14.550 -1.0205  0.4680  2.2443
  741TMC3    H210956   1.099   2.169  14.562  0.7000  0.3419  1.3487
  741TMC3    C710957   1.324   2.224  14.680 -0.3857 -0.1095  0.2861
  741TMC3    C810958   0.974   2.248  14.342  0.2448 -0.5529  0.3602
  741TMC3    O110959   1.267   2.123  14.723  0.1816 -0.0149  0.5474
  741TMC3    O210960   0.870   2.312  14.340  0.4269  0.7409 -0.1816
  742TMC3    C110961   1.045   0.610  15.379  0.7582 -0.3103  0.3700
  742TMC3    C210962   0.970   0.636  15.267 -0.3138  0.0934  0.4516
  742TMC3    C310963   0.988   0.543  15.163 -0.3369 -0.4955  0.0704
  742TMC3    C410964   1.109   0.490  15.391 -0.1298 -0.3027  0.3756
  742TMC3    C510965   1.117   0.396  15.290  0.2692 -0.7996 -0.1166
  742TMC3    C610966   1.050   0.422  15.170  0.5260  0.4201 -0.2304
  742TMC3     C10967   1.052   0.717  15.483 -0.3448  0.1004  0.7826
  742TMC3     O10968   0.996   0.822  15.448 -0.2761 -0.7876  0.1329
  742TMC3     H10969   0.944   0.736  15.235  0.9037  0.5566  0.9340
  742TMC3    H110970   1.186   0.472  15.466  0.4231 -1.3320 -0.4390
  742TMC3    H210971   1.059   0.367  15.078  1.4269  1.2893 -0.6632
  742TMC3    C710972   1.194   0.266  15.307  0.8946 -0.9495 -0.0735
  742TMC3    C810973   0.925   0.576  15.033 -0.1078  0.7738 -0.2188
  742TMC3    O110974   1.212   0.207  15.199  0.4659  0.2898  0.3667
  742TMC3    O210975   0.987   0.533  14.939  0.2577  0.2261 -0.7050
  743MPD2     C10976   3.487   1.519   2.079 -0.9255 -0.0327  0.0236
  743MPD2    C110977   3.494   1.479   1.947 -0.2344  0.0738 -0.1172
  743MPD2    C210978   3.621   1.439   1.894  0.6560  0.0250 -0.6369
  743MPD2    C310979   3.737   1.443   1.971  0.0540 -0.4095 -0.8099
  743MPD2    C410980   3.730   1.491   2.096 -0.2996 -0.0297  0.1129
  743MPD2    C510981   3.606   1.521   2.151  0.6635  0.1750 -0.3253
  743MPD2     H10982   3.632   1.419   1.788 -1.1737  0.4938 -0.9244
  743MPD2    H110983   3.813   1.515   2.161 -1.1808 -0.0629  1.2333
  743MPD2    H210984   3.391   1.556   2.115 -0.8005 -0.3193  0.6510
  743MPD2    H310985   3.603   1.570   2.248 -0.2288 -0.5222 -0.0018
  743MPD2     N10986   3.854   1.402   1.905  0.5906  0.1081  1.0026
  743MPD2    H510987   3.822   1.358   1.819 -0.3040  3.9181 -0.5894
  743MPD2    N110988   3.383   1.492   1.867 -0.3734 -0.2075  0.0041
  743MPD2    H710989   3.307   1.555   1.892 -2.2030 -3.0005  1.4860
  744TMC3    C110990   3.249   1.458   1.672  0.0675 -0.5786  1.7309
  744TMC3    C210991   3.182   1.574   1.704 -0.3269 -0.3662 -0.6777
  744TMC3    C310992   3.157   1.663   1.603  0.3848 -0.3626  0.0882
  744TMC3    C410993   3.272   1.434   1.537 -0.0087  0.4648 -0.3291
  744TMC3    C510994   3.245   1.523   1.442  0.7979 -0.0252 -0.1627
  744TMC3    C610995   3.189   1.646   1.476 -0.5423  0.3580  0.3848
  744TMC3     C10996   3.356   1.403   1.762 -1.0940 -0.0374 -0.0982
  744TMC3     O10997   3.428   1.323   1.704  0.3329  0.1573 -0.6791
  744TMC3     H10998   3.143   1.588   1.804 -1.2891 -2.4199 -0.7659
  744TMC3    H110999   3.333   1.348   1.512 -1.3789 -1.1879  2.0331
  744TMC3    H211000   3.158   1.719   1.402 -0.5273  1.1345  1.1395
  744TMC3    C711001   3.280   1.512   1.301 -0.4725 -0.6846  0.1894
  744TMC3    C811002   3.079   1.778   1.634  0.2471  0.7953 -0.2484
  744TMC3    O111003   3.267   1.608   1.225  0.6225 -0.0890 -0.3097
  744TMC3    O211004   3.097   1.877   1.562 -0.6645  0.0747 -0.2771
  745TMC3    C111005   1.862   0.566  13.903 -1.0988  0.3123 -0.0011
  745TMC3    C211006   1.777   0.578  14.011 -0.6346 -0.1635  0.1862
  745TMC3    C311007   1.644   0.550  13.985 -0.4515 -0.1045 -0.1135
  745TMC3    C411008   1.825   0.535  13.776 -0.5691  0.9087 -0.2840
  745TMC3    C511009   1.692   0.521  13.753  0.5261 -1.0002 -0.2173
  745TMC3    C611010   1.604   0.518  13.857 -0.8114  0.6675  0.0544
  745TMC3     C11011   1.985   0.648  13.909  0.5999 -0.1961  0.3172
  745TMC3     O11012   2.046   0.647  14.015  0.3069 -0.2458 -0.5031
  745TMC3     H11013   1.821   0.593  14.109 -0.0481  0.9002 -0.2410
  745TMC3    H111014   1.900   0.511  13.702 -1.1676  2.8554 -1.5034
  745TMC3    H211015   1.502   0.484  13.846 -0.6893  1.1936 -2.7212
  745TMC3    C711016   1.654   0.480  13.627  0.7154  0.3316  0.4323
  745TMC3    C811017   1.546   0.575  14.088  0.9228 -0.5598  0.5312
  745TMC3    O111018   1.560   0.402  13.620  0.6760 -0.0784 -0.3643
  745TMC3    O211019   1.429   0.542  14.069  0.1429  0.2736  0.5445
  746TMC3    C111020   3.927   2.074  11.118  0.0307 -0.4681  0.0729
  746TMC3    C211021   4.052   2.052  11.065  0.2666  0.6283 -0.6495
  746TMC3    C311022   4.080   1.923  11.026 -0.0516  0.6204  0.3313
  746TMC3    C411023   3.829   1.982  11.139  0.3993  0.6978 -0.3225
  746TMC3    C511024   3.867   1.853  11.117  0.8584 -0.2687  0.1521
  746TMC3    C611025   3.987   1.818  11.056  0.2808 -0.4837 -0.4080
  746TMC3     C11026   3.877   2.207  11.135  0.1042 -1.2494  0.4089
  746TMC3     O11027   3.782   2.236  11.210 -0.3657  0.1252  0.4143
  746TMC3     H11028   4.134   2.122  11.075 -0.6603  1.4354  1.2372
  746TMC3    H111029   3.727   2.009  11.163 -0.0830 -1.7802  0.4171
  746TMC3    H211030   4.001   1.716  11.022  0.6814 -0.8565  0.8633
  746TMC3    C711031   3.760   1.757  11.099 -0.0309 -0.1333 -0.1304
  746TMC3    C811032   4.213   1.889  10.991 -0.1891 -0.9410  0.2645
  746TMC3    O111033   3.647   1.812  11.106 -0.4085 -0.2596 -0.0043
  746TMC3    O211034   4.238   1.769  10.986 -0.3512 -0.1460 -0.1333
  747TMC3    C111035   1.764   2.334  11.051  0.0028 -0.8190 -0.4793
  747TMC3    C211036   1.666   2.246  11.096 -0.1055 -0.1969 -0.0828
  747TMC3    C311037   1.638   2.247  11.227  0.1621  0.7444  0.4143
  747TMC3    C411038   1.841   2.406  11.138 -1.0078  0.0898  0.2314
  747TMC3    C511039   1.805   2.401  11.278 -0.1031 -0.0548 -1.1352
  747TMC3    C611040   1.702   2.318  11.323 -0.1530  0.2888  0.5095
  747TMC3     C11041   1.818   2.317  10.916 -0.1567  0.3159  0.2144
  747TMC3     O11042   1.861   2.414  10.853 -0.8859  0.2236 -0.0021
  747TMC3     H11043   1.589   2.213  11.028 -0.1081 -2.5426  1.0551
  747TMC3    H111044   1.909   2.476  11.090 -0.7484 -1.2696 -1.4093
  747TMC3    H211045   1.688   2.314  11.431  2.0728 -4.5530  0.6292
  747TMC3    C711046   1.882   2.475  11.366 -0.6210 -0.1315  0.5026
  747TMC3    C811047   1.517   2.177  11.251 -0.1721 -0.1420 -1.0473
  747TMC3    O111048   1.826   2.508  11.468  0.0764 -0.0401  0.4701
  747TMC3    O211049   1.494   2.077  11.186 -0.8161  0.2105 -0.8132
  748MPD2     C11050   2.416   3.759   0.691  0.5633  0.3265 -0.4409
  748MPD2    C111051   2.402   3.653   0.774  0.4393 -0.4727 -0.1871
  748MPD2    C211052   2.509   3.580   0.826  0.3551  0.6714  1.0505
  748MPD2    C311053   2.635   3.628   0.791 -0.3449  1.0278  0.1773
  748MPD2    C411054   2.650   3.732   0.702  0.1434 -0.4580  0.0720
  748MPD2    C511055   2.539   3.794   0.660 -0.6300 -0.0219 -0.6994
  748MPD2     H11056   2.498   3.503   0.902 -0.1327 -0.9957 -0.7157
  748MPD2    H111057   2.748   3.766   0.668 -0.3785  3.4361  2.4056
  748MPD2    H211058   2.329   3.809   0.650 -0.2989 -0.1321  0.8482
  748MPD2    H311059   2.555   3.885   0.602 -0.8842 -0.2209 -1.0792
  748MPD2     N11060   2.753   3.568   0.847  0.0374 -0.0229  0.9751
  748MPD2    H511061   2.736   3.502   0.922  2.1934 -1.8647 -0.1679
  748MPD2    N111062   2.272   3.601   0.788 -0.3150 -0.5669 -0.5591
  748MPD2    H711063   2.190   3.653   0.759 -1.2136 -2.7657 -2.0146
  749TMC3    C111064   2.988   3.513   0.903  0.1484 -0.2628 -0.0631
  749TMC3    C211065   2.953   3.461   1.021 -0.1106  0.3627  0.4350
  749TMC3    C311066   3.052   3.406   1.100  0.5874  0.5608 -0.3068
  749TMC3    C411067   3.121   3.522   0.858  0.3889 -0.2073  0.0407
  749TMC3    C511068   3.213   3.466   0.944  0.3493  0.5701 -0.3212
  749TMC3    C611069   3.181   3.404   1.058  0.1533 -0.3015  0.0573
  749TMC3     C11070   2.889   3.589   0.818  0.2047  0.7257  0.3916
  749TMC3     O11071   2.933   3.658   0.727 -0.1704  0.0738  0.2055
  749TMC3     H11072   2.855   3.455   1.068 -0.5207  1.2729 -0.3054
  749TMC3    H111073   3.154   3.561   0.763  2.5250 -1.1167  0.4086
  749TMC3    H211074   3.257   3.376   1.129  0.9014  0.5691 -0.4031
  749TMC3    C711075   3.354   3.487   0.921  1.1588  0.5090  0.8905
  749TMC3    C811076   3.020   3.312   1.207 -0.9788  0.2856  0.3516
  749TMC3    O111077   3.383   3.591   0.864  0.1471  0.2342 -0.2365
  749TMC3    O211078   2.919   3.329   1.271 -0.4044  0.1984 -0.0179
  750MPD2     C11079   4.140   4.178  11.378 -0.0733  0.3519  0.0272
  750MPD2    C111080   4.033   4.107  11.420  0.6776  0.1726  0.8513
  750MPD2    C211081   4.000   3.986  11.359 -0.7135 -0.8260  0.6235
  750MPD2    C311082   4.090   3.933  11.261 -0.0895 -0.1552  0.3275
  750MPD2    C411083   4.201   4.001  11.234  0.1265  0.3257 -0.4309
  750MPD2    C511084   4.222   4.130  11.282  0.0473  0.6033 -0.5659
  750MPD2     H11085   3.907   3.936  11.384 -2.4381  1.5174 -1.1160
  750MPD2    H111086   4.269   3.959  11.160  1.2939  0.7811  0.3821
  750MPD2    H211087   4.167   4.277  11.414  1.5939 -0.6109  1.3624
  750MPD2    H311088   4.307   4.186  11.244  1.3130 -1.6500 -1.0596
  750MPD2     N11089   4.074   3.806  11.192  0.3313  0.1739 -0.5263
  750MPD2    H511090   4.150   3.767  11.137  1.3735  0.9205  0.3792
  750MPD2    N111091   3.951   4.170  11.512 -0.4548  0.3649  0.0616
  750MPD2    H711092   3.975   4.260  11.554 -0.3127  0.8929 -1.1686
  751TMC3    C111093   3.998   3.593  11.146  0.2288 -0.0161  0.8753
  751TMC3    C211094   3.881   3.535  11.102  0.2813  0.2633 -0.7941
  751TMC3    C311095   3.894   3.458  10.994  0.3434  0.0656  0.0712
  751TMC3    C411096   4.119   3.553  11.104  0.2374  0.1012  0.0037
  751TMC3    C511097   4.126   3.454  11.012  0.6566  0.4546 -0.3970
  751TMC3    C611098   4.010   3.410  10.951  0.3958 -0.3718 -0.1396
  751TMC3     C11099   3.979   3.711  11.217  0.0550  0.6776  0.2792
  751TMC3     O11100   3.882   3.724  11.286  0.3359 -0.4371 -0.3485
  751TMC3     H11101   3.786   3.577  11.132 -0.1448  0.2575 -2.1591
  751TMC3    H111102   4.210   3.588  11.152  0.8605 -0.9655 -0.4272
  751TMC3    H211103   4.015   3.327  10.882  2.5343 -0.3705  0.0274
  751TMC3    C711104   4.242   3.377  10.995  0.8357 -0.5121  0.3522
  751TMC3    C811105   3.785   3.379  10.952 -0.2338 -0.0632  0.5039
  751TMC3    O111106   4.346   3.437  10.998 -0.8851 -0.5222  0.5299
  751TMC3    O211107   3.773   3.344  10.836 -0.0048  0.3002 -0.4770
  752TMC3    C111108   3.029   4.578  17.455 -1.1156  0.1075 -0.8436
  752TMC3    C211109   2.894   4.575  17.473  0.4105 -0.7202  0.2117
  752TMC3    C311110   2.845   4.609  17.602  0.4651  0.4214  0.4087
  752TMC3    C411111   3.118   4.627  17.549  0.1704  0.3704  0.2131
  752TMC3    C511112   3.063   4.659  17.670 -0.2404  0.0224  0.2059
  752TMC3    C611113   2.928   4.651  17.702  0.0517  0.0304  0.2754
  752TMC3     C11114   3.079   4.572  17.318 -0.0689 -0.3122 -0.0275
  752TMC3     O11115   3.193   4.604  17.305  0.7568 -0.2019 -0.0890
  752TMC3     H11116   2.824   4.547  17.396  0.6165 -0.3638 -0.1097
  752TMC3    H111117   3.224   4.611  17.535 -0.4854 -3.1422 -0.5959
  752TMC3    H211118   2.896   4.675   0.095  0.0863 -2.6026  0.9114
  752TMC3    C711119   3.145   0.003   0.053 -0.2270 -0.2380  0.2107
  752TMC3    C811120   2.703   4.646  17.609  0.0479 -1.1404 -0.3129
  752TMC3    O111121   3.217   0.088   0.007  0.3481 -0.2153  0.3111
  752TMC3    O211122   2.631   4.603  17.519 -0.2516 -0.0792  0.0162
  753TMC3    C111123   0.299   0.889  13.370 -0.7119  0.3296 -0.2544
  753TMC3    C211124   0.260   0.877  13.497 -0.1431  0.0592 -0.3508
  753TMC3    C311125   0.234   0.748  13.537  0.0727 -0.2022 -0.1813
  753TMC3    C411126   0.321   0.781  13.289 -0.0946  1.2958 -0.1518
  753TMC3    C511127   0.282   0.655  13.329 -0.6040 -0.1129 -0.8355
  753TMC3    C611128   0.236   0.635  13.453 -0.1042 -0.0542  0.0596
  753TMC3     C11129   0.364   1.016  13.346  0.2872 -0.3217  0.0392
  753TMC3     O11130   0.322   1.110  13.406  0.7257 -0.2002 -0.5374
  753TMC3     H11131   0.259   0.955  13.572 -1.9691  0.7232 -1.0764
  753TMC3    H111132   0.320   0.799  13.182  2.2251 -1.1115 -0.5475
  753TMC3    H211133   0.236   0.539  13.504 -1.4765 -0.6858 -1.1066
  753TMC3    C711134   0.289   0.545  13.239 -0.4526 -0.0060  0.3028
  753TMC3    C811135   0.213   0.715  13.680  0.7803  1.0281  0.2561
  753TMC3    O111136   0.368   0.538  13.145 -0.2183 -0.4834  0.1268
  753TMC3    O211137   0.150   0.615  13.699 -0.1168 -0.5568 -0.1004
  754MPD2     C11138   3.577   4.300  13.086  0.4674  0.1417  0.1285
  754MPD2    C111139   3.631   4.190  13.143 -0.4054 -0.0444  0.1908
  754MPD2    C211140   3.558   4.070  13.149  0.0098 -0.1772 -0.5818
  754MPD2    C311141   3.423   4.072  13.125 -0.0432  0.5059  0.3623
  754MPD2    C411142   3.368   4.185  13.057 -0.2545 -0.3764 -0.0662
  754MPD2    C511143   3.449   4.296  13.041  0.0412  0.5090 -0.3844
  754MPD2     H11144   3.598   3.989  13.209  0.0098 -0.9006 -1.5579
  754MPD2    H111145   3.264   4.194  13.028 -0.3391 -0.8536  0.0981
  754MPD2    H211146   3.627   4.396  13.083 -0.7765  0.8636  2.4795
  754MPD2    H311147   3.412   4.388  12.998  0.9272  1.7979  1.6074
  754MPD2     N11148   3.338   3.974  13.159 -0.6615  0.6217  0.1086
  754MPD2    H511149   3.240   3.988  13.138 -0.2495  0.2453 -1.9963
  754MPD2    N111150   3.754   4.200  13.204  0.3133 -0.1079 -0.1056
  754MPD2    H711151   3.802   4.290  13.199  1.1659 -0.5993 -0.9591
  755MPD2     C11152   2.449   3.879  13.569 -0.7520 -0.5603 -0.2074
  755MPD2    C111153   2.553   3.970  13.572  0.4169 -0.2459 -0.5802
  755MPD2    C211154   2.668   3.928  13.518 -0.4427  0.2877 -0.2729
  755MPD2    C311155   2.686   3.805  13.456  0.5122 -1.0516 -0.0964
  755MPD2    C411156   2.579   3.721  13.447 -0.3075 -0.3773 -0.7425
  755MPD2    C511157   2.462   3.757  13.503 -0.8994  0.0399  0.2597
  755MPD2     H11158   2.742   4.007  13.508 -0.7622  0.6866  0.4581
  755MPD2    H111159   2.591   3.622  13.403  1.2802 -1.5353  2.3194
  755MPD2    H211160   2.351   3.905  13.608  0.0379  1.1537  0.6328
  755MPD2    H311161   2.382   3.684  13.509 -2.2668  1.8046  2.9346
  755MPD2     N11162   2.811   3.764  13.402  0.1040 -0.4642  0.1520
  755MPD2    H511163   2.810   3.678  13.348 -1.2996  0.4188 -1.2369
  755MPD2    N111164   2.523   4.089  13.635  0.3309 -0.3191 -0.3257
  755MPD2    H711165   2.424   4.109  13.642  0.4319 -0.3802  1.2986
  756MPD2     C11166   4.383   4.661   9.669  0.0256  0.0711  0.5716
  756MPD2    C111167   4.265   4.658   9.742  0.0679 -0.5717 -0.2625
  756MPD2    C211168   4.155   4.709   9.678 -0.0420 -0.0901  0.1230
  756MPD2    C311169   4.152   0.026   9.541  0.5316  0.5221 -0.4376
  756MPD2    C411170   4.270   0.029   9.472  0.4741  0.6112  0.3175
  756MPD2    C511171   4.383   4.707   9.540  0.3080 -0.7735  0.0207
  756MPD2     H11172   4.061   4.718   9.731  0.0905 -3.8763  1.0142
  756MPD2    H111173   4.277   0.077   9.375  0.2239 -0.2471 -0.1239
  756MPD2    H211174   4.480   4.640   9.712  0.9847  1.5112 -0.8773
  756MPD2    H311175   4.477   4.716   9.487  0.2001 -1.0311 -0.2118
  756MPD2     N11176   4.023   0.046   9.488 -0.2323 -0.1626  0.4353
  756MPD2    H511177   3.936   0.036   9.539 -0.5631  0.6322  0.0245
  756MPD2    N111178   4.250   4.594   9.864  0.3178  0.4111 -0.5887
  756MPD2    H711179   4.158   4.596   9.907  2.3076  0.1227  3.6721
  757MPD2     C11180   3.382   4.252   9.550 -0.1975  0.0592  0.1520
  757MPD2    C111181   3.502   4.286   9.607  0.4347 -0.0972  0.8725
  757MPD2    C211182   3.546   4.411   9.580 -0.1616  0.6764 -0.3381
  757MPD2    C311183   3.484   4.486   9.488 -0.1473 -0.9027  0.4304
  757MPD2    C411184   3.369   4.444   9.426  0.3274  0.6655  0.7420
  757MPD2    C511185   3.309   4.326   9.463  0.2308  0.3880 -0.1468
  757MPD2     H11186   3.645   4.449   9.601  0.2700 -0.5277 -0.2061
  757MPD2    H111187   3.326   4.510   9.351 -2.9711 -2.0278  0.2697
  757MPD2    H211188   3.335   4.159   9.581  1.6740 -0.1635  2.4088
  757MPD2    H311189   3.215   4.302   9.414  0.7224  1.3343 -1.5462
  757MPD2     N11190   3.550   4.606   9.449 -0.0627 -0.0412  0.3491
  757MPD2    H511191   3.636   4.625   9.499  0.4036 -1.3491  0.0497
  757MPD2    N111192   3.575   4.197   9.688 -0.5074  0.0587  0.3096
  757MPD2    H711193   3.525   4.116   9.722 -1.1552  0.5471  0.5070
  758MPD2     C11194   3.641   3.182  15.980  0.5310 -1.0221 -0.2551
  758MPD2    C111195   3.709   3.100  16.065 -0.2421 -0.5619 -0.4056
  758MPD2    C211196   3.703   3.119  16.196  0.3972 -0.3473 -0.1668
  758MPD2    C311197   3.629   3.218  16.254  0.5877  0.2107  0.2709
  758MPD2    C411198   3.562   3.304  16.174 -0.4728  0.1404  0.2693
  758MPD2    C511199   3.566   3.281  16.038  0.5922  1.1285 -0.0549
  758MPD2     H11200   3.764   3.051  16.254 -0.0929 -0.5791  0.0733
  758MPD2    H111201   3.493   3.378  16.215  0.7098  0.2681  2.0079
  758MPD2    H211202   3.648   3.173  15.872 -1.5709 -0.1566 -0.4646
  758MPD2    H311203   3.508   3.342  15.969 -1.8710 -1.4292 -0.2513
  758MPD2     N11204   3.617   3.254  16.391  0.7016 -0.4298  0.1607
  758MPD2    H511205   3.579   3.346  16.412  1.0375 -0.4695  0.9409
  758MPD2    N111206   3.802   3.009  16.009  0.8112  0.2371  0.1078
  758MPD2    H711207   3.826   3.000  15.910 -0.8231 -0.2117 -0.2491
  759MPD2     C11208   2.454   2.147   9.469  0.5764  0.8017  0.1158
  759MPD2    C111209   2.533   2.042   9.512  0.3714  0.3221  1.0527
  759MPD2    C211210   2.616   1.981   9.424  0.0553 -0.8609  0.0329
  759MPD2    C311211   2.615   2.013   9.291 -0.6400  0.3600  0.6167
  759MPD2    C411212   2.529   2.110   9.249  1.4057  0.3648  0.1434
  759MPD2    C511213   2.450   2.178   9.340 -0.2843  0.7044 -0.5116
  759MPD2     H11214   2.681   1.902   9.461  0.5503 -0.5204 -0.1006
  759MPD2    H111215   2.524   2.147   9.147  0.1008 -0.9128 -0.2653
  759MPD2    H211216   2.382   2.195   9.534  0.0717 -1.0379  0.9081
  759MPD2    H311217   2.389   2.262   9.310 -1.1204  0.9043  1.7911
  759MPD2     N11218   2.706   1.953   9.202  0.5287  0.3217  0.0475
  759MPD2    H511219   2.781   1.894   9.236 -0.9372 -1.7583 -0.3482
  759MPD2    N111220   2.531   1.995   9.643 -0.2500 -0.6165  0.1542
  759MPD2    H711221   2.585   1.910   9.658 -0.5762 -1.0041 -0.8527
  760MPD2     C11222   1.875   3.831  12.104  0.0904 -0.8476 -0.4663
  760MPD2    C111223   2.002   3.787  12.073 -0.4350  0.0545 -0.5355
  760MPD2    C211224   2.047   3.674  12.130  0.2125  0.5678  0.1009
  760MPD2    C311225   1.964   3.592  12.203  0.1578  0.1722  0.5175
  760MPD2    C411226   1.834   3.634  12.231 -0.5342  0.1358  0.5095
  760MPD2    C511227   1.790   3.750  12.182 -0.3226 -0.0931  0.3863
  760MPD2     H11228   2.149   3.647  12.103  0.7077  1.8547  0.7047
  760MPD2    H111229   1.775   3.563  12.289  1.2803 -0.8188  1.2048
  760MPD2    H211230   1.841   3.930  12.073  2.9727  0.2418 -0.1970
  760MPD2    H311231   1.688   3.781  12.200 -0.4298  0.4385 -1.1172
  760MPD2     N11232   2.011   3.473  12.265 -0.7859 -0.5392 -0.1172
  760MPD2    H511233   1.960   3.430  12.342 -0.3278  2.4578  1.8530
  760MPD2    N111234   2.083   3.853  11.984 -0.1674  0.1055 -0.0597
  760MPD2    H711235   2.171   3.807  11.965 -0.5202  0.3955 -2.4958
  761MPD2     C11236   3.447   3.007  11.043 -0.9813 -0.1176  0.0798
  761MPD2    C111237   3.552   3.010  10.956 -0.0375 -0.0435  0.0310
  761MPD2    C211238   3.632   3.126  10.959 -0.1897 -0.7213  0.9787
  761MPD2    C311239   3.609   3.231  11.046 -0.2406  0.9481 -1.1125
  761MPD2    C411240   3.516   3.210  11.152 -0.4487 -0.1557  0.6118
  761MPD2    C511241   3.426   3.103  11.137 -0.9756  0.2603 -0.3865
  761MPD2     H11242   3.721   3.132  10.898 -0.4352 -2.7695  0.4319
  761MPD2    H111243   3.506   3.285  11.230 -1.2397  0.3456  0.0374
  761MPD2    H211244   3.391   2.914  11.052 -2.5920  0.9831  1.3520
  761MPD2    H311245   3.353   3.082  11.214 -0.7535 -1.0378 -0.5205
  761MPD2     N11246   3.692   3.344  11.050  0.2249  0.1073  0.5189
  761MPD2    H511247   3.690   3.398  11.136 -1.8967  0.3023  0.3571
  761MPD2    N111248   3.592   2.886  10.886 -0.2919 -0.0781  0.4474
  761MPD2    H711249   3.540   2.799  10.887  0.1887 -0.3696  0.0398
  762MPD2     C11250   4.281   2.886  10.472  0.8794 -0.3768 -0.5726
  762MPD2    C111251   4.229   2.761  10.478  0.2571  0.2493  0.1498
  762MPD2    C211252   4.308   2.661  10.435  0.0802 -0.0082 -0.2822
  762MPD2    C311253   4.431   2.684  10.382  0.2155  0.1150 -0.0563
  762MPD2    C411254   4.480   2.811  10.365  0.4458  0.2580  0.1448
  762MPD2    C511255   4.402   2.907  10.412 -0.3781 -0.5916  0.1442
  762MPD2     H11256   4.269   2.560  10.446 -1.9793  0.6043 -1.7649
  762MPD2    H111257   4.583   2.822  10.331  0.6752 -0.9094  0.4839
  762MPD2    H211258   4.239   2.975  10.517 -0.8746 -1.8024  0.6530
  762MPD2    H311259   4.430   3.012  10.401  1.4025 -1.2270 -1.3727
  762MPD2     N11260   4.510   2.575  10.343 -0.3109  0.5830  0.3274
  762MPD2    H511261   4.606   2.603  10.328  0.0100 -0.3583  0.6178
  762MPD2    N111262   4.096   2.747  10.537 -0.4966 -0.9362 -0.7949
  762MPD2    H711263   4.050   2.833  10.566 -0.4831 -1.2816  0.2241
  763MPD2     C11264   0.933   3.808  16.624 -0.7149 -0.1180  0.3222
  763MPD2    C111265   0.803   3.819  16.645 -0.2908 -0.1853  0.3221
  763MPD2    C211266   0.746   3.937  16.688 -0.4757 -0.5011 -0.3891
  763MPD2    C311267   0.821   4.051  16.702  0.3261  0.1333  0.2915
  763MPD2    C411268   0.952   4.046  16.682 -0.0376 -0.5265  0.9056
  763MPD2    C511269   1.004   3.928  16.635  0.4900 -0.3561 -0.6240
  763MPD2     H11270   0.641   3.936  16.715 -0.4992  0.5551 -0.4465
  763MPD2    H111271   1.014   4.134  16.695  1.8753 -1.4043 -2.2257
  763MPD2    H211272   0.988   3.719  16.596 -1.4896 -0.4740 -0.0581
  763MPD2    H311273   1.111   3.918  16.621  0.7643  1.4924  0.0968
  763MPD2     N11274   0.769   4.181  16.724 -0.2098 -0.0450  0.6814
  763MPD2    H511275   0.814   4.268  16.700 -1.6239  0.7975  1.1169
  763MPD2    N111276   0.716   3.713  16.609  0.0837  0.1586  0.7706
  763MPD2    H711277   0.616   3.721  16.621  0.0712 -1.2232  1.5401
  764MPD2     C11278   4.043   0.487  16.947  0.1696 -0.1417  0.5339
  764MPD2    C111279   3.952   0.405  16.884  1.2457  0.1742 -0.0884
  764MPD2    C211280   3.852   0.339  16.962 -0.6532 -0.1556  0.2268
  764MPD2    C311281   3.855   0.365  17.101  0.9327  0.2727  0.5586
  764MPD2    C411282   3.938   0.462  17.157  0.2589  0.3989  0.1525
  764MPD2    C511283   4.034   0.516  17.080 -0.5952 -0.3147  0.2775
  764MPD2     H11284   3.782   0.267  16.922  1.3471 -1.3888 -1.0344
  764MPD2    H111285   3.950   0.495  17.260  0.5081 -0.8308  0.5286
  764MPD2    H211286   4.120   0.543  16.895  0.9732 -0.8223  0.9880
  764MPD2    H311287   4.105   0.589  17.116  1.1372 -1.8635 -0.0103
  764MPD2     N11288   3.750   0.307  17.182 -0.6269 -0.5122 -0.2069
  764MPD2    H511289   3.684   0.243  17.138  0.2770 -1.0267 -0.8140
  764MPD2    N111290   3.955   0.388  16.749 -0.0092 -0.0741  0.0483
  764MPD2    H711291   3.887   0.321  16.714 -0.3177  1.1395 -1.6450
  765MPD2     C11292   2.672   3.148  16.272  0.3719  0.0170  0.6911
  765MPD2    C111293   2.721   3.271  16.228 -0.3794 -0.1850  0.4971
  765MPD2    C211294   2.795   3.268  16.113  0.3426 -0.4720  0.0348
  765MPD2    C311295   2.826   3.151  16.052 -0.9883  0.1357  0.0030
  765MPD2    C411296   2.808   3.037  16.116 -0.0238 -0.0931  0.1040
  765MPD2    C511297   2.727   3.039  16.222 -0.0349  0.2882  0.2772
  765MPD2     H11298   2.819   3.365  16.070  0.3116  0.1053  1.2998
  765MPD2    H111299   2.851   2.947  16.074  0.3008 -0.8681  2.1134
  765MPD2    H211300   2.615   3.121  16.359 -0.2997 -0.9839 -0.0527
  765MPD2    H311301   2.712   2.947  16.277 -1.9027 -0.0029 -0.7494
  765MPD2     N11302   2.881   3.156  15.925 -0.5792  0.3423  0.0234
  765MPD2    H511303   2.872   3.245  15.878  0.6156  0.4751  0.0536
  765MPD2    N111304   2.680   3.389  16.296 -0.5345  0.1067  0.7816
  765MPD2    H711305   2.596   3.370  16.351  0.0055  0.0678  1.5797
  766MPD2     C11306   2.432   3.236  15.774  0.0021 -0.7783  0.0334
  766MPD2    C111307   2.536   3.321  15.767 -0.2595  0.0624  0.1959
  766MPD2    C211308   2.624   3.315  15.660  0.4407 -0.2126 -0.2247
  766MPD2    C311309   2.601   3.225  15.557 -0.4777  0.2018 -0.8874
  766MPD2    C411310   2.490   3.135  15.570  0.2788  0.3880 -0.1507
  766MPD2    C511311   2.414   3.143  15.676  0.3283  0.1979  0.1654
  766MPD2     H11312   2.707   3.384  15.658  2.7010 -2.9920 -2.0162
  766MPD2    H111313   2.473   3.063  15.491 -1.4932  1.6445 -0.9077
  766MPD2    H211314   2.366   3.236  15.860  1.5784  0.5997  1.2468
  766MPD2    H311315   2.332   3.072  15.679 -0.1309  0.7033 -0.5122
  766MPD2     N11316   2.682   3.212  15.438 -0.0275 -0.4607  0.0557
  766MPD2    H511317   2.656   3.134  15.378  1.8811 -2.2867  1.5663
  766MPD2    N111318   2.560   3.421  15.870  0.4495 -0.0275  0.0293
  766MPD2    H711319   2.627   3.496  15.864  2.1360 -1.5835 -0.6298
  767MPD2     C11320   2.310   3.394  15.459  0.6431  0.5916 -0.0091
  767MPD2    C111321   2.405   3.448  15.378 -0.0466 -0.3835  0.0322
  767MPD2    C211322   2.400   3.416  15.243 -0.5355 -0.0368  0.0827
  767MPD2    C311323   2.304   3.329  15.185  0.6433 -0.2639 -0.5246
  767MPD2    C411324   2.216   3.275  15.274  0.5564 -0.1366 -0.2380
  767MPD2    C511325   2.208   3.315  15.402 -0.3464  0.1198 -0.7583
  767MPD2     H11326   2.469   3.460  15.172  0.4980 -2.7979 -0.5917
  767MPD2    H111327   2.147   3.202  15.233  0.4046  0.0105 -0.2468
  767MPD2    H211328   2.311   3.419  15.565  2.5737 -0.1734  0.1552
  767MPD2    H311329   2.121   3.302  15.464 -0.6340  1.0244 -0.9688
  767MPD2     N11330   2.321   3.297  15.048  1.0222 -0.4365  0.2430
  767MPD2    H511331   2.412   3.317  15.007  1.1380  0.1596  0.7878
  767MPD2    N111332   2.494   3.541  15.441 -0.6115 -0.1841 -0.9378
  767MPD2    H711333   2.478   3.571  15.536  0.5826 -2.8674  0.0876
  768MPD2     C11334   3.812   1.623  10.607  0.2829 -0.0297 -0.2672
  768MPD2    C111335   3.768   1.510  10.668  0.2677  0.0211 -0.0732
  768MPD2    C211336   3.842   1.455  10.770  0.5484 -1.0512 -0.7034
  768MPD2    C311337   3.967   1.504  10.806  0.0720 -0.0716  0.1914
  768MPD2    C411338   4.011   1.620  10.747 -0.0161  0.3556  0.9914
  768MPD2    C511339   3.929   1.676  10.653  0.3163 -0.0454 -0.2439
  768MPD2     H11340   3.801   1.369  10.822 -1.7260  0.1170 -0.5588
  768MPD2    H111341   4.099   1.673  10.781  0.5771  0.3292 -0.5216
  768MPD2    H211342   3.758   1.683  10.534  2.2263  0.7874 -1.0483
  768MPD2    H311343   3.972   1.763  10.605 -0.1341  1.4254  2.0317
  768MPD2     N11344   4.046   1.454  10.907  0.6771 -0.3162  0.0275
  768MPD2    H511345   4.138   1.495  10.917  0.9519 -0.9784  0.2397
  768MPD2    N111346   3.644   1.441  10.636  0.0397  0.5185 -0.7485
  768MPD2    H711347   3.625   1.354  10.685  1.8060  1.8422  2.2971
  769MPD2     C11348   4.220   4.711  14.827 -0.4726  0.2631  0.1828
  769MPD2    C111349   4.178   4.644  14.938  0.1335 -0.0232  0.3578
  769MPD2    C211350   4.262   4.615  15.047 -0.7606  0.4469 -0.1481
  769MPD2    C311351   4.388   4.666  15.040  0.0439  0.1312 -0.7270
  769MPD2    C411352   4.434   4.721  14.925 -0.4140  0.3724  0.3103
  769MPD2    C511353   4.352   0.014  14.816 -0.9711  0.1921 -0.0143
  769MPD2     H11354   4.225   4.579  15.142 -0.9039  2.1843  0.4427
  769MPD2    H111355   4.537   0.020  14.902  0.4269 -1.4991  1.9528
  769MPD2    H211356   4.157   4.725  14.740 -0.0140 -2.6779 -0.6356
  769MPD2    H311357   4.391   0.060  14.726 -2.1278  2.1168  0.4670
  769MPD2     N11358   4.470   4.645  15.151 -0.2455  0.0691  0.6233
  769MPD2    H511359   4.430   4.600  15.232 -1.1987  0.7459  0.5346
  769MPD2    N111360   4.039   4.611  14.934 -0.4545 -0.0850 -0.3851
  769MPD2    H711361   3.981   4.636  14.854 -1.9307 -0.8751  0.4405
  770MPD2     C11362   3.426   4.036  15.520  0.6869 -0.3733  0.1866
  770MPD2    C111363   3.562   4.058  15.520 -0.1725 -0.2199 -0.1259
  770MPD2    C211364   3.626   4.148  15.434  0.2354 -0.1132 -0.4924
  770MPD2    C311365   3.553   4.203  15.336  0.0020  1.0269 -0.0053
  770MPD2    C411366   3.415   4.198  15.343 -0.1315 -1.1487 -0.1014
  770MPD2    C511367   3.349   4.113  15.428 -0.2002  0.1951  0.5331
  770MPD2     H11368   3.733   4.166  15.443  0.3782 -1.0119 -0.4161
  770MPD2    H111369   3.346   4.256  15.283 -0.9101 -1.2163  0.7287
  770MPD2    H211370   3.377   3.966  15.586 -1.1164  1.0780  0.3935
  770MPD2    H311371   3.241   4.106  15.435 -0.0946 -1.1626  0.8719
  770MPD2     N11372   3.611   4.282  15.234 -0.0514 -0.9471  0.2381
  770MPD2    H511373   3.710   4.300  15.251  0.1415  0.0589 -2.0287
  770MPD2    N111374   3.634   3.982  15.613  0.0334 -0.4183  1.4237
  770MPD2    H711375   3.576   3.919  15.668  0.0839  1.3657  3.5335
  771MPD2     C11376   0.577   2.250  14.035 -0.2086  0.3982  0.0626
  771MPD2    C111377   0.492   2.350  14.000 -0.8016  0.6850  0.0362
  771MPD2    C211378   0.374   2.326  13.929  0.7260 -0.3463 -0.4811
  771MPD2    C311379   0.336   2.196  13.904  0.2456 -0.3142  0.3389
  771MPD2    C411380   0.426   2.093  13.938  0.3444 -1.0105  0.2380
  771MPD2    C511381   0.546   2.126  13.993 -0.3370  0.2965 -0.2512
  771MPD2     H11382   0.302   2.404  13.908  0.0397 -0.9421 -0.3635
  771MPD2    H111383   0.402   1.991  13.911  0.6614  0.0248 -3.9449
  771MPD2    H211384   0.672   2.271  14.084  0.8574 -0.4070 -1.6540
  771MPD2    H311385   0.616   2.046  14.014 -1.0356 -0.0246  0.8239
  771MPD2     N11386   0.209   2.166  13.853  0.1707 -0.1852  0.4015
  771MPD2    H511387   0.152   2.249  13.837  0.6859 -0.1766 -1.3832
  771MPD2    N111388   0.525   2.491  14.014 -0.1325 -0.8597  0.1124
  771MPD2    H711389   0.452   2.553  13.981 -1.2351 -0.6548  2.9309
  772MPD2     C11390   0.248   3.148  13.907  0.6046  0.2322 -0.3109
  772MPD2    C111391   0.234   3.011  13.925 -0.1223  0.1864 -0.0797
  772MPD2    C211392   0.120   2.947  13.970 -0.5606  0.4610  0.0435
  772MPD2    C311393   0.010   3.034  13.986  0.5987  0.2619  0.0149
  772MPD2    C411394   0.016   3.163  13.953  0.4613  0.0065  0.1940
  772MPD2    C511395   0.129   3.223  13.908  0.5643 -0.0643 -0.0504
  772MPD2     H11396   0.115   2.840  13.989 -0.3531  0.9735  3.0738
  772MPD2    H111397   4.657   3.228  13.945  0.3535 -0.2456 -0.6571
  772MPD2    H211398   0.337   3.209  13.897  0.8477 -0.2973 -1.3461
  772MPD2    H311399   0.128   3.330  13.892 -1.1502 -0.2581 -1.3110
  772MPD2     N11400   4.610   2.984  14.031  0.2823 -0.2615  0.3307
  772MPD2    H511401   4.534   3.050  14.046  0.6843 -0.3329  2.7833
  772MPD2    N111402   0.347   2.926  13.942  0.1430 -0.1883 -0.0170
  772MPD2    H711403   0.330   2.834  13.982 -0.1751  0.9860  2.5749
  773MPD2     C11404   3.784   3.654   0.464 -0.1007  0.4820  0.1670
  773MPD2    C111405   3.890   3.633   0.377  0.2244  0.2988 -0.4300
  773MPD2    C211406   4.013   3.582   0.425 -0.5496  0.4382  0.3840
  773MPD2    C311407   4.020   3.537   0.558  0.1588  0.5649 -0.7678
  773MPD2    C411408   3.902   3.541   0.636  0.2615  0.3628  0.4734
  773MPD2    C511409   3.792   3.607   0.594 -0.5743  0.0421 -0.2671
  773MPD2     H11410   4.092   3.571   0.351 -0.6385 -3.0686  0.8108
  773MPD2    H111411   3.892   3.496   0.734  1.4906 -2.4282 -0.6859
  773MPD2    H211412   3.692   3.696   0.427 -0.3096 -0.5686 -0.5095
  773MPD2    H311413   3.697   3.600   0.646 -0.3920 -0.4520 -0.0031
  773MPD2     N11414   4.139   3.482   0.616  0.4228 -0.1106  0.7307
  773MPD2    H511415   4.142   3.461   0.716  1.7986 -2.7111  0.1304
  773MPD2    N111416   3.886   3.664   0.242 -0.0311 -0.6757  0.0523
  773MPD2    H711417   3.959   3.630   0.180  0.0675  1.3335 -0.9348
  774MPD2     C11418   3.899   3.308  13.499  0.2413  0.3504  0.5756
  774MPD2    C111419   3.810   3.389  13.562 -0.3135 -0.0631  0.3026
  774MPD2    C211420   3.826   3.528  13.548 -0.7508 -0.2336  0.1857
  774MPD2    C311421   3.937   3.584  13.488 -0.1579  0.0844 -0.2861
  774MPD2    C411422   4.026   3.502  13.423  0.0216 -0.5063 -0.4372
  774MPD2    C511423   4.010   3.358  13.431  0.4758  0.0297  0.9712
  774MPD2     H11424   3.743   3.589  13.583 -1.5359 -1.4290  0.4093
  774MPD2    H111425   4.112   3.545  13.372 -0.3600 -0.5465 -1.1234
  774MPD2    H211426   3.900   3.201  13.487 -1.2480  0.5332 -1.2732
  774MPD2    H311427   4.081   3.302  13.371  0.8464  1.2959  0.2272
  774MPD2     N11428   3.949   3.727  13.476  0.1349  0.3312 -0.3204
  774MPD2    H511429   3.886   3.786  13.529  1.4742  0.6736  0.9068
  774MPD2    N111430   3.708   3.321  13.633  0.6305 -0.3455  0.0074
  774MPD2    H711431   3.712   3.220  13.635 -1.1409 -0.3987  0.2348
  775MPD2     C11432   0.521   4.680  16.225  1.2366  0.3335 -0.3541
  775MPD2    C111433   0.415   0.027  16.161 -0.5009 -0.9390 -0.7202
  775MPD2    C211434   0.434   0.118  16.060  0.0677  0.9024  0.0141
  775MPD2    C311435   0.562   0.117  16.003  0.2221  0.2112  0.0162
  775MPD2    C411436   0.655   0.038  16.060  0.4616 -1.2541  0.3326
  775MPD2    C511437   0.646   4.686  16.168  0.0564 -0.2537  0.3618
  775MPD2     H11438   0.364   0.200  16.054 -1.9585 -0.8627 -0.2449
  775MPD2    H111439   0.758   0.043  16.027 -0.1562 -2.3230 -1.7031
  775MPD2    H211440   0.496   4.608  16.302  1.0020  0.0724 -0.6805
  775MPD2    H311441   0.724   4.623  16.208  0.9191 -0.0971 -1.0853
  775MPD2     N11442   0.594   0.207  15.895 -0.2008  0.7733  0.2488
  775MPD2    H511443   0.686   0.187  15.857 -0.7015 -1.3677  0.1808
  775MPD2    N111444   0.281   0.015  16.213  0.0108  0.2368 -0.2851
  775MPD2    H711445   0.280   4.677  16.291 -0.7289  0.2906 -0.2484
  776MPD2     C11446   3.505   0.126  11.411  0.4738 -0.3397 -0.5753
  776MPD2    C111447   3.630   0.073  11.449  0.3313  0.5571  0.2626
  776MPD2    C211448   3.744   0.131  11.395  0.3637 -0.5883 -0.3825
  776MPD2    C311449   3.732   0.250  11.316  0.4418  0.5077 -0.9833
  776MPD2    C411450   3.606   0.296  11.278 -0.0382  0.0061  0.0836
  776MPD2    C511451   3.499   0.234  11.329 -0.0219 -0.6270  1.1486
  776MPD2     H11452   3.842   0.085  11.405  1.2623  1.2303 -0.7827
  776MPD2    H111453   3.578   0.376  11.209 -0.6540  1.0159  1.5023
  776MPD2    H211454   3.416   0.085  11.457 -0.8314  0.9000 -2.0008
  776MPD2    H311455   3.399   0.274  11.315  0.7744  2.2922  3.8208
  776MPD2     N11456   3.842   0.320  11.263 -0.0321  0.4673  0.1428
  776MPD2    H511457   3.824   0.382  11.185  1.0105  1.9149  1.0447
  776MPD2    N111458   3.627   4.688  11.529 -0.1430 -0.7424 -0.2566
  776MPD2    H711459   3.537   4.664  11.569 -0.6372 -0.2721 -1.0979
  777MPD2     C11460   3.566   2.461   0.785 -0.1321 -0.3151  0.1441
  777MPD2    C111461   3.586   2.378   0.895  0.3336 -1.2376 -0.2529
  777MPD2    C211462   3.595   2.244   0.872 -0.1216  0.1891  0.5739
  777MPD2    C311463   3.585   2.189   0.739  0.7954 -0.4314 -0.0553
  777MPD2    C411464   3.554   2.274   0.636  0.4363 -0.0071  0.7878
  777MPD2    C511465   3.539   2.407   0.660  0.9916  0.3827  0.3948
  777MPD2     H11466   3.605   2.178   0.958  0.3050 -0.5935 -0.0800
  777MPD2    H111467   3.549   2.233   0.536 -0.5826  1.2236  0.3276
  777MPD2    H211468   3.553   2.568   0.798  3.0610  0.3091 -1.7407
  777MPD2    H311469   3.514   2.468   0.574  1.4942  1.8601  1.2934
  777MPD2     N11470   3.591   2.050   0.721  0.4494  0.0129 -0.2804
  777MPD2    H511471   3.596   1.998   0.809  0.3198  1.3929  0.5330
  777MPD2    N111472   3.594   2.440   1.022  0.3873 -0.0348  0.6748
  777MPD2    H711473   3.575   2.540   1.013 -1.3102 -0.3756  0.5712
  778MPD2     C11474   0.084   2.341  15.035  0.5529 -0.4813  0.3349
  778MPD2    C111475   0.150   2.222  15.029 -0.1840 -0.2288 -0.1867
  778MPD2    C211476   0.282   2.225  14.992 -0.4773 -0.5811 -0.0510
  778MPD2    C311477   0.355   2.339  14.963  0.3276 -0.2131  0.0777
  778MPD2    C411478   0.288   2.459  14.977 -0.3310 -0.2652 -0.2970
  778MPD2    C511479   0.155   2.456  15.010  0.8768 -0.3045  0.0252
  778MPD2     H11480   0.328   2.126  14.989 -1.9008 -1.2713  0.9029
  778MPD2    H111481   0.331   2.558  14.973  0.3917 -0.5604  0.1055
  778MPD2    H211482   4.710   2.358  15.073  0.2660  2.0747 -1.5908
  778MPD2    H311483   0.107   2.553  15.019  0.1491 -0.5928 -0.7442
  778MPD2     N11484   0.491   2.334  14.955  0.2433 -0.3806 -0.2035
  778MPD2    H511485   0.534   2.243  14.972  1.4132 -0.7943 -5.3935
  778MPD2    N111486   0.084   2.103  15.079  0.7024  0.3704  0.4003
  778MPD2    H711487   0.124   2.011  15.060  1.2505  0.4747  1.0562
  779MPD2     C11488   0.320   1.347  14.714 -0.7330  0.3867  0.5886
  779MPD2    C111489   0.331   1.343  14.581 -0.3974 -0.5671  0.0759
  779MPD2    C211490   0.272   1.436  14.502  0.1580  0.2437 -0.9744
  779MPD2    C311491   0.218   1.548  14.560 -0.3708 -0.7606 -0.3535
  779MPD2    C411492   0.193   1.551  14.697 -0.6513 -0.4136  0.2090
  779MPD2    C511493   0.249   1.451  14.775  0.5843 -0.4527 -0.6870
  779MPD2     H11494   0.281   1.429  14.394  1.0639  0.3116 -0.9002
  779MPD2    H111495   0.142   1.630  14.752  0.1801 -0.1913  0.6651
  779MPD2    H211496   0.364   1.272  14.779  0.9007 -2.3798 -3.7549
  779MPD2    H311497   0.260   1.456  14.883 -2.9772  0.6932 -0.4028
  779MPD2     N11498   0.174   1.657  14.479  0.4987 -0.0683  0.1539
  779MPD2    H511499   0.180   1.638  14.379  3.2254 -1.0357  0.5088
  779MPD2    N111500   0.419   1.264  14.512  0.7157  0.6379  0.5332
  779MPD2    H711501   0.408   1.277  14.412 -0.4078 -0.3036  0.5336
  780MPD2     C11502   4.346   1.295   0.971 -0.1025  0.2958  0.1711
  780MPD2    C111503   4.256   1.238   0.880 -0.6044 -0.5384  0.8460
  780MPD2    C211504   4.272   1.275   0.746 -0.3199 -0.9401 -0.3441
  780MPD2    C311505   4.373   1.369   0.713  0.3325 -0.1000  0.3174
  780MPD2    C411506   4.464   1.424   0.804 -0.1405  0.9036 -0.2970
  780MPD2    C511507   4.442   1.384   0.935 -1.0415  1.1108  0.5949
  780MPD2     H11508   4.222   1.226   0.663 -0.1576 -0.0780 -0.9496
  780MPD2    H111509   4.547   1.486   0.772 -0.0808 -0.8766 -3.6562
  780MPD2    H211510   4.354   1.262   1.074  0.1921  1.2197  0.4426
  780MPD2    H311511   4.509   1.423   1.010 -0.8992  1.6544  0.1826
  780MPD2     N11512   4.376   1.404   0.576 -0.4326 -0.1776  0.5710
  780MPD2    H511513   4.328   1.345   0.509  0.4997 -1.6347  1.1852
  780MPD2    N111514   4.166   1.140   0.930 -0.6471  0.2426  0.5485
  780MPD2    H711515   4.174   1.114   1.028  2.7254 -1.8168 -0.2667
  781MPD2     C11516   1.585   3.294  12.372  0.1115  0.0896 -0.2265
  781MPD2    C111517   1.686   3.204  12.373 -0.4901  0.1820 -0.5197
  781MPD2    C211518   1.758   3.185  12.256 -0.0407  1.1391 -0.0533
  781MPD2    C311519   1.739   3.263  12.144  0.1627 -0.4042 -0.3798
  781MPD2    C411520   1.644   3.359  12.145 -0.0231  0.0402  0.6577
  781MPD2    C511521   1.569   3.372  12.258 -0.2663  0.4272 -0.4538
  781MPD2     H11522   1.843   3.118  12.255 -1.0781 -0.2015  1.1519
  781MPD2    H111523   1.619   3.423  12.061  0.3250 -0.8804 -0.1500
  781MPD2    H211524   1.526   3.307  12.462 -2.3539  0.4857 -1.8970
  781MPD2    H311525   1.484   3.440  12.257 -2.3276 -2.1445 -0.7512
  781MPD2     N11526   1.830   3.264  12.033  0.8317 -0.0710 -0.2345
  781MPD2    H511527   1.830   3.348  11.976  1.4962 -0.1779 -0.3858
  781MPD2    N111528   1.714   3.136  12.499 -0.2358  0.0415 -0.0632
  781MPD2    H711529   1.650   3.158  12.575 -0.1551  1.3514 -0.3798
  782MPD2     C11530   4.501   3.455  10.238  0.1124 -0.1011 -0.2289
  782MPD2    C111531   4.611   3.458  10.327  0.2512 -0.2712  0.1966
  782MPD2    C211532   4.624   3.570  10.405  0.0790 -0.0398 -0.7245
  782MPD2    C311533   4.545   3.676  10.393  0.2630  0.2353  0.3566
  782MPD2    C411534   4.446   3.684  10.292  0.0511  0.2845  0.7859
  782MPD2    C511535   4.425   3.569  10.215  0.0689 -0.4436  0.2552
  782MPD2     H11536   4.685   3.572  10.494  0.0551  2.3298 -0.7600
  782MPD2    H111537   4.365   3.755  10.286 -0.7655 -1.0170 -3.1157
  782MPD2    H211538   4.460   3.363  10.197 -0.3062  0.2406 -0.5672
  782MPD2    H311539   4.335   3.559  10.156  0.5493 -0.5444 -0.4502
  782MPD2     N11540   4.560   3.786  10.472  0.7297  0.1542 -0.0436
  782MPD2    H511541   4.631   3.783  10.544 -0.0280 -1.1940  0.6356
  782MPD2    N111542   4.671   3.332  10.346 -0.2289  0.3626  0.1020
  782MPD2    H711543   4.635   3.244  10.311  2.8701 -1.0057  0.3962
  783MPD2     C11544   4.243   3.010  10.975 -0.5048 -0.2932 -0.4335
  783MPD2    C111545   4.288   3.137  10.947  0.4252 -0.3183 -0.1404
  783MPD2    C211546   4.403   3.157  10.868  0.0733 -0.2113  0.7513
  783MPD2    C311547   4.480   3.048  10.831  0.4150  0.4372  0.3350
  783MPD2    C411548   4.440   2.921  10.878 -0.9043 -0.5759 -0.5838
  783MPD2    C511549   4.326   2.901  10.947 -0.1933  0.5683 -0.2915
  783MPD2     H11550   4.423   3.253  10.822  2.6541 -0.9236  0.3915
  783MPD2    H111551   4.501   2.835  10.856  2.9042  1.0463  3.6945
  783MPD2    H211552   4.154   2.989  11.034  0.2000  2.3115  1.5469
  783MPD2    H311553   4.300   2.804  10.987  0.7945  0.9994  1.3679
  783MPD2     N11554   4.593   3.069  10.743  0.2260  0.4593  0.0666
  783MPD2    H511555   4.621   3.165  10.725  0.8497  0.0941 -0.8967
  783MPD2    N111556   4.207   3.244  10.989  0.2925 -0.0678  0.5231
  783MPD2    H711557   4.111   3.219  11.010 -0.3060 -0.7893 -3.1414
  784MPD2     C11558   0.906   4.483   0.990  0.5483  0.3449 -0.7722
  784MPD2    C111559   0.934   4.618   0.980 -0.2422  0.6691 -0.0114
  784MPD2    C211560   0.837   4.712   1.016 -0.5789 -0.6618  0.0347
  784MPD2    C311561   0.720   4.674   1.073 -0.1746  0.1536 -0.2963
  784MPD2    C411562   0.695   4.539   1.092 -0.5146  1.0873 -0.3868
  784MPD2    C511563   0.782   4.446   1.041 -0.5217 -0.8912 -0.5166
  784MPD2     H11564   0.858   0.092   1.016  0.0068 -0.7730 -1.5341
  784MPD2    H111565   0.605   4.502   1.139  0.6737 -1.2523  0.0554
  784MPD2    H211566   0.971   4.404   0.954  0.5883 -0.2569  0.6181
  784MPD2    H311567   0.757   4.341   1.042  2.4424 -1.6166 -1.5118
  784MPD2     N11568   0.636   0.052   1.128 -0.0844  0.2735 -0.0034
  784MPD2    H511569   0.673   0.147   1.131  0.9314 -0.1088 -0.1660
  784MPD2    N111570   1.056   4.671   0.923 -0.5551 -0.4817  0.1987
  784MPD2    H711571   1.067   0.045   0.919 -0.4432 -0.5273 -0.6913
  785MPD2     C11572   2.723   2.209  10.180 -0.1416  0.1645  0.0254
  785MPD2    C111573   2.641   2.295  10.114  0.7515  0.6956  0.9397
  785MPD2    C211574   2.666   2.310   9.974  0.4938 -0.7894  0.7816
  785MPD2    C311575   2.757   2.228   9.909  0.1724 -0.1493 -0.1613
  785MPD2    C411576   2.828   2.130   9.978 -0.1882 -0.1695 -0.6426
  785MPD2    C511577   2.810   2.129  10.110  0.0004 -0.7093  0.4636
  785MPD2     H11578   2.605   2.374   9.912  1.7796 -1.9770 -1.7243
  785MPD2    H111579   2.889   2.056   9.928 -1.4135  0.1944 -2.6695
  785MPD2    H211580   2.705   2.195  10.286 -0.9736  2.1772  0.1513
  785MPD2    H311581   2.869   2.053  10.160  0.2343 -2.1498 -2.0005
  785MPD2     N11582   2.767   2.249   9.770  0.2260 -0.3993  0.5680
  785MPD2    H511583   2.705   2.309   9.718 -0.9659 -2.3279 -0.2090
  785MPD2    N111584   2.539   2.377  10.182 -0.0027  0.6672  0.3890
  785MPD2    H711585   2.481   2.432  10.119 -0.8604  0.0752  0.6510
  786MPD2     C11586   0.625   0.784  14.689  0.2879  0.1695  1.0085
  786MPD2    C111587   0.703   0.672  14.675  0.8918 -0.1695 -0.6117
  786MPD2    C211588   0.767   0.637  14.793 -0.2586 -0.5139  0.2312
  786MPD2    C311589   0.755   0.705  14.915 -0.0523  0.2104 -0.2563
  786MPD2    C411590   0.687   0.819  14.922 -0.1345  0.0928  0.2111
  786MPD2    C511591   0.625   0.859  14.807  0.0950 -0.2548  0.2467
  786MPD2     H11592   0.832   0.550  14.796  0.2421 -0.2036 -1.7732
  786MPD2    H111593   0.662   0.874  15.012  1.7042 -1.2871  1.5571
  786MPD2    H211594   0.588   0.836  14.602  1.1141  0.0337  0.5719
  786MPD2    H311595   0.568   0.951  14.811  3.2892  1.7496  0.0677
  786MPD2     N11596   0.804   0.648  15.031 -0.7158 -0.4671 -0.7200
  786MPD2    H511597   0.764   0.678  15.120  0.6014 -0.4378 -0.1339
  786MPD2    N111598   0.727   0.593  14.560 -0.4076 -0.1230 -0.4630
  786MPD2    H711599   0.794   0.518  14.569 -0.4677 -0.2814 -1.2721
  787MPD2     C11600   0.802   4.681  14.595  0.1045 -0.0020 -0.2437
  787MPD2    C111601   0.839   0.004  14.474 -0.5367 -0.0516  0.4864
  787MPD2    C211602   0.939   4.668  14.406  0.1407  0.1168  0.0108
  787MPD2    C311603   1.009   4.570  14.467 -0.2687 -0.0092 -0.4588
  787MPD2    C411604   0.961   4.517  14.581 -0.6167 -0.7364  0.2576
  787MPD2    C511605   0.855   4.568  14.657  0.3079  0.0847  0.5685
  787MPD2     H11606   0.972   4.712  14.313 -0.1355 -2.2024 -1.1893
  787MPD2    H111607   0.995   4.421  14.616  0.5731  0.2387  1.7289
  787MPD2    H211608   0.726   0.003  14.656 -0.4749 -0.5986 -0.5004
  787MPD2    H311609   0.820   4.526  14.751  0.2489  1.3907  1.1218
  787MPD2     N11610   1.129   4.532  14.400 -0.1335  0.8909  0.3559
  787MPD2    H511611   1.152   4.586  14.318  1.4886  1.3885  1.1496
  787MPD2    N111612   0.779   0.125  14.427 -0.0780  0.3080  0.0315
  787MPD2    H711613   0.711   0.169  14.488 -0.0648  0.8866 -0.3726
  788MPD2     C11614   3.469   3.687   0.203  0.8174 -0.1238  0.3038
  788MPD2    C111615   3.489   3.555   0.211  0.6366 -0.7263 -1.0275
  788MPD2    C211616   3.518   3.483   0.101  0.5292  0.5703 -0.3324
  788MPD2    C311617   3.514   3.539  17.676 -0.0698 -0.0160 -0.2015
  788MPD2    C411618   3.507   3.677  17.673  0.2821 -0.8045  0.0517
  788MPD2    C511619   3.495   3.745   0.082  0.0701  0.4803 -0.4541
  788MPD2     H11620   3.510   3.375   0.114  0.7295  0.5371 -0.4766
  788MPD2    H111621   3.511   3.736  17.583  1.8724 -1.8417 -0.5550
  788MPD2    H211622   3.462   3.753   0.288  2.0994 -0.3748  0.5945
  788MPD2    H311623   3.512   3.852   0.084 -0.4112  0.4962  2.5910
  788MPD2     N11624   3.516   3.466  17.553  0.2473 -0.2416 -0.2898
  788MPD2    H511625   3.542   3.520  17.471  3.1638 -0.7825  0.3019
  788MPD2    N111626   3.474   3.478   0.325 -0.0579  0.4375  0.0483
  788MPD2    H711627   3.504   3.381   0.318 -0.3823  0.2124  1.7272
  789MPD2     C11628   3.178   3.385  16.360 -0.1095  0.3929 -0.5010
  789MPD2    C111629   3.107   3.267  16.397 -0.6270  0.0843  0.3350
  789MPD2    C211630   2.989   3.283  16.471  0.3251  0.1821 -0.0220
  789MPD2    C311631   2.965   3.402  16.537  1.1043 -0.3126 -0.1541
  789MPD2    C411632   3.046   3.509  16.508  0.6796  0.4529 -0.3164
  789MPD2    C511633   3.148   3.504  16.414 -0.6589 -0.2003  0.0126
  789MPD2     H11634   2.924   3.197  16.469 -1.3731  1.5006 -1.8070
  789MPD2    H111635   3.037   3.603  16.562  1.7821 -0.2173  1.0369
  789MPD2    H211636   3.263   3.381  16.294 -0.0299  0.1387 -0.3822
  789MPD2    H311637   3.214   3.589  16.400  2.0984 -2.3127  0.2313
  789MPD2     N11638   2.836   3.430  16.606  0.2174  0.4591 -0.4794
  789MPD2    H511639   2.818   3.523  16.641  1.1369  0.2861  0.4488
  789MPD2    N111640   3.132   3.138  16.346  0.0369 -0.3344  0.3069
  789MPD2    H711641   3.072   3.059  16.367 -0.8154  0.6312  1.5546
  790MPD2     C11642   4.007   0.521  13.372  0.8321 -0.5919  0.1005
  790MPD2    C111643   3.998   0.385  13.393  0.0712  0.8601  0.2057
  790MPD2    C211644   3.920   0.311  13.298 -0.2339  0.1417  0.0769
  790MPD2    C311645   3.854   0.377  13.192  0.3634 -0.8428 -0.2483
  790MPD2    C411646   3.859   0.514  13.175  0.0243 -0.1414 -1.3252
  790MPD2    C511647   3.942   0.579  13.261  0.1059  0.1544  0.0793
  790MPD2     H11648   3.911   0.203  13.308  0.0169  0.1490  0.3890
  790MPD2    H111649   3.830   0.561  13.082 -1.3542  1.7260  0.0393
  790MPD2    H211650   4.057   0.594  13.434 -1.6805  0.8425  0.4395
  790MPD2    H311651   3.954   0.687  13.259  3.2235 -0.1947 -0.9422
  790MPD2     N11652   3.806   0.285  13.096 -0.1497  0.0694 -0.2178
  790MPD2    H511653   3.820   0.185  13.108 -0.4756  0.2044  1.2908
  790MPD2    N111654   4.059   0.318  13.502 -0.2933  0.8038 -0.3989
  790MPD2    H711655   4.039   0.218  13.503 -1.1638  0.9734  0.3759
  791MPD2     C11656   3.135   0.201  12.755 -0.2829  0.3977  0.2073
  791MPD2    C111657   3.188   0.083  12.796 -0.0510  0.9764  0.5084
  791MPD2    C211658   3.108   4.698  12.802 -0.1333 -0.4327  0.7764
  791MPD2    C311659   2.981   4.700  12.749 -0.2319 -0.3516  0.5579
  791MPD2    C411660   2.929   0.094  12.707  0.4533 -0.8410 -0.9571
  791MPD2    C511661   3.006   0.206  12.718  0.1430  0.0916 -0.4502
  791MPD2     H11662   3.152   4.603  12.833 -0.6155 -0.3042  1.8843
  791MPD2    H111663   2.826   0.109  12.679  0.5915 -0.8423 -1.4538
  791MPD2    H211664   3.194   0.292  12.756 -0.7854  0.7210  0.4613
  791MPD2    H311665   2.960   0.299  12.686 -0.4009 -0.4669 -1.2790
  791MPD2     N11666   2.922   4.573  12.742 -0.0681 -0.1932 -0.0600
  791MPD2    H511667   2.973   4.490  12.772  1.2638  0.0597 -1.6069
  791MPD2    N111668   3.324   0.089  12.846 -0.9943 -0.0241  0.2113
  791MPD2    H711669   3.355   0.182  12.823 -0.1863 -0.3865 -0.1504
  792MPD2     C11670   4.397   4.648  11.029 -0.1966  0.3177 -0.0918
  792MPD2    C111671   4.333   0.028  10.979  0.3327  0.0972 -0.3627
  792MPD2    C211672   4.188   0.031  10.987  0.1992  0.3207  0.7038
  792MPD2    C311673   4.117   4.652  11.047 -0.6346 -0.0342  0.0429
  792MPD2    C411674   4.189   4.543  11.101 -0.4245  0.4583 -0.9185
  792MPD2    C511675   4.324   4.545  11.081 -0.1051  0.5165 -0.1454
  792MPD2     H11676   4.144   0.124  10.950  2.1635  1.8635  2.2647
  792MPD2    H111677   4.137   4.461  11.150  0.0529  0.9313  0.3922
  792MPD2    H211678   4.504   4.634  11.033 -0.2501  0.6617  2.4432
  792MPD2    H311679   4.370   4.459  11.128 -0.4919  1.1476  1.4196
  792MPD2     N11680   3.971   4.650  11.056  0.0603  0.1945  0.3760
  792MPD2    H511681   3.942   4.574  11.117  1.7474 -0.4730  0.3636
  792MPD2    N111682   4.406   0.131  10.910  0.1337 -0.4925  0.1794
  792MPD2    H711683   4.355   0.211  10.875  1.3703 -0.2348 -1.0392
  793MPD2     C11684   3.686   4.318  10.297 -0.0680  0.7116  0.0691
  793MPD2    C111685   3.789   4.404  10.345 -0.0456  0.0166  0.3274
  793MPD2    C211686   3.766   4.475  10.453  0.2607  0.1299  0.3433
  793MPD2    C311687   3.642   4.474  10.517 -0.4783 -0.4335 -0.3277
  793MPD2    C411688   3.538   4.392  10.481 -0.4313 -0.0552 -0.1306
  793MPD2    C511689   3.566   4.320  10.364 -0.4580  0.0040 -0.1087
  793MPD2     H11690   3.851   4.531  10.490 -1.0870  2.1705  0.4222
  793MPD2    H111691   3.437   4.391  10.522 -1.1145  0.8018 -1.7482
  793MPD2    H211692   3.702   4.254  10.211  0.2986 -3.0147  2.9156
  793MPD2    H311693   3.487   4.260  10.319  0.0634 -0.4642 -0.4090
  793MPD2     N11694   3.633   4.550  10.639  0.2012  0.3328  0.7225
  793MPD2    H511695   3.722   4.591  10.664  0.9261 -0.9472  0.2660
  793MPD2    N111696   3.919   4.416  10.295 -0.2606 -0.3479 -0.4698
  793MPD2    H711697   3.988   4.451  10.361 -2.2024 -1.3361  2.0913
  794MPD2     C11698   3.916   4.221  17.301 -1.0512  0.0371 -0.6082
  794MPD2    C111699   3.939   4.090  17.264  0.1993  0.2406  0.4897
  794MPD2    C211700   3.975   4.065  17.130 -0.3500 -0.7045 -0.4074
  794MPD2    C311701   3.989   4.163  17.038 -0.8984  0.4162 -0.2127
  794MPD2    C411702   3.968   4.295  17.082  0.0189  0.2485 -0.4873
  794MPD2    C511703   3.924   4.324  17.212 -0.4817  0.5126  0.0591
  794MPD2     H11704   3.980   3.963  17.094  2.5219  0.0299 -2.1440
  794MPD2    H111705   3.955   4.377  17.012  0.3543 -0.9523 -1.9362
  794MPD2    H211706   3.874   4.246  17.398 -0.3628 -0.1595 -0.2597
  794MPD2    H311707   3.912   4.427  17.244  1.9458  1.3155 -1.5634
  794MPD2     N11708   4.013   4.146  16.896  0.1996 -0.0397  0.2547
  794MPD2    H511709   4.001   4.231  16.841 -0.9179 -0.7692 -0.6313
  794MPD2    N111710   3.929   3.978  17.353  0.5251  0.0160 -0.1199
  794MPD2    H711711   3.952   3.892  17.305 -6.2374 -1.9969  0.2863
  795MPD2     C11712   1.439   1.775  13.272  0.1060  0.2941 -0.1642
  795MPD2    C111713   1.444   1.683  13.169 -0.0095 -0.3619 -0.7720
  795MPD2    C211714   1.559   1.603  13.166 -0.3427 -0.2379  0.0706
  795MPD2    C311715   1.656   1.611  13.260  0.7387 -0.2252 -0.9197
  795MPD2    C411716   1.656   1.713  13.352 -0.0918 -0.7875  0.1540
  795MPD2    C511717   1.546   1.786  13.358  0.5599 -0.0259  1.1352
  795MPD2     H11718   1.559   1.533  13.083  1.4361  1.7994 -1.6555
  795MPD2    H111719   1.735   1.725  13.426  1.2168 -2.6129 -0.9416
  795MPD2    H211720   1.367   1.855  13.286 -2.1530 -1.5182 -1.5005
  795MPD2    H311721   1.536   1.855  13.441  2.5360  1.4441  0.1448
  795MPD2     N11722   1.766   1.515  13.264  0.0757 -0.2364  0.5745
  795MPD2    H511723   1.771   1.439  13.196 -0.7242 -0.5629  0.8847
  795MPD2    N111724   1.342   1.664  13.075  0.6101 -0.1948 -0.9249
  795MPD2    H711725   1.352   1.580  13.018 -0.8976 -0.8596 -0.2097
  796MPD2     C11726   1.179   3.106  16.264 -0.4129 -0.6252  0.4977
  796MPD2    C111727   1.133   3.143  16.384  0.5377 -0.3618  0.3080
  796MPD2    C211728   1.083   3.270  16.409 -0.6811 -0.3946  0.0618
  796MPD2    C311729   1.078   3.361  16.299  0.0621 -0.9794 -0.6823
  796MPD2    C411730   1.124   3.326  16.178 -0.1745  0.1413  0.0693
  796MPD2    C511731   1.181   3.199  16.166  0.6519 -0.4520 -0.8496
  796MPD2     H11732   1.041   3.301  16.504  1.7028 -1.4995  1.4588
  796MPD2    H111733   1.128   3.392  16.092 -0.5152  1.8752  1.3785
  796MPD2    H211734   1.232   3.012  16.251  0.0574 -0.2539 -0.2431
  796MPD2    H311735   1.201   3.161  16.066 -0.0852 -1.4023 -0.6344
  796MPD2     N11736   1.021   3.486  16.316 -0.0410  0.0754 -0.0466
  796MPD2    H511737   0.988   3.502  16.411 -1.5699 -1.2885 -0.3536
  796MPD2    N111738   1.116   3.029  16.468  0.4185 -0.3781  0.1300
  796MPD2    H711739   1.146   2.941  16.429  1.8429  0.7365 -1.2607
  797MPD2     C11740   1.523   2.037   0.097  0.2589  0.5317 -0.1533
  797MPD2    C111741   1.514   2.131   0.195 -0.2220 -0.8389  0.2898
  797MPD2    C211742   1.395   2.208   0.202 -0.1011 -0.2208  0.2181
  797MPD2    C311743   1.302   2.199   0.100 -0.1006 -0.1451  0.1973
  797MPD2    C411744   1.324   2.115  17.699  0.1999  0.6996  0.0889
  797MPD2    C511745   1.430   2.025  17.704  0.0992  0.2668 -1.1999
  797MPD2     H11746   1.387   2.281   0.281  0.4309 -0.8591  0.8594
  797MPD2    H111747   1.249   2.104  17.621  1.6726  1.4051 -1.4415
  797MPD2    H211748   1.610   1.973   0.100  1.0152  1.5538 -0.5195
  797MPD2    H311749   1.455   1.949  17.632  1.7793 -0.6344  0.3377
  797MPD2     N11750   1.193   2.293   0.111 -0.1744 -0.1607 -0.4536
  797MPD2    H511751   1.207   2.355   0.190  0.0977 -0.6060 -0.1530
  797MPD2    N111752   1.609   2.166   0.287 -0.7840 -0.9974 -0.0189
  797MPD2    H711753   1.581   2.245   0.343  0.4773 -0.3450 -0.2931
  798MPD2     C11754   1.384   2.858   0.463 -0.6514  0.2889  0.8178
  798MPD2    C111755   1.346   2.731   0.433 -0.4979 -0.2221  0.2544
  798MPD2    C211756   1.425   2.627   0.479 -0.0773 -0.0899 -0.2828
  798MPD2    C311757   1.540   2.652   0.538 -0.6399 -0.0389 -0.1041
  798MPD2    C411758   1.588   2.779   0.556  0.2448 -0.6856  0.5028
  798MPD2    C511759   1.504   2.882   0.530  0.1725 -0.2256  0.5944
  798MPD2     H11760   1.407   2.525   0.447  0.7840  0.1797 -1.6255
  798MPD2    H111761   1.690   2.790   0.592 -0.4145  0.1707  2.1292
  798MPD2    H211762   1.339   2.947   0.420  0.5123  0.7722  0.5979
  798MPD2    H311763   1.531   2.986   0.546 -0.3479  0.1801 -1.1737
  798MPD2     N11764   1.616   2.535   0.571 -0.2330  0.5158 -0.6432
  798MPD2    H511765   1.567   2.449   0.550  1.1587  0.0284 -1.8363
  798MPD2    N111766   1.233   2.710   0.346  0.4955  0.3043 -0.0473
  798MPD2    H711767   1.183   2.795   0.322  0.7537  0.7775  1.0644
  799MPD2     C11768   0.483   4.538  14.471  0.4146  0.2579  0.0180
  799MPD2    C111769   0.461   4.425  14.404  0.5415  0.4551  0.3625
  799MPD2    C211770   0.434   4.421  14.267 -0.4845  0.0015  0.0978
  799MPD2    C311771   0.442   4.539  14.194 -0.0757  0.3785 -0.1477
  799MPD2    C411772   0.470   4.654  14.260 -0.5834 -0.0795  0.5925
  799MPD2    C511773   0.495   4.651  14.396  0.0492  0.2637  0.6404
  799MPD2     H11774   0.417   4.328  14.213  3.1669 -0.4105 -0.3960
  799MPD2    H111775   0.483   0.022  14.209 -3.0076  0.5486  1.1221
  799MPD2    H211776   0.510   4.539  14.576 -1.4695  0.7777  0.5112
  799MPD2    H311777   0.529   0.011  14.452 -0.0766  1.3914 -1.0235
  799MPD2     N11778   0.420   4.540  14.053 -0.5558  0.1272 -0.1926
  799MPD2    H511779   0.433   4.626  14.001  0.3326 -0.2919 -0.6611
  799MPD2    N111780   0.462   4.306  14.474  0.3605  0.1423 -0.3684
  799MPD2    H711781   0.416   4.227  14.429 -2.3341  1.2766  0.3856
  800MPD2     C11782   1.427   0.695  14.571  0.3238  0.1044 -0.6777
  800MPD2    C111783   1.566   0.700  14.558  0.4388 -0.3142  1.1998
  800MPD2    C211784   1.623   0.663  14.437 -0.1418 -0.2283 -0.5714
  800MPD2    C311785   1.538   0.633  14.328  0.4090  0.3481  0.3891
  800MPD2    C411786   1.406   0.634  14.339 -0.4368  0.2242  0.1383
  800MPD2    C511787   1.355   0.656  14.465 -0.3177  0.5442  0.2242
  800MPD2     H11788   1.730   0.666  14.424  0.1033  0.1381  1.5054
  800MPD2    H111789   1.333   0.614  14.261 -0.5313  1.7916 -0.1637
  800MPD2    H211790   1.383   0.719  14.668 -1.0042 -2.3500 -0.6833
  800MPD2    H311791   1.249   0.667  14.484 -0.8293  0.8295 -2.7819
  800MPD2     N11792   1.605   0.601  14.205  0.4516 -0.2078  0.2846
  800MPD2    H511793   1.704   0.621  14.194 -0.0966  1.7377 -1.0893
  800MPD2    N111794   1.652   0.739  14.665 -0.0154  0.1299  0.0249
  800MPD2    H711795   1.751   0.737  14.644  0.2357 -0.3497  1.2368
  801MPD2     C11796   1.689   1.254  14.391 -0.2678  0.0951 -0.3176
  801MPD2    C111797   1.607   1.257  14.501  0.1775  0.0724 -0.2614
  801MPD2    C211798   1.478   1.302  14.495 -0.2418  0.6689  0.1691
  801MPD2    C311799   1.430   1.345  14.368 -0.2840 -0.2234  0.4146
  801MPD2    C411800   1.510   1.330  14.258 -0.1976  0.3732  0.3964
  801MPD2    C511801   1.640   1.286  14.267 -0.6470  0.3116  0.5392
  801MPD2     H11802   1.413   1.314  14.581  0.9031 -1.5690  1.3604
  801MPD2    H111803   1.475   1.364  14.162  2.0017 -0.3128 -0.6621
  801MPD2    H211804   1.791   1.218  14.383 -0.1577  0.2994  0.1510
  801MPD2    H311805   1.716   1.289  14.189 -0.0391  2.2240  1.1889
  801MPD2     N11806   1.314   1.431  14.358 -0.5060 -0.2910  0.1767
  801MPD2    H511807   1.266   1.434  14.269  1.5497  1.0513 -0.8802
  801MPD2    N111808   1.666   1.219  14.623 -0.2354  0.2161  0.3937
  801MPD2    H711809   1.606   1.232  14.705  2.6656 -0.9131  2.7045
  802MPD2     C11810   0.874   1.652   0.328  0.3533 -0.3256 -0.6840
  802MPD2    C111811   0.758   1.708   0.288 -0.0845 -0.3120  0.3702
  802MPD2    C211812   0.688   1.651   0.184  0.0169  0.1086  0.7745
  802MPD2    C311813   0.737   1.548   0.106  1.1593 -0.0972 -0.3743
  802MPD2    C411814   0.863   1.498   0.137 -0.4184 -0.7871  0.2671
  802MPD2    C511815   0.920   1.545   0.255  0.2681 -0.0269  0.0482
  802MPD2     H11816   0.589   1.690   0.165 -1.0761 -3.2789 -0.4363
  802MPD2    H111817   0.918   1.418   0.090 -1.2494 -1.4004  0.3479
  802MPD2    H211818   0.929   1.683   0.416 -2.3444 -0.5104  1.0293
  802MPD2    H311819   1.016   1.500   0.276  1.1199  1.3262 -0.9950
  802MPD2     N11820   0.658   1.504   0.001 -0.1580  0.1534 -0.1655
  802MPD2    H511821   0.560   1.530  17.707 -0.2630 -0.2008  0.5412
  802MPD2    N111822   0.700   1.819   0.353  0.1382 -0.0307  0.3837
  802MPD2    H711823   0.629   1.876   0.307  0.0849 -1.1969 -0.9726
  803MPD2     C11824   2.131   4.519  11.953  0.1557 -0.0222 -0.1091
  803MPD2    C111825   2.135   4.608  12.059 -0.6453 -0.1735 -0.0868
  803MPD2    C211826   2.051   4.581  12.171 -0.0666 -0.6014  0.5831
  803MPD2    C311827   1.965   4.474  12.177  0.3472  0.0526 -0.2769
  803MPD2    C411828   1.980   4.382  12.078 -0.4359  0.2192  0.4125
  803MPD2    C511829   2.059   4.405  11.965  0.8554 -0.6534 -0.0097
  803MPD2     H11830   2.045   4.653  12.252 -1.7368 -1.2712  1.0683
  803MPD2    H111831   1.919   4.293  12.084 -2.4207  1.5838  0.5754
  803MPD2    H211832   2.185   4.535  11.861  1.2231 -1.8195  0.2109
  803MPD2    H311833   2.060   4.338  11.880 -0.2792 -0.3171 -0.2896
  803MPD2     N11834   1.881   4.438  12.286 -0.3323  0.6673 -0.3034
  803MPD2    H511835   1.833   4.350  12.276 -0.4418  0.5768  0.9938
  803MPD2    N111836   2.220   4.715  12.053  0.2726  0.1689  0.7894
  803MPD2    H711837   2.229   0.045  12.137 -0.0550 -0.2691  1.1181
  804MPD2     C11838   1.480   1.245  16.778 -0.2568  0.2354 -0.0221
  804MPD2    C111839   1.458   1.275  16.908  0.8468  0.1718 -0.3532
  804MPD2    C211840   1.469   1.402  16.956 -0.0213 -0.3702  0.9729
  804MPD2    C311841   1.514   1.503  16.882 -0.8509  0.0815  0.2702
  804MPD2    C411842   1.547   1.477  16.751 -0.4670  0.7679  0.2062
  804MPD2    C511843   1.524   1.351  16.701 -0.2254  0.0193  0.4729
  804MPD2     H11844   1.445   1.422  17.060  2.1108  1.5047  1.1191
  804MPD2    H111845   1.582   1.556  16.686  0.5259  0.4585  0.3639
  804MPD2    H211846   1.473   1.143  16.742  0.3949 -0.1538  0.9952
  804MPD2    H311847   1.557   1.322  16.601  0.2753  0.6891  0.4433
  804MPD2     N11848   1.512   1.629  16.949 -0.0257  0.5613 -0.0414
  804MPD2    H511849   1.465   1.643  17.038 -1.8115  0.3897 -0.9565
  804MPD2    N111850   1.440   1.171  17.001 -0.0563  0.1696 -0.2348
  804MPD2    H711851   1.442   1.208  17.096  0.3839  0.4643 -0.3594
  805MPD2     C11852   0.548   4.518  15.684 -0.3725 -0.7773 -0.8069
  805MPD2    C111853   0.643   4.590  15.612  1.6013  0.3097 -0.0834
  805MPD2    C211854   0.766   4.630  15.676 -0.4568  0.2839  0.3988
  805MPD2    C311855   0.804   4.582  15.803  0.8876  0.0964  0.1691
  805MPD2    C411856   0.710   4.500  15.863 -0.2673 -0.4563  0.8003
  805MPD2    C511857   0.587   4.481  15.812  0.0200  0.1554  0.4969
  805MPD2     H11858   0.841   4.689  15.626  0.6498 -0.4005  1.2616
  805MPD2    H111859   0.727   4.456  15.960 -0.6393 -0.3645  0.9044
  805MPD2    H211860   0.454   4.488  15.640  0.2704 -1.5518 -1.6497
  805MPD2    H311861   0.526   4.417  15.873 -1.4250 -0.0543 -1.1691
  805MPD2     N11862   0.937   4.617  15.860  0.0061 -0.2370 -0.0247
  805MPD2    H511863   0.999   4.668  15.798 -1.7172  0.1548 -1.4218
  805MPD2    N111864   0.621   4.631  15.481  0.0440  1.2339 -0.2567
  805MPD2    H711865   0.684   4.700  15.440 -0.7096  2.3786  0.5041
  806MPD2     C11866   1.480   3.786   0.333 -0.4675  0.1337  1.3160
  806MPD2    C111867   1.404   3.835   0.440 -0.4825  0.4160 -0.3156
  806MPD2    C211868   1.375   3.971   0.444 -0.1461  0.2894  0.0004
  806MPD2    C311869   1.413   4.046   0.336 -0.0146 -0.3401 -0.5841
  806MPD2    C411870   1.483   3.992   0.229  0.0171 -0.4131 -0.5694
  806MPD2    C511871   1.520   3.862   0.227  0.8165  0.9092  0.0558
  806MPD2     H11872   1.324   4.026   0.522  0.0315  0.6019 -0.1011
  806MPD2    H111873   1.507   4.051   0.140  1.2401 -0.0605  0.0017
  806MPD2    H211874   1.524   3.687   0.331 -1.1141 -0.0991 -1.7471
  806MPD2    H311875   1.563   3.810   0.143  0.1454  1.9618 -0.9455
  806MPD2     N11876   1.390   4.188   0.329  0.7218  0.6387 -1.0156
  806MPD2    H511877   1.324   4.223   0.398 -0.0869  0.5824 -1.7545
  806MPD2    N111878   1.360   3.740   0.533 -0.0225 -0.7166 -0.4258
  806MPD2    H711879   1.408   3.650   0.536 -2.1429 -1.6950  3.9108
  807MPD2     C11880   0.727   3.490   1.095  0.7978 -0.2852  0.3827
  807MPD2    C111881   0.848   3.438   1.129 -0.2535  0.0559  0.4363
  807MPD2    C211882   0.856   3.351   1.236  0.3753  0.1090  0.5689
  807MPD2    C311883   0.743   3.317   1.307 -0.3297  0.0288 -0.5417
  807MPD2    C411884   0.622   3.366   1.271  0.1884 -0.2406  0.9200
  807MPD2    C511885   0.613   3.460   1.168 -0.2855  0.5715  0.3342
  807MPD2     H11886   0.951   3.309   1.265  0.0254 -1.7891 -1.0337
  807MPD2    H111887   0.534   3.360   1.334 -0.0195  0.9893  0.7400
  807MPD2    H211888   0.708   3.561   1.016 -1.7434  0.6108  1.8108
  807MPD2    H311889   0.518   3.510   1.150 -1.3670 -1.9816 -1.1300
  807MPD2     N11890   0.765   3.230   1.410 -0.1286 -0.5092  0.1662
  807MPD2    H511891   0.864   3.208   1.420  0.3177  1.6562  0.5068
  807MPD2    N111892   0.970   3.473   1.062 -0.2856  0.4302 -0.0519
  807MPD2    H711893   1.046   3.415   1.096  0.2685 -0.2770 -2.4865
  808MPD2     C11894   2.286   0.934  10.492 -0.0960 -0.8258  0.5041
  808MPD2    C111895   2.172   0.972  10.568  0.0326  0.5905 -0.1015
  808MPD2    C211896   2.100   1.084  10.524 -0.7106  0.0572  0.7576
  808MPD2    C311897   2.149   1.160  10.420  0.1865  0.3407 -0.2639
  808MPD2    C411898   2.273   1.131  10.359 -0.4420  0.1511 -0.4049
  808MPD2    C511899   2.337   1.016  10.392  0.5172 -0.4450  0.1258
  808MPD2     H11900   2.000   1.105  10.563 -1.1921 -1.2878  0.2504
  808MPD2    H111901   2.308   1.179  10.269  0.7854  1.8968  0.9980
  808MPD2    H211902   2.327   0.836  10.516  1.9424 -0.3754 -1.1130
  808MPD2    H311903   2.425   0.980  10.340 -0.3280 -1.5492 -0.5214
  808MPD2     N11904   2.088   1.274  10.366 -0.0358 -0.1175  0.5305
  808MPD2    H511905   2.122   1.305  10.276  0.6002  0.5151  0.9849
  808MPD2    N111906   2.116   0.889  10.667  0.0085  0.1385  0.3755
  808MPD2    H711907   2.028   0.912  10.712  0.8835  0.8426  1.7305
  809MPD2     C11908   1.792   1.650   9.507 -0.1323  0.0663  0.0447
  809MPD2    C111909   1.902   1.589   9.563  0.1303  0.7051 -0.0122
  809MPD2    C211910   1.912   1.588   9.699 -0.2175  0.2096 -0.2961
  809MPD2    C311911   1.815   1.635   9.792  0.1702 -0.0350 -0.2920
  809MPD2    C411912   1.715   1.711   9.733  0.0850  0.1808 -0.1327
  809MPD2    C511913   1.704   1.708   9.593 -0.4730  0.2137 -0.1242
  809MPD2     H11914   2.001   1.542   9.741  0.1264  0.6477 -0.5434
  809MPD2    H111915   1.630   1.748   9.791 -0.1692 -1.3636  0.4714
  809MPD2    H211916   1.765   1.656   9.402  0.5271  0.8314 -0.0781
  809MPD2    H311917   1.612   1.741   9.546 -0.4147 -0.8737 -0.9998
  809MPD2     N11918   1.827   1.631   9.933  0.2957 -0.2317  0.0142
  809MPD2    H511919   1.751   1.675   9.984  0.7278 -2.4397  2.5314
  809MPD2    N111920   2.015   1.546   9.482  0.0176  0.3388  0.5613
  809MPD2    H711921   2.087   1.503   9.538  1.5618  0.8239 -1.0386
  810MPD2     C11922   1.350   0.261  11.293  0.0276  0.5531 -0.2259
  810MPD2    C111923   1.320   0.259  11.159  0.7825  0.6686 -0.1058
  810MPD2    C211924   1.273   0.376  11.107 -0.2214 -0.3937 -0.5362
  810MPD2    C311925   1.262   0.493  11.180  0.7460  0.5547  0.4973
  810MPD2    C411926   1.292   0.485  11.313  0.7866 -0.3188  0.2867
  810MPD2    C511927   1.324   0.371  11.372  0.9298  0.0598 -0.0336
  810MPD2     H11928   1.251   0.370  11.001  1.1653  1.1392 -0.9017
  810MPD2    H111929   1.290   0.576  11.373 -1.5444 -0.3876  0.3082
  810MPD2    H211930   1.381   0.170  11.344 -1.6936  0.1369  0.0695
  810MPD2    H311931   1.354   0.376  11.476  0.2298 -0.1927  0.1819
  810MPD2     N11932   1.213   0.618  11.134  0.0491  0.5195  0.5876
  810MPD2    H511933   1.199   0.686  11.208 -1.1912 -0.4428  1.2416
  810MPD2    N111934   1.321   0.154  11.071  0.1120 -0.2831 -0.1280
  810MPD2    H711935   1.288   0.174  10.977  1.9115 -2.6411 -1.2583
  811MPD2     C11936   0.966   4.712  10.411  0.2599 -0.2274  0.0985
  811MPD2    C111937   0.996   0.050  10.529 -0.0806 -0.3109  0.0890
  811MPD2    C211938   0.969   0.184  10.533 -0.7272 -0.1294  0.7427
  811MPD2    C311939   0.921   0.256  10.421 -0.2504 -0.9271  0.4919
  811MPD2    C411940   0.895   0.189  10.307  0.5117  0.1794  0.3701
  811MPD2    C511941   0.913   0.053  10.301 -0.3060  0.7100 -0.0383
  811MPD2     H11942   0.979   0.244  10.622 -0.1259  0.7252  0.0983
  811MPD2    H111943   0.863   0.238  10.216 -2.2133 -1.0969  0.6323
  811MPD2    H211944   0.985   4.605  10.405  1.6899  0.1204 -1.9242
  811MPD2    H311945   0.879   4.723  10.215 -0.9060  2.4056 -0.8997
  811MPD2     N11946   0.936   0.398  10.425  0.2866 -0.4013  0.1300
  811MPD2    H511947   0.977   0.435  10.510  1.7576  0.4774 -0.9420
  811MPD2    N111948   1.065   4.703  10.622  0.4817  0.1501  0.5803
  811MPD2    H711949   1.076   4.605  10.597  0.0374  0.7463 -1.9745
  812MPD2     C11950   0.107   4.494  12.287  0.0549  0.7232 -0.8686
  812MPD2    C111951   4.716   4.530  12.348 -0.6121  0.1447 -0.4878
  812MPD2    C211952   4.686   4.465  12.470 -0.8929 -0.3787  0.4422
  812MPD2    C311953   0.044   4.369  12.533  0.0642  0.3816  0.4140
  812MPD2    C411954   0.160   4.337  12.462  0.0712 -0.0568  0.1400
  812MPD2    C511955   0.190   4.399  12.344  0.1399 -0.1061 -0.5356
  812MPD2     H11956   4.597   4.511  12.512 -1.2322 -0.5983 -0.0353
  812MPD2    H111957   0.234   4.269  12.501 -1.4011 -0.3387  2.4458
  812MPD2    H211958   0.141   4.540  12.195  0.8267 -0.3774 -1.1230
  812MPD2    H311959   0.282   4.365  12.299  0.5901  0.1227  0.2028
  812MPD2     N11960   0.007   4.309  12.655  0.2121 -1.2857  0.2340
  812MPD2    H511961   4.660   4.344  12.715 -0.4037 -1.1964 -0.5797
  812MPD2    N111962   4.642   4.632  12.287 -0.8444 -0.1657 -0.4667
  812MPD2    H711963   4.689   4.676  12.208  3.1228  0.0856  1.9912
  813MPD2     C11964   3.813   1.673  12.920  0.0626 -0.6086  0.4040
  813MPD2    C111965   3.900   1.776  12.944 -0.9399 -1.2563  0.0511
  813MPD2    C211966   3.849   1.880  13.025  0.5845  0.3162 -0.4641
  813MPD2    C311967   3.730   1.870  13.093  0.3675  0.0810  0.2939
  813MPD2    C411968   3.650   1.759  13.068  0.5996 -0.1822 -0.1721
  813MPD2    C511969   3.693   1.664  12.993  0.0869  0.1552  0.0254
  813MPD2     H11970   3.901   1.974  13.038 -2.0065  1.9749 -2.0795
  813MPD2    H111971   3.559   1.742  13.125  1.3314  0.6300  1.2344
  813MPD2    H211972   3.847   1.591  12.857 -1.7932  0.0998 -1.5256
  813MPD2    H311973   3.626   1.578  12.992 -2.7243  2.3351  2.0216
  813MPD2     N11974   3.695   1.978  13.174 -0.3062 -0.2400  0.3638
  813MPD2    H511975   3.772   2.044  13.180 -2.3041  2.2208 -0.7997
  813MPD2    N111976   4.030   1.774  12.878 -0.3193  0.7259  0.0516
  813MPD2    H711977   4.038   1.701  12.808  2.1003  1.4298 -0.4068
  814MPD2     C11978   3.900   3.200  12.363  0.9426 -0.1186 -0.0082
  814MPD2    C111979   3.970   3.210  12.247  0.2908  0.0298  0.1775
  814MPD2    C211980   4.080   3.292  12.245  0.2591 -0.2425 -0.0488
  814MPD2    C311981   4.124   3.354  12.364 -0.7874  0.1805 -0.3354
  814MPD2    C411982   4.048   3.334  12.482 -0.3762 -0.0748 -0.1874
  814MPD2    C511983   3.933   3.265  12.478 -0.7107 -0.1173  0.2992
  814MPD2     H11984   4.138   3.308  12.155 -2.7879  1.7603 -1.6692
  814MPD2    H111985   4.082   3.383  12.572  2.7345 -0.5683 -1.1158
  814MPD2    H211986   3.805   3.148  12.372  0.9203 -0.2826 -1.1249
  814MPD2    H311987   3.868   3.249  12.564 -1.8728 -0.6174 -0.6718
  814MPD2     N11988   4.243   3.429  12.380 -0.4517 -0.4796  0.4307
  814MPD2    H511989   4.260   3.471  12.471 -1.0125  0.2277  0.2019
  814MPD2    N111990   3.947   3.143  12.125 -0.2605 -0.0994 -0.2821
  814MPD2    H711991   4.019   3.146  12.054 -0.4484  0.3861 -0.4520
  815MPD2     C11992   4.445   0.689  12.265  0.2552  0.6861 -0.2781
  815MPD2    C111993   4.387   0.729  12.147 -0.0141  0.9554  0.4185
  815MPD2    C211994   4.272   0.792  12.152 -0.2955 -0.5284  0.3678
  815MPD2    C311995   4.201   0.808  12.264 -0.3180  0.7036 -0.0139
  815MPD2    C411996   4.255   0.760  12.380 -0.2520 -0.0348  0.2676
  815MPD2    C511997   4.373   0.700  12.377 -0.7084 -0.1718 -0.0033
  815MPD2     H11998   4.233   0.836  12.061  1.7724  2.3760  0.8943
  815MPD2    H111999   4.201   0.781  12.471 -0.9265 -0.9199  0.0707
  815MPD2    H212000   4.538   0.634  12.267 -0.5557 -0.5867  1.6619
  815MPD2    H312001   4.415   0.667  12.472  2.4055 -1.4188 -1.7945
  815MPD2     N12002   4.081   0.883  12.251  0.3183 -0.5458  0.2796
  815MPD2    H512003   4.070   0.932  12.162  1.3751 -0.2887  0.2897
  815MPD2    N112004   4.460   0.702  12.026  0.6042 -0.3451 -0.4845
  815MPD2    H712005   4.552   0.663  12.044  0.3007 -0.3451  1.0771
  816MPD2     C12006   0.528   1.025  17.448  0.1607  0.2636 -0.1156
  816MPD2    C112007   0.453   0.990  17.336 -0.2977 -0.2400  0.0161
  816MPD2    C212008   0.501   1.014  17.212 -0.0065  0.7245  0.6408
  816MPD2    C312009   0.639   1.034  17.193 -0.1437 -1.0698  0.1003
  816MPD2    C412010   0.721   1.042  17.307  0.2205 -1.1312 -0.0013
  816MPD2    C512011   0.662   1.044  17.433 -0.3100  0.1867  1.0208
  816MPD2     H12012   0.442   1.004  17.122 -2.4165  0.2230  2.2616
  816MPD2    H112013   0.829   1.031  17.303  0.4176 -0.1160  2.4744
  816MPD2    H212014   0.486   1.006  17.547 -1.2222 -1.7751 -1.0875
  816MPD2    H312015   0.728   1.038  17.518 -0.4319 -0.2953  1.0862
  816MPD2     N12016   0.689   1.029  17.063 -0.1118 -0.3380  0.0973
  816MPD2    H512017   0.618   1.020  16.991  0.2366 -3.8410  0.1883
  816MPD2    N112018   0.320   0.955  17.366  0.0346  0.1578 -0.4550
  816MPD2    H712019   0.286   0.957  17.461  1.0853  0.6201 -0.0861
  817MPD2     C12020   4.371   2.363   9.378  0.1977 -0.0032 -0.0205
  817MPD2    C112021   4.393   2.275   9.272  0.5717 -0.2702  0.3819
  817MPD2    C212022   4.292   2.269   9.183  0.0816 -0.2822  0.2267
  817MPD2    C312023   4.178   2.347   9.192 -0.2850 -0.2965 -0.0834
  817MPD2    C412024   4.159   2.434   9.299  0.0816 -0.3067  0.0504
  817MPD2    C512025   4.261   2.440   9.391 -0.0201 -0.0245  0.1239
  817MPD2     H12026   4.287   2.200   9.100  0.1099 -0.1464  0.1116
  817MPD2    H112027   4.069   2.494   9.309  0.8000  0.9086 -0.8018
  817MPD2    H212028   4.442   2.378   9.459  1.2001  0.4511 -0.9819
  817MPD2    H312029   4.252   2.496   9.483 -0.6808  0.3397 -0.1645
  817MPD2     N12030   4.077   2.301   9.102 -0.6966  0.3546  0.3730
  817MPD2    H512031   4.092   2.227   9.034 -0.0344  1.9382 -1.2057
  817MPD2    N112032   4.491   2.170   9.268  0.1229 -0.3123  0.2209
  817MPD2    H712033   4.483   2.093   9.202 -1.2166 -0.7323  0.8801
  818MPD2     C12034   3.746   2.358  10.098  0.2776 -0.1210 -0.1750
  818MPD2    C112035   3.702   2.265  10.187  0.2326  0.0537 -0.4242
  818MPD2    C212036   3.725   2.132  10.167  0.0815 -0.4342 -0.2771
  818MPD2    C312037   3.803   2.089  10.060 -0.6722 -0.2447  0.0389
  818MPD2    C412038   3.854   2.184   9.969  0.4856 -0.2411 -0.0055
  818MPD2    C512039   3.826   2.315  10.000 -0.3136  0.2244  0.0698
  818MPD2     H12040   3.678   2.059  10.233 -0.4346  0.8746  0.7925
  818MPD2    H112041   3.924   2.165   9.889  1.3507 -1.7522  1.1089
  818MPD2    H212042   3.732   2.465  10.100  0.4947 -0.1244  2.1232
  818MPD2    H312043   3.861   2.381   9.922 -0.5640  0.1174 -0.1338
  818MPD2     N12044   3.835   1.951  10.035  0.1789 -0.2775 -0.3177
  818MPD2    H512045   3.895   1.938   9.954 -0.7965 -0.3461 -1.0315
  818MPD2    N112046   3.607   2.295  10.284 -0.2324  0.0697  0.1022
  818MPD2    H712047   3.574   2.211  10.332  1.5465 -1.4538 -1.3518
  819MPD2     C12048   1.435   4.511  15.814 -0.2208  0.2251  0.5642
  819MPD2    C112049   1.365   4.391  15.837 -0.4121  0.0069  0.3548
  819MPD2    C212050   1.428   4.289  15.909  0.2087 -0.2868  0.3504
  819MPD2    C312051   1.559   4.307  15.944 -0.1717 -0.4768  0.1146
  819MPD2    C412052   1.614   4.425  15.935  0.2066  0.1144 -0.1344
  819MPD2    C512053   1.566   4.526  15.865 -0.4367 -0.2418  0.0836
  819MPD2     H12054   1.381   4.193  15.929  0.8497 -1.0418 -1.7770
  819MPD2    H112055   1.712   4.441  15.981  0.8558  0.0404 -1.4837
  819MPD2    H212056   1.388   4.593  15.760  0.6007 -0.0830 -0.6214
  819MPD2    H312057   1.618   4.619  15.844 -1.8210 -0.0729 -2.6210
  819MPD2     N12058   1.634   4.188  15.998  0.3381 -0.1176  0.3016
  819MPD2    H512059   1.584   4.099  16.001  1.3454 -0.6849  0.1105
  819MPD2    N112060   1.229   4.368  15.796 -0.1622 -0.6182 -0.0176
  819MPD2    H712061   1.186   4.429  15.727  2.1104 -1.1790 -1.9706
  820MPD2     C12062   0.624   4.190  15.027  0.1118 -0.0035  0.3011
  820MPD2    C112063   0.688   4.303  15.064  0.1756  0.6850 -0.0596
  820MPD2    C212064   0.766   4.293  15.183 -0.2566 -0.1381  0.2553
  820MPD2    C312065   0.752   4.189  15.272  1.1756  0.8656  0.2949
  820MPD2    C412066   0.695   4.072  15.226 -0.2134 -0.4296 -0.4035
  820MPD2    C512067   0.628   4.075  15.102  0.1767 -0.3701 -0.5142
  820MPD2     H12068   0.826   4.378  15.215  0.5393  0.0494 -1.7098
  820MPD2    H112069   0.696   3.985  15.291  0.1449 -0.5584 -0.5797
  820MPD2    H212070   0.560   4.191  14.939  0.6685  0.1921 -0.1001
  820MPD2    H312071   0.590   3.978  15.073  2.3181 -1.8797  1.6696
  820MPD2     N12072   0.802   4.197  15.404  0.7697  0.0882  0.9272
  820MPD2    H512073   0.800   4.111  15.458  0.5817  0.0412  0.8478
  820MPD2    N112074   0.671   4.423  14.987 -0.6440  0.0898  0.2295
  820MPD2    H712075   0.619   4.420  14.900 -1.9138  0.9541  0.9539
  821MPD2     C12076   1.678   0.404  13.342 -0.2240 -0.1916  0.3790
  821MPD2    C112077   1.745   0.505  13.399 -0.4420 -0.3721  0.3485
  821MPD2    C212078   1.846   0.578  13.328  0.3142 -0.0307  0.5433
  821MPD2    C312079   1.892   0.532  13.207 -0.1553 -0.2161 -0.3725
  821MPD2    C412080   1.830   0.421  13.149  0.3894  0.0563 -0.4740
  821MPD2    C512081   1.711   0.373  13.213  0.1238  0.4569  1.0347
  821MPD2     H12082   1.901   0.658  13.376  0.2248 -0.4469  1.3371
  821MPD2    H112083   1.855   0.386  13.049  0.2107 -1.8397  0.1507
  821MPD2    H212084   1.593   0.356  13.389 -0.4050  0.7023  0.9673
  821MPD2    H312085   1.664   0.293  13.156  0.4556  0.7306  0.3861
  821MPD2     N12086   2.010   0.586  13.158  0.1954  0.0907  0.5857
  821MPD2    H512087   2.033   0.676  13.200 -1.4342  1.9468 -2.5173
  821MPD2    N112088   1.735   0.539  13.531 -0.7048  0.6628 -0.0615
  821MPD2    H712089   1.791   0.613  13.572 -0.5474  0.3798  0.2238
  822MPD2     C12090   1.907   0.640  15.637 -0.0977 -0.8864 -0.2121
  822MPD2    C112091   1.982   0.635  15.754  0.2572 -0.1176  0.9119
  822MPD2    C212092   1.953   0.723  15.859  0.5247  0.9174  0.0365
  822MPD2    C312093   1.861   0.825  15.842  0.2296  0.1189 -0.4704
  822MPD2    C412094   1.794   0.838  15.724 -0.2409 -0.9230 -0.7576
  822MPD2    C512095   1.824   0.751  15.619 -0.2171  0.5978 -0.9031
  822MPD2     H12096   1.994   0.706  15.958  0.6690  2.4557  0.2448
  822MPD2    H112097   1.712   0.905  15.704  0.6863  0.3214 -0.3457
  822MPD2    H212098   1.922   0.556  15.571 -0.5483 -0.5462 -0.7426
  822MPD2    H312099   1.767   0.746  15.526 -1.0109 -1.0062 -0.3313
  822MPD2     N12100   1.827   0.906  15.950 -0.2332  0.2760  0.1472
  822MPD2    H512101   1.872   0.889  16.039  1.0674  1.5410 -0.2744
  822MPD2    N112102   2.069   0.535  15.797 -0.2132 -0.1995  0.8372
  822MPD2    H712103   2.115   0.567  15.882 -0.3979  0.8446  0.5437
  823MPD2     C12104   1.740   1.020  16.787  0.0081  0.3485 -0.5871
  823MPD2    C112105   1.756   0.934  16.677  0.1469  1.0704  0.1015
  823MPD2    C212106   1.783   0.802  16.708  0.3125 -1.2990  0.2088
  823MPD2    C312107   1.813   0.769  16.840  0.4397 -0.2892  0.1741
  823MPD2    C412108   1.802   0.858  16.940 -0.0972  0.1247  0.7484
  823MPD2    C512109   1.759   0.981  16.915 -0.1442  0.4173  0.7406
  823MPD2     H12110   1.795   0.732  16.626 -1.2790 -0.4309 -0.7730
  823MPD2    H112111   1.827   0.833  17.043  0.7757 -4.0698 -0.4856
  823MPD2    H212112   1.731   1.127  16.770  1.4607  0.5201 -0.3029
  823MPD2    H312113   1.756   1.060  16.990 -1.3991  1.4531 -0.4060
  823MPD2     N12114   1.853   0.640  16.876  0.7236  0.2969 -0.5531
  823MPD2    H512115   1.871   0.633  16.975 -1.6621 -1.4223 -0.2338
  823MPD2    N112116   1.718   0.990  16.548  0.4405 -0.7968 -0.5003
  823MPD2    H712117   1.696   1.089  16.552 -1.4120 -1.2507  0.5176
  824MPD2     C12118   2.249   4.522  15.527 -0.1111 -0.0181 -0.2812
  824MPD2    C112119   2.343   4.576  15.615  0.0014  0.3722 -0.2169
  824MPD2    C212120   2.479   4.534  15.610 -0.8363  0.5886  0.3872
  824MPD2    C312121   2.517   4.440  15.510 -0.3841  0.1964 -0.0688
  824MPD2    C412122   2.422   4.389  15.428  0.0914  0.0545 -0.2070
  824MPD2    C512123   2.292   4.428  15.438 -0.1072  0.2544  0.1863
  824MPD2     H12124   2.560   4.573  15.671 -1.4864  0.6267  1.2155
  824MPD2    H112125   2.445   4.310  15.356  0.0083  1.1235 -1.4065
  824MPD2    H212126   2.146   4.554  15.520 -1.2698 -3.7184 -0.5994
  824MPD2    H312127   2.216   4.395  15.367 -0.8259  2.4587 -0.0800
  824MPD2     N12128   2.650   4.397  15.501 -0.3940  0.3363  0.2544
  824MPD2    H512129   2.711   4.435  15.573 -0.9873  0.5382  0.6572
  824MPD2    N112130   2.298   4.675  15.708 -0.1561  0.4378 -0.5513
  824MPD2    H712131   2.211   4.722  15.690 -1.0257 -1.8057 -2.2035
  825MPD2     C12132   3.090   4.500  14.876 -0.9492  0.0770 -0.4643
  825MPD2    C112133   3.169   4.523  14.989  0.2392 -0.3627 -0.0634
  825MPD2    C212134   3.295   4.582  14.981  0.1074 -0.2784 -0.1943
  825MPD2    C312135   3.331   4.639  14.859  0.0162 -0.1423 -0.1435
  825MPD2    C412136   3.252   4.614  14.751 -1.0315  0.1919 -0.4978
  825MPD2    C512137   3.132   4.550  14.759 -0.1022 -0.0789  0.5535
  825MPD2     H12138   3.354   4.600  15.070  0.5415 -1.0984 -0.3133
  825MPD2    H112139   3.275   4.658  14.655 -0.5024 -0.2789 -0.5865
  825MPD2    H212140   2.994   4.450  14.870 -1.1715  0.4801 -0.1915
  825MPD2    H312141   3.060   4.545  14.678 -0.2946 -2.2154  0.8662
  825MPD2     N12142   3.444   4.721  14.842  0.0021 -0.3353 -0.2088
  825MPD2    H512143   3.441   0.038  14.751  2.8883  1.6082  0.6321
  825MPD2    N112144   3.104   4.470  15.099 -0.1539  0.2378  0.6204
  825MPD2    H712145   3.016   4.422  15.081 -0.5384 -0.1999  3.6673
  826MPD2     C12146   3.030   0.018  13.803  0.5416 -0.2136  0.2607
  826MPD2    C112147   2.927   4.726  13.720  0.2925  0.2190 -0.6319
  826MPD2    C212148   2.816   0.083  13.722 -0.4407 -0.2387 -0.2589
  826MPD2    C312149   2.800   0.162  13.830 -0.1834  0.2180 -0.3957
  826MPD2    C412150   2.903   0.183  13.921 -1.0322  0.3212  0.4392
  826MPD2    C512151   3.025   0.125  13.897 -0.4271 -0.3526  0.5589
  826MPD2     H12152   2.738   0.077  13.647 -1.2612  2.2799  0.3876
  826MPD2    H112153   2.895   0.257  14.000 -0.1048 -0.8047  1.5719
  826MPD2    H212154   3.113   4.674  13.806  0.5147 -0.1854  1.7658
  826MPD2    H312155   3.101   0.142  13.973  0.9538  0.4958 -1.0266
  826MPD2     N12156   2.684   0.229  13.864 -0.9429  0.1647  0.4851
  826MPD2    H512157   2.675   0.285  13.948 -1.7222 -1.5738  1.5794
  826MPD2    N112158   2.936   4.618  13.623  0.0913 -0.0683  0.6059
  826MPD2    H712159   3.021   4.562  13.624 -0.4682 -0.9670 -2.3467
  827MPD2     C12160   3.613   1.039   9.977 -0.2409  0.1519  0.0544
  827MPD2    C112161   3.532   0.951  10.047  0.3971 -1.0845 -0.5524
  827MPD2    C212162   3.420   0.894   9.983 -0.0880  0.5723 -0.2677
  827MPD2    C312163   3.391   0.922   9.848  0.4993 -0.4029  0.0336
  827MPD2    C412164   3.464   1.026   9.786 -0.1462  0.7425  0.0068
  827MPD2    C512165   3.568   1.080   9.856 -0.3108 -0.3365 -0.2109
  827MPD2     H12166   3.361   0.824  10.042 -0.7828  1.0405 -0.4132
  827MPD2    H112167   3.462   1.058   9.683 -1.3963 -1.3329 -0.6211
  827MPD2    H212168   3.695   1.088  10.027 -0.0618  0.6651 -0.7473
  827MPD2    H312169   3.620   1.166   9.815 -1.2058 -0.4275 -1.5252
  827MPD2     N12170   3.286   0.843   9.791 -0.0240  0.1474  0.4178
  827MPD2    H512171   3.250   0.765   9.847  0.3203  0.7472  1.4819
  827MPD2    N112172   3.579   0.908  10.175 -0.6665  0.2614 -0.2609
  827MPD2    H712173   3.671   0.941  10.202 -0.3678  0.1310 -1.1030
  828MPD2     C12174   2.146   0.975  12.481 -0.0863  0.3335  0.7070
  828MPD2    C112175   2.063   0.948  12.377 -0.4754 -0.4575  0.6090
  828MPD2    C212176   2.108   0.934  12.250  0.0035  0.1005 -0.5526
  828MPD2    C312177   2.245   0.952  12.227  0.0328 -0.0615 -0.1658
  828MPD2    C412178   2.332   0.979  12.329  0.6562  0.2710 -0.2071
  828MPD2    C512179   2.280   0.993  12.451 -0.0397 -1.1623  0.1632
  828MPD2     H12180   2.036   0.891  12.181  0.0013  0.6342 -0.8826
  828MPD2    H112181   2.439   0.985  12.311  1.1472 -0.1945  2.5275
  828MPD2    H212182   2.108   0.998  12.580 -0.6540  0.8620  0.3662
  828MPD2    H312183   2.344   1.017  12.535 -0.1793 -1.9911  0.5063
  828MPD2     N12184   2.304   0.911  12.107  0.2687 -0.8209 -0.4698
  828MPD2    H512185   2.404   0.904  12.120  0.7553  1.5876 -3.1030
  828MPD2    N112186   1.921   0.942  12.404  0.9995 -0.3865  0.3870
  828MPD2    H712187   1.861   0.909  12.329  1.0770 -0.6181  0.4251
  829MPD2     C12188   1.347   1.281  11.875  0.0518  0.1389  0.5389
  829MPD2    C112189   1.256   1.267  11.976  0.7098  0.6722 -0.1906
  829MPD2    C212190   1.312   1.209  12.096 -0.4356  0.5283 -0.4884
  829MPD2    C312191   1.441   1.155  12.112 -0.1664 -0.2573  0.1218
  829MPD2    C412192   1.517   1.171  12.001  0.1441  1.0667  0.8343
  829MPD2    C512193   1.472   1.229  11.882  0.2732 -0.3201  0.0640
  829MPD2     H12194   1.254   1.216  12.187 -2.4527 -0.3995 -1.7200
  829MPD2    H112195   1.618   1.132  12.003 -0.0138  0.6439  0.6992
  829MPD2    H212196   1.318   1.335  11.785 -0.4601 -3.3298 -1.3752
  829MPD2    H312197   1.536   1.236  11.794  0.1395  2.5226  0.2021
  829MPD2     N12198   1.493   1.090  12.220 -0.2700 -0.3292 -0.3622
  829MPD2    H512199   1.586   1.056  12.196 -1.1704 -1.1337 -2.7029
  829MPD2    N112200   1.118   1.299  11.950  0.2134 -0.6039  0.0617
  829MPD2    H712201   1.098   1.320  11.853 -1.6927 -1.6031  0.2363
  830MPD2     C12202   1.855   3.380  15.814  0.3362  0.0182  0.6946
  830MPD2    C112203   1.808   3.503  15.781 -0.4251 -0.3338 -0.0461
  830MPD2    C212204   1.779   3.532  15.646  0.3782 -0.4944 -0.2658
  830MPD2    C312205   1.804   3.433  15.548  0.0174 -0.0792 -0.1175
  830MPD2    C412206   1.846   3.308  15.580 -0.7010 -0.2636  0.3511
  830MPD2    C512207   1.859   3.284  15.714  0.1392  0.5225 -0.7271
  830MPD2     H12208   1.750   3.629  15.609 -2.1897 -0.9312  0.5507
  830MPD2    H112209   1.857   3.232  15.504 -0.1140  0.0346  0.1342
  830MPD2    H212210   1.868   3.349  15.917  0.1932 -1.9408  0.1202
  830MPD2    H312211   1.882   3.182  15.745 -0.6386  0.0785 -1.6301
  830MPD2     N12212   1.813   3.467  15.409  0.1480 -0.0725  0.0699
  830MPD2    H512213   1.852   3.398  15.345 -0.2272 -0.2794  0.0658
  830MPD2    N112214   1.794   3.596  15.883  0.3038  0.6009 -0.1214
  830MPD2    H712215   1.832   3.582  15.976 -0.9434  2.6389  0.6923
  831MPD2     C12216   2.199   0.921  16.383 -0.6835  0.8279  0.1426
  831MPD2    C112217   2.196   0.845  16.273  0.1364 -0.3817  0.3428
  831MPD2    C212218   2.122   0.729  16.277  0.1247  0.1358  0.2898
  831MPD2    C312219   2.047   0.693  16.388  0.4904 -0.6251 -0.4976
  831MPD2    C412220   2.056   0.774  16.500 -0.3664  0.4594  0.2947
  831MPD2    C512221   2.145   0.885  16.500  0.3339 -0.5677  0.2387
  831MPD2     H12222   2.110   0.667  16.189  0.2118 -0.9986  1.0788
  831MPD2    H112223   1.998   0.751  16.589 -1.1906 -1.5241 -0.7687
  831MPD2    H212224   2.261   1.009  16.388 -0.3044  0.5480  0.3990
  831MPD2    H312225   2.154   0.958  16.579 -2.3221  0.7457 -0.6969
  831MPD2     N12226   1.964   0.578  16.387  0.1471 -0.6548  0.0967
  831MPD2    H512227   1.912   0.562  16.473 -0.2514  1.2254  0.2018
  831MPD2    N112228   2.270   0.878  16.159  0.2315  0.3415 -0.2859
  831MPD2    H712229   2.320   0.966  16.162 -0.9020  0.9740  0.2018
  832MPD2     C12230   0.844   1.835  17.355 -0.1080 -0.2273 -1.0093
  832MPD2    C112231   0.734   1.915  17.371 -0.3011 -0.3989 -0.0649
  832MPD2    C212232   0.634   1.895  17.283  0.1485 -0.5525 -0.0297
  832MPD2    C312233   0.653   1.820  17.171  0.4898 -0.4594 -0.1950
  832MPD2    C412234   0.760   1.733  17.161 -0.3828 -0.8475 -0.3081
  832MPD2    C512235   0.860   1.750  17.253  0.1537  0.3015  0.7645
  832MPD2     H12236   0.545   1.955  17.291  0.8297  0.7172 -1.8563
  832MPD2    H112237   0.766   1.674  17.070 -1.0196 -0.2540 -0.7328
  832MPD2    H212238   0.926   1.842  17.426  0.9471 -0.2859 -2.2021
  832MPD2    H312239   0.956   1.701  17.241  0.3344  1.0923 -1.0239
  832MPD2     N12240   0.558   1.808  17.069 -0.6810 -0.4646 -0.5142
  832MPD2    H512241   0.571   1.737  16.998  0.1532 -0.1364 -0.6771
  832MPD2    N112242   0.722   2.007  17.473 -0.4259  0.8180  0.0382
  832MPD2    H712243   0.800   2.012  17.537 -0.1671 -3.7978  0.0372
  833MPD2     C12244   2.570   3.347  12.820 -0.0514  0.5804 -0.1356
  833MPD2    C112245   2.533   3.379  12.688 -0.0825 -0.2768  0.4426
  833MPD2    C212246   2.562   3.286  12.587 -0.9318  0.0752 -0.0264
  833MPD2    C312247   2.620   3.161  12.611 -0.3669  0.2312 -0.6952
  833MPD2    C412248   2.648   3.131  12.739  0.3650 -0.1601  0.0062
  833MPD2    C512249   2.617   3.218  12.840  0.6679  0.0943  0.0671
  833MPD2     H12250   2.544   3.305  12.482 -0.2792  0.6307 -0.0354
  833MPD2    H112251   2.676   3.031  12.770  0.7189 -0.8739 -2.5870
  833MPD2    H212252   2.560   3.411  12.907  1.8102  1.2605 -0.3969
  833MPD2    H312253   2.639   3.187  12.942  0.9354 -0.2866 -0.1095
  833MPD2     N12254   2.644   3.079  12.500 -0.2946 -0.0060 -0.0806
  833MPD2    H512255   2.611   3.126  12.417 -1.2152 -1.3864 -0.5076
  833MPD2    N112256   2.478   3.510  12.662 -0.2427  0.3490  0.1987
  833MPD2    H712257   2.470   3.578  12.737  0.7745 -1.7252  2.2357
  834MPD2     C12258   2.859   2.450  11.703 -0.3393  0.1198 -0.4560
  834MPD2    C112259   2.757   2.544  11.682  0.0252  0.7426 -0.0265
  834MPD2    C212260   2.754   2.654  11.771  0.2437  0.2052  0.5878
  834MPD2    C312261   2.838   2.667  11.878  0.0588 -1.0639  0.4058
  834MPD2    C412262   2.937   2.570  11.892 -0.8155  0.6045 -0.1580
  834MPD2    C512263   2.949   2.463  11.804  0.1405  0.3645  0.4553
  834MPD2     H12264   2.677   2.727  11.752  1.0217  0.7004 -0.7347
  834MPD2    H112265   3.015   2.576  11.967 -0.6552  0.0489 -0.2810
  834MPD2    H212266   2.862   2.357  11.648 -0.0100 -0.3062  0.2795
  834MPD2    H312267   3.019   2.389  11.840 -2.5302 -2.5679 -0.4721
  834MPD2     N12268   2.809   2.754  11.979  0.6393 -0.5990 -0.3405
  834MPD2    H512269   2.729   2.813  11.960  0.2311 -0.7797  0.8031
  834MPD2    N112270   2.673   2.539  11.565 -0.0369  0.0679  0.2523
  834MPD2    H712271   2.678   2.450  11.516  0.6371 -0.6776  1.6527
  835MPD2     C12272   3.194   0.412  11.488  0.5650  0.3400  0.7658
  835MPD2    C112273   3.155   0.540  11.445  0.5426  0.3720 -0.1112
  835MPD2    C212274   3.154   0.645  11.530  0.3547 -0.3865  0.3201
  835MPD2    C312275   3.211   0.639  11.654 -0.1357 -0.9072 -0.5668
  835MPD2    C412276   3.257   0.515  11.695 -0.2232 -0.3597  0.2569
  835MPD2    C512277   3.239   0.403  11.616 -0.0402 -0.3293 -0.1711
  835MPD2     H12278   3.125   0.738  11.481  1.5742  0.5005  1.2846
  835MPD2    H112279   3.301   0.505  11.794  0.5169 -1.3381 -0.1713
  835MPD2    H212280   3.183   0.319  11.432  0.0220  0.8679 -0.0145
  835MPD2    H312281   3.283   0.310  11.648  3.1717  0.6731 -1.5764
  835MPD2     N12282   3.215   0.753  11.742  0.2136 -0.2199 -0.1152
  835MPD2    H512283   3.231   0.741  11.842 -2.6955 -2.7083  0.0745
  835MPD2    N112284   3.099   0.559  11.317  0.4855 -0.9586 -0.1304
  835MPD2    H712285   3.066   0.651  11.290  0.0140 -0.7994  1.0148
  836MPD2     C12286   2.667   1.273  11.695  0.8143  0.7636 -0.2858
  836MPD2    C112287   2.711   1.254  11.829 -0.2340  0.2621 -0.1194
  836MPD2    C212288   2.615   1.259  11.933  0.3397  0.8479  0.4968
  836MPD2    C312289   2.483   1.282  11.901  0.3550 -0.3601 -0.2592
  836MPD2    C412290   2.441   1.290  11.768 -0.4237  0.5816  0.0945
  836MPD2    C512291   2.531   1.289  11.668 -0.0891 -0.1074 -0.2617
  836MPD2     H12292   2.651   1.237  12.032  0.1300  0.9377  0.5926
  836MPD2    H112293   2.338   1.305  11.739 -0.3210 -0.4617 -0.8124
  836MPD2    H212294   2.734   1.275  11.610 -0.6187 -0.3356 -1.4311
  836MPD2    H312295   2.488   1.314  11.571  2.3164  1.3035 -0.9837
  836MPD2     N12296   2.379   1.297  11.993  0.1971  0.5294  0.3361
  836MPD2    H512297   2.286   1.315  11.958  0.7830  1.5451 -0.7086
  836MPD2    N112298   2.844   1.201  11.849 -0.7176 -0.4103 -0.3731
  836MPD2    H712299   2.910   1.223  11.775  1.2669  1.4520  1.9349
  837MPD2     C12300   1.507   0.782  10.289 -0.0315  0.6290 -0.1615
  837MPD2    C112301   1.428   0.890  10.295 -0.0988 -0.5835 -0.1265
  837MPD2    C212302   1.461   1.000  10.222 -0.2861  0.0228 -0.5229
  837MPD2    C312303   1.569   1.012  10.138  1.0821  0.7780 -0.3061
  837MPD2    C412304   1.643   0.897  10.124 -0.0585 -0.6877 -0.1335
  837MPD2    C512305   1.617   0.794  10.209 -1.4645  0.5502  0.4245
  837MPD2     H12306   1.395   1.083  10.243  1.7207  1.9993 -2.0698
  837MPD2    H112307   1.739   0.895  10.074  0.8133  1.0136  1.4778
  837MPD2    H212308   1.510   0.698  10.358  1.7110 -0.6484 -1.7781
  837MPD2    H312309   1.685   0.710  10.218 -1.1361  0.7791  0.0312
  837MPD2     N12310   1.599   1.138  10.079 -0.2292  0.1104 -0.3501
  837MPD2    H512311   1.530   1.209  10.098  0.6137  0.8671 -0.1122
  837MPD2    N112312   1.305   0.884  10.366  0.8150 -0.0108 -0.3740
  837MPD2    H712313   1.250   0.969  10.353  0.8360 -0.1575 -1.4031
  838MPD2     C12314   4.281   3.918  12.069 -0.0218 -0.1892 -0.1851
  838MPD2    C112315   4.155   3.919  12.025 -0.1920  0.5386  0.4804
  838MPD2    C212316   4.054   3.895  12.113  0.4114 -0.2037  0.1450
  838MPD2    C312317   4.084   3.866  12.244 -0.8818 -0.3783  0.4891
  838MPD2    C412318   4.211   3.880  12.293  0.0854  0.2608  0.0533
  838MPD2    C512319   4.309   3.913  12.202 -0.5002  0.4573 -0.9015
  838MPD2     H12320   3.955   3.886  12.071 -1.0889  0.6378  3.5084
  838MPD2    H112321   4.237   3.861  12.397  0.6110 -0.2493 -0.1731
  838MPD2    H212322   4.361   3.928  11.996  1.2138 -0.0030  1.2075
  838MPD2    H312323   4.410   3.901  12.238 -1.1972 -0.2384  0.8319
  838MPD2     N12324   3.980   3.832  12.326  0.5627 -0.6042 -0.7572
  838MPD2    H512325   3.887   3.844  12.287  0.3919  0.0274 -0.1492
  838MPD2    N112326   4.122   3.918  11.891  0.2861  0.5279 -0.6520
  838MPD2    H712327   4.028   3.890  11.864  1.0126 -0.7019 -1.8880
  839MPD2     C12328   3.655   3.271  11.809 -0.8123 -0.2623 -0.0581
  839MPD2    C112329   3.716   3.258  11.690  1.0598 -0.6756  0.0925
  839MPD2    C212330   3.821   3.344  11.662  0.5699 -0.0077  0.9493
  839MPD2    C312331   3.878   3.431  11.753 -0.1260  0.0210 -0.3004
  839MPD2    C412332   3.811   3.434  11.874 -0.7850 -0.0819  0.3921
  839MPD2    C512333   3.705   3.351  11.900 -0.3248  0.3121 -0.5340
  839MPD2     H12334   3.871   3.338  11.566  0.2632 -1.1717  0.8553
  839MPD2    H112335   3.849   3.499  11.952 -1.3124 -0.9445  1.3736
  839MPD2    H212336   3.569   3.211  11.836 -2.2013  0.2260 -3.3935
  839MPD2    H312337   3.664   3.358  12.000  1.5168  0.5338  0.2137
  839MPD2     N12338   3.971   3.528  11.724  0.4906 -0.4095  0.1980
  839MPD2    H512339   3.989   3.594  11.799 -0.8953  1.9492 -1.5460
  839MPD2    N112340   3.678   3.169  11.591 -0.5607  0.3411  0.3461
  839MPD2    H712341   3.730   3.167  11.503 -0.8288  0.5325  0.1819
  840MPD2     C12342   4.193   0.877  10.268  0.7889  0.3902 -0.2812
  840MPD2    C112343   4.117   0.904  10.379  0.8426  0.1756 -0.0134
  840MPD2    C212344   4.171   1.002  10.474  0.7471  0.7723 -0.5625
  840MPD2    C312345   4.299   1.057  10.464 -0.1112 -0.6493 -0.0112
  840MPD2    C412346   4.371   1.025  10.352 -0.5018 -0.7808  0.3124
  840MPD2    C512347   4.318   0.936  10.268 -0.1662 -0.3142 -0.6099
  840MPD2     H12348   4.105   1.034  10.553 -1.4772  0.0598 -2.1369
  840MPD2    H112349   4.470   1.068  10.345 -0.8983  0.0779  0.0070
  840MPD2    H212350   4.172   0.799  10.196  2.9833  1.0657 -1.6229
  840MPD2    H312351   4.385   0.909  10.188 -1.1661  0.6169 -1.7544
  840MPD2     N12352   4.357   1.120  10.574  0.0011  0.0974  0.6400
  840MPD2    H512353   4.453   1.151  10.563  0.8286 -1.5787  3.1954
  840MPD2    N112354   4.003   0.834  10.392 -0.0734  0.4641  1.1018
  840MPD2    H712355   3.972   0.781  10.311 -1.3311  0.6787  1.4346
  841MPD2     C12356   3.348   1.236  14.949  0.6467  0.8660 -0.5413
  841MPD2    C112357   3.423   1.125  14.920  0.4067  0.6174 -0.1275
  841MPD2    C212358   3.519   1.134  14.823 -0.5454  0.6186 -0.2738
  841MPD2    C312359   3.539   1.257  14.756 -0.6098 -0.0999  0.1414
  841MPD2    C412360   3.470   1.366  14.796 -0.1609 -0.5403  0.1080
  841MPD2    C512361   3.372   1.356  14.888  0.2036  0.7301  0.3850
  841MPD2     H12362   3.577   1.045  14.801  0.8189  0.9560  1.9404
  841MPD2    H112363   3.497   1.467  14.765  0.6399 -0.3399  1.4820
  841MPD2    H212364   3.261   1.244  15.013  1.7766 -1.7333  1.2896
  841MPD2    H312365   3.323   1.447  14.920  0.0515  0.3750  1.1830
  841MPD2     N12366   3.632   1.284  14.653 -0.0730  0.3367  0.5773
  841MPD2    H512367   3.633   1.379  14.617  2.3843  0.8990  2.1588
  841MPD2    N112368   3.397   1.002  14.975  0.0689 -0.0468  0.1465
  841MPD2    H712369   3.477   0.941  14.959  0.0726 -0.2727  1.0620
  842MPD2     C12370   3.997   1.659  16.466  0.4481  0.7710 -0.2024
  842MPD2    C112371   3.925   1.755  16.531 -0.5629  0.0674 -0.2761
  842MPD2    C212372   3.937   1.781  16.668 -0.2808  0.6688 -0.5241
  842MPD2    C312373   4.021   1.699  16.743  0.2862  0.3383 -0.2494
  842MPD2    C412374   4.105   1.612  16.679 -1.0035 -0.4103  0.6155
  842MPD2    C512375   4.087   1.591  16.544 -0.2054  1.8745  0.0873
  842MPD2     H12376   3.867   1.854  16.705  0.9166  1.9678 -0.8417
  842MPD2    H112377   4.178   1.556  16.737 -0.7703 -1.7029 -0.9469
  842MPD2    H212378   4.005   1.644  16.359  0.5624 -0.2848 -0.0556
  842MPD2    H312379   4.153   1.517  16.499 -0.1737  0.8478  1.8138
  842MPD2     N12380   4.034   1.704  16.888 -0.4002  0.1952 -0.0074
  842MPD2    H512381   4.090   1.638  16.940  1.5833  2.9183  1.3018
  842MPD2    N112382   3.828   1.824  16.454  0.3635  0.1889 -0.3210
  842MPD2    H712383   3.832   1.803  16.355  0.0597  0.3190 -0.3613
  843MPD2     C12384   2.369   2.793   0.668  0.6790 -0.5947  0.4406
  843MPD2    C112385   2.472   2.709   0.666  0.0421  0.3494  0.1819
  843MPD2    C212386   2.561   2.717   0.555  0.5285 -0.0071 -0.2120
  843MPD2    C312387   2.552   2.822   0.467 -0.0609 -0.1920 -0.5257
  843MPD2    C412388   2.457   2.921   0.488 -0.0406  0.1384  1.0377
  843MPD2    C512389   2.362   2.897   0.582 -0.2481 -0.2902  0.4942
  843MPD2     H12390   2.640   2.644   0.545  1.2934  0.5109  2.0567
  843MPD2    H112391   2.454   3.011   0.427  0.4336  0.0122  0.8377
  843MPD2    H212392   2.297   2.781   0.748  0.3802 -1.3835  0.0553
  843MPD2    H312393   2.296   2.982   0.600  1.5300  1.3399 -0.7320
  843MPD2     N12394   2.625   2.829   0.344 -0.0583 -0.6684 -0.7816
  843MPD2    H512395   2.625   2.921   0.302  2.9571  0.6046  2.0556
  843MPD2    N112396   2.466   2.608   0.759 -0.4297  0.2696 -0.1621
  843MPD2    H712397   2.392   2.618   0.827 -1.9071 -2.2435 -1.3917
  844MPD2     C12398   0.101   1.746  16.295  0.5381  0.1699  0.2157
  844MPD2    C112399   0.161   1.624  16.314 -0.6788  0.0858 -0.2664
  844MPD2    C212400   0.281   1.621  16.388 -0.8351 -0.3740 -0.0132
  844MPD2    C312401   0.327   1.730  16.455 -0.2650  0.1151 -0.3920
  844MPD2    C412402   0.277   1.855  16.426 -0.2768  0.2525 -0.1875
  844MPD2    C512403   0.165   1.856  16.346 -0.0099  0.3658 -0.1558
  844MPD2     H12404   0.342   1.531  16.389  0.8993  0.7861 -1.7205
  844MPD2    H112405   0.323   1.950  16.451  1.8888  0.2294 -3.9975
  844MPD2    H212406   0.020   1.748  16.223 -0.5639 -0.1687  1.4504
  844MPD2    H312407   0.124   1.949  16.308 -0.9445 -0.3383 -0.8640
  844MPD2     N12408   0.442   1.706  16.541  0.5108  0.1844 -0.1055
  844MPD2    H512409   0.470   1.609  16.542  1.2403  0.4039  0.7503
  844MPD2    N112410   0.124   1.501  16.252  0.2800 -0.1777  0.0629
  844MPD2    H712411   0.190   1.423  16.254  0.6903  0.1894  1.1062
  845MPD2     C12412   1.000   2.300  17.083  0.1326  0.1163  0.3213
  845MPD2    C112413   0.929   2.312  16.965  1.2754 -0.1235 -0.2594
  845MPD2    C212414   0.880   2.200  16.906 -0.9850  0.6473 -0.7115
  845MPD2    C312415   0.930   2.071  16.940  0.1654 -0.3504 -0.0416
  845MPD2    C412416   1.023   2.055  17.048 -0.2625  0.5458 -0.7616
  845MPD2    C512417   1.052   2.172  17.118  0.1091  0.2628 -0.5283
  845MPD2     H12418   0.822   2.204  16.814 -0.5774 -0.2637 -1.0118
  845MPD2    H112419   1.044   1.962  17.100  0.4715  0.5485 -1.0452
  845MPD2    H212420   1.039   2.388  17.133 -0.1853  1.0316 -1.0418
  845MPD2    H312421   1.115   2.165  17.205 -1.8607  1.3242  1.0008
  845MPD2     N12422   0.871   1.968  16.874 -0.1902  0.0292  0.1467
  845MPD2    H512423   0.818   1.995  16.792  0.7431  1.3505 -0.0252
  845MPD2    N112424   0.874   2.440  16.926 -0.5551 -0.3391  0.0639
  845MPD2    H712425   0.863   2.505  17.003  1.0019 -0.4342  0.3738
  846MPD2     C12426   2.044   3.106  14.156  0.1700 -0.8792  0.4170
  846MPD2    C112427   1.951   3.209  14.125  0.1418 -0.1745 -0.0393
  846MPD2    C212428   1.852   3.238  14.224  0.4509  0.0064 -0.0257
  846MPD2    C312429   1.849   3.167  14.347 -0.8960 -0.1894 -0.2566
  846MPD2    C412430   1.957   3.082  14.374  0.0166 -0.8754  0.0051
  846MPD2    C512431   2.059   3.065  14.289  0.4296  0.2349 -0.8805
  846MPD2     H12432   1.780   3.317  14.206  2.2936  0.8268 -3.6560
  846MPD2    H112433   1.973   3.029  14.467  1.0946  1.4767  1.1561
  846MPD2    H212434   2.133   3.091  14.095  1.1018 -2.8347  2.2708
  846MPD2    H312435   2.150   3.011  14.314 -0.1564 -0.4114 -0.1394
  846MPD2     N12436   1.748   3.193  14.441 -0.2903 -0.1186  0.5550
  846MPD2    H512437   1.665   3.245  14.411  1.6404  3.0873  0.7382
  846MPD2    N112438   1.960   3.291  14.009  0.3496 -0.2862 -0.6817
  846MPD2    H712439   1.901   3.373  14.000 -2.0641 -1.7743  1.6230
  847MPD2     C12440   1.973   4.510  14.242  0.2802  0.0642  0.0696
  847MPD2    C112441   2.079   4.450  14.185  0.0163 -0.1459  0.6476
  847MPD2    C212442   2.113   4.321  14.230 -0.1061  0.2075  0.4397
  847MPD2    C312443   2.041   4.256  14.325 -0.5077  0.1284  0.4381
  847MPD2    C412444   1.924   4.316  14.375 -0.2368  0.1626  0.0393
  847MPD2    C512445   1.897   4.441  14.334 -0.1717  0.2936  0.1088
  847MPD2     H12446   2.207   4.281  14.192 -1.7001 -2.0486 -1.1404
  847MPD2    H112447   1.853   4.274  14.446 -2.7012  3.1577 -0.6597
  847MPD2    H212448   1.943   4.612  14.223  1.6863  0.4898  0.0854
  847MPD2    H312449   1.805   4.489  14.366 -0.7156  0.6449 -1.9636
  847MPD2     N12450   2.080   4.130  14.374  0.0558 -0.6751  0.0752
  847MPD2    H512451   2.030   4.089  14.452 -1.6737 -0.8408 -1.1343
  847MPD2    N112452   2.164   4.522  14.098 -0.2601  0.2527  0.1059
  847MPD2    H712453   2.253   4.478  14.079  0.6650  0.5250  3.7259
  848MPD2     C12454   4.532   2.129  16.741  0.0049 -0.0922  0.6449
  848MPD2    C112455   4.629   2.102  16.652 -0.6280  0.3504  0.2368
  848MPD2    C212456   4.624   2.152  16.521 -0.1445  0.2756 -0.5040
  848MPD2    C312457   4.520   2.227  16.470  0.3002  0.4954  0.1780
  848MPD2    C412458   4.419   2.248  16.561  0.2251 -1.0591 -0.1741
  848MPD2    C512459   4.423   2.190  16.689 -0.2636  0.7490  0.1751
  848MPD2     H12460   4.711   2.125  16.462 -0.3152 -0.7115 -0.3134
  848MPD2    H112461   4.333   2.312  16.540  0.6255 -1.3672 -2.6378
  848MPD2    H212462   4.539   2.106  16.847 -0.5255  2.1478  1.1677
  848MPD2    H312463   4.338   2.209  16.754  0.3375  1.0488  0.8699
  848MPD2     N12464   4.512   2.289  16.343 -0.1829  0.5108  0.7306
  848MPD2    H512465   4.435   2.351  16.321 -1.2037 -1.1860 -0.5031
  848MPD2    N112466   0.026   2.037  16.672  0.0142 -0.1187 -0.3458
  848MPD2    H712467   0.089   2.034  16.593 -0.0384 -2.0503 -0.3141
  849MPD2     C12468   3.631   1.852  14.582  0.1051  0.7242  0.3691
  849MPD2    C112469   3.742   1.887  14.502 -0.0384 -0.0283  0.0878
  849MPD2    C212470   3.870   1.857  14.546  0.0278 -0.9566  0.4313
  849MPD2    C312471   3.894   1.780  14.658 -0.5009 -0.6844 -0.5708
  849MPD2    C412472   3.783   1.748  14.730  0.2999 -0.1778  0.0446
  849MPD2    C512473   3.653   1.776  14.696 -0.4721  0.4099  0.7097
  849MPD2     H12474   3.945   1.868  14.468 -0.0050  0.8930  0.6745
  849MPD2    H112475   3.789   1.691  14.822 -0.8553  0.6872  0.6532
  849MPD2    H212476   3.531   1.885  14.554 -0.2330  0.6820  1.5300
  849MPD2    H312477   3.572   1.745  14.761 -1.0505  0.3453 -0.0398
  849MPD2     N12478   4.025   1.735  14.696 -0.0285  0.2294 -0.1032
  849MPD2    H512479   4.038   1.688  14.785 -0.5838 -1.9788 -1.1905
  849MPD2    N112480   3.735   1.950  14.377 -0.2584  0.0681  0.0365
  849MPD2    H712481   3.825   1.980  14.341  0.9052 -1.9676  1.2555
  850MPD2     C12482   2.009   4.716  14.684 -0.1322 -0.5282  0.1918
  850MPD2    C112483   2.033   4.700  14.821  0.0915 -0.1163  0.5352
  850MPD2    C212484   2.146   0.027  14.879  0.0680 -0.2492 -0.4382
  850MPD2    C312485   2.240   0.101  14.809  0.0302 -0.2556  0.6544
  850MPD2    C412486   2.211   0.113  14.670 -0.6898  0.6509  0.0827
  850MPD2    C512487   2.099   0.066  14.610  0.4488 -0.1508 -0.2962
  850MPD2     H12488   2.158   0.026  14.987 -0.6359 -1.6329 -0.3795
  850MPD2    H112489   2.285   0.164  14.611 -0.7467 -0.7439 -1.2096
  850MPD2    H212490   1.920   4.677  14.635 -1.0371  2.0257 -0.2149
  850MPD2    H312491   2.085   0.063  14.503  0.6860  2.5494 -0.3963
  850MPD2     N12492   2.360   0.159  14.862 -0.1517  0.0989 -0.4805
  850MPD2    H512493   2.415   0.219  14.802 -0.0437  1.5083  0.9982
  850MPD2    N112494   1.936   4.631  14.888 -0.1618 -0.3730  0.3233
  850MPD2    H712495   1.859   4.603  14.828 -0.8479 -0.4188  1.2082
  851MPD2     C12496   2.017   4.011  15.568  0.5445 -0.2612  0.7222
  851MPD2    C112497   2.018   4.033  15.429  0.3454 -0.1158 -0.1589
  851MPD2    C212498   2.081   3.931  15.351 -0.7357  0.0670 -0.1247
  851MPD2    C312499   2.137   3.822  15.410  0.1169 -0.3859  0.4560
  851MPD2    C412500   2.127   3.801  15.546 -0.1104  0.0421  0.2115
  851MPD2    C512501   2.072   3.900  15.627 -0.0913  0.0134  0.3809
  851MPD2     H12502   2.058   3.936  15.246  2.0874 -0.8603 -0.7842
  851MPD2    H112503   2.171   3.714  15.592  0.6042 -0.2022 -0.9210
  851MPD2    H212504   1.976   4.087  15.633 -0.8927  0.4446 -1.0047
  851MPD2    H312505   2.075   3.893  15.735  0.2634 -1.0256  0.3076
  851MPD2     N12506   2.179   3.721  15.324 -0.1074 -0.1703  0.2505
  851MPD2    H512507   2.207   3.634  15.370  0.6650  0.2761  0.6286
  851MPD2    N112508   1.941   4.137  15.372 -0.0380  0.0811 -0.0313
  851MPD2    H712509   1.879   4.192  15.430  0.7439  0.6376  0.2773
  852MPD2     C12510   3.291   2.760   9.562  0.7766  0.6744  0.0307
  852MPD2    C112511   3.168   2.755   9.627 -0.1342  0.4809 -0.2335
  852MPD2    C212512   3.143   2.834   9.736  0.1172  0.0702 -0.6169
  852MPD2    C312513   3.248   2.916   9.784 -0.9978  0.2647 -0.2441
  852MPD2    C412514   3.374   2.919   9.721  0.4076 -0.2525  0.4364
  852MPD2    C512515   3.389   2.843   9.609 -0.3444  0.5417  0.2121
  852MPD2     H12516   3.045   2.839   9.783 -0.3752 -0.0526 -1.6273
  852MPD2    H112517   3.458   2.978   9.757  0.1086  1.0117 -0.9465
  852MPD2    H212518   3.308   2.692   9.480 -0.9600  2.0941 -1.4786
  852MPD2    H312519   3.486   2.836   9.562 -0.9751  1.1629 -1.1583
  852MPD2     N12520   3.227   2.999   9.897  0.1541 -0.3111 -0.5246
  852MPD2    H512521   3.136   2.988   9.940 -0.3384  1.6242 -1.0422
  852MPD2    N112522   3.069   2.663   9.596  0.0678  0.0332  0.1948
  852MPD2    H712523   2.984   2.671   9.651 -0.1093 -1.0007  0.0693
  853MPD2     C12524   3.853   2.514  12.235 -0.1553  0.2768 -0.1302
  853MPD2    C112525   3.726   2.538  12.195 -0.0844 -0.6053  0.6252
  853MPD2    C212526   3.687   2.485  12.073 -0.2820 -0.4276  0.2880
  853MPD2    C312527   3.768   2.427  11.983 -0.3539 -0.2111  0.0188
  853MPD2    C412528   3.901   2.406  12.021  0.2163 -0.3969  0.1193
  853MPD2    C512529   3.941   2.451  12.145 -0.1293 -0.7057  0.3727
  853MPD2     H12530   3.580   2.489  12.052 -0.5441 -0.1184  1.6982
  853MPD2    H112531   3.970   2.344  11.965  0.6417  0.4531 -0.3004
  853MPD2    H212532   3.898   2.528  12.332  0.2577 -0.4938 -0.2136
  853MPD2    H312533   4.045   2.441  12.172  0.4001  0.3567 -1.2949
  853MPD2     N12534   3.734   2.364  11.859  0.3140  0.0909  0.5762
  853MPD2    H512535   3.806   2.315  11.807 -0.4906 -2.1549  1.5971
  853MPD2    N112536   3.637   2.596  12.282  0.2140 -0.8109  0.3577
  853MPD2    H712537   3.665   2.629  12.374  0.3467 -0.9666  0.3734
  854MPD2     C12538   0.390   2.496  12.406 -0.1806  1.1260 -0.9721
  854MPD2    C112539   0.510   2.554  12.376  0.0005 -0.1418  0.2244
  854MPD2    C212540   0.628   2.532  12.451  0.2430  0.0265 -0.2688
  854MPD2    C312541   0.623   2.424  12.539 -0.0813 -0.2468  0.0596
  854MPD2    C412542   0.504   2.348  12.549  0.5342 -0.6554  0.3101
  854MPD2    C512543   0.387   2.387  12.493  0.8035 -0.4403 -0.0762
  854MPD2     H12544   0.719   2.590  12.443 -0.2869  0.8240 -0.4213
  854MPD2    H112545   0.496   2.259  12.611 -1.0443 -0.7599 -0.0371
  854MPD2    H212546   0.298   2.511  12.351  0.2534  1.3436 -1.6460
  854MPD2    H312547   0.290   2.343  12.512  0.1296  1.4051  0.7444
  854MPD2     N12548   0.729   2.382  12.617  0.1835  0.1446  0.1665
  854MPD2    H512549   0.720   2.310  12.688 -0.2131  0.3033  0.2726
  854MPD2    N112550   0.498   2.655  12.278  0.3368  0.1251  0.2496
  854MPD2    H712551   0.403   2.670  12.244  0.8611  0.6300 -0.9749
  855MPD2     C12552   0.653   2.629  13.468 -0.1773  0.4816  0.2728
  855MPD2    C112553   0.749   2.531  13.469 -0.7079  0.3929 -0.6828
  855MPD2    C212554   0.813   2.503  13.354 -0.5797  0.0118 -0.1128
  855MPD2    C312555   0.767   2.551  13.230 -0.3720  0.1473  0.4548
  855MPD2    C412556   0.672   2.650  13.233  0.2278  1.0379 -0.5336
  855MPD2    C512557   0.622   2.691  13.352  0.1903  0.4224 -0.0434
  855MPD2     H12558   0.892   2.429  13.361 -0.3657  0.1974 -0.5148
  855MPD2    H112559   0.636   2.690  13.139 -0.5598 -0.3469 -0.8126
  855MPD2    H212560   0.613   2.664  13.561 -0.4446  1.4139 -0.1939
  855MPD2    H312561   0.566   2.783  13.343 -0.6920 -0.2012 -1.0125
  855MPD2     N12562   0.808   2.505  13.107  0.0692 -0.0678  0.6100
  855MPD2    H512563   0.781   2.558  13.026  1.3026  1.8361  1.4513
  855MPD2    N112564   0.780   2.458  13.583 -0.0589 -0.1325 -0.1932
  855MPD2    H712565   0.864   2.402  13.586  0.4917  0.6074 -1.9196
  856MPD2     C12566   3.086   3.678  13.802  0.0021  1.0469 -0.4963
  856MPD2    C112567   3.144   3.748  13.905 -0.7708 -0.0119 -0.0845
  856MPD2    C212568   3.075   3.857  13.952 -0.5923  0.3588  0.3218
  856MPD2    C312569   2.955   3.894  13.900 -0.3500  0.3929 -0.1418
  856MPD2    C412570   2.901   3.826  13.793 -0.4586  0.0097 -0.2135
  856MPD2    C512571   2.966   3.718  13.744  0.4215 -0.9822 -0.1494
  856MPD2     H12572   3.119   3.906  14.037  2.7210 -1.1568 -0.5364
  856MPD2    H112573   2.809   3.864  13.750  1.5557  2.3904 -2.4231
  856MPD2    H212574   3.132   3.591  13.756 -0.2690 -0.0606  1.3620
  856MPD2    H312575   2.925   3.665  13.658  0.8848 -1.8126  0.1348
  856MPD2     N12576   2.897   4.017  13.934 -0.0167  0.1296  0.2536
  856MPD2    H512577   2.820   4.040  13.872  0.6735 -0.4185 -0.7985
  856MPD2    N112578   3.272   3.720  13.958  0.3742 -0.2908  0.4031
  856MPD2    H712579   3.300   3.791  14.025 -0.9291 -2.0773  2.8482
  857MPD2     C12580   4.604   0.467  13.121  0.2635  0.3328  0.4715
  857MPD2    C112581   4.666   0.484  13.000  0.1217 -1.2426 -0.0795
  857MPD2    C212582   4.720   0.607  12.968  0.0326 -0.1050 -0.0375
  857MPD2    C312583   4.713   0.710  13.059  0.3146  0.0092  0.4531
  857MPD2    C412584   4.664   0.690  13.184 -0.4604  0.5384  0.3651
  857MPD2    C512585   4.601   0.572  13.212  0.5310  0.7509  0.1298
  857MPD2     H12586   0.035   0.626  12.870 -0.3627 -0.6620 -0.3133
  857MPD2    H112587   4.668   0.770  13.257  1.5719 -1.2856  2.2681
  857MPD2    H212588   4.553   0.371  13.131 -0.8939  0.8347 -0.5624
  857MPD2    H312589   4.543   0.550  13.301  0.4418 -1.5209 -0.4892
  857MPD2     N12590   0.049   0.828  13.017 -0.0751 -0.0831  0.2435
  857MPD2    H512591   0.089   0.833  12.924  0.8811  0.9811  0.7102
  857MPD2    N112592   4.673   0.372  12.919 -0.0389 -0.0917  0.3968
  857MPD2    H712593   4.619   0.290  12.944  1.3337 -1.3712 -0.8590
  858MPD2     C12594   0.809   0.231  17.063  0.1722  0.2368  0.4557
  858MPD2    C112595   0.783   0.101  17.095  0.2506 -0.1898 -0.1920
  858MPD2    C212596   0.795   0.062  17.228 -0.2370  0.0430 -0.5981
  858MPD2    C312597   0.834   0.144  17.330  0.2461 -0.3725 -0.7476
  858MPD2    C412598   0.854   0.280  17.290  0.4157 -0.7243  0.4553
  858MPD2    C512599   0.839   0.319  17.160 -0.5503 -0.3480 -0.6784
  858MPD2     H12600   0.791   4.682  17.250  1.2205 -0.0857 -0.9464
  858MPD2    H112601   0.878   0.363  17.356 -0.5142  1.4633 -1.9434
  858MPD2    H212602   0.794   0.270  16.963  1.0574  2.2431  1.1063
  858MPD2    H312603   0.849   0.422  17.129 -0.6919 -0.5301 -1.3252
  858MPD2     N12604   0.857   0.110  17.463  0.0941  0.3353 -0.0201
  858MPD2    H512605   0.884   0.192  17.515  0.7502  0.1904 -0.1327
  858MPD2    N112606   0.754   0.022  16.991  0.0003  0.0307 -0.6150
  858MPD2    H712607   0.734   0.062  16.900  0.3601  0.7421 -0.3802
  859MPD2     C12608   3.604   1.843  15.107 -1.0207  0.0103  0.8579
  859MPD2    C112609   3.727   1.790  15.069 -0.2762  0.0483  0.8182
  859MPD2    C212610   3.744   1.655  15.061  0.8486 -0.2459  0.1802
  859MPD2    C312611   3.640   1.573  15.095  0.3450 -0.3272  0.4329
  859MPD2    C412612   3.522   1.621  15.127  0.0876  0.0631 -0.1551
  859MPD2    C512613   3.501   1.756  15.141 -0.6725 -0.1793  0.1584
  859MPD2     H12614   3.844   1.617  15.041  0.8387 -0.7570  1.0813
  859MPD2    H112615   3.443   1.555  15.162  0.4875 -1.2664 -1.7514
  859MPD2    H212616   3.581   1.947  15.126  0.1362 -0.0626  2.6594
  859MPD2    H312617   3.404   1.797  15.166 -1.9205 -0.9920 -3.2945
  859MPD2     N12618   3.655   1.433  15.101 -0.5851 -0.1567  0.1251
  859MPD2    H512619   3.583   1.377  15.144 -0.1409 -1.2000 -0.5009
  859MPD2    N112620   3.822   1.887  15.029  0.5002  1.1944 -0.0567
  859MPD2    H712621   3.795   1.982  15.052 -0.2490  0.6059  1.4874
  860MPD2     C12622   1.677   2.057  11.542 -0.0924 -0.6140 -0.4527
  860MPD2    C112623   1.752   2.120  11.640 -0.0855 -0.4933 -0.3202
  860MPD2    C212624   1.686   2.152  11.757  0.0182 -0.0625  0.0563
  860MPD2    C312625   1.555   2.135  11.776  0.4958 -0.3606 -0.1754
  860MPD2    C412626   1.485   2.055  11.693 -0.1832 -0.4097  0.9628
  860MPD2    C512627   1.547   2.016  11.576  0.0518  0.3170  0.0284
  860MPD2     H12628   1.742   2.209  11.829  1.3182 -0.6888 -0.4461
  860MPD2    H112629   1.387   2.014  11.711  0.5925 -2.8038 -0.2834
  860MPD2    H212630   1.708   2.032  11.441  0.3908 -0.2335 -0.3933
  860MPD2    H312631   1.484   1.967  11.503  0.3181 -0.1061  0.0828
  860MPD2     N12632   1.501   2.184  11.899 -0.0077  0.1649 -0.1182
  860MPD2    H512633   1.570   2.209  11.969 -0.9329  1.5625  0.2857
  860MPD2    N112634   1.891   2.149  11.624 -0.3705  0.6621 -0.2659
  860MPD2    H712635   1.935   2.182  11.709  2.3341  0.0763 -1.4338
  861MPD2     C12636   0.911   0.949  11.269  0.5614  0.2947 -0.6866
  861MPD2    C112637   0.828   0.843  11.262 -0.5228  0.1621  0.1515
  861MPD2    C212638   0.724   0.836  11.165  0.7040 -0.3355 -0.5262
  861MPD2    C312639   0.711   0.944  11.074  0.9335 -0.5102 -0.1333
  861MPD2    C412640   0.801   1.052  11.088 -0.1704 -0.4960  0.1264
  861MPD2    C512641   0.902   1.052  11.177  0.7877  0.1846  0.6451
  861MPD2     H12642   0.652   0.755  11.165  1.2770 -0.8462  0.2876
  861MPD2    H112643   0.793   1.145  11.033 -2.0276 -1.3759 -1.0777
  861MPD2    H212644   0.996   0.947  11.337  0.6871  0.7955 -0.8312
  861MPD2    H312645   0.975   1.132  11.186  1.1229 -0.2428  1.6725
  861MPD2     N12646   0.616   0.946  10.970 -0.4270 -0.5637  0.2522
  861MPD2    H512647   0.598   1.030  10.917 -0.1051 -0.2430  0.6494
  861MPD2    N112648   0.839   0.734  11.359  0.6311  0.3603 -0.2764
  861MPD2    H712649   0.754   0.679  11.368  0.2648  1.7097  4.4609
  862MPD2     C12650   0.122   0.466  10.466  0.0318 -0.4617 -0.6396
  862MPD2    C112651   0.210   0.472  10.570 -0.3648  0.6618  0.1678
  862MPD2    C212652   0.243   0.351  10.629 -0.2441 -0.4432 -0.4629
  862MPD2    C312653   0.183   0.232  10.602 -0.1567 -0.5821  0.6896
  862MPD2    C412654   0.103   0.228  10.488 -0.7504  0.3517  0.2318
  862MPD2    C512655   0.070   0.348  10.427 -0.0343 -0.1363 -0.2145
  862MPD2     H12656   0.316   0.362  10.709 -1.2060 -1.4335  0.5656
  862MPD2    H112657   0.064   0.134  10.451 -0.5155  0.9384 -1.5141
  862MPD2    H212658   0.081   0.543  10.402 -1.7296 -0.6956  0.2158
  862MPD2    H312659   4.720   0.351  10.350 -0.0435 -1.6292 -0.2556
  862MPD2     N12660   0.204   0.112  10.669 -0.2706 -0.6795  0.7107
  862MPD2    H512661   0.146   0.035  10.638 -1.4154  0.6630 -0.4593
  862MPD2    N112662   0.259   0.587  10.626 -0.0687 -0.0065  0.0966
  862MPD2    H712663   0.313   0.568  10.710  1.2209 -0.2392 -0.7712
  863MPD2     C12664   3.985   2.858  16.937  0.0610 -0.6217  0.3500
  863MPD2    C112665   3.997   2.993  16.959  0.3902  0.7780  0.5005
  863MPD2    C212666   4.099   3.034  17.046  0.2695 -0.2994 -0.2443
  863MPD2    C312667   4.174   2.937  17.109  0.6614  0.8863 -0.7266
  863MPD2    C412668   4.148   2.807  17.097 -0.4040 -0.2714 -0.0704
  863MPD2    C512669   4.064   2.763  17.005  0.3086  0.0568 -0.2469
  863MPD2     H12670   4.116   3.138  17.072 -0.4321  0.1461 -1.5798
  863MPD2    H112671   4.183   2.732  17.167 -0.4110 -0.3447 -0.1458
  863MPD2    H212672   3.909   2.827  16.866 -0.3903 -1.0053  1.0069
  863MPD2    H312673   4.042   2.658  16.996 -3.9862  0.9017  0.4968
  863MPD2     N12674   4.269   2.966  17.204  0.2404  0.2412  0.4572
  863MPD2    H512675   4.325   2.892  17.244  0.4150  1.3221  2.2017
  863MPD2    N112676   3.905   3.080  16.898 -0.3034 -0.0109 -0.2477
  863MPD2    H712677   3.829   3.040  16.844  0.1189 -2.1076  0.7378
  864MPD2     C12678   4.018   4.582  17.456  0.6860  0.0491  0.0622
  864MPD2    C112679   4.138   4.564  17.388 -0.5664 -0.2715 -0.0496
  864MPD2    C212680   4.215   4.669  17.351 -0.3701 -0.4879  0.4909
  864MPD2    C312681   4.175   0.072  17.382 -0.2300  0.4530 -0.1374
  864MPD2    C412682   4.054   0.089  17.443  0.6401  0.2948 -0.3334
  864MPD2    C512683   3.974   4.707  17.481 -0.3583 -0.0142  0.6021
  864MPD2     H12684   4.300   4.653  17.286 -1.9281  0.9490 -1.9155
  864MPD2    H112685   4.013   0.187  17.464  1.0728 -0.0817  2.2614
  864MPD2    H212686   3.948   4.504  17.483  0.9150 -0.3959 -0.6395
  864MPD2    H312687   3.886   4.722  17.543  1.2999  4.1797  1.9498
  864MPD2     N12688   4.257   0.183  17.346  0.7110 -0.0620  0.1223
  864MPD2    H512689   4.225   0.279  17.351 -1.1386 -0.8373  3.4476
  864MPD2    N112690   4.180   4.434  17.364 -0.6945 -0.5504 -0.3907
  864MPD2    H712691   4.114   4.359  17.384 -2.8130  0.4610 -3.6032
  865MPD2     C12692   4.521   0.491  16.469 -0.5125  0.3792  0.1256
  865MPD2    C112693   4.506   0.369  16.534  0.1168 -0.2029 -0.2455
  865MPD2    C212694   4.473   0.364  16.668 -0.2018  0.6757 -0.0311
  865MPD2    C312695   4.458   0.480  16.739 -0.1227 -0.3687 -0.2688
  865MPD2    C412696   4.474   0.599  16.672  0.5165  0.2179  0.2076
  865MPD2    C512697   4.503   0.608  16.541  0.2122 -0.2899  0.5008
  865MPD2     H12698   4.460   0.270  16.719 -2.4609  0.2263 -1.4363
  865MPD2    H112699   4.464   0.692  16.727 -0.2100  0.6973 -0.7367
  865MPD2    H212700   4.556   0.500  16.367 -0.3034 -2.3769 -0.0504
  865MPD2    H312701   4.525   0.702  16.490 -1.7492 -0.5699 -0.8513
  865MPD2     N12702   4.434   0.495  16.877 -0.8186  0.0934  0.1776
  865MPD2    H512703   4.446   0.588  16.915  1.2564 -0.8999  1.9364
  865MPD2    N112704   4.543   0.256  16.451 -0.2144  0.8671 -1.3725
  865MPD2    H712705   4.585   0.281  16.362 -2.3757  0.3166 -2.5616
  866MPD2     C12706   1.072   0.965  11.875  0.0561 -0.0746 -0.2892
  866MPD2    C112707   1.096   0.998  11.743  0.0593  0.0413  0.2161
  866MPD2    C212708   0.994   1.042  11.665  0.3470  0.2422 -0.0377
  866MPD2    C312709   0.864   1.049  11.712 -0.0419  0.7674  0.1045
  866MPD2    C412710   0.839   1.016  11.845  0.7360  0.1588  0.2314
  866MPD2    C512711   0.945   0.968  11.924  0.1030 -0.3363  0.0686
  866MPD2     H12712   1.010   1.072  11.562 -0.1011 -1.6638 -0.6448
  866MPD2    H112713   0.737   1.008  11.880  0.9456 -0.7308  0.6244
  866MPD2    H212714   1.132   0.907  11.943  0.5018 -0.7369 -1.2417
  866MPD2    H312715   0.923   0.921  12.019 -2.7202 -0.9550 -0.8724
  866MPD2     N12716   0.758   1.092  11.631  0.4848  0.6172 -0.1329
  866MPD2    H512717   0.665   1.095  11.669  0.6779  0.7855  0.3201
  866MPD2    N112718   1.229   0.973  11.697 -0.5038 -0.8059 -0.2882
  866MPD2    H712719   1.281   0.904  11.751 -1.9821 -0.6245  1.3402
  867MPD2     C12720   3.735   4.395  16.139 -0.4414 -0.2367  0.6052
  867MPD2    C112721   3.788   4.417  16.263 -0.0907 -0.2336 -0.6298
  867MPD2    C212722   3.833   4.546  16.295 -0.4289  0.6128 -0.4520
  867MPD2    C312723   3.833   4.655  16.206 -0.2529  0.0953  0.5036
  867MPD2    C412724   3.799   4.621  16.077 -0.1510  0.6863 -0.3098
  867MPD2    C512725   3.755   4.493  16.043  0.4242  0.1565  0.7921
  867MPD2     H12726   3.867   4.564  16.396 -1.6326 -2.9839  0.5925
  867MPD2    H112727   3.791   4.691  15.996 -0.6470  0.8275 -0.1392
  867MPD2    H212728   3.695   4.298  16.114 -1.7820  0.5612 -0.3209
  867MPD2    H312729   3.731   4.487  15.937  0.5427 -1.4741  0.8669
  867MPD2     N12730   3.873   0.053  16.239  0.2653 -0.5543  0.0446
  867MPD2    H512731   3.887   0.125  16.169 -0.2205 -0.0002  0.5227
  867MPD2    N112732   3.803   4.303  16.344 -0.6909 -0.0521 -0.0835
  867MPD2    H712733   3.738   4.230  16.317 -0.4084 -0.9796  1.7512
  868MPD2     C12734   0.381   2.807  13.022  0.3993  0.0840  0.1460
  868MPD2    C112735   0.399   2.941  13.012 -0.3621 -0.6473 -0.0059
  868MPD2    C212736   0.297   3.027  13.043  0.1491  0.3464 -0.5166
  868MPD2    C312737   0.174   2.978  13.082 -0.6543  0.2511 -0.5018
  868MPD2    C412738   0.161   2.845  13.097  0.2979  0.7971  0.3394
  868MPD2    C512739   0.265   2.760  13.068  0.0717  0.1618  0.0213
  868MPD2     H12740   0.312   3.134  13.047 -2.1260  0.6229  0.8621
  868MPD2    H112741   0.077   2.791  13.140  0.8143 -0.3233 -0.0449
  868MPD2    H212742   0.450   2.736  12.978  1.6543  0.1648  1.9691
  868MPD2    H312743   0.256   2.654  13.089 -0.1281 -0.0006 -0.9069
  868MPD2     N12744   0.072   3.064  13.121 -0.6821 -0.2367 -0.9150
  868MPD2    H512745   0.101   3.162  13.124  0.7842 -0.6872  0.0946
  868MPD2    N112746   0.517   2.996  12.962 -0.2678 -0.4005  0.2261
  868MPD2    H712747   0.598   2.936  12.955  0.1906  0.3766 -1.2222
  869MPD2     C12748   1.925   1.627   1.958  0.2961  0.2872  0.5348
  869MPD2    C112749   1.808   1.572   1.924  0.6662  0.4220 -0.0795
  869MPD2    C212750   1.736   1.635   1.817  0.4941 -0.2761  0.4071
  869MPD2    C312751   1.789   1.752   1.757  0.5531  0.4373  0.5460
  869MPD2    C412752   1.909   1.800   1.800 -0.5915 -0.2429  0.2034
  869MPD2    C512753   1.984   1.733   1.895 -0.4639 -0.7601 -0.1189
  869MPD2     H12754   1.655   1.581   1.769  0.8840 -1.1773  0.7672
  869MPD2    H112755   1.962   1.885   1.758 -1.5592  0.5426  0.5501
  869MPD2    H212756   1.991   1.580   2.029  2.7465  1.1882 -1.1418
  869MPD2    H312757   2.082   1.772   1.917 -0.7680 -1.3053  2.1733
  869MPD2     N12758   1.724   1.830   1.655  0.0071  0.8368  0.0469
  869MPD2    H512759   1.780   1.902   1.611 -0.8437  0.2441 -1.9833
  869MPD2    N112760   1.763   1.455   1.980 -0.1079 -0.3008  0.4090
  869MPD2    H712761   1.830   1.408   2.040 -2.2507 -3.4282  0.3095
  870MPD2     C12762   0.524   1.331   1.653 -0.0442 -0.6393 -0.0916
  870MPD2    C112763   0.651   1.301   1.616  0.1682  0.2482 -0.1617
  870MPD2    C212764   0.700   1.366   1.501 -0.2298  0.1599  0.3562
  870MPD2    C312765   0.626   1.464   1.434  0.4416  0.2800  0.7316
  870MPD2    C412766   0.495   1.488   1.475 -0.1676  0.4323  0.1031
  870MPD2    C512767   0.448   1.420   1.584 -0.1596  0.4701  0.0614
  870MPD2     H12768   0.800   1.345   1.465  0.4749  0.8197  1.8895
  870MPD2    H112769   0.439   1.566   1.423  0.7063  0.1871 -1.2197
  870MPD2    H212770   0.482   1.275   1.736 -1.0763 -0.0127 -0.1930
  870MPD2    H312771   0.347   1.429   1.622  0.6463  0.0591  2.2803
  870MPD2     N12772   0.683   1.536   1.322  1.3539 -0.2679 -0.6590
  870MPD2    H512773   0.768   1.495   1.286  1.0744 -0.1124 -1.4890
  870MPD2    N112774   0.727   1.197   1.687  0.4157  0.2733  0.2634
  870MPD2    H712775   0.675   1.161   1.767  0.7091  0.2337  0.4362
  871MPD2     C12776   2.009   4.687  16.439 -0.1542  0.1049  0.4000
  871MPD2    C112777   2.051   4.678  16.575 -0.2188 -0.6815  0.6225
  871MPD2    C212778   2.141   4.576  16.604 -0.8188 -0.2205  0.6816
  871MPD2    C312779   2.198   4.499  16.503 -0.4990  0.0453  0.3493
  871MPD2    C412780   2.162   4.515  16.374 -0.4409 -0.2487 -0.3473
  871MPD2    C512781   2.064   4.605  16.345  0.2772 -0.0154  0.9479
  871MPD2     H12782   2.177   4.564  16.706  0.7939 -1.3942 -0.0301
  871MPD2    H112783   2.202   4.455  16.293 -1.5952 -0.1029 -1.0141
  871MPD2    H212784   1.940   0.033  16.398 -0.3479 -1.1520 -1.4953
  871MPD2    H312785   2.031   4.610  16.242  1.3621  2.5407  0.7149
  871MPD2     N12786   2.292   4.402  16.543  0.3673  0.3328 -0.1070
  871MPD2    H512787   2.303   4.377  16.641 -1.7942  0.1036  0.0804
  871MPD2    N112788   2.000   0.050  16.662  0.2132 -0.0100 -0.7637
  871MPD2    H712789   1.950   0.126  16.617 -0.6240 -0.2001 -0.1485
  872MPD2     C12790   2.904   3.047  13.752 -0.0659  0.0985 -1.0288
  872MPD2    C112791   2.987   3.046  13.865 -0.3968  0.8234 -0.1811
  872MPD2    C212792   2.931   3.005  13.980 -0.2185 -0.4782  0.6417
  872MPD2    C312793   2.800   2.971  13.994  0.6513 -0.1462 -0.3050
  872MPD2    C412794   2.715   2.970  13.883  0.3933  0.4419  0.2276
  872MPD2    C512795   2.769   3.013  13.767  0.3152  0.2637 -0.5062
  872MPD2     H12796   3.001   2.986  14.060  2.6845 -0.6127 -1.9415
  872MPD2    H112797   2.609   2.950  13.894  0.7731 -1.6096  0.2706
  872MPD2    H212798   2.940   3.069  13.652  0.3763 -2.3211 -1.3922
  872MPD2    H312799   2.710   3.019  13.677 -1.3277  1.2648  0.6348
  872MPD2     N12800   2.739   2.924  14.117 -0.4219 -0.2571  0.0005
  872MPD2    H512801   2.642   2.902  14.100 -0.0650 -2.7822  1.2331
  872MPD2    N112802   3.126   3.080  13.865 -0.4168  0.0341  0.4108
  872MPD2    H712803   3.182   3.059  13.947  0.6510  0.4272 -0.2160
  873MPD2     C12804   4.538   2.119   0.947 -0.8351  0.9901  0.1098
  873MPD2    C112805   4.417   2.093   1.014  0.7421  0.0729  0.2922
  873MPD2    C212806   4.352   1.979   0.972 -0.2461 -0.1086 -0.7901
  873MPD2    C312807   4.399   1.896   0.870 -0.5443 -0.3409 -0.0812
  873MPD2    C412808   4.515   1.929   0.805 -0.2691  0.0124  0.0660
  873MPD2    C512809   4.586   2.048   0.833 -0.5503  0.3451 -0.4468
  873MPD2     H12810   4.256   1.959   1.018 -0.6932 -1.1767 -2.1862
  873MPD2    H112811   4.542   1.877   0.714  0.0949 -0.8373  0.6600
  873MPD2    H212812   4.587   2.215   0.961  0.7668 -0.0154  1.4408
  873MPD2    H312813   4.665   2.085   0.769  0.0775 -1.3297 -0.6387
  873MPD2     N12814   4.324   1.790   0.814 -0.1017 -0.1593  0.5744
  873MPD2    H512815   4.362   1.740   0.734  1.1931  1.6233  0.0719
  873MPD2    N112816   4.389   2.186   1.119 -0.6434 -0.5714  0.0413
  873MPD2    H712817   4.460   2.250   1.153 -2.1406  1.9119 -1.4733
  874MPD2     C12818   3.849   2.531  15.958  0.0953 -0.0234  0.4797
  874MPD2    C112819   3.901   2.433  16.038  0.0927  0.9518 -0.6305
  874MPD2    C212820   4.031   2.444  16.075  0.4420  0.0654  0.1483
  874MPD2    C312821   4.115   2.532  16.014  0.2331 -0.3619 -0.0081
  874MPD2    C412822   4.065   2.620  15.914  0.6355 -0.0678 -0.0091
  874MPD2    C512823   3.926   2.625  15.901  0.5331 -0.0855  0.5847
  874MPD2     H12824   4.077   2.378  16.147  0.0355 -0.1471  0.2109
  874MPD2    H112825   4.129   2.688  15.858  0.7563 -0.4370 -0.3224
  874MPD2    H212826   3.745   2.531  15.927  0.1905 -0.1840  0.1556
  874MPD2    H312827   3.875   2.693  15.834  0.0697 -1.9182 -0.9340
  874MPD2     N12828   4.250   2.525  16.045  0.5608  0.5841 -0.1954
  874MPD2    H512829   4.280   2.479  16.130 -0.9747  1.6191  0.9099
  874MPD2    N112830   3.817   2.331  16.076 -0.4841 -0.4659 -0.1722
  874MPD2    H712831   3.720   2.356  16.057 -1.1461 -1.9463  1.3273
  875MPD2     C12832   1.097   0.819  14.721  0.4647 -0.1624 -0.7065
  875MPD2    C112833   1.031   0.940  14.731 -1.1395  0.3170  0.5855
  875MPD2    C212834   1.052   1.031  14.837 -0.5774 -0.1554  0.2531
  875MPD2    C312835   1.122   0.989  14.950 -0.3582 -0.6788 -0.1196
  875MPD2    C412836   1.180   0.864  14.945  0.0246 -0.3469 -0.6166
  875MPD2    C512837   1.166   0.777  14.836 -0.4408 -0.3878 -0.2279
  875MPD2     H12838   1.021   1.135  14.835  2.0367  0.6850  2.6326
  875MPD2    H112839   1.243   0.822  15.023 -2.0285  0.3942  1.4594
  875MPD2    H212840   1.098   0.751  14.637  1.7570 -2.4185  1.1359
  875MPD2    H312841   1.228   0.688  14.829 -0.3051 -0.2439 -0.8792
  875MPD2     N12842   1.151   1.074  15.057 -0.0674  0.6952 -0.0412
  875MPD2    H512843   1.119   1.170  15.042 -0.8981  0.5327  0.7278
  875MPD2    N112844   0.946   0.988  14.634 -0.1691 -0.3371  0.1029
  875MPD2    H712845   0.912   1.083  14.630  0.0208 -0.2534  0.4777
  876MPD2     C12846   3.533   1.740  15.868  0.1747  0.7503 -0.2007
  876MPD2    C112847   3.671   1.772  15.871 -0.3662 -0.0756  0.3563
  876MPD2    C212848   3.754   1.664  15.884  0.7777  0.6810  0.2180
  876MPD2    C312849   3.708   1.535  15.903  0.1102  0.0657 -1.2507
  876MPD2    C412850   3.571   1.504  15.899  0.1498 -0.5317  0.1710
  876MPD2    C512851   3.487   1.612  15.887 -0.5553 -0.0223  0.7091
  876MPD2     H12852   3.860   1.688  15.884  0.8769  0.2379 -0.0212
  876MPD2    H112853   3.525   1.406  15.907 -0.6541 -0.3238 -1.6834
  876MPD2    H212854   3.463   1.822  15.855  0.1861  0.9788  1.2447
  876MPD2    H312855   3.382   1.610  15.910 -0.2901  0.8897  2.0136
  876MPD2     N12856   3.809   1.432  15.921  0.1345  0.1865 -0.2156
  876MPD2    H512857   3.905   1.463  15.921  0.4269 -0.7359 -0.3531
  876MPD2    N112858   3.713   1.903  15.838 -0.4085 -0.4987 -0.4959
  876MPD2    H712859   3.644   1.972  15.811 -0.8735 -0.0373  1.9018
  877MPD2     C12860   3.667   2.470  15.336 -0.0484 -0.2675 -0.7372
  877MPD2    C112861   3.794   2.462  15.374  0.1900  0.1519 -0.3425
  877MPD2    C212862   3.895   2.519  15.299 -1.0594 -0.2840 -0.3530
  877MPD2    C312863   3.863   2.591  15.184 -0.2753  0.4505 -0.3652
  877MPD2    C412864   3.732   2.608  15.152  0.4176  1.0255 -0.2946
  877MPD2    C512865   3.635   2.547  15.228 -0.0912  0.0952 -0.2254
  877MPD2     H12866   3.999   2.506  15.325 -0.6767  4.1064  0.3513
  877MPD2    H112867   3.696   2.654  15.061  0.1275  1.5739  0.0917
  877MPD2    H212868   3.590   2.416  15.390 -0.9181  0.3079 -1.3981
  877MPD2    H312869   3.532   2.564  15.200 -0.4910  0.0187  1.1800
  877MPD2     N12870   3.958   2.643  15.092  0.3979 -0.2236 -0.3407
  877MPD2    H512871   3.927   2.660  14.997 -0.4943  0.2693  0.0406
  877MPD2    N112872   3.843   2.392  15.490 -0.0149  0.3595 -0.2289
  877MPD2    H712873   3.943   2.389  15.505 -0.2823 -1.8290  1.0244
  878MPD2     C12874   3.769   1.718  13.396  0.3965  0.1702 -0.1312
  878MPD2    C112875   3.851   1.820  13.418  0.4062  0.0378 -0.4285
  878MPD2    C212876   3.829   1.904  13.525  0.1927  0.4294  0.7727
  878MPD2    C312877   3.731   1.876  13.620  0.7262 -0.3157 -0.6137
  878MPD2    C412878   3.632   1.777  13.592 -0.4179 -0.3689 -0.1078
  878MPD2    C512879   3.661   1.692  13.483 -0.3508 -0.0333 -0.1018
  878MPD2     H12880   3.899   1.984  13.542  0.6111  0.2627 -0.1475
  878MPD2    H112881   3.563   1.748  13.670  1.5748 -1.8835  1.0912
  878MPD2    H212882   3.788   1.642  13.322  0.8257 -0.5317  0.6939
  878MPD2    H312883   3.602   1.607  13.452  0.4369 -0.7191  0.2796
  878MPD2     N12884   3.742   1.950  13.738 -0.4995  0.2056  0.1166
  878MPD2    H512885   3.816   2.019  13.744 -1.5010  1.4064 -1.4183
  878MPD2    N112886   3.976   1.828  13.348  0.0261  0.4118  1.1611
  878MPD2    H712887   3.984   1.747  13.287  0.1586  1.6135 -0.4190
  879MPD2     C12888   0.092   3.188  17.305  0.7439 -0.1729  0.6220
  879MPD2    C112889   0.098   3.062  17.364 -0.5086  0.0662  0.0674
  879MPD2    C212890   0.025   2.959  17.309 -0.4445 -0.1702 -0.5189
  879MPD2    C312891   4.687   2.979  17.186 -0.0249 -0.0837  0.3367
  879MPD2    C412892   4.698   3.102  17.124 -0.4807 -0.0355  0.1486
  879MPD2    C512893   0.028   3.207  17.192 -1.0202 -0.1662  0.1548
  879MPD2     H12894   0.023   2.864  17.361  0.3711 -0.3068 -0.7409
  879MPD2    H112895   4.656   3.135  17.029 -3.0131 -0.3462  1.1779
  879MPD2    H212896   0.136   3.279  17.346  0.6090  1.1402 -2.0971
  879MPD2    H312897   0.014   3.304  17.146  0.9831  0.5442  1.0386
  879MPD2     N12898   4.627   2.871  17.129  0.3581 -0.6209 -0.2563
  879MPD2    H512899   4.600   2.866  17.031  0.3817  0.2361 -0.3066
  879MPD2    N112900   0.187   3.047  17.471 -0.4869 -0.5054 -0.0650
  879MPD2    H712901   0.255   3.121  17.480 -1.4743  0.4653 -0.5072
  880MPD2     C12902   0.746   0.633   0.509 -0.6016 -0.3532  1.4475
  880MPD2    C112903   0.834   0.654   0.615  0.1225 -0.9014  0.5875
  880MPD2    C212904   0.786   0.612   0.739  0.0722 -0.0354  0.3877
  880MPD2    C312905   0.669   0.548   0.764  0.2293  0.7548 -0.1123
  880MPD2    C412906   0.582   0.543   0.654 -0.1646  0.4784  0.0888
  880MPD2    C512907   0.619   0.586   0.529  0.1651  0.8952  0.0005
  880MPD2     H12908   0.844   0.633   0.828  0.2452  0.7882  0.0843
  880MPD2    H112909   0.478   0.515   0.665  0.2264 -2.0772 -2.6513
  880MPD2    H212910   0.773   0.664   0.409  1.5865  0.6957  2.3658
  880MPD2    H312911   0.559   0.563   0.442  0.8080  0.7545 -0.3977
  880MPD2     N12912   0.628   0.500   0.890  0.6556 -0.0583 -0.2815
  880MPD2    H512913   0.695   0.522   0.964  0.0629 -1.6161  0.7146
  880MPD2    N112914   0.955   0.727   0.580 -0.2247 -0.7160 -0.5368
  880MPD2    H712915   0.971   0.745   0.481  0.7788 -1.0542 -0.4410
  881MPD2     C12916   1.259   1.257  17.564  0.0290  0.2354 -0.2531
  881MPD2    C112917   1.300   1.126  17.573  0.2952 -0.2344  0.3225
  881MPD2    C212918   1.276   1.057  17.699 -0.0279 -0.0401 -0.4630
  881MPD2    C312919   1.222   1.127   0.096  0.6834  0.0441  0.2261
  881MPD2    C412920   1.187   1.261   0.078  0.3355 -0.0056  0.6601
  881MPD2    C512921   1.204   1.324  17.666 -0.3784 -0.4141 -0.2228
  881MPD2     H12922   1.323   0.960  17.705 -0.8952 -0.4637 -0.4306
  881MPD2    H112923   1.140   1.323   0.154 -0.8967 -0.4154  0.2431
  881MPD2    H212924   1.263   1.313  17.471  0.2013  1.2561  0.3704
  881MPD2    H312925   1.167   1.425  17.655  3.5369  1.2221  1.5365
  881MPD2     N12926   1.212   1.082   0.228  0.2050  0.3217 -0.5867
  881MPD2    H512927   1.169   1.149   0.292  1.4362 -0.0519  0.6127
  881MPD2    N112928   1.323   1.054  17.454  0.2849  0.4189  0.3331
  881MPD2    H712929   1.304   1.100  17.365  0.0053  0.7166  0.5466
  882MPD2     C12930   4.055   2.435  14.385 -0.6131 -0.3604 -0.6027
  882MPD2    C112931   4.048   2.556  14.456 -0.0616 -0.4753 -0.0599
  882MPD2    C212932   3.951   2.646  14.412  0.1522 -0.3409 -0.3167
  882MPD2    C312933   3.863   2.607  14.316  0.2117 -0.1201  1.1635
  882MPD2    C412934   3.864   2.489  14.260 -0.3258 -0.2146  0.1283
  882MPD2    C512935   3.964   2.401  14.288 -0.6187 -0.1964  0.7531
  882MPD2     H12936   3.932   2.738  14.465  1.5469  0.3805 -1.0590
  882MPD2    H112937   3.813   2.487  14.164  1.7910 -0.1116 -0.9984
  882MPD2    H212938   4.133   2.362  14.406  0.0038  0.6060  0.4260
  882MPD2    H312939   3.984   2.324  14.214 -1.5813  0.0566  0.2302
  882MPD2     N12940   3.760   2.692  14.281 -0.0909 -0.0209  0.4510
  882MPD2    H512941   3.683   2.645  14.235 -0.8762  2.1347 -0.4678
  882MPD2    N112942   4.120   2.577  14.573  0.5980 -0.0423  0.6016
  882MPD2    H712943   4.195   2.511  14.591 -0.1383 -0.7829  0.9717
  883MPD2     C12944   1.539   2.978  16.247  0.4587  0.3878 -0.3140
  883MPD2    C112945   1.600   2.870  16.193  0.4083 -0.1236 -0.2244
  883MPD2    C212946   1.702   2.814  16.262  0.1551  0.1939 -0.6795
  883MPD2    C312947   1.757   2.867  16.382 -0.8120  0.2736 -0.0319
  883MPD2    C412948   1.688   2.975  16.428 -0.0764 -0.0519  0.3822
  883MPD2    C512949   1.579   3.028  16.368  0.1913  0.3398 -0.2302
  883MPD2     H12950   1.742   2.725  16.214  2.0528  2.3038 -2.9932
  883MPD2    H112951   1.725   3.023  16.518  0.0529  2.3829 -0.9695
  883MPD2    H212952   1.455   3.023  16.196  0.8503 -0.1314 -1.4109
  883MPD2    H312953   1.527   3.110  16.417  0.1244 -0.7571  1.5688
  883MPD2     N12954   1.880   2.817  16.432 -0.1044 -0.6574  0.0472
  883MPD2    H512955   1.925   2.745  16.377  2.5365  0.3639  0.8315
  883MPD2    N112956   1.548   2.806  16.074  0.6879 -0.0252 -0.1217
  883MPD2    H712957   1.608   2.732  16.038 -1.3488 -1.7241 -0.0352
  884MPD2     C12958   3.297   3.561  16.030 -0.1297 -0.1093 -0.5546
  884MPD2    C112959   3.324   3.632  15.911 -0.1778  0.1946  0.8995
  884MPD2    C212960   3.225   3.677  15.827  0.7095  0.3325  0.0317
  884MPD2    C312961   3.097   3.647  15.842 -0.0132 -0.0988  0.2550
  884MPD2    C412962   3.070   3.590  15.963  0.0225 -0.4298  0.4089
  884MPD2    C512963   3.163   3.545  16.053 -0.1764  0.1592  0.4307
  884MPD2     H12964   3.252   3.724  15.733 -0.0198  1.7769  0.5518
  884MPD2    H112965   2.969   3.583  16.000 -0.1235  2.8066  0.6532
  884MPD2    H212966   3.369   3.519  16.099 -2.2688 -0.3147  1.5528
  884MPD2    H312967   3.123   3.508  16.146 -1.0040 -1.9562 -0.7563
  884MPD2     N12968   3.005   3.696  15.746  0.0457  0.4623 -0.9027
  884MPD2    H512969   3.035   3.756  15.670  0.4164  1.9610  0.4325
  884MPD2    N112970   3.454   3.678  15.880 -0.0108 -0.0573 -0.0443
  884MPD2    H712971   3.474   3.704  15.784 -0.0915 -0.2862 -0.1244
  885MPD2     C12972   1.998   3.903   0.169  0.8117  0.5281  0.0444
  885MPD2    C112973   1.956   3.770   0.160 -0.6768  0.4633 -0.3711
  885MPD2    C212974   1.853   3.741   0.076 -0.3143  0.1422 -0.7601
  885MPD2    C312975   1.789   3.841   0.007 -0.4662 -0.5385 -0.2827
  885MPD2    C412976   1.823   3.971   0.030 -0.8964 -0.1273 -0.0986
  885MPD2    C512977   1.930   4.005   0.107  0.4594  0.0511  0.6030
  885MPD2     H12978   1.816   3.641   0.058 -1.7052  0.4850  0.1936
  885MPD2    H112979   1.773   4.056  17.692 -2.2950 -1.1467 -0.4690
  885MPD2    H212980   2.083   3.925   0.233 -0.7061  1.3449  1.8182
  885MPD2    H312981   1.975   4.104   0.097  1.3942 -0.6094 -1.7243
  885MPD2     N12982   1.695   3.795  17.622 -0.0712 -0.3657 -0.1904
  885MPD2    H512983   1.680   3.695  17.617  2.2112 -0.6580 -1.1792
  885MPD2    N112984   2.022   3.666   0.226  0.2411  0.5508  0.4914
  885MPD2    H712985   1.994   3.572   0.200  0.8090  0.9288 -1.4647
  886MPD2     C12986   2.630   2.328  15.761  0.1602  0.0024 -0.7230
  886MPD2    C112987   2.770   2.324  15.757 -0.4198 -0.0622 -0.2264
  886MPD2    C212988   2.843   2.358  15.644  0.2893 -0.4103 -0.5353
  886MPD2    C312989   2.767   2.375  15.524 -0.6214  0.2134 -0.7838
  886MPD2    C412990   2.631   2.375  15.526 -0.5747 -0.3208  0.6641
  886MPD2    C512991   2.562   2.353  15.641  0.4515 -0.3770 -0.5475
  886MPD2     H12992   2.950   2.345  15.648  0.1812 -0.4168  2.2743
  886MPD2    H112993   2.574   2.410  15.441  0.2259  0.0343  0.2787
  886MPD2    H212994   2.569   2.316  15.850  1.0445  2.5547  0.2128
  886MPD2    H312995   2.454   2.355  15.629  0.2257 -0.0933  1.5607
  886MPD2     N12996   2.832   2.420  15.404 -0.2050 -0.5216  1.0126
  886MPD2    H512997   2.776   2.464  15.333  0.7224 -0.3999  0.3525
  886MPD2    N112998   2.850   2.280  15.866  0.0274 -0.4496 -0.0070
  886MPD2    H712999   2.951   2.281  15.860 -0.0794  2.0370 -1.2098
  887MPD2     C13000   3.268   2.440  15.677  0.3673 -0.7967  0.2997
  887MPD2    C113001   3.207   2.513  15.779  0.1793  0.1746 -0.4450
  887MPD2    C213002   3.149   2.632  15.750 -0.4761 -0.1503 -0.5950
  887MPD2    C313003   3.164   2.686  15.619 -0.3466 -0.0478  0.2791
  887MPD2    C413004   3.222   2.616  15.519 -0.0217  0.7013 -0.1088
  887MPD2    C513005   3.274   2.492  15.552  0.0344 -0.9363 -0.2740
  887MPD2     H13006   3.091   2.683  15.826 -1.1827 -1.0367 -0.5431
  887MPD2    H113007   3.226   2.650  15.416 -1.1854 -1.6522 -0.9265
  887MPD2    H213008   3.307   2.340  15.688  0.4565 -1.0217 -2.2804
  887MPD2    H313009   3.335   2.437  15.481 -0.6887 -0.4770 -1.2593
  887MPD2     N13010   3.103   2.816  15.597  0.3761 -0.5506 -0.1854
  887MPD2    H513011   3.069   2.869  15.677 -0.1759 -0.7362 -0.2946
  887MPD2    N113012   3.185   2.460  15.907 -0.3256 -0.3270 -0.6463
  887MPD2    H713013   3.117   2.511  15.962  1.1094 -0.1217  0.9311
  888MPD2     C13014   0.366   2.274  15.312  0.2176  0.8676 -0.5326
  888MPD2    C113015   0.503   2.275  15.327 -0.0766  0.5636  0.1162
  888MPD2    C213016   0.558   2.396  15.351 -0.7775  0.4064 -0.1184
  888MPD2    C313017   0.493   2.513  15.353 -0.2140 -0.2908  0.1715
  888MPD2    C413018   0.359   2.508  15.326 -0.5472  0.1292  0.5820
  888MPD2    C513019   0.297   2.390  15.305  0.6602 -0.5147 -0.0315
  888MPD2     H13020   0.664   2.393  15.377 -0.4046  0.9426 -1.5699
  888MPD2    H113021   0.300   2.598  15.311 -1.2716 -0.1004  2.0823
  888MPD2    H213022   0.307   2.187  15.285  1.8736 -0.7353  1.0207
  888MPD2    H313023   0.193   2.386  15.273  0.7631  0.4096 -0.4730
  888MPD2     N13024   0.571   2.627  15.374  0.1814 -0.3400 -0.2000
  888MPD2    H513025   0.672   2.618  15.377  0.1950  0.2369  1.3412
  888MPD2    N113026   0.584   2.161  15.307 -0.0582  0.1158 -0.6433
  888MPD2    H713027   0.685   2.173  15.309  0.2228 -2.5962  0.2790
  889MPD2     C13028   4.667   1.645  13.063  0.8114  0.0117  0.6167
  889MPD2    C113029   0.015   1.577  13.165 -0.6562 -0.7351  0.3549
  889MPD2    C213030   4.719   1.613  13.296 -0.4956  0.5437  0.5390
  889MPD2    C313031   4.650   1.730  13.325  0.1350 -0.5517 -1.2150
  889MPD2    C413032   4.577   1.793  13.223  0.5880 -0.3680 -0.1464
  889MPD2    C513033   4.584   1.748  13.095  0.1750  0.3300  0.6079
  889MPD2     H13034   0.041   1.553  13.372  0.6961  2.4131  1.2485
  889MPD2    H113035   4.513   1.879  13.241 -0.0197 -0.6967 -0.7422
  889MPD2    H213036   4.657   1.591  12.969  1.5261 -1.8069  1.5765
  889MPD2    H313037   4.538   1.791  13.006  2.3329  0.7503 -0.3129
  889MPD2     N13038   4.656   1.791  13.457  0.3224 -0.1055 -0.4091
  889MPD2    H513039   4.712   1.739  13.524 -0.3078 -0.0340  0.1680
  889MPD2    N113040   0.073   1.455  13.136 -0.4466  0.7380  0.1795
  889MPD2    H713041   0.083   1.394  13.217 -1.1394 -0.1196 -0.3956
  890MPD2     C13042   3.733   4.006  14.578  0.7268  0.2415  0.1979
  890MPD2    C113043   3.825   3.985  14.673 -0.4652 -0.8907 -0.2515
  890MPD2    C213044   3.837   3.871  14.745 -0.0155 -0.1795  0.3747
  890MPD2    C313045   3.755   3.762  14.715 -0.0578  0.2348  0.9320
  890MPD2    C413046   3.650   3.784  14.622  0.3431  0.0937  0.4555
  890MPD2    C513047   3.650   3.903  14.552 -0.0584  0.2829 -0.8409
  890MPD2     H13048   3.922   3.837  14.803 -0.4777  1.7253  2.1507
  890MPD2    H113049   3.582   3.709  14.586  1.5638 -0.6911 -0.2197
  890MPD2    H213050   3.728   4.102  14.527 -0.9590 -0.0050 -0.0898
  890MPD2    H313051   3.594   3.905  14.460 -1.4398  2.3634  0.0606
  890MPD2     N13052   3.765   3.651  14.794 -0.4382 -0.2585 -0.4002
  890MPD2    H513053   3.812   3.654  14.884  0.7809  2.1853 -1.1148
  890MPD2    N113054   3.925   4.090  14.684  0.2020  0.3059  0.1489
  890MPD2    H713055   3.932   4.160  14.610 -0.7342  1.7957  1.4696
  891MPD2     C13056   2.424   1.922  16.644 -0.4894  0.0347  0.5677
  891MPD2    C113057   2.332   1.949  16.742  0.0510  0.0480  0.6731
  891MPD2    C213058   2.361   1.923  16.875  0.1214 -0.6900 -0.8095
  891MPD2    C313059   2.474   1.864  16.911 -0.5015  0.4075  0.1352
  891MPD2    C413060   2.560   1.829  16.809  0.1369  0.2108  0.4881
  891MPD2    C513061   2.540   1.862  16.680  0.2510 -0.5029 -0.4599
  891MPD2     H13062   2.283   1.939  16.949  1.2908  0.0956  0.2560
  891MPD2    H113063   2.649   1.776  16.841 -0.2614 -1.1389 -0.6200
  891MPD2    H213064   2.411   1.948  16.540 -4.1866 -1.6797  0.6057
  891MPD2    H313065   2.612   1.836  16.603  0.7342  2.6950 -1.1026
  891MPD2     N13066   2.496   1.844  17.048  0.2475 -0.2161 -0.0991
  891MPD2    H513067   2.428   1.887  17.109  1.4544  0.3339  0.8623
  891MPD2    N113068   2.215   2.005  16.685 -0.4684 -0.3652 -0.3169
  891MPD2    H713069   2.213   1.995  16.584  1.8133  2.5663 -0.6369
  892MPD2     C13070   3.421   3.217  15.017 -0.4835  0.9091 -0.2969
  892MPD2    C113071   3.313   3.203  14.933  0.0716 -0.1442 -0.0405
  892MPD2    C213072   3.338   3.162  14.799  0.1003 -0.4774  0.1572
  892MPD2    C313073   3.461   3.120  14.758 -0.3339 -0.0971  0.4938
  892MPD2    C413074   3.567   3.125  14.851  0.9522 -0.2602 -0.5363
  892MPD2    C513075   3.544   3.167  14.982  0.4621 -0.3646  0.8748
  892MPD2     H13076   3.256   3.146  14.730 -0.3568  1.1775  0.3334
  892MPD2    H113077   3.663   3.078  14.834  1.4998  0.7592 -0.2896
  892MPD2    H213078   3.418   3.248  15.120 -0.9341  0.7778 -0.2725
  892MPD2    H313079   3.614   3.168  15.065 -0.7442 -0.2053  1.8897
  892MPD2     N13080   3.486   3.054  14.636  0.6970 -0.7419  0.0007
  892MPD2    H513081   3.582   3.025  14.621  1.2280  1.2968 -0.6940
  892MPD2    N113082   3.177   3.233  14.968  0.3703 -0.0280 -0.5617
  892MPD2    H713083   3.113   3.242  14.889 -0.8082 -1.9454  0.1642
  893MPD2     C13084   0.222   1.898   2.040 -0.2713  1.0162  0.4247
  893MPD2    C113085   0.256   1.766   2.011 -0.1898 -0.1893  1.0314
  893MPD2    C213086   0.170   1.668   2.050 -0.5360  0.5439 -0.0696
  893MPD2    C313087   0.048   1.703   2.094  0.0226  0.0523  0.4232
  893MPD2    C413088   0.007   1.828   2.126  0.0562  0.0723 -0.1874
  893MPD2    C513089   0.094   1.924   2.088  0.1091  0.1076 -0.0306
  893MPD2     H13090   0.188   1.563   2.032 -0.9265  0.6282 -0.9684
  893MPD2    H113091   4.637   1.844   2.173  0.1192  1.1098 -0.4144
  893MPD2    H213092   0.283   1.987   2.027  1.4378 -0.3242 -0.6326
  893MPD2    H313093   0.061   2.027   2.102  1.5382  0.6209 -0.3819
  893MPD2     N13094   4.678   1.604   2.135  0.3011  0.2070 -0.6301
  893MPD2    H513095   4.604   1.644   2.193 -0.9602 -0.6725 -1.6280
  893MPD2    N113096   0.384   1.745   1.955  0.3905  0.7207 -0.0487
  893MPD2    H713097   0.435   1.827   1.923 -0.3019  2.4232  3.2486
  894MPD2     C13098   2.795   4.333   0.037  0.4715 -0.2431 -0.9042
  894MPD2    C113099   2.757   4.376   0.167  0.6798 -0.4029  0.0913
  894MPD2    C213100   2.848   4.371   0.269  0.2602  0.2063  0.0054
  894MPD2    C313101   2.980   4.332   0.240 -0.0643  0.1156 -0.3841
  894MPD2    C413102   3.013   4.279   0.113 -0.6079  0.6444 -0.2155
  894MPD2    C513103   2.921   4.285   0.010 -0.2456 -0.1870  0.2135
  894MPD2     H13104   2.823   4.409   0.367 -3.1517 -0.2380 -0.7015
  894MPD2    H113105   3.113   4.243   0.091 -0.5562  0.2393  0.6760
  894MPD2    H213106   2.729   4.333  17.659 -1.1692  0.4052  0.3457
  894MPD2    H313107   2.939   4.248  17.618 -0.8858 -1.1207  0.4449
  894MPD2     N13108   3.083   4.318   0.338  0.0545  0.0846  0.2517
  894MPD2    H513109   3.170   4.283   0.301 -1.0167 -0.7220 -1.5116
  894MPD2    N113110   2.627   4.407   0.208 -0.2953 -0.0500  0.4039
  894MPD2    H713111   2.618   4.445   0.302 -1.5298 -0.1371  0.3264
  895MPD2     C13112   2.585   2.599  13.450 -0.1385  1.2393 -0.7818
  895MPD2    C113113   2.491   2.556  13.359  0.3436  1.1137 -0.4160
  895MPD2    C213114   2.541   2.461  13.276 -0.5980 -0.4316  0.8747
  895MPD2    C313115   2.672   2.409  13.281 -0.6644 -0.1807 -1.1948
  895MPD2    C413116   2.757   2.456  13.386 -0.3255  1.0015 -0.1632
  895MPD2    C513117   2.715   2.557  13.466  0.0745 -0.8181  0.2851
  895MPD2     H13118   2.480   2.430  13.193 -0.6192 -0.1525  0.7854
  895MPD2    H113119   2.855   2.411  13.400  0.2491  1.8262 -1.5707
  895MPD2    H213120   2.542   2.668  13.522 -1.0909 -0.0345 -0.1218
  895MPD2    H313121   2.789   2.583  13.542 -0.0065 -0.7932  0.3553
  895MPD2     N13122   2.704   2.322  13.180  0.5948 -0.0655 -0.0179
  895MPD2    H513123   2.621   2.289  13.132  0.1904  1.6159 -0.4658
  895MPD2    N113124   2.357   2.609  13.340 -0.7374 -0.0812 -0.1942
  895MPD2    H713125   2.303   2.595  13.255  1.8661 -1.9944 -1.5138
  896MPD2     C13126   4.415   0.386   2.094 -0.3618 -0.1380  0.0958
  896MPD2    C113127   4.439   0.291   1.997 -0.1249  0.8084  0.0816
  896MPD2    C213128   4.343   0.190   1.973 -0.7706 -0.3784  0.0574
  896MPD2    C313129   4.229   0.185   2.040  0.2865  0.1063  0.2788
  896MPD2    C413130   4.203   0.277   2.140  0.1965 -0.2307 -0.0649
  896MPD2    C513131   4.292   0.379   2.161  0.2660 -0.7242 -0.0903
  896MPD2     H13132   4.368   0.104   1.912  2.1787  2.4975 -2.8138
  896MPD2    H113133   4.118   0.258   2.204  1.2829 -0.1199  1.4173
  896MPD2    H213134   4.481   0.470   2.114 -1.3816  0.3835  1.2576
  896MPD2    H313135   4.271   0.458   2.233  1.1555 -2.7907  2.4495
  896MPD2     N13136   4.147   0.069   2.017 -0.0645 -0.0924 -0.1589
  896MPD2    H513137   4.193   0.005   1.953  2.7393  0.8728  0.8582
  896MPD2    N113138   4.559   0.286   1.927 -0.5464 -0.1935  0.2864
  896MPD2    H713139   4.641   0.323   1.975 -1.1599  1.3983  0.0729
  897MPD2     C13140   1.298   1.653  11.110 -0.1143  0.0467  0.3798
  897MPD2    C113141   1.247   1.704  10.994 -0.0988 -0.8046 -0.1648
  897MPD2    C213142   1.137   1.788  11.004  0.7209  0.3189  0.0816
  897MPD2    C313143   1.060   1.792  11.121 -0.4898 -0.4888 -0.4529
  897MPD2    C413144   1.117   1.743  11.233  0.1050 -0.2496 -0.4902
  897MPD2    C513145   1.229   1.675  11.229 -0.1083 -0.3997 -0.2207
  897MPD2     H13146   1.094   1.837  10.917 -0.9888 -0.6993  0.3687
  897MPD2    H113147   1.060   1.745  11.326  0.1186  0.6603 -0.5058
  897MPD2    H213148   1.387   1.591  11.112  1.1818  2.0227  3.1621
  897MPD2    H313149   1.261   1.631  11.323  1.2439  2.1824  0.4952
  897MPD2     N13150   0.927   1.839  11.130  0.0042  0.5864 -0.1073
  897MPD2    H513151   0.872   1.838  11.216  0.5569 -0.1819  0.2332
  897MPD2    N113152   1.308   1.694  10.867 -0.2511  0.1253 -0.0268
  897MPD2    H713153   1.270   1.753  10.794 -0.1188  1.2084  0.7810
  898MPD2     C13154   2.604   2.433   0.021  0.2163 -0.0796  0.4354
  898MPD2    C113155   2.713   2.394  17.646 -0.1800  0.0838  0.2400
  898MPD2    C213156   2.717   2.449  17.520 -0.1009  0.3781 -0.0857
  898MPD2    C313157   2.644   2.561  17.485  0.2690 -0.5401  0.6388
  898MPD2    C413158   2.540   2.608  17.571 -0.0583  0.0516  0.1210
  898MPD2    C513159   2.528   2.549  17.690 -0.8197  0.8208 -0.2276
  898MPD2     H13160   2.794   2.424  17.449  1.3918  0.6890  1.4161
  898MPD2    H113161   2.483   2.699  17.556  0.8481  0.4252 -1.0587
  898MPD2    H213162   2.600   2.395   0.123 -0.1376  0.1704  0.5175
  898MPD2    H313163   2.454   2.588   0.051 -0.3721  0.9714  0.1661
  898MPD2     N13164   2.679   2.622  17.362  0.6359  0.7070  0.2330
  898MPD2    H513165   2.751   2.576  17.308 -1.3063  1.0002 -2.6126
  898MPD2    N113166   2.812   2.296  17.675 -0.3990  0.8445 -0.1920
  898MPD2    H713167   2.882   2.268  17.607 -0.9395  0.2170 -0.4870
  899MPD2     C13168   4.512   2.522  17.578 -0.6501 -0.7723 -0.4142
  899MPD2    C113169   4.468   2.633  17.652  0.1094  0.0385  0.1284
  899MPD2    C213170   4.412   2.609   0.070  0.4533  0.3805  0.5010
  899MPD2    C313171   4.374   2.478   0.108  0.8097  0.0396  0.2402
  899MPD2    C413172   4.416   2.374   0.029  0.2942 -0.3351  0.2379
  899MPD2    C513173   4.479   2.394  17.622 -0.1177  0.4656  0.6559
  899MPD2     H13174   4.381   2.699   0.122  0.2170 -0.7723  2.3572
  899MPD2    H113175   4.393   2.272   0.058 -1.5209  0.2051  0.6632
  899MPD2    H213176   4.559   2.535  17.481 -1.5977  0.9681 -0.6255
  899MPD2    H313177   4.512   2.313  17.557  0.4326  0.0820  1.4153
  899MPD2     N13178   4.295   2.445   0.223  0.3444  0.5731  0.3185
  899MPD2    H513179   4.324   2.358   0.266 -2.3935  0.3216  1.6404
  899MPD2    N113180   4.482   2.761  17.590  0.0854 -0.1384  0.5028
  899MPD2    H713181   4.503   2.768  17.491 -0.9122 -1.4815  0.1952
  900MPD2     C13182   3.732   4.474  12.612 -0.7663 -0.2062  0.5984
  900MPD2    C113183   3.621   4.394  12.627  0.1513  0.7788  0.4142
  900MPD2    C213184   3.499   4.448  12.592 -0.6493 -0.5119 -0.4775
  900MPD2    C313185   3.482   4.575  12.540  0.0626  0.0630  0.5728
  900MPD2    C413186   3.599   4.651  12.520 -0.4607 -0.0676  1.0223
  900MPD2    C513187   3.723   4.598  12.553  0.3821 -0.5301 -0.2241
  900MPD2     H13188   3.415   4.380  12.605 -0.5293 -0.2369  1.8776
  900MPD2    H113189   3.597   0.027  12.486 -3.4713 -0.0171  1.3323
  900MPD2    H213190   3.834   4.449  12.639 -0.6802 -1.8625 -1.2921
  900MPD2    H313191   3.816   4.653  12.548  1.3354 -2.0891  0.2379
  900MPD2     N13192   3.356   4.619  12.514  0.1423 -0.4881  0.5927
  900MPD2    H513193   3.280   4.554  12.526 -0.4853  0.1642  0.1291
  900MPD2    N113194   3.639   4.262  12.682 -0.6284  0.0325  0.0823
  900MPD2    H713195   3.735   4.233  12.702 -0.2741 -0.7645 -2.8679
  901MPD2     C13196   3.379   3.250  13.020  0.1147  0.5699  0.0548
  901MPD2    C113197   3.509   3.273  13.058 -0.7848  0.9155  0.1332
  901MPD2    C213198   3.569   3.397  13.031  0.3009  0.0296  0.0640
  901MPD2    C313199   3.491   3.497  12.967  0.8038 -0.8924  0.2391
  901MPD2    C413200   3.360   3.473  12.934  0.1300  0.7244  0.0088
  901MPD2    C513201   3.306   3.344  12.954  0.0223  0.0005 -0.9175
  901MPD2     H13202   3.666   3.425  13.070  1.2846 -0.5272 -2.0162
  901MPD2    H113203   3.300   3.539  12.874 -2.7630 -1.5988  0.3034
  901MPD2    H213204   3.333   3.153  13.035  1.0739 -0.5467 -4.3710
  901MPD2    H313205   3.204   3.324  12.924 -0.5555  0.9465  0.3692
  901MPD2     N13206   3.541   3.626  12.947 -0.3841 -0.2100 -0.7356
  901MPD2    H513207   3.636   3.638  12.981 -1.4448  1.3126  1.6788
  901MPD2    N113208   3.576   3.165  13.125  0.3021 -0.1870 -0.8267
  901MPD2    H713209   3.514   3.087  13.141  0.1266 -0.5652 -3.2401
  902MPD2     C13210   3.192   2.525  12.960 -0.5181  0.6222  0.6990
  902MPD2    C113211   3.055   2.525  12.941 -0.2956 -0.3129 -0.4738
  902MPD2    C213212   2.995   2.440  12.849 -0.0166 -0.3381 -0.3478
  902MPD2    C313213   3.078   2.361  12.772  0.1746 -0.3351  0.7309
  902MPD2    C413214   3.215   2.370  12.788 -0.1739  0.4711 -0.3353
  902MPD2    C513215   3.280   2.445  12.881  0.2895  0.5891  0.0584
  902MPD2     H13216   2.887   2.436  12.835 -0.2941  2.2433  1.0603
  902MPD2    H113217   3.266   2.306  12.717  1.1646  0.6777  0.4359
  902MPD2    H213218   3.235   2.589  13.036  0.1673  1.2364 -0.2026
  902MPD2    H313219   3.386   2.446  12.901  0.3224 -1.8547  0.0667
  902MPD2     N13220   3.040   2.268  12.668 -0.1754 -0.0715 -0.7439
  902MPD2    H513221   3.108   2.213  12.616 -0.6491 -0.3177 -1.0999
  902MPD2    N113222   2.985   2.605  13.034  0.2221  0.6335 -0.1265
  902MPD2    H713223   3.036   2.627  13.119 -2.0139  1.2655  1.0396
  903MPD2     C13224   2.617   2.473  12.077 -1.3952  0.3458  0.1983
  903MPD2    C113225   2.667   2.351  12.051  0.0440 -0.0518 -0.6608
  903MPD2    C213226   2.629   2.282  11.943  0.1951  0.2195  0.2744
  903MPD2    C313227   2.523   2.318  11.866 -0.1566  0.5722 -0.7787
  903MPD2    C413228   2.472   2.449  11.892 -0.3068  0.8651  0.6003
  903MPD2    C513229   2.520   2.524  11.997  0.2986  0.1019 -0.8574
  903MPD2     H13230   2.679   2.186  11.933 -1.8896 -1.0529  1.9454
  903MPD2    H113231   2.379   2.478  11.845 -1.3159 -1.3496  1.2519
  903MPD2    H213232   2.657   2.523  12.164 -0.4075  0.5641 -0.3743
  903MPD2    H313233   2.489   2.627  12.015  0.6740  0.0775 -0.0586
  903MPD2     N13234   2.467   2.228  11.770  0.1733  0.1569 -0.4560
  903MPD2    H513235   2.517   2.142  11.751 -2.5965 -1.8929  1.5545
  903MPD2    N113236   2.762   2.301  12.145 -0.5298 -0.3423 -0.4476
  903MPD2    H713237   2.787   2.359  12.225 -1.8283 -0.4203  0.0264
  904MPD2     C13238   2.560   1.600  13.646 -0.0062 -1.0109 -0.6564
  904MPD2    C113239   2.511   1.716  13.709 -0.5290  0.3635 -0.6388
  904MPD2    C213240   2.588   1.762  13.816 -0.4996 -0.0951  0.4079
  904MPD2    C313241   2.716   1.718  13.842 -0.3932 -0.3611  0.6985
  904MPD2    C413242   2.761   1.606  13.775 -1.1715  0.2679 -0.6116
  904MPD2    C513243   2.680   1.545  13.684 -0.2391  0.6800 -0.2964
  904MPD2     H13244   2.558   1.841  13.883  0.0777 -0.3502  0.9683
  904MPD2    H113245   2.857   1.559  13.792 -0.0454  3.5846  2.2515
  904MPD2    H213246   2.501   1.546  13.573 -1.2991 -0.0005 -0.3669
  904MPD2    H313247   2.699   1.445  13.649 -0.2708  1.4937 -2.6291
  904MPD2     N13248   2.777   1.769  13.960 -0.5090 -0.0009 -0.1268
  904MPD2    H513249   2.725   1.841  14.008 -0.6502  0.6686 -1.2786
  904MPD2    N113250   2.382   1.770  13.682 -0.1906  0.7253  0.6559
  904MPD2    H713251   2.359   1.857  13.728 -1.5042  0.7445 -0.0357
  905MPD2     C13252   2.146   1.722  13.004 -0.6149  0.0044 -0.8693
  905MPD2    C113253   2.176   1.843  13.064  0.3613  0.7294  0.1411
  905MPD2    C213254   2.279   1.919  13.015 -0.4963 -0.0248 -0.9277
  905MPD2    C313255   2.355   1.872  12.909 -0.3784 -0.4384 -0.7113
  905MPD2    C413256   2.327   1.749  12.851  0.1322 -0.0593 -0.3394
  905MPD2    C513257   2.226   1.674  12.905 -0.1669  0.4813  0.0699
  905MPD2     H13258   2.310   2.006  13.071 -2.2221 -0.0691  0.1046
  905MPD2    H113259   2.379   1.701  12.769 -0.5130 -0.2185 -0.6509
  905MPD2    H213260   2.075   1.655  13.051 -1.8405  0.1499 -2.5122
  905MPD2    H313261   2.204   1.581  12.853  0.5202  1.2339 -1.5586
  905MPD2     N13262   2.469   1.934  12.864 -0.0569 -0.0683 -0.0814
  905MPD2    H513263   2.524   1.886  12.792 -1.2385 -2.2708  0.4660
  905MPD2    N113264   2.099   1.859  13.181  0.2054 -0.3300 -0.9267
  905MPD2    H713265   2.058   1.779  13.229 -0.2081  1.6997  2.1430
  906MPD2     C13266   4.512   1.258  11.386  0.5982 -0.4935 -0.1945
  906MPD2    C113267   4.465   1.171  11.292 -0.0158  0.1436 -0.3010
  906MPD2    C213268   4.387   1.062  11.330 -0.2910 -0.3805 -0.5458
  906MPD2    C313269   4.347   1.053  11.462 -0.4149  0.3134 -1.0128
  906MPD2    C413270   4.397   1.135  11.554 -0.2789  0.3800  0.1385
  906MPD2    C513271   4.479   1.238  11.516 -0.2076 -0.0953  0.4055
  906MPD2     H13272   4.366   0.988  11.253  2.2952 -0.2969 -1.3031
  906MPD2    H113273   4.372   1.131  11.659  2.8160  1.3029  0.9070
  906MPD2    H213274   4.586   1.330  11.355 -0.6006  0.5668 -0.6029
  906MPD2    H313275   4.526   1.305  11.588  0.3659  0.4685 -0.4939
  906MPD2     N13276   4.264   0.950  11.514 -0.1599 -0.0208  0.4673
  906MPD2    H513277   4.246   0.954  11.614 -0.0722 -0.1834  0.4899
  906MPD2    N113278   4.490   1.186  11.151 -0.2084  0.1958  0.1412
  906MPD2    H713279   4.447   1.109  11.100 -1.5500  1.7280 -1.0403
  907MPD2     C13280   4.237   0.230  15.149  0.2502  0.1551 -0.1257
  907MPD2    C113281   4.124   0.156  15.192  0.0567  0.3866 -0.0735
  907MPD2    C213282   4.133   0.086  15.313  0.1741 -0.1781 -0.6881
  907MPD2    C313283   4.249   0.085  15.382  0.8551 -0.4273 -0.2553
  907MPD2    C413284   4.356   0.156  15.336 -0.1172  0.4936  0.0002
  907MPD2    C513285   4.347   0.234  15.226  0.2653 -0.9349 -0.5142
  907MPD2     H13286   4.048   0.031  15.352  0.5859  0.1044  0.6069
  907MPD2    H113287   4.449   0.157  15.391 -0.9001 -1.2221  1.3396
  907MPD2    H213288   4.232   0.309  15.076 -1.4930 -1.2962 -1.5894
  907MPD2    H313289   4.439   0.283  15.194  0.2246 -0.6762 -0.2442
  907MPD2     N13290   4.254   0.010  15.501  0.2746 -0.4702 -0.0705
  907MPD2    H513291   4.177   4.674  15.521  1.6427 -1.8368  0.8667
  907MPD2    N113292   4.000   0.153  15.122  0.0494 -0.2229 -0.2294
  907MPD2    H713293   3.921   0.103  15.162  1.0482 -2.1681 -0.6923
  908MPD2     C13294   1.772   0.888  10.443  0.1116 -0.0683  0.0029
  908MPD2    C113295   1.695   0.900  10.548 -0.7984 -0.3983 -0.4558
  908MPD2    C213296   1.646   1.026  10.576  1.1622 -0.6542 -0.0558
  908MPD2    C313297   1.679   1.136  10.505 -0.3014 -0.0990  0.2066
  908MPD2    C413298   1.748   1.120  10.387  0.2020  0.1418 -0.2078
  908MPD2    C513299   1.808   0.993  10.364  0.4864 -0.2098  0.1383
  908MPD2     H13300   1.586   1.045  10.665  0.3350 -1.1755 -0.5008
  908MPD2    H113301   1.767   1.203  10.320  0.3279 -0.1807 -0.5721
  908MPD2    H213302   1.825   0.794  10.427  0.7527  0.2914  0.0368
  908MPD2    H313303   1.879   0.985  10.283 -0.3461  0.1730 -0.6388
  908MPD2     N13304   1.616   1.257  10.537 -0.1504 -0.1583 -0.1605
  908MPD2    H513305   1.575   1.254  10.630 -2.3596  0.5920 -1.1123
  908MPD2    N113306   1.670   0.780  10.620 -0.0525  0.9242 -0.2655
  908MPD2    H713307   1.688   0.692  10.572 -1.6240 -0.5509  1.8205
  909MPD2     C13308   1.558   3.850  11.971  0.3047 -0.1049 -0.4481
  909MPD2    C113309   1.575   3.960  11.887  0.4185  0.1665 -0.7577
  909MPD2    C213310   1.506   4.070  11.924  0.1941  0.5925 -0.4469
  909MPD2    C313311   1.425   4.083  12.039  0.5476  0.0248 -0.3687
  909MPD2    C413312   1.411   3.973  12.120  0.6638  0.3214  0.3345
  909MPD2    C513313   1.474   3.861  12.079  0.0901  0.5351 -0.2488
  909MPD2     H13314   1.513   4.153  11.855 -0.5822  0.6483 -0.4550
  909MPD2    H113315   1.365   3.972  12.218  2.0937 -1.5546  0.9837
  909MPD2    H213316   1.605   3.755  11.946  0.6370  0.0360 -0.3641
  909MPD2    H313317   1.453   3.778  12.145 -0.0079  1.5075  0.9359
  909MPD2     N13318   1.375   4.207  12.084 -0.3790 -0.1982  0.9078
  909MPD2    H513319   1.393   4.283  12.019 -2.9054 -0.9962 -0.6962
  909MPD2    N113320   1.670   3.968  11.786 -0.2509 -0.0106 -0.0332
  909MPD2    H713321   1.687   4.058  11.742 -0.5311 -0.0095 -0.1390
  910MPD2     C13322   2.451   1.300  15.869 -0.0788  0.0507  0.2117
  910MPD2    C113323   2.543   1.313  15.766  0.2754  0.5012 -0.1338
  910MPD2    C213324   2.510   1.386  15.653  0.1267 -0.1208 -0.1211
  910MPD2    C313325   2.374   1.425  15.635 -0.2514 -0.6711 -0.1329
  910MPD2    C413326   2.272   1.389  15.727 -0.4723  0.3186 -0.1817
  910MPD2    C513327   2.315   1.332  15.845 -0.3653 -0.2237  0.4336
  910MPD2     H13328   2.583   1.403  15.575 -0.3111  0.5817 -0.3771
  910MPD2    H113329   2.166   1.409  15.711 -0.7828 -0.5973  0.7350
  910MPD2    H213330   2.488   1.253  15.959  1.8753  0.2494 -0.4780
  910MPD2    H313331   2.237   1.309  15.917  0.3050 -2.7947  0.3281
  910MPD2     N13332   2.332   1.508  15.529  0.2956  0.0551  0.4285
  910MPD2    H513333   2.246   1.555  15.555 -1.8923 -2.2885 -2.6844
  910MPD2    N113334   2.678   1.272  15.779 -0.4236  0.4557 -0.0859
  910MPD2    H713335   2.741   1.287  15.701  1.2965 -0.2238  1.1561
  911MPD2     C13336   0.389   1.557  16.039  0.3305 -0.2806 -0.7462
  911MPD2    C113337   0.425   1.684  16.079 -0.1233 -0.1358  0.1834
  911MPD2    C213338   0.353   1.798  16.040 -0.3265  0.6989  0.3969
  911MPD2    C313339   0.253   1.779  15.946 -0.4681 -1.3688  0.6223
  911MPD2    C413340   0.226   1.655  15.901 -0.0731  0.2686 -0.1361
  911MPD2    C513341   0.297   1.541  15.943  0.0369 -0.3852 -0.2406
  911MPD2     H13342   0.377   1.889  16.093  2.4896  0.9972 -1.3886
  911MPD2    H113343   0.139   1.626  15.845  0.8782 -1.3800 -0.7617
  911MPD2    H213344   0.449   1.468  16.059  2.7174  1.7735  1.1573
  911MPD2    H313345   0.275   1.441  15.908  1.3621 -0.4926 -0.7755
  911MPD2     N13346   0.174   1.884  15.896 -0.0439 -0.8637  0.5884
  911MPD2    H513347   0.106   1.864  15.824  0.4718 -0.7332  0.0664
  911MPD2    N113348   0.545   1.689  16.161 -0.4170  0.0611  1.0700
  911MPD2    H713349   0.589   1.603  16.190  1.9905  0.8755 -0.1537
  912MPD2     C13350   0.229   1.635  15.414  0.4894  1.0582  0.6233
  912MPD2    C113351   0.136   1.686  15.488 -0.7930  0.2588 -0.6377
  912MPD2    C213352   0.064   1.606  15.575 -0.5041  0.2108  0.3706
  912MPD2    C313353   0.091   1.473  15.591 -0.8566 -0.1565  0.4468
  912MPD2    C413354   0.181   1.414  15.510  0.5685  0.8199  0.4508
  912MPD2    C513355   0.247   1.500  15.426 -0.0722 -0.0168 -0.7456
  912MPD2     H13356   4.720   1.642  15.648 -1.1046 -0.3739  0.0725
  912MPD2    H113357   0.210   1.309  15.506 -1.6158  0.3335 -2.1128
  912MPD2    H213358   0.288   1.695  15.346 -0.8511  1.9429  0.2367
  912MPD2    H313359   0.323   1.456  15.362  0.5774 -0.6181  0.4411
  912MPD2     N13360   0.030   1.403  15.703 -0.5056 -0.0069 -0.0473
  912MPD2    H513361   4.675   1.442  15.748 -0.8399  0.5850 -1.1714
  912MPD2    N113362   0.120   1.830  15.485  0.8992  0.4806 -0.0364
  912MPD2    H713363   0.170   1.881  15.413  1.6676 -1.1375 -0.6458
  913MPD2     C13364   0.388   1.908   9.532 -0.9013  0.2489 -0.2899
  913MPD2    C113365   0.451   1.935   9.652  0.1166  0.0247  0.1016
  913MPD2    C213366   0.457   2.062   9.698 -0.5689  0.6290  0.2661
  913MPD2    C313367   0.381   2.159   9.640  0.5593 -0.4240  0.5379
  913MPD2    C413368   0.302   2.130   9.531  0.8942 -0.0682  0.0959
  913MPD2    C513369   0.313   2.005   9.481  0.4802  0.2150 -0.6448
  913MPD2     H13370   0.498   2.078   9.797  1.6783  0.5459 -0.6390
  913MPD2    H113371   0.236   2.204   9.488  0.6417 -1.0747 -1.2324
  913MPD2    H213372   0.382   1.806   9.496  0.0721  0.4626 -1.0398
  913MPD2    H313373   0.243   1.978   9.402 -1.6907  0.3878  1.2325
  913MPD2     N13374   0.367   2.282   9.703  0.4767  0.5926 -0.6543
  913MPD2    H513375   0.298   2.343   9.660 -0.5744 -0.5589 -0.6236
  913MPD2    N113376   0.494   1.826   9.726 -0.1004 -0.4999 -0.0613
  913MPD2    H713377   0.470   1.738   9.682  0.2234 -0.0132 -1.2163
  914MPD2     C13378   3.531   3.162  12.492 -0.5675 -0.3145  0.0181
  914MPD2    C113379   3.588   3.246  12.588 -0.5069 -0.9750 -0.1531
  914MPD2    C213380   3.644   3.188  12.702 -0.9272 -0.4545 -0.2962
  914MPD2    C313381   3.654   3.056  12.712 -0.7928  1.3557 -0.7247
  914MPD2    C413382   3.613   2.977  12.615 -0.2815 -0.2929  0.3047
  914MPD2    C513383   3.542   3.031  12.506  0.7462 -0.2700 -0.4901
  914MPD2     H13384   3.674   3.244  12.789  1.2572  0.5504 -1.6946
  914MPD2    H113385   3.626   2.871  12.629 -2.4277 -0.3928  1.6285
  914MPD2    H213386   3.493   3.204  12.400 -0.6287 -0.3881  0.0099
  914MPD2    H313387   3.504   2.974  12.422 -1.2203 -0.4510  0.5292
  914MPD2     N13388   3.705   3.003  12.835  0.4268 -0.0143 -0.4849
  914MPD2    H513389   3.716   3.066  12.913 -3.5662 -0.3219  0.3220
  914MPD2    N113390   3.601   3.383  12.560 -0.0793  0.2422  0.5470
  914MPD2    H713391   3.569   3.419  12.471  1.1698  0.2284  0.0832
  915MPD2     C13392   1.274   3.175  15.504 -0.0688 -0.0086 -0.2741
  915MPD2    C113393   1.201   3.275  15.562  0.7114  0.1938 -0.1341
  915MPD2    C213394   1.259   3.352  15.663  0.0192  0.0033 -0.7269
  915MPD2    C313395   1.379   3.330  15.715 -0.0112 -0.5396  0.5593
  915MPD2    C413396   1.447   3.220  15.660  0.3757 -0.0612  0.6193
  915MPD2    C513397   1.399   3.141  15.555  0.0199 -0.3271  0.3621
  915MPD2     H13398   1.198   3.421  15.720 -0.0934 -0.1639 -0.6450
  915MPD2    H113399   1.530   3.174  15.712 -0.4002 -2.4978 -0.3174
  915MPD2    H213400   1.241   3.117  15.419 -1.9131 -0.2034  0.5777
  915MPD2    H313401   1.457   3.057  15.520  0.2612 -0.5474  1.2845
  915MPD2     N13402   1.414   3.387  15.835 -1.1064 -0.3178 -0.7173
  915MPD2    H513403   1.490   3.344  15.889 -0.5853 -0.4054 -1.5200
  915MPD2    N113404   1.071   3.276  15.512  0.1418 -0.5720  0.2862
  915MPD2    H713405   1.039   3.206  15.446  0.5666  1.8546 -2.5046
  916MPD2     C13406   4.294   1.373  15.564 -0.8747 -0.4065 -0.0737
  916MPD2    C113407   4.312   1.270  15.656 -0.0183 -0.0664  0.3561
  916MPD2    C213408   4.413   1.180  15.625  0.5564  0.2120  0.4743
  916MPD2    C313409   4.495   1.198  15.515  0.1865 -0.1060 -0.0031
  916MPD2    C413410   4.478   1.311  15.435  0.2488  0.6226  0.0146
  916MPD2    C513411   4.377   1.402  15.455  0.1920  0.3177 -0.2337
  916MPD2     H13412   4.419   1.095  15.693  2.2556  1.4151  1.8343
  916MPD2    H113413   4.540   1.337  15.350 -0.0554 -0.3330 -0.5031
  916MPD2    H213414   4.208   1.437  15.579 -0.3598  0.4979 -0.9997
  916MPD2    H313415   4.364   1.487  15.388 -1.0213  0.2236 -0.1150
  916MPD2     N13416   4.593   1.103  15.491 -0.4657  0.3271 -0.4127
  916MPD2    H513417   4.593   1.013  15.539 -2.5328  1.2535  1.3363
  916MPD2    N113418   4.233   1.264  15.772 -0.6933  0.9949 -0.5118
  916MPD2    H713419   4.159   1.333  15.780 -2.4457 -0.9591  0.0932
  917MPD2     C13420   0.519   3.317  11.386 -0.5994 -0.0319 -0.1015
  917MPD2    C113421   0.472   3.417  11.465  0.4513 -0.7358  0.0965
  917MPD2    C213422   0.543   3.537  11.466 -0.3571  0.2959 -0.2242
  917MPD2    C313423   0.655   3.546  11.394 -0.2138  0.5919  0.4593
  917MPD2    C413424   0.698   3.449  11.310 -0.5531 -0.8568  1.1030
  917MPD2    C513425   0.625   3.333  11.303  0.2217 -0.1859  0.2190
  917MPD2     H13426   0.516   3.615  11.537  1.8988 -0.5907  1.5956
  917MPD2    H113427   0.777   3.465  11.237 -1.2326  1.4514  0.8650
  917MPD2    H213428   0.470   3.221  11.399 -2.0739  0.9043  1.2325
  917MPD2    H313429   0.650   3.254  11.233  0.7615  1.8259 -1.8585
  917MPD2     N13430   0.730   3.663  11.392 -0.4087  0.2717  0.1422
  917MPD2    H513431   0.820   3.660  11.346 -0.1393 -0.1335  0.6961
  917MPD2    N113432   0.357   3.396  11.544 -0.0966 -1.0502 -0.2389
  917MPD2    H713433   0.313   3.306  11.524 -1.0493 -0.9086  1.1882
  918MPD2     C13434   0.132   4.035  12.249 -0.2769 -0.0054  0.1819
  918MPD2    C113435   0.240   3.981  12.186  0.6051  0.0147  0.4966
  918MPD2    C213436   0.228   3.882  12.084  0.0881  0.4119  1.1634
  918MPD2    C313437   0.102   3.849  12.039 -0.1366 -0.1253 -0.0092
  918MPD2    C413438   4.719   3.901  12.100 -1.2106 -0.4231  0.3329
  918MPD2    C513439   0.008   3.994  12.209 -0.5027 -0.2697 -0.3934
  918MPD2     H13440   0.318   3.835  12.047  0.7514  1.7544  1.0568
  918MPD2    H113441   4.620   3.879  12.060 -1.0940  0.8616 -0.6272
  918MPD2    H213442   0.143   4.109  12.327 -0.3772 -1.9177  1.9950
  918MPD2    H313443   4.646   4.023  12.264 -0.0423  0.7487 -0.1732
  918MPD2     N13444   0.099   3.737  11.951  0.2685  0.3078  0.7672
  918MPD2    H513445   0.190   3.695  11.935  0.9848  2.7143 -1.3719
  918MPD2    N113446   0.361   4.022  12.235  0.5622  0.3381  0.6472
  918MPD2    H713447   0.372   4.053  12.331  0.6554  2.6656 -0.1226
  919MPD2     C13448   1.039   2.979  11.701 -0.0963 -0.5795 -0.7591
  919MPD2    C113449   1.027   2.867  11.625  0.1396 -0.3203  0.7178
  919MPD2    C213450   1.061   2.869  11.491 -0.2136  0.0107  0.0542
  919MPD2    C313451   1.113   2.980  11.436  0.0946  0.1708  0.0033
  919MPD2    C413452   1.131   3.091  11.510  0.4578  0.1699 -0.6937
  919MPD2    C513453   1.085   3.094  11.634  0.5593  0.4587 -1.1450
  919MPD2     H13454   1.028   2.785  11.432  1.2867  0.4236 -1.3853
  919MPD2    H113455   1.172   3.181  11.466  1.4136 -0.6732 -1.5285
  919MPD2    H213456   1.014   2.973  11.806 -0.6967 -0.5160 -0.9016
  919MPD2    H313457   1.104   3.190  11.681  2.6487  0.6232 -2.3132
  919MPD2     N13458   1.161   2.991  11.297 -0.4419 -0.0250  0.1885
  919MPD2    H513459   1.190   3.082  11.265  1.2853 -1.1268 -1.3679
  919MPD2    N113460   0.963   2.750  11.671 -0.3703 -0.3711 -0.8769
  919MPD2    H713461   0.963   2.684  11.594 -1.5642 -1.1739 -0.1847
  920MPD2     C13462   0.929   3.457  10.552 -0.1646  0.2502  0.5081
  920MPD2    C113463   0.894   3.331  10.540 -0.2613 -0.2796  0.0059
  920MPD2    C213464   0.962   3.238  10.607  0.5300  0.6507  0.8954
  920MPD2    C313465   1.062   3.278  10.685  0.4864  0.4481  0.7130
  920MPD2    C413466   1.097   3.414  10.711 -0.3126  0.1759  0.7659
  920MPD2    C513467   1.029   3.502  10.630 -1.0397  0.8181 -0.3882
  920MPD2     H13468   0.937   3.134  10.591  2.8168  0.4558 -1.3338
  920MPD2    H113469   1.163   3.442  10.792  2.8664  1.9738 -2.4369
  920MPD2    H213470   0.875   3.534  10.499  0.3135  0.9418  1.0273
  920MPD2    H313471   1.046   3.609  10.642  2.8750  0.1384  0.3202
  920MPD2     N13472   1.124   3.174  10.762 -0.2226 -0.1000 -0.1499
  920MPD2    H513473   1.094   3.080  10.740  1.0057 -0.1398 -1.7296
  920MPD2    N113474   0.793   3.289  10.453 -0.5529 -0.0525 -0.1142
  920MPD2    H713475   0.779   3.189  10.446 -1.3949  0.0697 -0.2155
  921MPD2     C13476   1.347   2.168  16.753 -0.9227  0.0714  0.3493
  921MPD2    C113477   1.401   2.073  16.674  0.2180  0.2793 -0.7428
  921MPD2    C213478   1.323   1.986  16.602 -0.0367  0.2762 -0.2938
  921MPD2    C313479   1.182   2.003  16.608  0.0755  0.1814 -0.5773
  921MPD2    C413480   1.131   2.102  16.683  0.4191 -0.0915  0.6269
  921MPD2    C513481   1.210   2.183  16.754  0.2492  0.2228 -0.8599
  921MPD2     H13482   1.369   1.918  16.531  3.1756  1.2103  0.8831
  921MPD2    H113483   1.023   2.109  16.691  0.1510 -4.4304  0.8047
  921MPD2    H213484   1.408   2.230  16.817  0.4136 -1.0037  0.1193
  921MPD2    H313485   1.156   2.255  16.815 -0.7174 -0.4936 -0.8665
  921MPD2     N13486   1.106   1.913  16.529 -0.4598  0.1145 -0.2037
  921MPD2    H513487   1.146   1.844  16.467 -1.3473 -1.3434  0.8535
  921MPD2    N113488   1.543   2.063  16.659 -0.2195 -0.4569 -0.3075
  921MPD2    H713489   1.570   2.002  16.582  1.7352 -1.0396  0.8158
  922MPD2     C13490   2.529   4.207  17.193  0.1677  0.5534  0.2448
  922MPD2    C113491   2.454   4.327  17.209 -0.8315  0.5031  0.2522
  922MPD2    C213492   2.358   4.335  17.308 -0.6583 -0.7615  0.1395
  922MPD2    C313493   2.338   4.236  17.391  0.1112  0.8484  0.3018
  922MPD2    C413494   2.407   4.115  17.377  0.1043 -0.5632  0.1911
  922MPD2    C513495   2.505   4.100  17.278  0.1763  0.6788 -0.4348
  922MPD2     H13496   2.308   4.432  17.315  0.8849 -0.0465  1.1638
  922MPD2    H113497   2.383   4.020  17.422 -0.6050 -1.1905 -1.5117
  922MPD2    H213498   2.595   4.188  17.109 -1.9889 -3.1352 -0.5886
  922MPD2    H313499   2.553   4.003  17.267  0.3890  0.9883 -2.2610
  922MPD2     N13500   2.227   4.251  17.481 -0.6340 -0.0983 -0.1018
  922MPD2    H513501   2.173   4.334  17.458 -0.3848  0.0486 -0.1541
  922MPD2    N113502   2.469   4.440  17.126  0.3749  0.4901 -0.3996
  922MPD2    H713503   2.423   4.529  17.144  2.2951  1.1338  1.2494
  923MPD2     C13504   3.913   1.139   9.723  0.1875  0.6045  0.1117
  923MPD2    C113505   3.985   1.246   9.679  0.3906  0.1809  0.4513
  923MPD2    C213506   4.087   1.298   9.757  0.0453  0.3095  0.1225
  923MPD2    C313507   4.114   1.247   9.881  0.2387 -0.0710 -0.0041
  923MPD2    C413508   4.049   1.134   9.916  0.5286 -0.5270  0.3238
  923MPD2    C513509   3.949   1.080   9.838  0.3688 -0.2178 -0.3546
  923MPD2     H13510   4.139   1.383   9.713 -0.8737  0.4218 -0.7478
  923MPD2    H113511   4.070   1.086  10.012  1.2243  0.9787  0.9159
  923MPD2    H213512   3.833   1.093   9.666 -0.0759 -1.1821  1.9261
  923MPD2    H313513   3.888   0.997   9.869  1.8495 -1.0077  0.4276
  923MPD2     N13514   4.205   1.298   9.975  0.0458 -0.1446  0.6914
  923MPD2    H513515   4.209   1.249  10.064  1.4025  1.7826  1.6887
  923MPD2    N113516   3.948   1.300   9.556  0.4028 -0.1323 -0.2128
  923MPD2    H713517   3.891   1.242   9.495 -1.4928 -0.8028  2.2169
  924MPD2     C13518   3.536   4.489  15.545  0.1320  0.1859  0.0598
  924MPD2    C113519   3.632   4.568  15.487 -0.1294  0.9666  0.0633
  924MPD2    C213520   3.755   4.565  15.552 -0.2235 -0.6282 -0.1117
  924MPD2    C313521   3.779   4.477  15.653  0.3701  0.2054 -1.0713
  924MPD2    C413522   3.688   4.389  15.697 -0.5892  0.2031 -0.1019
  924MPD2    C513523   3.565   4.397  15.646 -0.9501  0.5771 -0.2804
  924MPD2     H13524   3.822   4.647  15.529  0.3385 -1.1139 -0.1951
  924MPD2    H113525   3.708   4.307  15.765 -0.5002 -0.8711 -1.4239
  924MPD2    H213526   3.432   4.496  15.515 -0.2765  0.3901  1.5588
  924MPD2    H313527   3.482   4.342  15.690  1.1309 -1.5736  1.0123
  924MPD2     N13528   3.907   4.466  15.713 -0.4470 -0.5953 -0.1546
  924MPD2    H513529   3.913   4.408  15.796 -0.1766 -0.6594 -0.2207
  924MPD2    N113530   3.594   4.660  15.386  0.1605 -0.1275  0.1059
  924MPD2    H713531   3.498   4.692  15.375  0.4722  0.1196 -1.7748
  925MPD2     C13532   2.862   2.446  14.843  0.1561  0.4122 -0.1735
  925MPD2    C113533   2.743   2.514  14.851 -0.6644 -0.2699  0.1458
  925MPD2    C213534   2.651   2.472  14.932  0.1242 -0.4158 -0.2575
  925MPD2    C313535   2.664   2.368  15.020  0.1454  0.4568 -0.5605
  925MPD2    C413536   2.789   2.302  15.012  0.4092 -0.4554 -0.3573
  925MPD2    C513537   2.886   2.344  14.927 -0.2765  0.4572  0.3899
  925MPD2     H13538   2.558   2.527  14.926  0.5997  0.3091 -0.9645
  925MPD2    H113539   2.813   2.216  15.073  0.3825 -0.5179 -0.4340
  925MPD2    H213540   2.943   2.473  14.775 -1.2605  2.1285 -1.1685
  925MPD2    H313541   2.973   2.284  14.904  0.2345  1.2154  0.3477
  925MPD2     N13542   2.569   2.312  15.107 -0.4112  0.2953 -0.0891
  925MPD2    H513543   2.585   2.234  15.169  4.4099  1.5559  0.2255
  925MPD2    N113544   2.707   2.617  14.759 -0.1032  0.6054  0.1227
  925MPD2    H713545   2.609   2.642  14.765 -0.9705 -2.8098  0.4698
  926MPD2     C13546   1.549   1.220  13.240  0.2093 -0.3711 -0.3717
  926MPD2    C113547   1.449   1.276  13.169 -0.2542 -0.3761 -0.3722
  926MPD2    C213548   1.467   1.303  13.031  0.2455 -0.3488 -0.1046
  926MPD2    C313549   1.590   1.272  12.971 -0.4866  0.1278 -0.7450
  926MPD2    C413550   1.688   1.200  13.050  0.0765  0.7797 -0.3898
  926MPD2    C513551   1.670   1.189  13.191 -0.0245  0.9289  0.8707
  926MPD2     H13552   1.388   1.350  12.973  1.1985 -0.9899 -1.9528
  926MPD2    H113553   1.782   1.172  13.003  0.6778  3.8718 -1.0261
  926MPD2    H213554   1.538   1.187  13.342  2.0686  0.0885 -0.0254
  926MPD2    H313555   1.746   1.138  13.249  1.2014  1.2874 -0.4134
  926MPD2     N13556   1.622   1.319  12.841  0.3177  0.8179 -0.5566
  926MPD2    H513557   1.708   1.286  12.798  0.4593  0.1390  0.2377
  926MPD2    N113558   1.327   1.311  13.229  0.6407  1.0367  0.2501
  926MPD2    H713559   1.253   1.342  13.166  1.2587  0.0667 -0.9392
  927MPD2     C13560   0.753   3.550   0.222 -0.9788 -0.5490 -0.3204
  927MPD2    C113561   0.753   3.409   0.242 -0.5687  0.5203  0.5218
  927MPD2    C213562   0.848   3.334   0.172  0.4413  0.3730  0.5870
  927MPD2    C313563   0.942   3.392   0.095  0.0331  0.2122  0.3677
  927MPD2    C413564   0.955   3.531   0.096 -0.6632  0.0749 -0.0397
  927MPD2    C513565   0.861   3.605   0.153  0.3841  0.5030  0.0749
  927MPD2     H13566   0.838   3.227   0.182  2.0405  0.1050 -0.7334
  927MPD2    H113567   1.025   3.580   0.030 -0.2927  1.6773  1.5588
  927MPD2    H213568   0.683   3.607   0.282 -1.1883 -0.8016 -0.3258
  927MPD2    H313569   0.882   3.711   0.153 -1.8799  0.9469 -0.5858
  927MPD2     N13570   1.024   3.306   0.022 -0.0664  0.4350  0.8098
  927MPD2    H513571   0.996   3.208   0.020  2.5875 -0.3526  2.3940
  927MPD2    N113572   0.651   3.361   0.332  0.2483 -0.2244 -1.2125
  927MPD2    H713573   0.587   3.433   0.360 -0.2203  0.3423 -3.7048
  928MPD2     C13574   3.380   1.194   1.138 -0.5932 -0.4993  0.5975
  928MPD2    C113575   3.380   1.335   1.161  0.0088  0.6525 -0.2083
  928MPD2    C213576   3.443   1.414   1.070 -0.1283 -0.1365 -0.3914
  928MPD2    C313577   3.496   1.366   0.951  0.0235 -0.1731 -0.2986
  928MPD2    C413578   3.480   1.236   0.923  0.0372 -0.0049  0.5402
  928MPD2    C513579   3.444   1.149   1.027 -0.2263  1.0772  0.1946
  928MPD2     H13580   3.458   1.517   1.102 -4.3173  0.3903 -0.1167
  928MPD2    H113581   3.524   1.186   0.837 -0.5337  0.6101 -0.1137
  928MPD2    H213582   3.348   1.123   1.214  1.8809 -0.0134  2.1319
  928MPD2    H313583   3.450   1.041   1.018  1.9825  1.2639 -0.4501
  928MPD2     N13584   3.559   1.448   0.853  0.1200  0.1556 -0.8731
  928MPD2    H513585   3.587   1.393   0.772 -0.2881 -1.1130 -0.1462
  928MPD2    N113586   3.317   1.381   1.273  0.5854 -0.2277  0.3263
  928MPD2    H713587   3.289   1.317   1.346 -0.5987  1.1753  1.1005
  929MPD2     C13588   3.639   1.094  10.531 -0.0454  0.2983  0.2209
  929MPD2    C113589   3.563   1.140  10.427 -0.3887  0.3510  0.0563
  929MPD2    C213590   3.636   1.207  10.331 -0.0198 -0.6673  0.2259
  929MPD2    C313591   3.765   1.246  10.345  0.1716 -0.6258  0.4966
  929MPD2    C413592   3.838   1.207  10.450  0.5898 -0.6201  0.3608
  929MPD2    C513593   3.771   1.125  10.539 -0.9665  0.1076  0.9314
  929MPD2     H13594   3.573   1.251  10.256  0.4054  0.1861  0.3661
  929MPD2    H113595   3.938   1.246  10.467  1.2511 -1.6516 -1.1593
  929MPD2    H213596   3.602   1.018  10.600  2.4997 -0.9470  0.2160
  929MPD2    H313597   3.829   1.084  10.621 -0.2674  0.1837  0.4761
  929MPD2     N13598   3.828   1.343  10.259  0.4341 -0.4544  0.4129
  929MPD2    H513599   3.924   1.372  10.276  0.8734 -0.1087 -2.5301
  929MPD2    N113600   3.422   1.117  10.420 -0.0747  0.8894  0.2073
  929MPD2    H713601   3.386   1.038  10.473  0.5939 -0.3298 -1.1653
  930MPD2     C13602   0.554   4.021  14.190 -0.2596  0.0972 -0.0496
  930MPD2    C113603   0.530   4.027  14.057  0.5048 -0.0318 -0.0696
  930MPD2    C213604   0.481   3.923  13.980 -0.3024  0.2030  0.0623
  930MPD2    C313605   0.455   3.798  14.046 -0.1425 -0.0325 -0.0918
  930MPD2    C413606   0.486   3.785  14.176 -0.0472  0.3641  0.5356
  930MPD2    C513607   0.534   3.892  14.249 -0.0362  0.8291  0.1051
  930MPD2     H13608   0.470   3.938  13.873 -1.1965  1.0605  0.2677
  930MPD2    H113609   0.477   3.696  14.237 -0.1495 -0.1376 -0.2127
  930MPD2    H213610   0.610   4.086  14.256  0.5282 -2.3343  1.6884
  930MPD2    H313611   0.550   3.880  14.356 -0.7211  0.9919  0.2257
  930MPD2     N13612   0.409   3.685  13.977  0.2603  0.3143  0.4226
  930MPD2    H513613   0.409   3.598  14.030  1.6346 -0.1850 -0.4070
  930MPD2    N113614   0.564   4.149  14.005  0.1486  0.5147 -0.0468
  930MPD2    H713615   0.603   4.209  14.077 -1.3844  0.5065  0.8017
  931MPD2     C13616   0.915   3.123   1.000 -1.0254  0.1945  0.0124
  931MPD2    C113617   0.785   3.078   0.992 -0.5354 -0.1900 -0.2361
  931MPD2    C213618   0.729   2.995   1.095 -0.0516  0.3827 -0.1168
  931MPD2    C313619   0.817   2.938   1.180  0.6625  0.1901 -0.2107
  931MPD2    C413620   0.945   2.989   1.196 -0.1216 -0.1484  0.5159
  931MPD2    C513621   0.987   3.092   1.113 -0.2324 -0.5411  0.1549
  931MPD2     H13622   0.634   2.947   1.075  0.6941 -0.7174 -1.0127
  931MPD2    H113623   1.019   2.954   1.267  0.8066  1.3100  0.2697
  931MPD2    H213624   0.957   3.196   0.932 -1.0239  1.4546  1.3695
  931MPD2    H313625   1.088   3.126   1.128 -0.5150  0.2569  0.2480
  931MPD2     N13626   0.770   2.847   1.274  0.4464 -0.1843  0.1812
  931MPD2    H513627   0.843   2.802   1.330  1.5803  1.7929  0.3092
  931MPD2    N113628   0.714   3.124   0.882  0.3755  0.0479  0.1971
  931MPD2    H713629   0.763   3.176   0.810  0.5440 -0.3098  0.0570
  932MPD2     C13630   2.243   2.097  11.163  0.1698  0.1313  0.2825
  932MPD2    C113631   2.350   2.108  11.254 -0.0223 -0.7762 -0.4171
  932MPD2    C213632   2.371   2.011  11.343  0.3477 -0.5276  0.3823
  932MPD2    C313633   2.290   1.893  11.339 -0.5096  0.0190 -0.2855
  932MPD2    C413634   2.191   1.885  11.240 -0.7463  0.2489 -0.2053
  932MPD2    C513635   2.158   1.987  11.162  1.1512 -0.2090 -0.0890
  932MPD2     H13636   2.455   2.019  11.411 -0.7176  0.8147  1.5493
  932MPD2    H113637   2.129   1.796  11.241 -1.5001  0.8054  1.5193
  932MPD2    H213638   2.212   2.177  11.097 -0.4909 -0.7649 -0.4913
  932MPD2    H313639   2.066   1.987  11.105  0.1756 -1.4361  1.4744
  932MPD2     N13640   2.316   1.773  11.421 -1.4289  0.6614  0.6256
  932MPD2    H513641   2.241   1.705  11.430 -0.8344  0.0128  0.6286
  932MPD2    N113642   2.435   2.219  11.256 -0.3772  0.3492  0.4924
  932MPD2    H713643   2.496   2.223  11.337  1.3090 -0.5099 -0.7308
  933MPD2     C13644   2.803   1.820   1.864 -0.2968  0.4536  0.6501
  933MPD2    C113645   2.887   1.850   1.758  0.3780  0.5991 -0.5196
  933MPD2    C213646   2.869   1.978   1.695  0.4921 -0.4001 -0.7772
  933MPD2    C313647   2.755   2.053   1.730 -0.1076  0.2174 -0.8300
  933MPD2    C413648   2.678   2.013   1.836 -0.0355  0.0303 -0.5151
  933MPD2    C513649   2.699   1.893   1.908  0.4020  0.5444  0.0536
  933MPD2     H13650   2.927   2.002   1.606  1.0451  0.5859 -0.1563
  933MPD2    H113651   2.597   2.071   1.879 -0.0213  0.2549 -0.7896
  933MPD2    H213652   2.817   1.728   1.920  0.5034 -0.3075 -0.7849
  933MPD2    H313653   2.619   1.863   1.974  1.1217  0.5294  0.9131
  933MPD2     N13654   2.729   2.175   1.671 -0.0582 -0.6661 -0.2422
  933MPD2    H513655   2.803   2.214   1.614  1.4229 -0.7820  1.5997
  933MPD2    N113656   2.983   1.750   1.725  0.4241 -0.0433  0.2531
  933MPD2    H713657   2.981   1.658   1.768  2.1247 -0.3072 -0.2248
  934MPD2     C13658   4.023   3.992   2.226  0.4439  1.1329  0.0025
  934MPD2    C113659   4.055   4.077   2.122  0.9427 -0.3933  0.8859
  934MPD2    C213660   4.009   4.054   1.998 -0.3815  0.1722 -0.3330
  934MPD2    C313661   3.929   3.944   1.974 -0.7190  0.1965  0.4058
  934MPD2    C413662   3.916   3.847   2.072  0.2131  0.2373 -0.0559
  934MPD2    C513663   3.960   3.877   2.198  0.3004  0.2709 -0.0603
  934MPD2     H13664   4.040   4.114   1.913 -1.0228 -1.3330 -1.6363
  934MPD2    H113665   3.872   3.750   2.053  1.7981 -1.0205  2.6420
  934MPD2    H213666   4.032   4.016   2.331  1.9165  0.2400  0.0831
  934MPD2    H313667   3.923   3.813   2.278  0.4596 -0.5442 -0.6360
  934MPD2     N13668   3.882   3.914   1.848  0.3485 -0.5828 -0.5456
  934MPD2    H513669   3.836   3.824   1.839  0.2062 -0.5688  0.0330
  934MPD2    N113670   4.124   4.199   2.147 -0.1115  0.0392 -0.0885
  934MPD2    H713671   4.149   4.257   2.067 -1.5369 -1.4378 -1.6176
  935MPD2     C13672   4.485   3.479   1.571  0.1748  0.6123 -0.1001
  935MPD2    C113673   4.398   3.431   1.473 -0.5185 -0.5739  0.0923
  935MPD2    C213674   4.274   3.499   1.456 -0.1491 -0.1142  0.0516
  935MPD2    C313675   4.247   3.607   1.538 -0.1918  0.1135 -0.3173
  935MPD2    C413676   4.328   3.644   1.641 -0.3523 -0.0236 -0.0475
  935MPD2    C513677   4.445   3.579   1.662 -0.0273  0.8443 -0.6292
  935MPD2     H13678   4.202   3.477   1.379  0.0070 -1.3392  0.2608
  935MPD2    H113679   4.306   3.735   1.695  3.2801 -0.6224  2.3986
  935MPD2    H213680   4.586   3.441   1.578  0.2371  1.3626  2.8897
  935MPD2    H313681   4.511   3.614   1.740 -0.5522 -1.0016  0.6192
  935MPD2     N13682   4.129   3.688   1.524 -0.0221 -0.0281 -0.5183
  935MPD2    H513683   4.125   3.765   1.590  0.2176  1.8332 -2.7138
  935MPD2    N113684   4.424   3.321   1.398 -0.6042  0.0041  0.1745
  935MPD2    H713685   4.364   3.309   1.316  1.3247  1.0150 -1.3738
  936MPD2     C13686   3.496   0.896  12.892 -0.3284  0.3011  0.4165
  936MPD2    C113687   3.479   0.884  13.026  0.3366 -1.1420  0.3502
  936MPD2    C213688   3.513   0.984  13.113  0.0633  0.1707  0.0105
  936MPD2    C313689   3.566   1.103  13.065  0.2405 -0.3334  1.6235
  936MPD2    C413690   3.587   1.114  12.930 -0.6146 -0.0469  0.3156
  936MPD2    C513691   3.556   1.010  12.838  0.0283 -0.4132 -0.1800
  936MPD2     H13692   3.508   0.965  13.220  0.5252  2.1179  0.3693
  936MPD2    H113693   3.631   1.210  12.902  1.6119 -0.8055  1.1757
  936MPD2    H213694   3.475   0.817  12.821  1.6007  0.8373 -0.7353
  936MPD2    H313695   3.575   1.010  12.731 -0.2875 -3.0316 -0.2248
  936MPD2     N13696   3.606   1.212  13.146 -0.2386 -0.4321  0.4888
  936MPD2    H513697   3.659   1.285  13.100  0.3704 -2.0076 -1.3502
  936MPD2    N113698   3.428   0.763  13.086 -0.6920  0.5493 -0.2310
  936MPD2    H713699   3.406   0.752  13.185  0.5513 -0.0298 -0.0165
  937MPD2     C13700   1.052   2.119  11.439 -0.3262 -0.3194  0.2206
  937MPD2    C113701   1.110   2.214  11.518  0.0344 -0.0763 -0.5573
  937MPD2    C213702   1.235   2.262  11.476 -1.3583 -0.0489 -0.1217
  937MPD2    C313703   1.306   2.200  11.374 -0.7042  0.4208  0.4375
  937MPD2    C413704   1.248   2.101  11.298  0.0318 -0.1000 -0.4518
  937MPD2    C513705   1.123   2.062  11.332 -0.2113  0.1362 -0.5799
  937MPD2     H13706   1.280   2.352  11.516 -1.3850 -0.5332  1.0018
  937MPD2    H113707   1.291   2.068  11.205  1.5072  0.3598  0.0621
  937MPD2    H213708   0.953   2.080  11.462 -1.2419  1.3623 -0.9051
  937MPD2    H313709   1.081   1.994  11.259 -2.3419  0.2604  0.5293
  937MPD2     N13710   1.433   2.243  11.341 -0.0616  0.4213 -0.0071
  937MPD2    H513711   1.474   2.320  11.392 -0.5485 -1.2557  2.9222
  937MPD2    N113712   1.037   2.298  11.600  0.0476  0.1029 -0.5023
  937MPD2    H713713   1.086   2.379  11.636 -2.5105  1.8522 -0.9298
  938MPD2     C13714   3.833   3.343   1.063  0.3511  0.0078  0.1075
  938MPD2    C113715   3.786   3.459   0.994 -0.2343  0.3158 -0.1614
  938MPD2    C213716   3.654   3.471   0.959  0.3206 -0.0156 -1.0600
  938MPD2    C313717   3.566   3.371   0.985  0.5109  0.0721  0.0839
  938MPD2    C413718   3.612   3.260   1.047  0.3365 -0.0984 -0.2203
  938MPD2    C513719   3.742   3.239   1.091 -0.0222  0.2882  0.1044
  938MPD2     H13720   3.617   3.564   0.917  1.3745  1.2356  0.7903
  938MPD2    H113721   3.556   3.171   1.076  2.0394 -0.7953  0.8840
  938MPD2    H213722   3.934   3.319   1.093  0.9723  1.2482 -0.9615
  938MPD2    H313723   3.764   3.152   1.151  1.6027  1.2274  0.8723
  938MPD2     N13724   3.425   3.382   0.970  0.0746 -0.3834 -0.2180
  938MPD2    H513725   3.379   3.302   1.011 -0.8796 -0.0619 -0.6699
  938MPD2    N113726   3.865   3.572   0.981  0.7543 -0.4022  0.8590
  938MPD2    H713727   3.818   3.662   0.976 -0.4706 -1.0437  0.7327
  939MPD2     C13728   0.160   0.549   1.360  0.0814  0.1165  0.5852
  939MPD2    C113729   0.036   0.508   1.373 -0.5064 -0.5629 -0.0526
  939MPD2    C213730   4.709   0.418   1.285 -0.1182 -0.1219  0.3218
  939MPD2    C313731   0.057   0.361   1.184 -0.1561  0.6177 -0.6977
  939MPD2    C413732   0.184   0.410   1.165 -0.9068  0.1001 -0.8059
  939MPD2    C513733   0.231   0.504   1.249  0.4927 -0.7071 -0.1598
  939MPD2     H13734   4.616   0.370   1.314 -0.1968  0.9768  1.8765
  939MPD2    H113735   0.249   0.386   1.082  1.3486 -1.4232  1.3905
  939MPD2    H213736   0.203   0.621   1.428 -0.5123  0.8692  0.1639
  939MPD2    H313737   0.324   0.553   1.221  1.1223 -2.3692 -0.9680
  939MPD2     N13738   0.002   0.268   1.092  0.3060 -0.0490  0.5485
  939MPD2    H513739   4.631   0.246   1.105 -0.2629  2.1665  0.0171
  939MPD2    N113740   4.688   0.560   1.483 -0.0851 -0.6221 -0.7445
  939MPD2    H713741   0.009   0.614   1.554 -0.1087 -1.0418 -0.4083
  940MPD2     C13742   4.237   1.097  13.940 -0.4054  1.0972  0.3431
  940MPD2    C113743   4.217   0.975  13.880  0.6577  0.1120 -0.0826
  940MPD2    C213744   4.213   0.969  13.744  0.2885 -0.0812  0.0280
  940MPD2    C313745   4.229   1.078  13.659  0.0548  0.5710  0.3144
  940MPD2    C413746   4.255   1.195  13.724 -0.0914  0.1859  0.6206
  940MPD2    C513747   4.242   1.206  13.860 -0.3522 -0.1307 -0.0314
  940MPD2     H13748   4.208   0.870  13.699 -2.5444 -0.6482  1.6230
  940MPD2    H113749   4.247   1.291  13.674 -3.8465  0.0588  1.0113
  940MPD2    H213750   4.220   1.109  14.047 -1.3082 -0.9552  0.4209
  940MPD2    H313751   4.246   1.306  13.901 -0.5349  0.1959 -0.8154
  940MPD2     N13752   4.218   1.081  13.514  0.2159 -0.1183  0.6481
  940MPD2    H513753   4.226   1.168  13.462 -1.0913 -1.1646 -1.3102
  940MPD2    N113754   4.193   0.861  13.956  0.2749  0.2720  0.0321
  940MPD2    H713755   4.172   0.775  13.907 -2.5860  0.0588  1.6406
  941MPD2     C13756   3.014   4.402   9.938  0.4314 -0.3198  0.3590
  941MPD2    C113757   3.141   4.376   9.886 -0.4853 -0.0732 -0.1258
  941MPD2    C213758   3.180   4.245   9.878  0.1327 -0.8896  0.7929
  941MPD2    C313759   3.100   4.138   9.917  0.1319  0.1093 -0.4957
  941MPD2    C413760   2.981   4.169   9.973  0.0594 -0.8359  0.1138
  941MPD2    C513761   2.943   4.301   9.984  0.5266 -0.3514 -0.7454
  941MPD2     H13762   3.279   4.218   9.842  0.3585  0.9638  0.0553
  941MPD2    H113763   2.918   4.096  10.022  0.5638 -0.5971  1.1248
  941MPD2    H213764   2.984   4.507   9.941 -1.5759 -0.8619 -0.6213
  941MPD2    H313765   2.846   4.322  10.026  1.6539  1.9550  0.6663
  941MPD2     N13766   3.126   3.999   9.909  1.0480  0.4884  0.4243
  941MPD2    H513767   3.043   3.942   9.922  0.5201  1.4269  1.1510
  941MPD2    N113768   3.234   4.470   9.830 -0.1698  0.0189 -0.5459
  941MPD2    H713769   3.329   4.439   9.813  1.3584  3.1557  2.3383
  942MPD2     C13770   2.360   1.604   9.713  1.0893  0.7126 -0.2768
  942MPD2    C113771   2.305   1.703   9.641 -0.6067 -0.3649 -0.4529
  942MPD2    C213772   2.346   1.732   9.513  0.2914  0.0398 -0.0396
  942MPD2    C313773   2.440   1.651   9.453  0.7651  0.0634 -0.7727
  942MPD2    C413774   2.519   1.571   9.532  0.3658 -0.5806 -0.3017
  942MPD2    C513775   2.468   1.544   9.656 -0.8741 -0.5180 -0.6123
  942MPD2     H13776   2.296   1.807   9.453 -1.1627 -1.2503 -0.4104
  942MPD2    H113777   2.604   1.514   9.496  1.1945 -0.1715  0.9782
  942MPD2    H213778   2.331   1.576   9.814  0.4232  2.1974 -0.0516
  942MPD2    H313779   2.517   1.468   9.717 -0.2362  0.3977  0.0306
  942MPD2     N13780   2.476   1.661   9.320 -0.0510 -0.0885 -0.4128
  942MPD2    H513781   2.563   1.615   9.293  0.6633 -0.3715  2.3809
  942MPD2    N113782   2.213   1.798   9.690 -0.0153 -0.2816  0.6796
  942MPD2    H713783   2.188   1.865   9.618 -0.8612 -1.4512 -0.1108
  943MPD2     C13784   1.317   3.737  10.424 -0.2934 -0.0514 -0.4918
  943MPD2    C113785   1.389   3.629  10.396 -0.0429 -0.0271 -0.0602
  943MPD2    C213786   1.525   3.625  10.385 -0.0888 -0.0136  0.5657
  943MPD2    C313787   1.592   3.744  10.393 -0.5364 -0.1867 -0.5372
  943MPD2    C413788   1.524   3.857  10.424  0.8146 -0.3704 -0.2081
  943MPD2    C513789   1.383   3.856  10.441  0.6834  0.3161 -0.3851
  943MPD2     H13790   1.579   3.531  10.391  1.8911  1.1282  0.9684
  943MPD2    H113791   1.576   3.950  10.446 -0.2487  1.0376 -3.6804
  943MPD2    H213792   1.209   3.736  10.428 -0.2961  0.9794 -0.3631
  943MPD2    H313793   1.326   3.942  10.474  0.6251 -0.0453  0.4430
  943MPD2     N13794   1.730   3.762  10.384  0.3319  0.3851 -0.0736
  943MPD2    H513795   1.773   3.850  10.408 -0.7450  0.9489 -0.2051
  943MPD2    N113796   1.325   3.501  10.386 -0.0956 -0.2494  0.4547
  943MPD2    H713797   1.392   3.426  10.396  1.1381  0.6626 -0.9668
  944MPD2     C13798   1.650   3.069  11.654 -0.2770  0.1434 -0.2790
  944MPD2    C113799   1.716   3.149  11.559 -0.2196  0.8938 -0.1117
  944MPD2    C213800   1.682   3.284  11.557 -0.2254  0.0115 -0.5834
  944MPD2    C313801   1.592   3.341  11.644  0.1262 -0.4782  0.2743
  944MPD2    C413802   1.529   3.258  11.735  0.2552  0.2811 -0.1864
  944MPD2    C513803   1.555   3.125  11.740 -0.1261 -0.4740  0.1003
  944MPD2     H13804   1.728   3.346  11.480 -1.5730  1.1230 -0.5023
  944MPD2    H113805   1.442   3.290  11.791  0.1528  0.3724 -0.3984
  944MPD2    H213806   1.681   2.965  11.655 -1.4879 -0.2136 -0.5501
  944MPD2    H313807   1.526   3.067  11.827 -1.5883  0.2867  0.1147
  944MPD2     N13808   1.560   3.479  11.621  0.0660  0.0709  0.4651
  944MPD2    H513809   1.585   3.522  11.533 -1.7824 -1.8409 -0.9881
  944MPD2    N113810   1.799   3.088  11.461  0.5172 -0.5765 -0.1703
  944MPD2    H713811   1.797   2.987  11.451 -0.6870 -0.7854  2.2836
    1TCq1    O113812   4.363   4.536  13.841 -0.0257  0.0545 -0.6457
    1TCq1    C113813   4.456   4.582  13.928  0.5566  0.5420  0.1368
    1TCq1    O213814   4.558   4.647  13.897 -0.7783 -0.4172 -0.4710
    1TCq1    C213815   4.413   4.547  14.061  0.1870  0.1052  0.0210
    1TCq1    C313816   4.307   4.470  14.093 -0.5872 -0.4012 -0.2091
    1TCq1    C413817   4.255   4.474  14.222 -0.1496  0.7179  0.5988
    1TCq1    C513818   4.311   4.554  14.316  0.4584 -0.1364  0.1564
    1TCq1    C613819   4.424   4.618  14.285 -0.0018 -0.0082  0.2953
    1TCq1    C713820   4.476   4.631  14.157 -0.1843 -0.4954 -0.2951
    1TCq1    C813821   4.496   4.683  14.391  1.4128 -0.0550 -0.2945
    1TCq1    O413822   4.523   4.624  14.491  0.3323 -0.7662 -0.5437
    1TCq1    C913823   4.135   4.403  14.260 -0.6806  0.2915 -0.0050
    1TCq1    O513824   4.083   4.341  14.173 -0.1559 -0.4528  0.7384
    1TCq1    O613825   4.077   4.443  14.364  0.2027  0.0331  0.1585
    1TCq1    H113826   4.274   4.525  13.882 -0.0797 -0.2066 -0.8297
    1TCq1    H213827   4.250   4.422  14.015  0.3035 -1.3354 -0.2967
    1TCq1    H313828   4.272   4.557  14.417  0.4985  0.0513  0.1663
    1TCq1    H413829   4.569   4.679  14.128 -0.5722  0.8411  0.6895
    2MPD2     C13830   4.689   0.392  14.569 -0.5045 -0.0915  0.1221
    2MPD2    C113831   4.612   0.422  14.459 -0.6455  1.2624 -0.8964
    2MPD2    C213832   4.556   0.319  14.393 -0.2715 -0.0717  0.0637
    2MPD2    C313833   4.559   0.190  14.436 -0.5584  0.5534 -0.3915
    2MPD2    C413834   4.630   0.166  14.555  0.2739  0.3040  0.5017
    2MPD2    C513835   4.696   0.265  14.621  0.0943 -0.3696 -0.2614
    2MPD2     H13836   4.492   0.342  14.308 -2.0882  2.0230  1.9999
    2MPD2    H113837   4.618   0.072  14.608  1.6060  1.1926  2.3988
    2MPD2    H213838   0.008   0.474  14.621 -1.1971 -0.1194  0.7793
    2MPD2    H313839   0.021   0.246  14.714  0.8760 -1.5387 -0.9347
    2MPD2     N13840   4.499   0.090  14.354 -0.6428 -0.4947 -0.3203
    2MPD2    H513841   4.459   0.124  14.267 -2.7530  1.1432  1.2924
    2MPD2    N113842   4.610   0.560  14.414  0.2952  0.2610 -0.2977
    2MPD2    H713843   4.688   0.618  14.442  1.6191 -2.0329  0.8093
    3TMC2    C113844   4.577   0.741  14.263 -0.3215 -0.5066 -0.6730
    3TMC2    C213845   4.670   0.818  14.333  0.0071  0.3527  0.2679
    3TMC2    C313846   0.002   0.923  14.271  0.6306 -0.0509 -1.0896
    3TMC2    C413847   4.549   0.760  14.134  0.3200  0.0960 -0.4062
    3TMC2    C513848   4.612   0.865  14.073 -0.0613 -0.4359 -0.3630
    3TMC2    C613849   4.700   0.950  14.139  0.0787 -0.1022 -0.0580
    3TMC2     C13850   4.537   0.604  14.312  0.1920 -0.4877 -0.6178
    3TMC2     O13851   4.456   0.543  14.243 -0.0729  0.3289 -0.0110
    3TMC2     H13852   4.672   0.816  14.441 -0.5292  0.5738  0.2828
    3TMC2    H113853   4.477   0.698  14.082  0.4669 -0.3240 -0.1138
    3TMC2    H213854   0.027   1.031  14.091  1.4576 -1.3112 -0.5340
    3TMC2    C713855   4.618   0.861  13.928 -0.5615 -0.0734  0.1907
    3TMC2    C813856   0.077   1.015  14.360 -0.1518 -0.6956  0.2131
    3TMC2    O113857   4.580   0.762  13.867 -0.2079 -0.3770  0.0352
    3TMC2    O213858   0.086   1.131  14.328 -0.1084 -0.6297 -0.3482
    3TMC2    O513859   0.159   0.942  14.436 -0.3746  0.1788  0.4664
    3TMC2    H513860   0.135   0.849  14.454 -2.3652  0.6873  0.5206
    4MPD2     C13861   3.791   1.653  14.052  0.7758 -0.1842 -0.1043
    4MPD2    C113862   3.766   1.578  13.940  0.1380  0.1994  0.1856
    4MPD2    C213863   3.863   1.571  13.842  0.2418  0.3870 -0.5487
    4MPD2    C313864   3.983   1.650  13.852  0.0367  0.2932  0.0966
    4MPD2    C413865   4.009   1.714  13.969 -0.3344  0.0951 -0.0119
    4MPD2    C513866   3.911   1.714  14.065 -0.1754  0.2264 -0.4366
    4MPD2     H13867   3.842   1.519  13.749  1.2123 -1.2438  0.1579
    4MPD2    H113868   4.101   1.771  13.979 -0.9065  1.1990 -0.9908
    4MPD2    H213869   3.713   1.674  14.125  0.1708 -0.8055 -0.5732
    4MPD2    H313870   3.928   1.782  14.147 -2.5403  1.4004 -0.9237
    4MPD2     N13871   4.077   1.630  13.749  0.2489  0.4273  0.0019
    4MPD2    H513872   4.051   1.567  13.673 -1.9708 -0.3774  1.4079
    4MPD2    N113873   3.634   1.542  13.912 -0.1733 -0.0601 -0.5864
    4MPD2    H713874   3.564   1.573  13.979 -0.6443  0.2846 -1.2307
    5TCq2    C113875   4.199   1.691  13.743 -0.5333  0.9866 -1.0375
    5TCq2    O213876   4.259   1.762  13.821 -0.9097  0.5920  0.1777
    5TCq2    C213877   4.268   1.640  13.627  0.5322  1.0988  0.6446
    5TCq2    C313878   4.205   1.605  13.511  0.4256  0.1960 -0.4634
    5TCq2    C413879   4.280   1.548  13.415  0.4612  0.3064  0.2260
    5TCq2    C513880   4.410   1.511  13.438  0.0290  0.0602  0.5491
    5TCq2    C613881   4.472   1.533  13.556  0.1836  0.0512 -0.7389
    5TCq2    C713882   4.397   1.601  13.652  0.1296 -0.5935 -0.5817
    5TCq2    C813883   4.560   1.432  13.609  0.3965  0.4319  0.4461
    5TCq2    O413884   4.596   1.443  13.724 -0.3223  0.0696  0.1011
    5TCq2    C913885   4.214   1.499  13.300  0.9408  0.4492 -0.0290
    5TCq2    O513886   4.261   1.388  13.261 -0.3237 -0.2128 -0.0237
    5TCq2    O613887   4.102   1.548  13.273 -0.1070  0.3937  0.1781
    5TCq2    H213888   4.101   1.620  13.484  0.9966  2.1055 -1.6115
    5TCq2    H313889   4.460   1.460  13.356 -1.5188 -0.7229  0.0825
    5TCq2    H413890   4.447   1.644  13.739 -0.9938 -3.5400  1.5176
    6MPD1     C13891   4.062   2.077  12.605  0.2514  0.0451  0.8717
    6MPD1    C113892   4.024   2.152  12.714  0.4491 -0.0175  0.9793
    6MPD1    C213893   3.896   2.134  12.760  0.0751  0.5817 -0.0308
    6MPD1    C313894   3.809   2.038  12.701  0.1521 -0.0691 -0.1961
    6MPD1    C413895   3.859   1.948  12.605 -0.4551 -0.5990  1.1186
    6MPD1    C513896   3.981   1.982  12.553  1.4685 -0.4789  0.1131
    6MPD1     H13897   3.868   2.203  12.838 -3.4771 -0.1594 -0.6503
    6MPD1    H113898   3.808   1.868  12.554 -1.6435  2.6198 -2.7051
    6MPD1    H213899   4.162   2.098  12.570  0.1595 -1.2704 -0.1423
    6MPD1    H313900   4.020   1.913  12.479  0.8394  0.8033 -1.4210
    6MPD1     N13901   3.680   2.010  12.740  1.0917 -0.1171  0.1019
    6MPD1    H513902   3.622   1.942  12.691 -0.2084  1.2261 -0.2197
    6MPD1    N113903   4.101   2.258  12.763 -0.7311  0.3701 -0.5619
    6MPD1    H613904   4.084   2.281  12.861  3.5982 -1.8362  0.7169
    6MPD1    H713905   4.199   2.232  12.756 -0.7590 -0.5831  2.5351
    7MPD2     C13906   3.198   2.163  13.443  0.1587  0.1547 -0.0330
    7MPD2    C113907   3.234   2.046  13.377  0.2477  0.4001 -0.0911
    7MPD2    C213908   3.244   1.930  13.449  0.2525  0.4179  0.5048
    7MPD2    C313909   3.211   1.924  13.587 -0.0635  0.4815  0.1422
    7MPD2    C413910   3.173   2.042  13.649  0.1711 -1.2383 -0.2093
    7MPD2    C513911   3.175   2.162  13.576  0.5950 -0.5222  0.0974
    7MPD2     H13912   3.267   1.841  13.391 -1.1180  1.0586 -1.0100
    7MPD2    H113913   3.173   2.057  13.757  1.5594  2.8024 -0.7655
    7MPD2    H213914   3.196   2.260  13.395  1.5223  0.3206  0.2519
    7MPD2    H313915   3.158   2.256  13.627  0.1766 -1.7411  2.1924
    7MPD2     N13916   3.224   1.800  13.659 -0.1775 -0.0822 -0.2551
    7MPD2    H513917   3.242   1.715  13.608 -0.6562 -0.9056  0.9506
    7MPD2    N113918   3.260   2.038  13.241  0.0604 -0.0594 -0.5106
    7MPD2    H713919   3.287   1.946  13.210  2.8684 -0.0208  1.8421
    8TMC3    C113920   3.253   1.633  13.806  0.1014  0.7522  0.0773
    8TMC3    C213921   3.381   1.602  13.842 -0.3637  0.0787  0.4009
    8TMC3    C313922   3.451   1.515  13.767  0.1501 -0.2721  0.6887
    8TMC3    C413923   3.186   1.555  13.716  0.2698  0.0962  0.0192
    8TMC3    C513924   3.257   1.458  13.639  0.0244  0.1733  0.6321
    8TMC3    C613925   3.396   1.441  13.671 -0.5246 -0.2180 -0.2342
    8TMC3     C13926   3.230   1.774  13.791 -0.2058  0.2249 -0.3130
    8TMC3     O13927   3.224   1.860  13.879 -1.3283  0.2675 -0.1925
    8TMC3     H13928   3.435   1.668  13.910 -0.4602  0.3524  0.2140
    8TMC3    H113929   3.088   1.589  13.685 -0.1254 -0.7281  0.3545
    8TMC3    H213930   3.457   1.373  13.613  0.1268  0.1802 -0.0183
    8TMC3    C713931   3.228   1.474  13.499 -0.7837 -0.9581 -0.4227
    8TMC3    C813932   3.590   1.480  13.800 -0.4496  0.5983  0.5352
    8TMC3    O113933   3.168   1.576  13.475  0.0115  0.2422 -0.4925
    8TMC3    O213934   3.650   1.410  13.715  0.2557  0.4726 -0.1382
    9TMC3    C113935   3.485   2.044  12.856 -0.1850  0.0527  0.1331
    9TMC3    C213936   3.446   1.918  12.832  0.9069 -0.6019 -0.2105
    9TMC3    C313937   3.340   1.867  12.906 -0.0541 -0.3635  0.4211
    9TMC3    C413938   3.418   2.126  12.948 -0.1328 -0.2521  0.2367
    9TMC3    C513939   3.320   2.068  13.020 -0.7978  0.5142 -0.1541
    9TMC3    C613940   3.289   1.938  13.005  0.2707 -0.4392  0.1185
    9TMC3     C13941   3.614   2.099  12.817 -0.6508  0.0543  0.1355
    9TMC3     O13942   3.646   2.210  12.866  0.3615  0.8508  0.0731
    9TMC3     H13943   3.491   1.852  12.759 -0.5853 -0.2337 -1.4805
    9TMC3    H113944   3.443   2.228  12.975  1.3386 -0.3418 -0.8288
    9TMC3    H213945   3.198   1.904  13.052  0.4820  1.1291  1.6754
    9TMC3    C713946   3.287   2.136  13.147 -0.3595 -0.2550  0.1611
    9TMC3    C813947   3.323   1.718  12.911 -0.7807 -0.0234  0.1499
    9TMC3    O113948   3.311   2.255  13.156 -0.3650  0.8967  0.1805
    9TMC3    O213949   3.380   1.663  12.815 -0.5198 -0.3626  0.5145
   10MPD2     C13950   3.290   1.283  13.193  0.3649  0.0888  0.4220
   10MPD2    C113951   3.265   1.395  13.271 -0.3098  0.7549 -0.0352
   10MPD2    C213952   3.248   1.520  13.214  0.5701 -0.2585  0.3430
   10MPD2    C313953   3.275   1.533  13.076  0.0815  0.6601  0.4176
   10MPD2    C413954   3.297   1.427  13.000  0.6782  0.6854  0.0412
   10MPD2    C513955   3.296   1.297  13.055  0.0160  0.6368  0.3405
   10MPD2     H13956   3.243   1.611  13.272 -1.4920 -0.7033  0.8638
   10MPD2    H113957   3.314   1.443  12.894  1.6692  0.6735  0.2010
   10MPD2    H213958   3.294   1.184  13.237  1.4012 -0.1693 -0.2586
   10MPD2    H313959   3.311   1.214  12.988 -0.2357 -0.1090  1.2058
   10MPD2     N13960   3.273   1.668  13.024  0.0894  0.8129  0.2384
   10MPD2    H513961   3.225   1.734  13.084  0.4537 -0.9087  2.4317
   10MPD2    N113962   3.268   1.379  13.412  0.2973  0.3962 -0.0329
   10MPD2    H713963   3.305   1.295  13.455 -1.6086 -0.5046 -0.1798
   11MPD2     C13964   4.668   0.929  13.651  0.0723 -0.4057  0.8923
   11MPD2    C113965   4.638   1.022  13.748  0.4053  0.0029  0.3611
   11MPD2    C213966   4.607   1.157  13.706  1.1127 -0.6238  0.0769
   11MPD2    C313967   4.606   1.190  13.574 -0.1788 -0.2077  0.3167
   11MPD2    C413968   4.642   1.087  13.485 -0.0305  0.1778 -0.0040
   11MPD2    C513969   4.671   0.963  13.524  0.6727  0.2506  0.2010
   11MPD2     H13970   4.571   1.225  13.782  0.7555 -0.7118 -0.0101
   11MPD2    H113971   4.641   1.098  13.377  0.7394  1.2208  0.0975
   11MPD2    H213972   4.699   0.829  13.681 -1.4816 -0.8472  1.0147
   11MPD2    H313973   4.709   0.887  13.457 -1.1106 -0.5618  0.1062
   11MPD2     N13974   4.570   1.319  13.526 -0.1739 -0.2872  0.8007
   11MPD2    H513975   4.544   1.329  13.428 -0.3182  0.1930  0.8893
   11MPD2    N113976   4.633   0.988  13.887 -0.7339 -0.2266 -0.4696
   11MPD2    H713977   4.620   1.067  13.949 -0.9298 -0.4225 -0.2611
    1MPD1     C13978   1.746   3.354  16.952  0.1975 -1.4334  1.4831
    1MPD1    C113979   1.621   3.304  16.992  0.8752 -0.0496  0.0473
    1MPD1    C213980   1.583   3.175  16.952 -0.2660  0.0127  0.3433
    1MPD1    C313981   1.658   3.108  16.860  0.0199  0.6101  0.4055
    1MPD1    C413982   1.777   3.157  16.829 -0.0599 -0.0572 -0.5022
    1MPD1    C513983   1.823   3.278  16.876 -1.0095  0.2856 -0.1769
    1MPD1     H13984   1.490   3.140  16.995 -0.4003  1.0082  0.8536
    1MPD1    H113985   1.836   3.108  16.752 -0.6429  0.1781 -1.1047
    1MPD1    H213986   1.784   3.452  16.976 -1.2588 -0.4698 -0.1244
    1MPD1    H313987   1.919   3.318  16.848 -0.4812 -0.3208  0.7578
    1MPD1     N13988   1.629   2.982  16.806  0.0585 -0.6579  0.0325
    1MPD1    H513989   1.708   2.932  16.767 -0.4999  1.0096 -3.3276
    1MPD1    N113990   1.546   3.386  17.080 -0.0104  0.7400  0.2602
    1MPD1    H613991   1.550   3.486  17.058 -1.5046  0.5302 -0.9502
    1MPD1    H713992   1.448   3.359  17.087  0.8854 -2.8194 -0.8107
    2MPD1     C13993   2.209   2.396  16.860 -0.5651 -0.2216  0.1638
    2MPD1    C113994   2.129   2.451  16.959 -0.5020  0.4438  0.3438
    2MPD1    C213995   2.001   2.492  16.925 -0.3360 -0.0139  0.9314
    2MPD1    C313996   1.958   2.481  16.795 -0.5120 -0.1744 -0.0399
    2MPD1    C413997   2.044   2.433  16.697 -0.3691 -0.7641  0.7336
    2MPD1    C513998   2.170   2.407  16.731  0.1959 -1.2457 -0.4951
    2MPD1     H13999   1.930   2.532  16.996 -0.4335 -0.5217  1.1200
    2MPD1    H114000   2.015   2.432  16.592 -0.4172 -1.0662  0.7480
    2MPD1    H214001   2.308   2.358  16.881 -0.4574  0.2159  0.4444
    2MPD1    H314002   2.239   2.365  16.659  0.6709 -0.1959 -0.6588
    2MPD1     N14003   1.825   2.526  16.767 -0.0324  0.5040  0.1325
    2MPD1    H514004   1.765   2.555  16.843 -1.7536 -1.8347 -0.3500
    2MPD1    N114005   2.190   2.452  17.083 -0.1573  0.1221 -0.2772
    2MPD1    H614006   2.140   2.518  17.142 -2.6817 -1.8768 -0.1971
    2MPD1    H714007   2.289   2.474  17.078 -0.3764  0.7139 -2.1863
    3TMC3    C114008   1.637   2.603  16.643  0.0611  1.0057  0.2261
    3TMC3    C214009   1.550   2.595  16.539  0.1702  0.0211 -0.8070
    3TMC3    C314010   1.444   2.685  16.527 -0.1874 -0.2242  0.2174
    3TMC3    C414011   1.626   2.708  16.730 -0.9101  0.0383 -0.0993
    3TMC3    C514012   1.521   2.794  16.712  0.6546  0.3754  0.0019
    3TMC3    C614013   1.434   2.789  16.615 -0.2458  0.3684 -0.6524
    3TMC3     C14014   1.761   2.522  16.643  0.4622  0.8355  0.1573
    3TMC3     O14015   1.803   2.475  16.538 -0.7622 -0.1850 -0.2649
    3TMC3     H14016   1.561   2.518  16.464 -1.6405 -0.5746 -0.4711
    3TMC3    H114017   1.697   2.733  16.808  0.2625  1.4447 -1.6363
    3TMC3    H214018   1.355   2.863  16.611 -1.1928 -0.6478 -0.7009
    3TMC3    C714019   1.509   2.923  16.787 -0.8760 -0.4744  0.3816
    3TMC3    C814020   1.361   2.697  16.404 -0.2540 -0.3682 -0.1313
    3TMC3    O114021   1.395   2.952  16.819 -0.0820  0.4950 -0.1845
    3TMC3    O214022   1.286   2.793  16.383  0.1923  0.2957  0.0870
    4MPD1     C14023   1.178   2.467  15.978  0.4075  0.3091 -0.0245
    4MPD1    C114024   1.280   2.393  16.029 -0.0735  0.1345 -0.1480
    4MPD1    C214025   1.346   2.438  16.143  0.8649  0.0194  0.2198
    4MPD1    C314026   1.312   2.559  16.203  0.2914  0.3571 -0.9719
    4MPD1    C414027   1.217   2.639  16.144 -0.1180 -0.1252  0.6148
    4MPD1    C514028   1.152   2.592  16.029  0.2074 -0.4593 -0.2840
    4MPD1     H14029   1.411   2.367  16.192 -1.1390 -0.9558  1.4534
    4MPD1    H114030   1.184   2.733  16.186 -1.7546  0.2210 -1.4582
    4MPD1    H214031   1.121   2.436  15.891 -1.2697  0.3728  1.0643
    4MPD1    H314032   1.077   2.650  15.976 -0.7173 -1.3879  0.0046
    4MPD1     N14033   1.383   2.591  16.323  0.1874  1.1724 -0.2327
    4MPD1    H514034   1.446   2.519  16.357 -0.6062 -0.5630 -2.3868
    4MPD1    N114035   1.303   2.255  15.986  0.3258  0.0661 -0.3105
    4MPD1    H614036   1.401   2.235  16.005  0.0981 -0.1712  0.6072
    4MPD1    H714037   1.298   2.255  15.884  0.0739 -2.7682 -0.3122
    1TCq1    O114038   1.715   1.732  10.862  0.0469 -0.1867  0.1115
    1TCq1    C114039   1.802   1.686  10.768 -0.1414 -0.0089 -0.2102
    1TCq1    O214040   1.866   1.758  10.698 -0.3529 -0.7513  0.4252
    1TCq1    C214041   1.855   1.567  10.815  0.0253 -0.0988  0.0757
    1TCq1    C314042   1.765   1.468  10.850 -0.2857  0.4492  0.1972
    1TCq1    C414043   1.816   1.341  10.855 -0.6530  0.3154 -0.7629
    1TCq1    C514044   1.950   1.329  10.879 -0.7828 -0.2929 -0.4646
    1TCq1    C614045   2.035   1.433  10.855 -0.7776 -0.0326 -0.1981
    1TCq1    C714046   1.990   1.548  10.807  0.5789  0.0359  0.2257
    1TCq1    C814047   2.181   1.423  10.851  0.2483 -0.5545 -0.0265
    1TCq1    O414048   2.251   1.522  10.864 -0.0166  0.0708  0.6016
    1TCq1    C914049   1.733   1.240  10.917  0.2139  0.1526 -0.6222
    1TCq1    O514050   1.609   1.256  10.906  0.4142 -0.2454  0.1271
    1TCq1    O614051   1.787   1.128  10.945  0.0227  0.2907  0.1618
    1TCq1    H114052   1.703   1.675  10.941 -0.5717 -1.0010 -0.5679
    1TCq1    H214053   1.661   1.485  10.825 -0.3403  0.9230  0.7566
    1TCq1    H314054   1.993   1.246  10.934  1.6343  1.3442  0.0782
    1TCq1    H414055   2.049   1.630  10.767  2.1937 -1.7015 -0.9399
    2MPD1     C14056   2.604   1.147  10.852  0.3150 -0.0367 -0.0821
    2MPD1    C114057   2.506   1.068  10.804  0.1874 -0.3108  0.1282
    2MPD1    C214058   2.382   1.119  10.797 -0.7055 -0.0156  0.3978
    2MPD1    C314059   2.349   1.252  10.822 -0.2286 -0.1732  0.2220
    2MPD1    C414060   2.455   1.333  10.861 -1.0054 -0.1952 -0.3650
    2MPD1    C514061   2.580   1.280  10.874  0.6937  0.2278  0.3688
    2MPD1     H14062   2.319   1.046  10.747  1.0197 -2.4489  1.7836
    2MPD1    H114063   2.456   1.439  10.885 -3.2582 -0.2248 -0.1827
    2MPD1    H214064   2.702   1.109  10.879 -0.1779 -2.8960 -2.2468
    2MPD1    H314065   2.649   1.344  10.927  0.9997  3.4420 -3.8612
    2MPD1     N14066   2.218   1.297  10.826 -0.7221 -0.0319 -1.0031
    2MPD1    H514067   2.140   1.236  10.800 -0.6436 -0.5196 -0.1032
    2MPD1    N114068   2.529   0.932  10.769  0.2794  0.2762  0.0457
    2MPD1    H614069   2.583   0.879  10.838 -0.0802 -0.3553 -0.1627
    2MPD1    H714070   2.444   0.887  10.737  0.6763  0.3850 -1.1599
    1TCq1    O114071   1.949   3.654   9.952 -0.1800 -0.1644  0.6253
    1TCq1    C114072   2.039   3.651   9.848 -0.2501 -0.0645 -0.5865
    1TCq1    O214073   2.125   3.738   9.827 -0.6845  0.3449 -0.1173
    1TCq1    C214074   1.996   3.548   9.749 -0.1744  1.1244  0.1502
    1TCq1    C314075   2.014   3.590   9.623  0.6873  0.3183 -0.5737
    1TCq1    C414076   1.951   3.517   9.529 -0.1856 -0.0645  0.6836
    1TCq1    C514077   1.910   3.392   9.554 -0.0238 -0.7073 -0.0046
    1TCq1    C614078   1.906   3.346   9.684  0.4721  0.0420 -0.4632
    1TCq1    C714079   1.944   3.429   9.786  0.7517 -0.7989  0.1045
    1TCq1    C814080   1.881   3.204   9.714  0.4228  0.0550 -0.3520
    1TCq1    O414081   1.812   3.136   9.640 -0.2814 -0.4718  0.4373
    1TCq1    C914082   1.973   3.547   9.391  0.5190  0.4635  0.9473
    1TCq1    O514083   1.966   3.665   9.356 -0.0246 -0.1650 -0.1587
    1TCq1    O614084   2.001   3.446   9.316 -0.0781 -0.5861  0.4203
    1TCq1    H114085   1.882   3.585   9.931 -0.8426  0.9600 -0.9881
    1TCq1    H214086   2.057   3.688   9.607  0.2654  1.0301  2.6538
    1TCq1    H314087   1.862   3.342   9.471  0.5747 -0.7093 -0.3533
    1TCq1    H414088   1.933   3.399   9.889 -0.5717  1.9380  0.7547
    2MPD1     C14089   1.947   2.813  10.042  0.0892 -0.4648  0.0753
    2MPD1    C114090   2.016   2.917  10.084 -0.4029  0.2908  0.2322
    2MPD1    C214091   2.024   3.027  10.011  0.0444 -0.3259  0.3344
    2MPD1    C314092   1.940   3.050   9.901  0.3364  0.0455 -0.0974
    2MPD1    C414093   1.847   2.953   9.865  0.5949 -0.5677 -0.2933
    2MPD1    C514094   1.869   2.833   9.932 -0.6600 -0.1363 -0.7327
    2MPD1     H14095   2.090   3.105  10.046  0.0429  0.3153 -1.1158
    2MPD1    H114096   1.772   2.956   9.787  0.3360 -1.6985 -0.0880
    2MPD1    H214097   1.947   2.714  10.086  1.1821 -1.2471 -1.6619
    2MPD1    H314098   1.806   2.753   9.896 -2.2475  1.0295 -0.5418
    2MPD1     N14099   1.951   3.174   9.832  0.4556 -0.5521  0.2929
    2MPD1    H514100   2.021   3.237   9.868 -0.7802  2.2754 -2.1910
    2MPD1    N114101   2.116   2.882  10.180  0.4327  0.4746 -0.0572
    2MPD1    H614102   2.087   2.807  10.242  3.0570 -2.1181 -2.0091
    2MPD1    H714103   2.138   2.956  10.247  2.4691 -1.7600  1.6994
    1MPD1     C14104   4.220   2.945  12.281  0.5056 -0.2790 -0.0901
    1MPD1    C114105   4.140   2.839  12.238 -0.3130 -0.0814 -0.5348
    1MPD1    C214106   4.136   2.810  12.103 -0.1875 -0.2056 -0.2757
    1MPD1    C314107   4.207   2.884  12.013  0.0229  0.2522 -0.3149
    1MPD1    C414108   4.266   3.003  12.050  0.2014 -0.3632 -0.0062
    1MPD1    C514109   4.274   3.024  12.187  0.2295  0.0680  0.6462
    1MPD1     H14110   4.091   2.718  12.070 -0.9783  0.3451 -0.7220
    1MPD1    H114111   4.341   3.057  11.992  1.3083 -1.3044  0.5345
    1MPD1    H214112   4.234   2.970  12.385  1.1664  1.6996 -0.6636
    1MPD1    H314113   4.328   3.110  12.224  0.9970  0.7137 -1.9347
    1MPD1     N14114   4.213   2.843  11.879  0.0611 -0.1137 -0.6593
    1MPD1    H514115   4.167   2.760  11.843  0.2946 -0.6081  0.1770
    1MPD1    N114116   4.110   2.750  12.344  0.2440 -0.0461 -0.5555
    1MPD1    H614117   4.095   2.799  12.432 -2.5270  0.9811 -1.6173
    1MPD1    H714118   4.025   2.694  12.342 -2.3054  3.9574 -3.1447
    2MPD1     C14119   0.866   1.585  12.264 -0.0837  0.6369 -0.3074
    2MPD1    C114120   0.886   1.618  12.134  0.4846  0.2691 -0.3839
    2MPD1    C214121   0.781   1.665  12.052  0.0163 -0.5903  0.5342
    2MPD1    C314122   0.656   1.667  12.104 -0.3017 -0.4232 -0.4149
    2MPD1    C414123   0.638   1.641  12.240  0.4006  0.1370  0.3322
    2MPD1    C514124   0.742   1.594  12.322 -0.4515  0.6595  0.7000
    2MPD1     H14125   0.802   1.686  11.948  1.5395 -1.6585  0.6223
    2MPD1    H114126   0.540   1.653  12.284 -0.1724 -1.0189 -0.6237
    2MPD1    H214127   0.951   1.544  12.316  0.2414 -0.4389 -1.6865
    2MPD1    H314128   0.721   1.575  12.427  2.3103  1.2452  1.3667
    2MPD1     N14129   0.539   1.710  12.037 -0.3052 -0.2599  0.7461
    2MPD1    H514130   0.453   1.709  12.090 -1.2271 -0.6156 -0.7492
    2MPD1    N114131   1.014   1.624  12.082  0.4704 -0.2974  0.2577
    2MPD1    H614132   1.082   1.572  12.138  1.9832  0.1069 -1.1734
    2MPD1    H714133   1.011   1.587  11.987  1.1658  1.1558 -0.3386
    3MPD1     C14134   4.358   1.409  11.815 -0.2664  0.2121 -0.8922
    3MPD1    C114135   4.348   1.527  11.740  0.3825 -0.0365 -0.2830
    3MPD1    C214136   4.463   1.602  11.729 -0.1893  0.1544  0.3319
    3MPD1    C314137   4.586   1.568  11.774 -0.1316 -0.6184 -0.2717
    3MPD1    C414138   4.595   1.440  11.836 -0.1828 -0.3099  1.0634
    3MPD1    C514139   4.482   1.362  11.853 -0.8528 -0.0765 -0.1199
    3MPD1     H14140   4.448   1.701  11.687 -1.2075 -0.2430 -0.2315
    3MPD1    H114141   4.689   1.413  11.883  0.3184  2.5299  1.7183
    3MPD1    H214142   4.271   1.350  11.842  0.1876 -0.4450 -0.8835
    3MPD1    H314143   4.478   1.285  11.929 -0.1512  0.5634  0.5601
    3MPD1     N14144   4.703   1.652  11.758  0.2523  0.0211 -0.0879
    3MPD1    H514145   4.682   1.742  11.717 -0.2356  0.9305  2.1934
    3MPD1    N114146   4.224   1.574  11.695  0.5356 -0.7115 -0.3601
    3MPD1    H614147   4.228   1.640  11.617 -1.7121  2.1604  1.9271
    3MPD1    H714148   4.153   1.504  11.677 -1.6555  1.2276  0.6662
    4MPD2     C14149   4.208   2.293  11.351  0.1198  0.3571  0.2254
    4MPD2    C114150   4.240   2.411  11.305  0.0385 -0.1108  0.3350
    4MPD2    C214151   4.325   2.412  11.193 -0.6011  0.2771 -0.8840
    4MPD2    C314152   4.386   2.304  11.131  0.8233 -0.5509  0.3101
    4MPD2    C414153   4.361   2.183  11.190  0.8975 -0.2105  0.4944
    4MPD2    C514154   4.264   2.180  11.286  0.0309  0.6413 -0.0691
    4MPD2     H14155   4.332   2.507  11.142 -0.8293  0.3268 -0.8217
    4MPD2    H114156   4.405   2.087  11.166  0.2652 -0.4769  0.4122
    4MPD2    H214157   4.137   2.274  11.430 -2.3809 -0.1525 -2.1621
    4MPD2    H314158   4.228   2.081  11.311  1.0958 -0.0766 -1.3300
    4MPD2     N14159   4.489   2.312  11.037 -0.3061 -0.3624 -0.8575
    4MPD2    H514160   4.537   2.225  11.016 -2.4983 -2.2081  1.7620
    4MPD2    N114161   4.201   2.538  11.356 -0.4544 -0.1482  0.1493
    4MPD2    H714162   4.230   2.611  11.291  1.0149 -0.3701  0.5499
    5TMC3    C114163   4.125   2.704  11.500 -0.2909  0.9359  0.2559
    5TMC3    C214164   4.174   2.737  11.626 -0.7959  0.2267  0.2131
    5TMC3    C314165   4.261   2.843  11.645  0.0537 -0.7131 -0.7730
    5TMC3    C414166   4.160   2.780  11.393  0.0581 -0.4431  0.0484
    5TMC3    C514167   4.253   2.877  11.413  0.8218  0.6018  0.2911
    5TMC3    C614168   4.304   2.908  11.540 -0.6884  0.2654  0.7151
    5TMC3     C14169   4.137   2.561  11.472 -0.1077  0.1058 -0.1230
    5TMC3     O14170   4.148   2.497  11.578 -0.3264  0.2058  0.4510
    5TMC3     H14171   4.124   2.693  11.712 -0.6428 -0.1134  0.1249
    5TMC3    H114172   4.120   2.769  11.292 -0.5887  1.6431  0.0794
    5TMC3    H214173   4.395   2.964  11.558 -0.4470  0.7505 -2.1298
    5TMC3    C714174   4.358   2.866  11.314  0.3972 -0.2209  0.2991
    5TMC3    C814175   4.290   2.896  11.779  0.1058 -0.1913 -1.1211
    5TMC3    O114176   4.346   2.766  11.245  0.4454 -0.3220 -0.3999
    5TMC3    O214177   4.373   2.984  11.786  0.1498 -0.1708  0.2028
    6TMC3    C114178   0.409   1.798  11.847  0.5056  0.1733  0.3445
    6TMC3    C214179   0.300   1.726  11.882  0.0734 -0.1126 -0.9854
    6TMC3    C314180   0.198   1.727  11.796  0.3198 -0.0878 -0.2764
    6TMC3    C414181   0.418   1.863  11.727 -0.1210 -0.1418 -0.1893
    6TMC3    C514182   0.317   1.853  11.635  0.2679 -0.1010 -0.4011
    6TMC3    C614183   0.203   1.779  11.668 -0.2000 -0.5047 -0.3346
    6TMC3     C14184   0.534   1.756  11.907  0.0719  0.2198  0.4768
    6TMC3     O14185   0.624   1.748  11.822 -0.3276  0.6913  0.1285
    6TMC3     H14186   0.315   1.649  11.957  1.2815 -1.2217 -2.3674
    6TMC3    H114187   0.513   1.909  11.700  0.5975 -1.5249 -0.0043
    6TMC3    H214188   0.137   1.764  11.583 -0.1415 -1.7521 -0.1571
    6TMC3    C714189   0.327   1.924  11.508  0.1372  0.4618  0.1374
    6TMC3    C814190   0.099   1.621  11.812 -0.0516  0.6948 -0.2969
    6TMC3    O114191   0.223   1.948  11.447  0.0175  0.3630  0.1609
    6TMC3    O214192   0.147   1.520  11.867 -0.5653  0.0080 -0.1241
    7MPD2     C14193   0.101   2.936  11.106 -0.4457  0.3965  0.1879
    7MPD2    C114194   0.010   2.830  11.096 -0.0064  0.2386  1.0499
    7MPD2    C214195   4.616   2.836  11.160  0.7698 -0.0541 -0.1998
    7MPD2    C314196   4.580   2.946  11.243 -0.1213  0.2423 -0.1158
    7MPD2    C414197   4.676   3.047  11.249 -0.4885  0.3674  0.3163
    7MPD2    C514198   0.068   3.035  11.191 -0.0497 -0.1367  0.0035
    7MPD2     H14199   4.554   2.748  11.155 -2.1435  1.8962  1.9479
    7MPD2    H114200   4.666   3.131  11.316  1.3639  1.9004 -1.3385
    7MPD2    H214201   0.197   2.932  11.056  0.5723  1.4211  2.1022
    7MPD2    H314202   0.139   3.117  11.194 -0.3003  0.0373  1.0672
    7MPD2     N14203   4.460   2.956  11.321 -0.6799  0.5003  0.0695
    7MPD2    H514204   4.446   3.042  11.373 -0.2831  0.3773  0.3768
    7MPD2    N114205   0.028   2.717  11.020 -0.3302 -0.2511 -0.2306
    7MPD2    H714206   4.673   2.659  11.001  1.3511 -2.2030 -1.4430
    8TMC3    C114207   0.125   2.547  10.896 -0.3915  0.0318  0.2540
    8TMC3    C214208   0.208   2.456  10.960 -0.2087  0.5552  0.8233
    8TMC3    C314209   0.155   2.337  10.997  0.7563  0.1509  0.1450
    8TMC3    C414210   4.724   2.515  10.868  0.7510 -0.5986  0.0466
    8TMC3    C514211   4.670   2.396  10.910  0.2114  0.6391  0.8405
    8TMC3    C614212   0.024   2.303  10.976  0.6731 -0.6350 -0.3240
    8TMC3     C14213   0.144   2.679  10.953 -0.2819 -0.1908 -0.3592
    8TMC3     O14214   0.263   2.717  10.967  0.3666 -0.3657  1.0690
    8TMC3     H14215   0.307   2.495  10.984  0.2591 -0.8909  1.2545
    8TMC3    H114216   4.665   2.593  10.821 -1.0319 -2.2575 -0.4667
    8TMC3    H214217   4.708   2.212  11.017  0.8692 -2.1526 -3.5271
    8TMC3    C714218   4.546   2.427  10.979 -0.1673  0.7982 -0.0141
    8TMC3    C814219   0.234   2.240  11.081  0.2646 -0.8293 -0.7674
    8TMC3    O114220   4.514   2.547  10.992  0.0677 -0.6664 -0.0788
    8TMC3    O214221   0.161   2.158  11.136 -0.0734  0.3466 -0.2810
    9MPD2     C14222   0.573   2.256  11.207  0.1256  0.6162  0.1797
    9MPD2    C114223   0.442   2.218  11.212 -0.5878  0.0344  0.0977
    9MPD2    C214224   0.398   2.133  11.309  0.2776  0.0968  0.0254
    9MPD2    C314225   0.486   2.075  11.393  0.1989 -0.2377 -0.3821
    9MPD2    C414226   0.619   2.100  11.380  0.7451  0.2493 -0.2685
    9MPD2    C514227   0.660   2.193  11.300 -0.2846  0.2291 -0.5267
    9MPD2     H14228   0.291   2.121  11.322  0.1739 -1.0462 -1.7427
    9MPD2    H114229   0.683   2.070  11.463  1.3230  1.8111 -0.1653
    9MPD2    H214230   0.618   2.313  11.126  0.5078 -0.8135 -0.6201
    9MPD2    H314231   0.765   2.205  11.275 -0.4278 -0.4085 -1.4303
    9MPD2     N14232   0.453   1.985  11.494  0.1896  0.1755  0.4851
    9MPD2    H514233   0.525   1.948  11.555 -0.1098 -0.3193  0.5384
    9MPD2    N114234   0.360   2.275  11.111  0.2890 -0.2726  0.0813
    9MPD2    H714235   0.405   2.345  11.054  1.0722 -1.5043 -0.8137
    1MPD1     C14236   4.444   1.538  16.521 -0.2041  0.3835 -0.6139
    1MPD1    C114237   4.576   1.575  16.522 -1.0501  0.1218 -0.2401
    1MPD1    C214238   4.671   1.471  16.523 -0.7689  0.3330 -0.3349
    1MPD1    C314239   4.634   1.338  16.530 -0.0470  0.0178  0.3543
    1MPD1    C414240   4.509   1.299  16.534  0.1682 -0.0252 -0.2313
    1MPD1    C514241   4.419   1.399  16.519  0.0865 -0.4079  0.3878
    1MPD1     H14242   0.047   1.501  16.509  0.0080 -1.1344  2.1644
    1MPD1    H114243   4.473   1.197  16.535 -0.0390  0.0448 -0.4788
    1MPD1    H214244   4.359   1.604  16.520  0.6471  1.4761 -1.8998
    1MPD1    H314245   4.314   1.372  16.513 -0.3244  0.9412  1.5278
    1MPD1     N14246   4.719   1.227  16.536 -0.2034  0.2403 -0.5548
    1MPD1    H514247   4.681   1.135  16.519 -1.7956  1.0940 -1.6043
    1MPD1    N114248   4.614   1.709  16.540 -0.3969 -0.1597 -0.1718
    1MPD1    H614249   4.540   1.774  16.515  0.4029  1.1592  0.9326
    1MPD1    H714250   4.709   1.734  16.511 -0.5671 -0.7514 -1.2259
    2MPD1     C14251   0.815   0.560  16.834 -0.4793  0.0736 -0.5501
    2MPD1    C114252   0.776   0.543  16.704 -0.7180  0.5232 -0.1610
    2MPD1    C214253   0.663   0.618  16.670  0.2477  0.0308 -0.0651
    2MPD1    C314254   0.600   0.708  16.754 -0.0577  0.1225  0.0898
    2MPD1    C414255   0.646   0.724  16.881 -0.0795  0.1223  0.5577
    2MPD1    C514256   0.760   0.656  16.917 -0.2398 -0.6739  0.7307
    2MPD1     H14257   0.623   0.625  16.569 -0.2579 -1.2102  0.0373
    2MPD1    H114258   0.585   0.785  16.946 -0.8359 -1.3595  1.2510
    2MPD1    H214259   0.895   0.494  16.864 -1.0133 -0.4643 -0.2985
    2MPD1    H314260   0.801   0.661  17.017  0.4167 -2.8785  0.5777
    2MPD1     N14261   0.498   0.789  16.697 -0.3385 -0.2405  0.1864
    2MPD1    H514262   0.455   0.758  16.610  0.1815 -0.8707  0.1533
    2MPD1    N114263   0.824   0.432  16.627  0.0135 -0.5813  0.2704
    2MPD1    H614264   0.830   0.448  16.526  0.8756 -2.5925  0.0126
    2MPD1    H714265   0.919   0.413  16.658 -0.1363 -1.7077  0.0461
    3TCq2    C114266   0.437   0.898  16.755 -0.3169 -0.1331  0.1390
    3TCq2    O214267   0.476   0.962  16.860  0.2938 -0.5668 -0.0027
    3TCq2    C214268   0.323   0.938  16.672 -1.4125 -0.5532 -0.2621
    3TCq2    C314269   0.261   0.838  16.596 -0.6382 -0.1398  0.3636
    3TCq2    C414270   0.158   0.871  16.513 -0.6070  0.3640 -0.5689
    3TCq2    C514271   0.123   1.001  16.499  0.0259 -0.5638 -0.8990
    3TCq2    C614272   0.186   1.096  16.563  0.0285  0.4351 -0.0308
    3TCq2    C714273   0.285   1.068  16.654  0.3147  0.4105  0.0775
    3TCq2    C814274   0.130   1.231  16.554 -0.6163 -0.1306  0.4765
    3TCq2    O414275   0.205   1.322  16.584 -0.3476  0.6280  0.6900
    3TCq2    C914276   0.102   0.771  16.425 -0.3455 -0.2124 -0.7788
    3TCq2    O514277   0.009   0.813  16.352  0.5486  0.5029  0.2769
    3TCq2    O614278   0.154   0.659  16.417  0.1007  0.1387 -0.3999
    3TCq2    H214279   0.279   0.732  16.607 -0.6910 -0.1149  0.6798
    3TCq2    H314280   0.056   1.030  16.419 -1.1345  0.1075  0.3257
    3TCq2    H414281   0.332   1.152  16.704  2.4414 -0.8853  0.2545
    1TCq1    O114282   2.507   0.273  13.014 -0.2356  0.5368 -0.0909
    1TCq1    C114283   2.611   0.233  12.942  0.9584  0.1625  0.0311
    1TCq1    O214284   2.687   0.307  12.881 -0.0138 -0.0125  0.3316
    1TCq1    C214285   2.632   0.090  12.950  0.0528 -0.8333 -0.1863
    1TCq1    C314286   2.523   0.006  12.961 -0.2831 -0.4895  0.0113
    1TCq1    C414287   2.534   4.609  13.010  0.7119  0.2676  0.4341
    1TCq1    C514288   2.654   4.561  13.045  0.3675  0.3415 -0.4279
    1TCq1    C614289   2.763   4.644  13.032  0.3987 -0.6349  0.2812
    1TCq1    C714290   2.752   0.047  12.983 -0.1838 -0.0591 -0.0261
    1TCq1    C814291   2.882   4.606  13.101  0.1802 -0.0753 -0.3038
    1TCq1    O414292   2.905   4.488  13.113  0.4461 -0.2904 -0.0611
    1TCq1    C914293   2.415   4.535  13.034 -0.4296  0.8513  0.4397
    1TCq1    O514294   2.307   4.577  12.985 -0.2599  0.0269  0.1148
    1TCq1    O614295   2.414   4.421  13.083 -0.1519  0.4146 -0.3168
    1TCq1    H114296   2.454   0.215  13.072 -1.0155 -0.7809 -2.1266
    1TCq1    H214297   2.429   0.053  12.932  0.5060  0.1701 -1.4619
    1TCq1    H314298   2.658   4.454  13.060 -0.5378  0.2060 -1.1768
    1TCq1    H414299   2.841   0.108  12.980 -0.5725  0.4494 -1.3578
    2MPD2     C14300   3.177   4.634  13.189 -0.4307 -1.0213  0.2569
    2MPD2    C114301   3.071   4.704  13.238 -0.3604  0.3638 -0.0895
    2MPD2    C214302   3.100   0.066  13.340 -0.2579  0.5090  0.2219
    2MPD2    C314303   3.216   0.059  13.417  0.2623 -0.4440  1.2184
    2MPD2    C414304   3.318   4.705  13.375 -0.4137  0.4188  1.2906
    2MPD2    C514305   3.292   4.636  13.266  0.4280 -0.4728  0.1685
    2MPD2     H14306   3.030   0.143  13.367  1.6949  1.9069  1.2737
    2MPD2    H114307   3.409   4.682  13.429  1.3197  1.6422 -1.1456
    2MPD2    H214308   3.164   4.572  13.102  2.1457  0.5321 -1.2387
    2MPD2    H314309   3.372   4.575  13.228 -0.6762  0.3222 -3.3810
    2MPD2     N14310   3.237   0.149  13.528 -0.8214  0.2288 -0.3455
    2MPD2    H514311   3.162   0.218  13.539  0.1545  1.7485 -3.0264
    2MPD2    N114312   2.944   4.709  13.172  0.3840 -0.1790 -0.4028
    2MPD2    H714313   2.876   0.056  13.189  0.0479 -0.6340  0.2247
    3TCq1    O114314   3.001   0.492  13.727  0.2105 -0.1325 -0.1493
    3TCq1    C114315   3.061   0.464  13.843  0.0161  0.4228  0.7207
    3TCq1    O214316   3.029   0.514  13.949  0.1157  0.0570 -0.2628
    3TCq1    C214317   3.195   0.419  13.805 -0.4524  0.2146 -0.4379
    3TCq1    C314318   3.289   0.451  13.897 -0.1051  0.2201  0.6549
    3TCq1    C414319   3.411   0.382  13.876 -0.5268 -0.2608  0.0033
    3TCq1    C514320   3.425   0.285  13.786 -0.0999  0.3887  0.3944
    3TCq1    C614321   3.314   0.240  13.718  0.2709 -0.2724 -0.4847
    3TCq1    C714322   3.198   0.310  13.726 -0.1725  0.1769 -0.3149
    3TCq1    C814323   3.345   0.152  13.613  0.0119 -1.1644 -0.0765
    3TCq1    O414324   3.453   0.093  13.603 -0.2586 -0.1704  0.0203
    3TCq1    C914325   3.515   0.393  13.977  0.2887  0.1509 -0.9716
    3TCq1    O514326   3.506   0.491  14.062  0.2226 -0.2273  0.0129
    3TCq1    O614327   3.597   0.296  13.979  0.1404  0.1377 -0.4984
    3TCq1    H114328   3.054   0.488  13.645  1.5180 -0.2088  0.7110
    3TCq1    H214329   3.281   0.525  13.976 -0.8934 -0.0059  0.7818
    3TCq1    H314330   3.514   0.224  13.784 -0.7972 -0.5471 -1.5506
    3TCq1    H414331   3.116   0.288  13.659  0.2119 -1.7185 -0.1414
    1MPD2     C14332   2.384   1.534  14.939  0.4098 -0.3404 -0.3845
    1MPD2    C114333   2.259   1.477  14.952 -0.1131  0.4158  0.7112
    1MPD2    C214334   2.254   1.353  15.015 -0.6160 -0.0307  0.3030
    1MPD2    C314335   2.370   1.285  15.049 -0.0851  0.4301  0.4209
    1MPD2    C414336   2.501   1.342  15.026  0.0220 -0.0197 -0.2505
    1MPD2    C514337   2.502   1.472  14.974  0.0089  0.4456 -0.2911
    1MPD2     H14338   2.158   1.313  15.046  0.6978 -1.6872  2.1541
    1MPD2    H114339   2.591   1.284  15.041 -0.2548 -0.1403  0.9680
    1MPD2    H214340   2.399   1.634  14.900 -0.1471  1.0825  3.0256
    1MPD2    H314341   2.599   1.520  14.965 -1.4528  3.3182 -0.7561
    1MPD2     N14342   2.355   1.150  15.101 -0.0300  0.1992 -0.3607
    1MPD2    H514343   2.260   1.124  15.127 -0.6166  0.8956 -1.8305
    1MPD2    N114344   2.144   1.550  14.913 -0.0148  0.4259  0.5722
    1MPD2    H714345   2.146   1.635  14.858  2.9251  1.7292  2.7007
    2TMC3    C114346   1.903   1.579  14.883 -0.1524 -0.8669 -0.0629
    2TMC3    C214347   1.790   1.554  14.959 -0.3362  0.2166 -0.8430
    2TMC3    C314348   1.679   1.509  14.890 -0.1913 -0.0261 -0.0266
    2TMC3    C414349   1.899   1.589  14.748 -0.0389 -0.5589  0.0117
    2TMC3    C514350   1.790   1.545  14.686 -0.6235  0.2231 -0.1388
    2TMC3    C614351   1.678   1.502  14.754  0.3950  0.8383 -0.3486
    2TMC3     C14352   2.018   1.506  14.943  0.0465  0.1854  0.0527
    2TMC3     O14353   1.975   1.414  15.011  0.5597  0.3177 -0.3466
    2TMC3     H14354   1.790   1.554  15.068  0.0205 -0.3821 -0.8418
    2TMC3    H114355   1.997   1.602  14.704 -0.6486  0.8538 -0.9387
    2TMC3    H214356   1.592   1.465  14.698 -0.5503  2.3448  0.1118
    2TMC3    C714357   1.787   1.562  14.541 -0.4670  0.6031 -0.6441
    2TMC3    C814358   1.626   1.385  14.942  0.2392  0.3314  0.8191
    2TMC3    O114359   1.676   1.580  14.488 -0.2690  0.2073 -0.1929
    2TMC3    O214360   1.539   1.334  14.880 -0.1881 -0.1629  0.3910
    3TCq1    O114361   2.670   1.130  14.059  0.2173 -0.2501 -0.3104
    3TCq1    C114362   2.650   1.217  13.960  0.0664  1.0269  0.0688
    3TCq1    O214363   2.620   1.189  13.848 -0.2065 -0.2235  0.2967
    3TCq1    C214364   2.594   1.333  14.031 -0.0709  0.8877 -0.1716
    3TCq1    C314365   2.668   1.388  14.131  0.2240 -0.5244 -0.2530
    3TCq1    C414366   2.614   1.499  14.196 -0.6144  0.1324 -0.0433
    3TCq1    C514367   2.510   1.563  14.138 -0.4764 -0.0115  1.1672
    3TCq1    C614368   2.445   1.508  14.029  0.3655 -0.4702 -0.0130
    3TCq1    C714369   2.483   1.388  13.975  0.2101 -0.1052 -0.0004
    3TCq1    C814370   2.303   1.531  14.027 -0.2184  0.0409  0.0006
    3TCq1    O414371   2.239   1.491  13.931 -0.5896  0.3004  0.0508
    3TCq1    C914372   2.671   1.556  14.320 -0.2548  1.0749  0.5283
    3TCq1    O514373   2.624   1.662  14.361 -0.1215  0.7737 -0.3328
    3TCq1    O614374   2.763   1.485  14.366 -0.2157  0.1176  0.2643
    3TCq1    H114375   2.662   1.170  14.148 -1.2946 -0.5201 -0.3215
    3TCq1    H214376   2.749   1.336  14.180  0.7695 -0.3839 -1.0141
    3TCq1    H314377   2.470   1.647  14.192 -0.0214  0.8496  0.1616
    3TCq1    H414378   2.432   1.351  13.887  1.2181  1.8412 -1.3997
    4MPD2     C14379   2.025   1.601  14.097 -0.3955 -0.6107 -0.2556
    4MPD2    C114380   2.121   1.568  14.189 -0.6943 -0.8897 -0.4971
    4MPD2    C214381   2.078   1.553  14.317  0.1586 -0.3277 -0.8514
    4MPD2    C314382   1.943   1.569  14.350 -1.1837 -0.4353  0.0140
    4MPD2    C414383   1.850   1.594  14.251 -0.0786 -0.0914 -0.1132
    4MPD2    C514384   1.894   1.618  14.126 -0.2397 -0.1252  0.5595
    4MPD2     H14385   2.156   1.525  14.387 -1.7948  0.6618  1.7228
    4MPD2    H114386   1.744   1.588  14.270 -0.2417 -0.8807 -1.3308
    4MPD2    H214387   2.056   1.613  13.993  0.0806  1.1246  0.0922
    4MPD2    H314388   1.826   1.650  14.048 -0.1793  1.5754  1.2017
    4MPD2     N14389   1.911   1.531  14.483 -0.6841 -0.2214  0.0480
    4MPD2    H514390   1.987   1.505  14.546 -0.7078  1.7571  0.8940
    4MPD2    N114391   2.256   1.546  14.157 -0.7994  0.3817  0.7285
    4MPD2    H714392   2.313   1.540  14.240  0.0967 -1.3952 -0.0084
    5TMC2    C114393   2.155   0.864  15.171 -0.3229  0.4822  0.0181
    5TMC2    C214394   2.168   0.808  15.299 -0.8126  0.4292  0.5240
    5TMC2    C314395   2.284   0.821  15.364 -0.1122 -0.0613 -0.6517
    5TMC2    C414396   2.269   0.909  15.117 -0.2721 -0.4629 -0.0995
    5TMC2    C514397   2.384   0.940  15.186 -0.4372 -0.1112  0.3267
    5TMC2    C614398   2.397   0.888  15.309 -0.4724  0.0703  0.2373
    5TMC2     C14399   2.050   0.963  15.154  0.2896  0.3210 -0.2893
    5TMC2     O14400   2.095   1.072  15.118 -0.2722  0.1489 -0.0199
    5TMC2     H14401   2.077   0.788  15.354 -0.4626  3.7550  2.3069
    5TMC2    H114402   2.266   0.937  15.013 -0.6579 -1.0108 -0.2302
    5TMC2    H214403   2.493   0.898  15.358 -1.3848  0.8067  1.8869
    5TMC2    C714404   2.453   1.065  15.147  0.1621 -0.3055 -0.0600
    5TMC2    C814405   2.324   0.737  15.480 -0.6291 -0.5571 -0.0617
    5TMC2    O114406   2.576   1.080  15.155  0.5768  0.4653  0.3506
    5TMC2    O214407   2.433   0.750  15.537 -0.3237  0.0346  0.1811
    5TMC2    O514408   2.233   0.640  15.510  0.1525 -0.4965 -0.1094
    5TMC2    H514409   2.171   0.622  15.436 -0.5354  1.9049 -0.1198
    6MPD2     C14410   1.571   1.133  15.089 -0.4597 -0.7026  0.3349
    6MPD2    C114411   1.689   1.203  15.084 -0.2772 -0.1542  0.4234
    6MPD2    C214412   1.807   1.130  15.117 -0.4990 -0.4484  0.5553
    6MPD2    C314413   1.802   0.994  15.138 -0.0004 -0.2402  0.2356
    6MPD2    C414414   1.680   0.937  15.163  0.9370  0.0290 -0.1267
    6MPD2    C514415   1.567   0.997  15.114  0.1339 -0.3080 -0.5860
    6MPD2     H14416   1.902   1.175  15.091 -0.7750 -1.2018 -1.7942
    6MPD2    H114417   1.676   0.829  15.177 -2.1868 -0.1084 -2.2335
    6MPD2    H214418   1.477   1.176  15.056  0.5423  0.3729 -1.1249
    6MPD2    H314419   1.474   0.942  15.110 -0.0158 -0.0453 -0.7009
    6MPD2     N14420   1.919   0.917  15.167 -0.0288  0.1853  0.4294
    6MPD2    H514421   1.915   0.816  15.177 -0.4222  0.2296  0.6883
    6MPD2    N114422   1.707   1.329  15.038  0.6907  0.2397  0.0536
    6MPD2    H714423   1.802   1.362  15.049  0.6384  1.7366 -4.2304
  945NH4     N114424   1.909   4.399   2.925 -0.3835  0.7534 -0.6255
  945NH4     H214425   1.860   4.333   2.860 -2.1457 -0.1750  1.6568
  945NH4     H314426   1.836   4.470   2.945 -0.5038 -0.2268  2.4443
  945NH4     H414427   1.991   4.437   2.873  0.2565  1.5515  0.9811
  945NH4     H514428   1.936   4.351   3.013 -2.6537 -1.2542 -1.0047
  946SOD     NA14429   3.384   2.231   1.794  0.1047  0.0892  0.1685
  947SOD     NA14430   4.260   3.974  14.281  0.1459  0.7529 -0.0420
  948SOD     NA14431   0.815   4.214   0.482  0.0662  0.2673 -0.0607
  949SOD     NA14432   3.928   3.714  16.932 -0.0014 -0.1103 -0.2308
  950SOD     NA14433   1.248   2.654   9.867  0.3053  0.5878 -0.0041
  951SOD     NA14434   2.135   0.526   1.269 -0.3844 -0.0963 -0.1411
  952SOD     NA14435   1.747   3.665   8.031  0.0026  0.2919  0.1353
  953SOD     NA14436   0.705   0.205   7.222  0.2756  0.4379 -0.3098
  954SOD     NA14437   1.414   0.827   3.059 -0.0167  0.0032  0.0030
  955SOD     NA14438   4.265   0.504   1.126  0.2444  0.4253 -0.2364
  956SOD     NA14439   0.961   3.058  14.566 -0.4073  0.2471  0.1845
  957SOD     NA14440   1.437   2.823  10.504  0.0820  0.3156  0.2021
  958SOD     NA14441   0.440   2.148  16.155  0.0594 -0.7035  0.1056
  959SOD     NA14442   3.951   2.444  12.640 -0.0026 -0.3031 -0.0737
  960SOD     NA14443   3.863   0.750  15.509 -0.5897  0.1457 -0.2268
  961SOD     NA14444   1.968   2.033   6.032 -0.3201  0.3167  0.3885
  962SOD     NA14445   4.346   4.324  12.147  0.4683 -0.1432 -0.3210
  963SOD     NA14446   0.287   4.556  17.564 -0.1303  0.4878 -0.7007
  964SOD     NA14447   3.240   3.806  12.638 -0.1993 -0.4018  0.1372
  965SOD     NA14448   1.680   0.208  10.659  0.4670  0.4788  0.5070
  966SOD     NA14449   4.099   2.878   9.178 -0.3365  0.3083  0.3606
  967SOD     NA14450   4.704   3.461  11.223 -0.4886  0.5880  0.1188
  968SOD     NA14451   2.122   0.706   9.991  0.0984 -0.2936 -0.5150
  969SOD     NA14452   1.860   1.067  11.165  0.6837 -0.1965 -0.4251
  970SOD     NA14453   2.873   0.374  12.031 -0.1011  0.1112 -0.3792
  971SOD     NA14454   0.471   3.523   1.715 -0.0146  0.1175 -0.1628
  972SOD     NA14455   4.142   0.344  14.441  0.0083  0.2508 -0.6357
  973SOD     NA14456   1.583   2.354   5.883 -0.2198  0.3044 -0.2215
  974SOD     NA14457   2.733   0.850   2.557  0.2198  0.0928  0.3241
  975SOD     NA14458   2.471   3.013  11.028  0.3602  0.0974  0.0888
  976SOD     NA14459   2.180   4.391  13.014  0.0515  0.1489 -0.0538
  977SOD     NA14460   3.761   4.645  13.882  0.7775 -0.2009 -0.1513
  978SOD     NA14461   4.141   0.048  11.837 -0.2385  0.5283 -0.0040
  979SOD     NA14462   1.280   2.713  10.245  0.5926 -0.4818  0.6451
  980SOD     NA14463   4.678   0.804  16.145 -0.3139  0.3068  0.4702
  981SOD     NA14464   3.810   0.195   3.940 -0.1158 -0.3645 -0.3784
  982SOD     NA14465   1.446   1.326  11.028  0.4881 -0.0583  0.1170
  983SOD     NA14466   3.972   4.099   0.632  0.1319  0.2374 -0.3442
  984SOD     NA14467   0.087   0.707  14.933 -0.1121  0.0002 -0.3033
  985SOD     NA14468   0.397   2.945   1.092 -0.1892  0.3289 -0.4191
  986SOD     NA14469   2.484   4.099  14.950  0.0290  0.3270  0.0226
  987SOD     NA14470   3.965   2.987  14.532  0.1698  0.2371  0.0720
  988SOD     NA14471   2.858   2.455   0.651 -0.0265  0.4934 -0.4095
  989SOD     NA14472   4.137   4.284   0.893  0.0553  0.1287  0.3146
  990SOD     NA14473   1.566   1.052  10.973  0.1545  0.2869 -0.3909
  991SOD     NA14474   2.778   3.667  10.452  0.2453  0.5998 -0.4735
  992SOD     NA14475   0.839   3.879  13.175 -0.7404 -0.0763 -0.0275
  993SOD     NA14476   3.991   4.440  13.999  0.5017 -0.0047  0.2748
  994SOD     NA14477   2.020   2.327  15.713  0.1307 -0.3686 -0.2516
  995SOD     NA14478   1.281   1.220   1.245 -0.3471 -0.7212  0.3245
  996SOD     NA14479   2.160   4.726  13.042 -0.1306 -0.0132  0.2509
  997SOD     NA14480   1.942   3.932  10.816  0.0559  0.5102  0.1370
  998SOD     NA14481   2.765   0.023  11.750  0.1422  0.1409 -0.2159
  999SOD     NA14482   2.366   3.169  11.321  0.1651  0.2116  0.4491
 1000SOD     NA14483   4.578   3.789  13.268 -0.1960  0.4485 -0.1912
 1001SOD     NA14484   2.741   1.297  14.478  0.1334 -0.1036  0.5795
 1002SOD     NA14485   0.195   1.031  14.957  0.2170 -0.1146 -0.0454
 1003SOD     NA14486   2.765   0.264  11.545 -0.1511  0.0783  0.0574
 1004SOD     NA14487   2.926   3.354   5.625 -0.5549  0.2303 -0.3511
 1005SOD     NA14488   2.757   1.046  15.271 -0.1995  0.0914 -0.0399
 1006SOD     NA14489   1.488   1.260  13.654 -0.1162 -0.1789 -0.3652
 1007SOD     NA14490   4.020   4.158   4.710  0.0518 -0.0945 -0.0350
 1008SOD     NA14491   1.461   2.801   9.686 -0.7320 -0.0723 -0.0449
 1009SOD     NA14492   4.092   0.898  10.812  0.1232  0.0892  0.6300
 1010SOD     NA14493   0.749   1.565   3.005  0.1293 -0.2580  0.0177
 1011SOL     OW14494   1.910   1.956   4.399 -0.3146  0.2234 -0.3268
 1011SOL    HW114495   1.939   1.977   4.487  0.8520 -0.5713 -0.5146
 1011SOL    HW214496   1.961   1.875   4.389 -0.6640 -0.1115  0.6724
 1012SOL     OW14497   0.687   0.056   6.720 -0.4396 -0.1016  0.1421
 1012SOL    HW114498   0.729   0.002   6.788  0.3415  1.0248  0.5491
 1012SOL    HW214499   0.735   0.136   6.741  0.8009 -0.9827  0.7000
 1013SOL     OW14500   3.787   2.949   8.285 -0.2194 -0.3349  0.1998
 1013SOL    HW114501   3.843   2.872   8.273  0.6355  0.6548 -2.1663
 1013SOL    HW214502   3.705   2.901   8.277  0.1692 -0.5046 -2.6420
 1014SOL     OW14503   0.243   3.442   5.073 -0.3609  0.2518  0.2162
 1014SOL    HW114504   0.186   3.427   5.148 -1.3818  0.6003 -0.4950
 1014SOL    HW214505   0.185   3.494   5.018  1.0608  1.4922 -0.1064
 1015SOL     OW14506   0.012   0.324   3.090  0.1056  0.2770  0.3099
 1015SOL    HW114507   0.093   0.300   3.135 -0.7171 -1.7329  0.7141
 1015SOL    HW214508   4.723   0.413   3.122  0.2928  1.0878 -1.8778
 1016SOL     OW14509   3.065   3.078  12.964 -0.1814  0.0744 -0.7849
 1016SOL    HW114510   3.084   2.989  12.933  1.3649 -0.4332  1.5985
 1016SOL    HW214511   2.984   3.057  13.010  0.1329  0.7685  0.0748
 1017SOL     OW14512   0.913   2.495  12.247 -0.2776  0.1144 -0.0787
 1017SOL    HW114513   0.917   2.449  12.331 -0.2386  0.6204  0.2001
 1017SOL    HW214514   0.828   2.540  12.250 -0.7933 -0.9188  0.9143
 1018SOL     OW14515   3.264   1.453  11.695  0.3678 -0.2037  0.1750
 1018SOL    HW114516   3.257   1.405  11.778  1.5253 -2.1439 -0.8347
 1018SOL    HW214517   3.358   1.474  11.689  0.8597 -1.7521  2.2785
 1019SOL     OW14518   4.636   2.270  12.898  0.3809 -0.2176 -0.3899
 1019SOL    HW114519   4.546   2.285  12.872  1.0393  1.1672 -1.9039
 1019SOL    HW214520   4.684   2.285  12.816 -2.1670 -0.7729 -1.9592
 1020SOL     OW14521   2.584   1.334  16.234 -0.2532 -0.6669 -0.1376
 1020SOL    HW114522   2.650   1.311  16.169 -2.4754 -0.2172 -2.5542
 1020SOL    HW214523   2.623   1.318  16.319  1.5401 -2.9985 -1.3938
 1021SOL     OW14524   1.637   0.141   2.437 -0.1884  0.3836  0.2041
 1021SOL    HW114525   1.593   0.059   2.416 -0.2186  0.0926  1.4187
 1021SOL    HW214526   1.723   0.112   2.468 -0.8599 -1.4371  0.3378
 1022SOL     OW14527   3.814   0.930   3.278  0.4533 -0.9679 -0.0768
 1022SOL    HW114528   3.839   1.017   3.310 -1.3479 -1.0308  1.4702
 1022SOL    HW214529   3.761   0.951   3.200  0.4247  2.1649  0.8014
 1023SOL     OW14530   4.554   0.989  16.064  0.4904  0.3864 -0.2412
 1023SOL    HW114531   4.499   1.051  16.111  1.5454 -0.1106  1.6446
 1023SOL    HW214532   4.507   0.967  15.984  0.9861 -1.1595 -0.1113
 1024SOL     OW14533   1.388   3.298   4.868  0.3654  0.0836 -0.1809
 1024SOL    HW114534   1.350   3.211   4.873 -1.1430  0.7788  0.6451
 1024SOL    HW214535   1.433   3.300   4.784  0.4521 -3.7139 -0.2267
 1025SOL     OW14536   1.463   4.310   5.565 -0.2816 -0.2268 -0.5437
 1025SOL    HW114537   1.486   4.224   5.600 -0.6931 -1.6171 -3.6871
 1025SOL    HW214538   1.552   4.327   5.533  0.4918  0.1855  1.8607
 1026SOL     OW14539   3.528   3.956   3.266  0.4282 -0.5685  0.4170
 1026SOL    HW114540   3.592   3.976   3.197 -1.4435 -0.3863 -1.2679
 1026SOL    HW214541   3.498   3.866   3.250 -2.5704  0.3379  1.0554
 1027SOL     OW14542   4.555   2.290  14.060  0.0865  0.1449 -0.1022
 1027SOL    HW114543   4.481   2.231  14.050 -0.3750  0.2374  2.5822
 1027SOL    HW214544   4.562   2.288  14.156 -1.0738 -0.6626 -0.0373
 1028SOL     OW14545   2.732   3.392  11.545 -0.8372 -0.3743  0.0433
 1028SOL    HW114546   2.826   3.376  11.553 -0.6192  0.2462 -1.3417
 1028SOL    HW214547   2.735   3.488  11.545  0.2190 -0.4020  1.3348
 1029SOL     OW14548   1.954   2.718   4.219  0.5984  0.0970  0.4609
 1029SOL    HW114549   1.871   2.761   4.196  0.6280 -1.0952 -1.7896
 1029SOL    HW214550   1.966   2.648   4.155  0.9933  0.1750  0.4504
 1030SOL     OW14551   4.155   4.711   3.001 -0.0621 -0.5092 -0.3079
 1030SOL    HW114552   4.236   0.034   2.995 -1.1031  1.1109 -0.7498
 1030SOL    HW214553   4.118   4.723   2.913  1.8359 -0.7940 -1.1355
 1031SOL     OW14554   3.521   3.214   4.115  0.5829 -0.8072  0.3601
 1031SOL    HW114555   3.434   3.191   4.146 -0.1108  1.5301  0.1585
 1031SOL    HW214556   3.557   3.126   4.128  1.2322 -0.6598 -0.4350
 1032SOL     OW14557   3.597   3.712  15.209 -0.3866 -0.0385  0.1650
 1032SOL    HW114558   3.558   3.747  15.129  1.8633 -1.3405 -1.5256
 1032SOL    HW214559   3.597   3.621  15.179 -1.9563 -0.8943  2.7906
 1033SOL     OW14560   3.188   0.535   1.788 -0.4608 -0.0151  1.2347
 1033SOL    HW114561   3.129   0.560   1.718  1.2613  1.4746  0.3155
 1033SOL    HW214562   3.231   0.463   1.741  0.5734  0.2095  1.8292
 1034SOL     OW14563   1.460   1.543   8.350 -0.0927  0.4945 -0.2696
 1034SOL    HW114564   1.397   1.600   8.306 -0.7900 -1.6935 -2.1124
 1034SOL    HW214565   1.405   1.467   8.366 -0.4619  0.4276 -1.8349
 1035SOL     OW14566   1.271   2.312   1.930 -0.0213 -0.1109  0.1746
 1035SOL    HW114567   1.226   2.255   1.867 -0.9817 -1.9904  2.5817
 1035SOL    HW214568   1.232   2.399   1.923  2.3487  0.9637  0.2877
 1036SOL     OW14569   0.506   2.118   8.208  0.1311 -0.3516 -0.6518
 1036SOL    HW114570   0.446   2.193   8.203 -0.4656 -0.5868  2.4398
 1036SOL    HW214571   0.587   2.164   8.187 -0.7515  0.9756 -1.1111
 1037SOL     OW14572   3.033   4.220  13.045  0.4518  0.5040  0.1639
 1037SOL    HW114573   3.038   4.193  12.953 -0.3102  0.0846  0.2410
 1037SOL    HW214574   3.003   4.311  13.044  1.9918  0.9919 -2.8497
 1038SOL     OW14575   2.382   1.925   5.158 -0.0158 -0.1401  0.5970
 1038SOL    HW114576   2.343   1.893   5.239  1.8384 -2.3507  0.6437
 1038SOL    HW214577   2.449   1.978   5.201 -0.6969  1.3687 -0.2028
 1039SOL     OW14578   3.064   3.298   4.224 -0.4615 -0.4400 -0.5381
 1039SOL    HW114579   3.040   3.347   4.302 -0.4790  0.0032 -0.8236
 1039SOL    HW214580   2.996   3.231   4.222 -0.2275 -0.6361 -1.8485
 1040SOL     OW14581   4.373   0.275   3.796  0.1641 -0.0042  0.0142
 1040SOL    HW114582   4.450   0.230   3.832  0.8137  3.0200  2.3177
 1040SOL    HW214583   4.320   0.198   3.775  0.5584 -0.2686 -0.0270
 1041SOL     OW14584   4.648   1.296  12.213  0.4695 -0.3081  0.1431
 1041SOL    HW114585   4.614   1.326  12.298 -0.9175 -1.4991  0.0102
 1041SOL    HW214586   4.677   1.379  12.176 -2.1361 -1.3318 -4.2406
 1042SOL     OW14587   4.032   1.119   7.226 -0.0087  0.1375  0.0521
 1042SOL    HW114588   3.964   1.054   7.212  1.3399 -1.1675 -0.4557
 1042SOL    HW214589   3.975   1.184   7.267  0.2610  0.1345  0.4368
 1043SOL     OW14590   3.016   3.608  17.572 -0.4301  0.1701  0.0358
 1043SOL    HW114591   3.090   3.626  17.515 -0.4954  2.6083  0.6877
 1043SOL    HW214592   2.960   3.684  17.555 -0.6808 -0.0794 -0.2426
 1044SOL     OW14593   1.620   4.417  10.266  0.5806 -0.1894 -0.5880
 1044SOL    HW114594   1.598   4.494  10.318  0.2625 -2.2528  2.3060
 1044SOL    HW214595   1.695   4.446  10.213  1.2800 -3.2358 -1.2379
 1045SOL     OW14596   2.703   0.428   7.843 -0.2587  0.0846 -0.5557
 1045SOL    HW114597   2.631   0.390   7.892  0.1955  0.4275  0.3723
 1045SOL    HW214598   2.694   0.523   7.854  0.1829  0.0740 -0.0992
 1046SOL     OW14599   2.432   0.537   0.783 -0.3697  0.4374  0.4682
 1046SOL    HW114600   2.501   0.481   0.748  0.1934  0.4950  1.5019
 1046SOL    HW214601   2.352   0.523   0.730 -0.3346  4.0166 -0.5311
 1047SOL     OW14602   1.003   2.875   8.679  0.0874  0.0522  0.3351
 1047SOL    HW114603   1.093   2.904   8.694  0.2454 -0.0165 -0.5073
 1047SOL    HW214604   0.966   2.887   8.767 -0.7282 -1.3041  0.1625
 1048SOL     OW14605   4.604   1.759   6.776  0.3289  0.5483  0.1845
 1048SOL    HW114606   4.534   1.750   6.711 -0.9933  0.7416  1.5724
 1048SOL    HW214607   4.638   1.670   6.783 -1.7175 -0.1072  1.9500
 1049SOL     OW14608   1.677   4.507   3.645  0.3330  0.0712 -0.0615
 1049SOL    HW114609   1.597   4.463   3.674  0.7731  0.1828  1.3437
 1049SOL    HW214610   1.666   4.600   3.664 -3.5370 -0.6498  1.1461
 1050SOL     OW14611   2.795   2.120  16.578  0.0273 -0.1876  0.0048
 1050SOL    HW114612   2.749   2.067  16.513 -0.0950 -0.2309  0.1266
 1050SOL    HW214613   2.763   2.204  16.547  1.0141 -0.7416 -2.4685
 1051SOL     OW14614   1.139   3.174   2.055 -0.2822  0.2020  0.4556
 1051SOL    HW114615   1.165   3.225   1.978  2.1303 -3.9778 -1.5459
 1051SOL    HW214616   1.096   3.100   2.011 -1.3482  1.4155 -0.5144
 1052SOL     OW14617   2.158   0.513   6.518  0.4547 -0.4967 -0.3641
 1052SOL    HW114618   2.214   0.440   6.490 -0.7653 -0.5734 -2.5694
 1052SOL    HW214619   2.084   0.488   6.462 -0.1785 -1.1383  0.7675
 1053SOL     OW14620   4.135   2.551   5.571 -0.8309 -0.1032 -0.3837
 1053SOL    HW114621   4.083   2.631   5.567 -0.4436  0.2412  1.3660
 1053SOL    HW214622   4.139   2.538   5.666 -0.1886 -1.9751 -0.6628
 1054SOL     OW14623   3.912   0.979  11.174  0.1667 -0.0186  0.4847
 1054SOL    HW114624   3.922   0.884  11.186 -1.5242 -0.1433  0.8928
 1054SOL    HW214625   3.819   0.993  11.193 -0.4457 -1.3744 -1.4738
 1055SOL     OW14626   0.860   0.360   9.314 -0.6027  0.4522 -0.3017
 1055SOL    HW114627   0.884   0.450   9.336 -0.6820  0.2497  0.6465
 1055SOL    HW214628   0.869   0.365   9.219 -0.7516 -3.0349 -0.4965
 1056SOL     OW14629   1.000   4.700  16.797  0.0484 -0.0396  0.7458
 1056SOL    HW114630   1.093   4.698  16.776  0.0145 -0.7032  0.6675
 1056SOL    HW214631   1.000   4.700  16.893  0.6083  2.0151  0.7548
 1057SOL     OW14632   3.031   4.599  16.434  0.6537  0.4782  0.1237
 1057SOL    HW114633   3.113   4.608  16.484  0.6417  2.0092 -0.1286
 1057SOL    HW214634   2.972   4.556  16.496  3.4302 -3.1419  0.2579
 1058SOL     OW14635   4.400   2.670   4.331  0.1603 -0.6351 -0.3399
 1058SOL    HW114636   4.430   2.755   4.299  1.5912 -1.6087 -1.6128
 1058SOL    HW214637   4.447   2.670   4.415  2.7620  0.9643 -1.7908
 1059SOL     OW14638   2.486   3.419  13.944  0.1811 -0.5989 -0.5103
 1059SOL    HW114639   2.463   3.379  14.027  2.1634  0.7345  0.6879
 1059SOL    HW214640   2.466   3.344  13.888 -3.4758  0.3205 -0.4181
 1060SOL     OW14641   0.823   2.920   7.123 -0.2706  0.1621 -0.3603
 1060SOL    HW114642   0.913   2.915   7.092  0.0604  0.3622  0.5649
 1060SOL    HW214643   0.785   2.862   7.058  2.0650 -0.9273 -0.7608
 1061SOL     OW14644   1.911   4.354   8.706  0.4339  0.1572  0.4285
 1061SOL    HW114645   1.866   4.271   8.723  2.3342 -0.7667  0.8939
 1061SOL    HW214646   2.004   4.337   8.696  1.0855  2.4784  2.4624
 1062SOL     OW14647   0.209   4.220   9.001  0.5750 -0.5278  0.0398
 1062SOL    HW114648   0.116   4.206   8.982  0.3933 -0.6942  1.0595
 1062SOL    HW214649   0.240   4.130   9.017  0.9759 -0.7691 -2.0101
 1063SOL     OW14650   3.070   0.147   4.989 -0.3434  0.3670  0.2558
 1063SOL    HW114651   3.131   0.183   5.054 -1.0657  0.3830  0.9234
 1063SOL    HW214652   3.118   0.071   4.956  1.7073  2.4706 -1.5421
 1064SOL     OW14653   3.313   0.758   6.739 -0.1323  0.5005 -0.2773
 1064SOL    HW114654   3.392   0.785   6.691  1.1084 -0.9485  0.9569
 1064SOL    HW214655   3.283   0.841   6.776 -2.0589  0.1036 -0.9573
 1065SOL     OW14656   1.241   4.334  15.308 -0.2826 -0.0147 -0.4367
 1065SOL    HW114657   1.189   4.287  15.373 -0.3608 -0.0632 -0.5345
 1065SOL    HW214658   1.173   4.378  15.259 -0.7682 -1.0498 -0.6892
 1066SOL     OW14659   4.681   4.158   6.515 -0.0714 -0.4265 -0.4887
 1066SOL    HW114660   4.703   4.220   6.446  2.7944 -0.4686  0.3402
 1066SOL    HW214661   4.587   4.147   6.505 -0.2767  1.5487 -0.8448
 1067SOL     OW14662   3.462   3.738   4.243  0.0043 -0.1350  0.2827
 1067SOL    HW114663   3.381   3.717   4.288 -0.1128 -0.1905  0.0433
 1067SOL    HW214664   3.437   3.807   4.181  1.2262  2.1069  2.2707
 1068SOL     OW14665   2.316   0.623   8.831  0.2539 -0.0415  0.5934
 1068SOL    HW114666   2.345   0.573   8.907  1.9388 -0.2763 -0.2202
 1068SOL    HW214667   2.284   0.546   8.783 -1.0594  0.2554  0.9851
 1069SOL     OW14668   2.201   4.100   6.681 -0.5450 -0.6481 -0.1903
 1069SOL    HW114669   2.176   4.184   6.643 -1.4010 -0.3385  1.0648
 1069SOL    HW214670   2.154   4.108   6.763 -0.0052  0.5057 -0.0010
 1070SOL     OW14671   2.822   3.766  14.158 -0.2380  0.6822 -0.3976
 1070SOL    HW114672   2.829   3.678  14.194  1.8000  0.0568 -2.3398
 1070SOL    HW214673   2.838   3.766  14.064 -2.2126  1.3256 -0.7452
 1071SOL     OW14674   0.974   2.122   7.601 -0.1052 -0.1823 -0.0183
 1071SOL    HW114675   0.940   2.058   7.538  2.8342  0.7956 -2.6406
 1071SOL    HW214676   0.957   2.196   7.543  3.4058  1.3228  0.9056
 1072SOL     OW14677   3.599   2.854  16.562  0.1674 -0.3227 -0.1975
 1072SOL    HW114678   3.624   2.812  16.644  1.7363  0.5342 -0.2317
 1072SOL    HW214679   3.663   2.924  16.572 -0.1079 -0.1263  0.1936
 1073SOL     OW14680   1.018   1.239   5.308 -0.3627 -0.1274  0.3913
 1073SOL    HW114681   0.924   1.224   5.317 -0.4356  0.3482  0.4187
 1073SOL    HW214682   1.047   1.275   5.392 -0.1078  0.3773  0.0840
 1074SOL     OW14683   0.525   2.804   4.355 -0.0255  0.6594 -0.1736
 1074SOL    HW114684   0.603   2.830   4.305  0.0424  0.8045  0.0091
 1074SOL    HW214685   0.499   2.731   4.298 -0.7925  0.2018  0.7812
 1075SOL     OW14686   3.684   3.456   3.880  0.0186 -0.2543  0.0088
 1075SOL    HW114687   3.709   3.504   3.959  2.5649 -0.1275 -0.8746
 1075SOL    HW214688   3.720   3.516   3.815  0.6038  3.8930  4.1534
 1076SOL     OW14689   4.531   2.460   4.992  0.1925  0.2630 -0.0430
 1076SOL    HW114690   4.611   2.503   5.023 -0.4530  0.4412  1.3572
 1076SOL    HW214691   4.470   2.466   5.065  0.4404  2.6912 -0.0229
 1077SOL     OW14692   2.304   0.963   6.363 -0.2275  0.1192 -0.1933
 1077SOL    HW114693   2.351   0.950   6.280 -1.0480  3.1823 -1.1516
 1077SOL    HW214694   2.316   0.874   6.397 -0.5177  0.8922  1.8572
 1078SOL     OW14695   2.519   4.319  15.019  0.0926  0.4122 -0.8307
 1078SOL    HW114696   2.587   4.369  15.065 -1.8244 -0.6375  3.1166
 1078SOL    HW214697   2.451   4.386  15.018 -1.3038 -0.9253  2.7242
 1079SOL     OW14698   1.841   0.755  11.085  0.5006 -0.0240  0.2453
 1079SOL    HW114699   1.850   0.715  11.171 -1.0729 -1.1789 -0.1269
 1079SOL    HW214700   1.773   0.819  11.107  0.8508  0.7301 -0.8519
 1080SOL     OW14701   3.020   0.179   6.895 -0.0584 -0.2062 -0.3492
 1080SOL    HW114702   3.109   0.213   6.887 -0.2127  0.5204  0.9378
 1080SOL    HW214703   2.973   0.259   6.920  0.9056  0.9802 -2.2877
 1081SOL     OW14704   0.116   0.820  12.701  0.0081 -0.1218 -0.3684
 1081SOL    HW114705   0.125   0.893  12.640  1.0217  0.0847  0.0354
 1081SOL    HW214706   0.199   0.774  12.689 -0.3369  0.0878 -3.3884
 1082SOL     OW14707   0.066   2.090  13.042 -0.4523  0.2184 -0.5151
 1082SOL    HW114708   0.091   2.034  12.968  0.0695  0.1159 -0.2656
 1082SOL    HW214709   4.720   2.140  13.006  0.3099  0.1936 -2.0811
 1083SOL     OW14710   1.271   4.672   3.822 -0.7166 -0.2680 -0.3504
 1083SOL    HW114711   1.301   0.028   3.859 -1.3875 -0.5882  0.9238
 1083SOL    HW214712   1.239   4.626   3.900 -2.3393  0.4956 -0.5591
 1084SOL     OW14713   3.443   3.316   7.481  0.6935  0.5621  0.1877
 1084SOL    HW114714   3.477   3.258   7.549 -1.5857  0.3670  1.1809
 1084SOL    HW214715   3.508   3.385   7.477  0.0800  1.1135 -0.2857
 1085SOL     OW14716   0.884   1.667   3.432  0.1937  0.5367  0.0730
 1085SOL    HW114717   0.790   1.684   3.436  0.1136 -0.2815  1.5712
 1085SOL    HW214718   0.900   1.603   3.501  1.7002  0.2739 -0.5228
 1086SOL     OW14719   0.239   4.051   0.905 -0.3942  0.4818 -0.0076
 1086SOL    HW114720   0.226   4.112   0.978  0.6399 -1.5114  1.8461
 1086SOL    HW214721   0.317   4.006   0.939 -0.3040  0.4042 -0.3172
 1087SOL     OW14722   0.479   2.646   7.861 -0.0538 -0.2413 -1.1580
 1087SOL    HW114723   0.386   2.639   7.842  0.1987  1.2359 -3.0046
 1087SOL    HW214724   0.470   2.733   7.900 -1.5960 -0.7066 -0.5104
 1088SOL     OW14725   4.076   3.182   1.237  0.0278 -0.5236  0.8232
 1088SOL    HW114726   4.153   3.237   1.219 -1.9223  1.4831 -1.3618
 1088SOL    HW214727   4.120   3.115   1.289 -1.1291 -0.0326  2.4394
 1089SOL     OW14728   0.326   2.632   3.335  0.0673 -0.0415 -0.7232
 1089SOL    HW114729   0.307   2.708   3.390  1.1414  0.4975 -1.0927
 1089SOL    HW214730   0.285   2.648   3.250 -2.9702 -0.0010  0.7490
 1090SOL     OW14731   2.480   2.947   0.946  0.5642  0.2997  0.1813
 1090SOL    HW114732   2.463   2.987   1.031  1.3178  0.2267  0.3648
 1090SOL    HW214733   2.405   2.954   0.888 -0.5400 -0.5236  1.5098
 1091SOL     OW14734   3.811   2.667  13.302 -0.0112  0.3079 -0.6594
 1091SOL    HW114735   3.844   2.634  13.218 -1.2084  0.2607 -1.1048
 1091SOL    HW214736   3.886   2.653  13.360 -1.7383  1.7448  1.8943
 1092SOL     OW14737   1.491   2.305  13.136 -0.4217 -0.0821  0.0228
 1092SOL    HW114738   1.404   2.285  13.102 -2.2132 -0.1421  4.7228
 1092SOL    HW214739   1.521   2.222  13.174  1.4092  0.5597 -0.0223
 1093SOL     OW14740   4.365   0.541   5.935  0.0988 -0.4474 -0.2981
 1093SOL    HW114741   4.290   0.506   5.983  1.2129  0.7882  2.3613
 1093SOL    HW214742   4.337   0.628   5.906  0.9894  0.0262  0.2712
 1094SOL     OW14743   4.421   2.041   1.579  0.1292  0.3847 -0.0484
 1094SOL    HW114744   4.449   1.980   1.648  2.4149 -0.5235 -1.7719
 1094SOL    HW214745   4.496   2.027   1.522 -0.9726 -1.8754 -0.9558
 1095SOL     OW14746   4.634   2.060   6.976 -0.2254  0.0042  0.2102
 1095SOL    HW114747   4.644   2.145   7.020  0.5039  0.1953 -0.3181
 1095SOL    HW214748   4.540   2.057   6.960  0.0226  0.9387 -1.4941
 1096SOL     OW14749   2.757   2.834   5.265  0.3711 -0.0089 -0.3972
 1096SOL    HW114750   2.848   2.833   5.237 -0.4591  0.0303 -3.1137
 1096SOL    HW214751   2.730   2.742   5.264  0.3141  0.0107 -0.5575
 1097SOL     OW14752   2.019   1.653   2.388  0.3916  0.0917 -0.3109
 1097SOL    HW114753   2.036   1.747   2.393  0.7602 -0.0787  1.9155
 1097SOL    HW214754   2.098   1.614   2.427  1.2622  0.2853 -1.8928
 1098SOL     OW14755   2.505   4.477   6.120  0.1506 -0.0066  0.1118
 1098SOL    HW114756   2.478   4.567   6.139 -1.1610 -0.0459 -1.6546
 1098SOL    HW214757   2.459   4.452   6.040 -2.0654  0.5120  1.2421
 1099SOL     OW14758   3.423   0.621   2.502 -0.1733 -0.1254 -0.0730
 1099SOL    HW114759   3.462   0.643   2.586  0.2745 -1.4646  0.0757
 1099SOL    HW214760   3.363   0.693   2.480  0.9222  0.8291  0.0854
 1100SOL     OW14761   2.307   0.174   7.819 -0.3862 -0.3250 -0.1007
 1100SOL    HW114762   2.263   0.202   7.899  0.5348 -1.3147  0.7564
 1100SOL    HW214763   2.395   0.144   7.843 -0.6498  0.7563  2.1938
 1101SOL     OW14764   3.635   1.803   7.921 -0.1057 -0.1768 -0.2831
 1101SOL    HW114765   3.589   1.719   7.914  0.1434 -0.3268 -0.1193
 1101SOL    HW214766   3.634   1.815   8.015  0.7218  0.2313 -0.3296
 1102SOL     OW14767   0.225   1.319   8.821  0.1305  0.0555  0.7702
 1102SOL    HW114768   0.171   1.384   8.866 -0.5370  0.2261 -0.2446
 1102SOL    HW214769   0.303   1.319   8.875  0.6321 -2.6962  0.0609
 1103SOL     OW14770   4.044   2.954   2.974 -0.7761  0.5974 -0.0765
 1103SOL    HW114771   4.033   2.918   3.062  0.0000  0.6845  0.0625
 1103SOL    HW214772   4.133   2.922   2.955 -1.0116 -1.3819  2.1785
 1104SOL     OW14773   2.713   2.478   3.091 -0.2147  0.7883 -0.0370
 1104SOL    HW114774   2.755   2.555   3.053 -1.4589  1.1586 -0.6265
 1104SOL    HW214775   2.725   2.483   3.186 -2.8292  0.5677  0.2810
 1105SOL     OW14776   4.681   0.254   4.270  0.5761  0.5300  0.2614
 1105SOL    HW114777   4.690   0.328   4.210 -3.2187  0.7103 -0.0757
 1105SOL    HW214778   4.715   0.177   4.226  0.5083  0.3894  0.4544
 1106SOL     OW14779   3.472   1.226  16.168  0.3156  0.1911 -0.2467
 1106SOL    HW114780   3.397   1.248  16.113 -0.1453 -0.2109  0.2221
 1106SOL    HW214781   3.543   1.228  16.103  1.5562 -0.9475  1.0620
 1107SOL     OW14782   1.221   3.977  12.490 -0.3984  0.1665  0.4369
 1107SOL    HW114783   1.264   4.039  12.431  0.6883  1.6268  2.7690
 1107SOL    HW214784   1.201   3.900  12.437 -0.1578 -0.2058  0.8854
 1108SOL     OW14785   0.486   4.608  17.460  0.2353 -0.6722  0.2306
 1108SOL    HW114786   0.467   4.629  17.369  1.3476 -1.0677 -0.0988
 1108SOL    HW214787   0.582   4.604  17.468  0.5702  2.6833 -2.2999
 1109SOL     OW14788   1.198   2.762  12.005  0.0450  0.3426 -0.0285
 1109SOL    HW114789   1.260   2.796  11.940 -0.5373  0.8291 -0.3183
 1109SOL    HW214790   1.113   2.772  11.961 -1.4280 -2.5555  2.1524
 1110SOL     OW14791   3.568   0.990  15.928 -0.4889  0.0319  0.5153
 1110SOL    HW114792   3.631   1.038  15.980  0.4705 -2.0033  1.2386
 1110SOL    HW214793   3.613   0.985  15.843 -0.9995 -1.0010  0.2989
 1111SOL     OW14794   1.056   0.648  14.293  0.2189  0.0839 -0.3347
 1111SOL    HW114795   1.015   0.698  14.363  1.0725  0.7457 -0.3054
 1111SOL    HW214796   1.125   0.709  14.266  0.8359 -0.5878 -0.2939
 1112SOL     OW14797   0.185   0.481   6.246  0.6792 -0.2005 -0.3713
 1112SOL    HW114798   0.121   0.529   6.298 -0.2763 -1.8500 -0.0080
 1112SOL    HW214799   0.262   0.525   6.281 -1.3494  1.7997  1.6219
 1113SOL     OW14800   1.902   3.277  15.209  0.0364 -0.4275 -0.3592
 1113SOL    HW114801   1.913   3.183  15.225  0.6572 -0.2786  0.0963
 1113SOL    HW214802   1.967   3.289  15.140 -0.2765 -4.2481 -1.2947
 1114SOL     OW14803   1.196   4.310   1.644  0.2952 -0.0876 -0.8045
 1114SOL    HW114804   1.128   4.376   1.629  1.1500  1.0901  0.4580
 1114SOL    HW214805   1.200   4.317   1.739  0.5608 -1.7721 -0.7008
 1115SOL     OW14806   1.277   3.345   5.316  0.5134 -0.1506 -0.6004
 1115SOL    HW114807   1.346   3.348   5.250  0.9621 -0.1194 -0.1268
 1115SOL    HW214808   1.199   3.382   5.275  1.2582  0.3340 -1.5740
 1116SOL     OW14809   3.869   2.042  12.136  0.0449  0.1517  0.7305
 1116SOL    HW114810   3.958   2.035  12.169 -0.4378  0.7296  2.1664
 1116SOL    HW214811   3.891   2.047  12.043  0.6635  0.0060  0.8694
 1117SOL     OW14812   1.419   0.013   6.626 -0.2028  0.5390 -0.0119
 1117SOL    HW114813   1.433   0.105   6.649  0.2323 -0.0053  1.8730
 1117SOL    HW214814   1.487   4.707   6.567 -0.8003  1.2760 -1.1312
 1118SOL     OW14815   1.002   1.830   3.659  0.4618 -0.3381 -0.2473
 1118SOL    HW114816   0.999   1.780   3.578 -0.5339 -0.8337  0.0861
 1118SOL    HW214817   1.075   1.781   3.695  2.4203  2.6563 -0.1510
 1119SOL     OW14818   2.893   3.959   0.091 -0.3307 -0.1483  0.6052
 1119SOL    HW114819   2.845   3.960   0.173  0.7899 -2.7155  1.2975
 1119SOL    HW214820   2.981   3.973   0.126  0.9396 -1.8562 -1.9376
 1120SOL     OW14821   2.300   3.537   7.240  0.2547  0.2074 -0.2318
 1120SOL    HW114822   2.297   3.528   7.335  0.1401 -1.1568 -0.3649
 1120SOL    HW214823   2.385   3.582   7.238 -0.6313  1.8454 -0.9406
 1121SOL     OW14824   0.499   2.595   8.346  0.6191  0.1838 -0.0965
 1121SOL    HW114825   0.570   2.571   8.287  1.6645  0.9149  0.8836
 1121SOL    HW214826   0.525   2.682   8.377 -0.7787  0.5916 -0.0432
 1122SOL     OW14827   0.436   2.168  10.384 -0.2949 -0.0722  0.5729
 1122SOL    HW114828   0.457   2.076  10.376 -2.3846 -0.6546  1.6847
 1122SOL    HW214829   0.528   2.192  10.395 -0.8448  1.2766  2.4275
 1123SOL     OW14830   2.237   4.325  10.138  0.2559  0.2774  0.1446
 1123SOL    HW114831   2.331   4.343  10.126  0.7033 -0.1455  2.7772
 1123SOL    HW214832   2.253   4.241  10.181 -4.2644 -0.4614  0.2815
 1124SOL     OW14833   2.085   4.290   9.909  0.9182  0.2920 -0.1368
 1124SOL    HW114834   2.117   4.308   9.998 -0.1656 -0.9369  0.5087
 1124SOL    HW214835   2.148   4.225   9.879  1.1499  0.5469 -0.2002
 1125SOL     OW14836   2.066   0.889   8.685 -0.3836  0.0025 -0.0864
 1125SOL    HW114837   2.123   0.933   8.622 -1.5183 -0.6680 -1.5975
 1125SOL    HW214838   2.108   0.895   8.770 -1.2585 -0.8186  0.4040
 1126SOL     OW14839   4.209   0.933  12.647  0.2060 -0.1819  0.9951
 1126SOL    HW114840   4.184   0.910  12.737  1.9859  1.3682  1.8981
 1126SOL    HW214841   4.145   0.907  12.581 -0.2624 -2.6232  2.4151
 1127SOL     OW14842   3.354   3.664   2.096  0.0025  0.3327  0.0797
 1127SOL    HW114843   3.361   3.727   2.167 -0.4533 -0.4076  0.7685
 1127SOL    HW214844   3.435   3.691   2.051 -1.7216  2.7182 -1.6299
 1128SOL     OW14845   0.068   3.825   7.516  0.4689 -0.2785 -0.5157
 1128SOL    HW114846   0.155   3.829   7.557  0.7175  1.8174 -1.2374
 1128SOL    HW214847   0.041   3.735   7.531 -2.1035  0.4457 -0.7658
 1129SOL     OW14848   2.497   1.298   5.596  0.0567 -0.6112 -0.1948
 1129SOL    HW114849   2.427   1.269   5.537  0.8004 -2.5189 -0.1273
 1129SOL    HW214850   2.462   1.285   5.684 -0.0221  1.0603  0.0180
 1130SOL     OW14851   1.124   2.844   6.446 -0.3799  0.0597 -0.3161
 1130SOL    HW114852   1.163   2.884   6.367  1.3763 -0.1518  0.4332
 1130SOL    HW214853   1.184   2.876   6.513  0.2077  1.0120 -1.2956
 1131SOL     OW14854   0.870   2.346   3.492 -0.2398 -0.4928  0.3312
 1131SOL    HW114855   0.838   2.300   3.414 -1.1804 -0.3666  0.6366
 1131SOL    HW214856   0.879   2.274   3.555  1.3357 -1.0677 -0.5638
 1132SOL     OW14857   3.802   1.675   8.521 -0.6028 -0.1795 -0.4882
 1132SOL    HW114858   3.776   1.603   8.578  1.8561 -1.7982 -1.4462
 1132SOL    HW214859   3.758   1.657   8.438  0.5542  0.9991 -1.3654
 1133SOL     OW14860   1.694   3.935   7.570 -0.4393 -0.0167 -0.1481
 1133SOL    HW114861   1.643   3.945   7.650 -1.6689 -0.2591 -0.9012
 1133SOL    HW214862   1.761   3.999   7.593 -1.3772  0.9729 -0.1683
 1134SOL     OW14863   4.537   3.248   9.122  0.1240 -0.8256 -0.1221
 1134SOL    HW114864   4.569   3.281   9.037  0.5045  1.1412  0.7694
 1134SOL    HW214865   4.442   3.259   9.114  0.0359 -0.2943  1.7919
 1135SOL     OW14866   3.336   0.866   8.752  0.0953 -0.0760 -0.6338
 1135SOL    HW114867   3.279   0.838   8.823 -1.5048  0.2525 -1.7971
 1135SOL    HW214868   3.267   0.920   8.714  0.4005 -0.2412 -1.4336
 1136SOL     OW14869   1.299   3.116  12.527 -0.3224 -1.0145 -0.6380
 1136SOL    HW114870   1.284   3.199  12.480 -0.5408 -1.3350 -1.1354
 1136SOL    HW214871   1.214   3.093  12.564 -1.3514  0.5777 -1.9947
 1137SOL     OW14872   2.766   1.280   5.985 -0.2352 -0.3932 -0.0811
 1137SOL    HW114873   2.764   1.246   5.896 -0.5063 -2.6538  0.8071
 1137SOL    HW214874   2.802   1.203   6.030 -0.7383  0.2435  1.4415
 1138SOL     OW14875   1.911   4.043   1.619  0.0362  0.3923  0.1951
 1138SOL    HW114876   1.857   4.119   1.595  0.1474  0.4907  0.2572
 1138SOL    HW214877   1.943   4.080   1.701  0.5977  2.9126 -1.1649
 1139SOL     OW14878   0.198   2.590   6.498  0.0038 -0.2937 -0.7524
 1139SOL    HW114879   0.137   2.636   6.556  0.6458  0.3462 -0.5887
 1139SOL    HW214880   0.277   2.643   6.494  1.4587 -2.3401  1.0638
 1140SOL     OW14881   1.355   4.040  15.654  0.2555  0.1563 -0.3007
 1140SOL    HW114882   1.297   3.975  15.694  0.6012 -0.3904 -0.6947
 1140SOL    HW214883   1.424   3.985  15.618  1.7210  1.1425  0.9806
 1141SOL     OW14884   4.308   1.546   6.119 -0.3046  0.3233  0.4964
 1141SOL    HW114885   4.250   1.621   6.129 -0.2051  0.3817  0.6271
 1141SOL    HW214886   4.375   1.574   6.056 -1.1186 -2.5697 -1.6473
 1142SOL     OW14887   2.863   4.633   5.497 -0.4988 -0.2065  0.2907
 1142SOL    HW114888   2.876   4.674   5.583  1.7732  2.6268 -1.4096
 1142SOL    HW214889   2.946   4.660   5.458 -1.4105  1.0968 -0.7468
 1143SOL     OW14890   4.079   2.630  12.785 -0.3683  0.0642 -0.0388
 1143SOL    HW114891   4.171   2.622  12.761  0.0214  0.6663  1.2395
 1143SOL    HW214892   4.047   2.706  12.737  1.0251 -0.1927 -1.3546
 1144SOL     OW14893   4.239   2.982   2.714  0.0489 -0.1566 -0.0058
 1144SOL    HW114894   4.323   3.014   2.682  0.1696 -0.9017 -0.4472
 1144SOL    HW214895   4.280   2.903   2.750  1.4912  0.7999  0.4378
 1145SOL     OW14896   3.430   3.279   6.809 -0.1409  0.3248  0.1305
 1145SOL    HW114897   3.335   3.276   6.801 -0.0529  0.0504 -0.8548
 1145SOL    HW214898   3.460   3.192   6.836  0.8571 -0.1258 -2.4046
 1146SOL     OW14899   0.354   0.539   5.593 -1.1249 -0.1535  0.3752
 1146SOL    HW114900   0.324   0.533   5.503 -0.7393  2.2069  0.0898
 1146SOL    HW214901   0.350   0.454   5.637  0.8687  0.6796  2.2072
 1147SOL     OW14902   2.694   2.401   2.648 -0.2073 -0.0258  0.1080
 1147SOL    HW114903   2.742   2.472   2.691 -0.3004  0.8803 -1.3071
 1147SOL    HW214904   2.694   2.425   2.556  2.6743 -1.1509 -0.1698
 1148SOL     OW14905   0.078   2.723   0.959 -0.9374  0.1699  0.5112
 1148SOL    HW114906   0.146   2.791   0.964 -2.0511  1.3799 -1.0400
 1148SOL    HW214907   0.105   2.673   1.036 -3.3417  1.0371  1.9174
 1149SOL     OW14908   2.808   1.367   9.491  0.5680 -0.0036 -0.4595
 1149SOL    HW114909   2.800   1.402   9.579  1.0485  2.8827 -1.5626
 1149SOL    HW214910   2.858   1.286   9.502 -0.2172 -0.0616  2.4722
 1150SOL     OW14911   3.523   4.503   9.084  0.5579 -0.3541 -0.0687
 1150SOL    HW114912   3.506   4.597   9.098 -0.0946 -0.2339 -1.7280
 1150SOL    HW214913   3.449   4.468   9.134  0.4868 -1.1957 -0.7751
 1151SOL     OW14914   4.549   0.051  16.931  0.2178 -0.5529 -0.0962
 1151SOL    HW114915   4.497   4.706  16.967 -0.8839  0.3601  0.1404
 1151SOL    HW214916   4.483   0.119  16.946  0.6011 -0.3343  0.6205
 1152SOL     OW14917   3.201   2.111   5.448  0.2417 -0.2175 -0.4005
 1152SOL    HW114918   3.218   2.204   5.430 -2.7882  0.5726  0.7717
 1152SOL    HW214919   3.119   2.118   5.498 -0.2664 -0.3644 -1.2090
 1153SOL     OW14920   2.589   1.405   6.353 -0.2418 -0.2284 -0.5367
 1153SOL    HW114921   2.515   1.452   6.392  0.5870  0.2385  0.4545
 1153SOL    HW214922   2.584   1.327   6.408 -0.8614 -0.1162 -0.4340
 1154SOL     OW14923   0.631   0.018   5.222 -0.4658 -0.0586 -0.0200
 1154SOL    HW114924   0.632   4.703   5.136  2.5568 -1.2904  0.6013
 1154SOL    HW214925   0.562   4.699   5.270 -0.6438  0.8762  0.6054
 1155SOL     OW14926   1.570   1.200   4.368 -0.4743 -0.3718  0.4245
 1155SOL    HW114927   1.593   1.157   4.286  1.9857 -0.5401  1.2328
 1155SOL    HW214928   1.502   1.257   4.329  0.9048  1.1385  0.2268
 1156SOL     OW14929   3.081   3.549  14.975  0.3755  0.5288  0.0391
 1156SOL    HW114930   3.084   3.641  14.950 -1.7296  0.4302 -0.5217
 1156SOL    HW214931   3.126   3.499  14.907 -0.8903 -0.3776 -0.1270
 1157SOL     OW14932   2.673   0.135  15.772 -0.2083 -0.2081  0.4949
 1157SOL    HW114933   2.628   0.066  15.821 -0.7728  0.0420  0.3293
 1157SOL    HW214934   2.616   0.157  15.698 -1.4010 -0.2943  1.3835
 1158SOL     OW14935   4.077   1.548  16.106 -0.3305 -0.1672  0.2497
 1158SOL    HW114936   4.146   1.607  16.073  1.7340 -1.7007  1.7908
 1158SOL    HW214937   4.128   1.472  16.134 -0.1444 -0.0805  0.1474
 1159SOL     OW14938   2.251   0.448   9.561 -0.3508 -0.1056  0.1284
 1159SOL    HW114939   2.206   0.422   9.641  0.7484  0.0332  0.7920
 1159SOL    HW214940   2.182   0.441   9.495  0.7045  0.1130 -1.0018
 1160SOL     OW14941   3.653   3.850   5.535  0.6255 -0.0979  0.2166
 1160SOL    HW114942   3.600   3.778   5.568  1.0533  1.1784  3.6436
 1160SOL    HW214943   3.704   3.802   5.470  0.7594  0.4662 -0.0981
 1161SOL     OW14944   1.062   1.143   8.073 -0.4593  0.3330 -0.5911
 1161SOL    HW114945   0.975   1.115   8.103 -1.0500  1.4069 -1.3219
 1161SOL    HW214946   1.049   1.213   8.009  0.7064  1.9477  0.9739
 1162SOL     OW14947   4.053   3.386   4.039 -0.1355 -0.6060 -0.4118
 1162SOL    HW114948   4.008   3.302   4.052  0.6328 -1.1387 -1.1828
 1162SOL    HW214949   3.990   3.447   4.077 -0.3311  0.1865 -1.9996
 1163SOL     OW14950   0.910   1.563   8.031  0.0097  0.6004  0.2140
 1163SOL    HW114951   0.948   1.648   8.054 -1.5944  1.0955  1.0554
 1163SOL    HW214952   0.989   1.510   8.035 -0.5334 -0.3289 -1.4265
 1164SOL     OW14953   2.063   2.913   6.010 -0.1120  0.3625  0.0895
 1164SOL    HW114954   2.064   2.866   6.094 -0.5778 -1.1305 -0.7260
 1164SOL    HW214955   2.075   2.999   6.050  1.8342  2.1935 -4.4817
 1165SOL     OW14956   1.387   2.928  12.908  0.0101 -0.0890 -0.2404
 1165SOL    HW114957   1.395   2.835  12.887  0.8696  0.8020 -3.8696
 1165SOL    HW214958   1.345   2.931  12.994 -1.0567  0.5371 -0.7868
 1166SOL     OW14959   3.926   0.627  12.602 -0.1464  0.0079 -0.2393
 1166SOL    HW114960   3.956   0.700  12.548 -2.5992 -0.8038 -2.7396
 1166SOL    HW214961   3.933   0.681  12.680  0.5132 -0.0906 -0.2357
 1167SOL     OW14962   0.728   2.362  17.248 -0.5883 -1.0170  0.8104
 1167SOL    HW114963   0.670   2.361  17.172 -0.9740 -0.3586  1.0963
 1167SOL    HW214964   0.766   2.275  17.234  0.6947 -0.3530  0.1531
 1168SOL     OW14965   2.186   0.932   9.583 -0.5822  0.2562  0.2134
 1168SOL    HW114966   2.144   0.875   9.648 -1.2206 -1.5278 -1.7513
 1168SOL    HW214967   2.199   1.010   9.637 -0.1466  1.0388 -1.0361
 1169SOL     OW14968   1.773   1.961   5.054 -0.4071 -0.0847 -0.5981
 1169SOL    HW114969   1.830   2.035   5.035 -0.3044  0.0151  0.0878
 1169SOL    HW214970   1.685   1.995   5.034 -0.8420 -0.4985  0.6092
 1170SOL     OW14971   1.632   4.216   8.172  0.4967  0.0433  0.3037
 1170SOL    HW114972   1.606   4.263   8.093 -0.5487  0.5098  0.9311
 1170SOL    HW214973   1.595   4.274   8.238  0.3043 -1.7900  1.7893
 1171SOL     OW14974   3.203   1.036  12.525  0.8118  0.0388 -0.0871
 1171SOL    HW114975   3.247   1.047  12.440  0.1353 -1.5319 -0.6184
 1171SOL    HW214976   3.208   0.941  12.534  3.1448  0.3294  1.6431
 1172SOL     OW14977   2.480   2.163   6.708 -0.1791 -0.2865 -0.5990
 1172SOL    HW114978   2.497   2.257   6.702  0.8434 -0.2968  1.9525
 1172SOL    HW214979   2.553   2.136   6.653  1.8406  0.9209  1.4494
 1173SOL     OW14980   3.184   0.351  16.525 -0.2421  0.1236 -0.3578
 1173SOL    HW114981   3.261   0.366  16.470  0.1570  1.6368  0.6059
 1173SOL    HW214982   3.225   0.281  16.576  0.4723  0.6178 -0.2622
 1174SOL     OW14983   0.329   0.233   6.220  0.3244 -0.1067 -0.7683
 1174SOL    HW114984   0.387   0.260   6.148  1.9561 -0.2387  0.5018
 1174SOL    HW214985   0.258   0.298   6.219  0.9481  0.5702 -1.1287
 1175SOL     OW14986   0.421   3.537   2.159 -0.0399 -0.4036 -0.0240
 1175SOL    HW114987   0.467   3.618   2.178 -0.9766  0.4033 -1.1516
 1175SOL    HW214988   0.415   3.499   2.247 -1.6596  2.3180  1.0554
 1176SOL     OW14989   2.349   3.485  13.340  0.1199  0.4860  0.0072
 1176SOL    HW114990   2.272   3.542  13.349  0.9466  1.3321  1.9048
 1176SOL    HW214991   2.405   3.521  13.409  1.8615 -0.0050 -1.1667
 1177SOL     OW14992   2.874   0.418   1.790  0.6794  0.0668  0.0914
 1177SOL    HW114993   2.828   0.499   1.768  0.5713 -0.0039  0.0573
 1177SOL    HW214994   2.938   0.437   1.859 -0.4040 -0.1536  1.1530
 1178SOL     OW14995   0.298   3.897   8.481  0.1173  0.4126 -0.0386
 1178SOL    HW114996   0.223   3.956   8.477  0.2294  0.2437 -4.6121
 1178SOL    HW214997   0.362   3.959   8.516 -0.4172  2.6244 -3.0503
 1179SOL     OW14998   3.771   0.296   8.143 -0.8067 -0.2620  0.0580
 1179SOL    HW114999   3.740   0.206   8.130 -0.7276 -0.0893 -1.3443
 1179SOL    HW215000   3.698   0.345   8.104 -1.2636 -1.0914 -0.1424
 1180SOL     OW15001   3.697   1.869   3.802 -0.1017  0.6743 -0.4167
 1180SOL    HW115002   3.748   1.825   3.733  0.8681  0.3118  0.5280
 1180SOL    HW215003   3.726   1.958   3.782  1.2105  0.6751  1.4967
 1181SOL     OW15004   3.798   2.628   6.488  0.2382  0.2213 -0.4918
 1181SOL    HW115005   3.704   2.624   6.469  0.6841 -2.9117 -1.9775
 1181SOL    HW215006   3.801   2.588   6.575  2.4145  0.7685 -0.3311
 1182SOL     OW15007   2.422   4.246   6.421  0.5223  0.2084  0.2322
 1182SOL    HW115008   2.380   4.171   6.380  3.2173 -0.2858 -1.5886
 1182SOL    HW215009   2.436   4.213   6.510 -2.9209  0.1962  0.7826
 1183SOL     OW15010   1.852   2.390   3.607  0.5094 -0.0643  0.7342
 1183SOL    HW115011   1.759   2.373   3.624  0.4832  0.6475  1.2960
 1183SOL    HW215012   1.901   2.311   3.627 -1.0396 -1.0333  0.6899
 1184SOL     OW15013   3.595   2.550   1.867 -0.0131  0.6396  0.1067
 1184SOL    HW115014   3.588   2.639   1.902  1.1075  1.0522 -0.7038
 1184SOL    HW215015   3.650   2.572   1.792  0.0488  0.2832  0.0480
 1185SOL     OW15016   3.260   0.809   1.033  0.4563 -0.1900  1.1396
 1185SOL    HW115017   3.198   0.752   1.078 -0.8954  0.5061  0.1591
 1185SOL    HW215018   3.298   0.749   0.969 -0.0448  1.4615 -0.6936
 1186SOL     OW15019   1.711   0.971   2.774  0.4994 -0.0530  0.4549
 1186SOL    HW115020   1.638   0.923   2.733  1.2164 -0.9293  0.2012
 1186SOL    HW215021   1.759   0.986   2.693 -1.0410  0.7604 -0.3177
 1187SOL     OW15022   0.639   1.133   4.310 -0.1113  0.6449 -0.3447
 1187SOL    HW115023   0.700   1.072   4.351 -0.2490  1.5406  1.1726
 1187SOL    HW215024   0.559   1.109   4.357 -0.2393  1.0524 -0.3617
 1188SOL     OW15025   3.227   1.608   9.875 -0.2132 -0.6793 -0.3504
 1188SOL    HW115026   3.287   1.664   9.826  0.7486 -0.1835  1.3918
 1188SOL    HW215027   3.284   1.575   9.945 -0.2971  0.2343  0.1447
 1189SOL     OW15028   0.920   0.709  13.520 -0.0783  0.1446 -0.4015
 1189SOL    HW115029   0.870   0.701  13.601 -0.6819  1.6482 -0.6243
 1189SOL    HW215030   1.003   0.667  13.541  0.6352  2.7600  1.9748
 1190SOL     OW15031   2.053   3.713   8.958 -0.1398 -0.4568  0.3584
 1190SOL    HW115032   2.005   3.754   9.029  0.0250 -0.1968  0.3186
 1190SOL    HW215033   2.102   3.646   9.005 -4.1487 -2.0730  2.2766
 1191SOL     OW15034   2.971   2.643   0.621  0.2192  0.4667 -0.0841
 1191SOL    HW115035   2.979   2.672   0.530  2.2352  2.5964  0.7618
 1191SOL    HW215036   2.996   2.720   0.672 -0.2756 -1.9310  3.7502
 1192SOL     OW15037   3.746   0.459   4.836 -0.2748  0.4578 -0.4392
 1192SOL    HW115038   3.744   0.365   4.821 -0.5745  0.3252  0.4871
 1192SOL    HW215039   3.655   0.487   4.845 -0.3410 -0.4333  1.5234
 1193SOL     OW15040   3.231   2.141  15.534  0.3004  0.5756 -0.3917
 1193SOL    HW115041   3.209   2.158  15.626  2.9413 -0.2937  0.3757
 1193SOL    HW215042   3.173   2.201  15.487 -1.8586 -0.4554  0.9599
 1194SOL     OW15043   2.447   3.838   1.543 -0.4536 -0.0007  0.1787
 1194SOL    HW115044   2.529   3.809   1.503 -1.4794 -0.4227 -1.6125
 1194SOL    HW215045   2.412   3.759   1.584  1.9674 -1.5261 -0.6531
 1195SOL     OW15046   2.896   0.137   3.857 -0.2057  0.2578 -0.0241
 1195SOL    HW115047   2.829   0.205   3.848 -0.2723  0.4141  1.7156
 1195SOL    HW215048   2.844   0.060   3.832  1.5718 -0.4041 -1.6488
 1196SOL     OW15049   4.093   3.974   9.473 -0.3439  0.1304  0.5489
 1196SOL    HW115050   4.189   3.969   9.474 -0.3351  0.3315  0.5711
 1196SOL    HW215051   4.070   4.051   9.523 -1.3963 -1.2698  2.2206
 1197SOL     OW15052   1.672   1.774   2.319  0.6132  0.1088 -0.3208
 1197SOL    HW115053   1.687   1.851   2.374  0.0193 -0.9911  1.3811
 1197SOL    HW215054   1.719   1.801   2.240  4.1198 -1.5053  1.1855
 1198SOL     OW15055   3.643   4.000  14.141 -0.0868  0.5711 -0.3407
 1198SOL    HW115056   3.552   3.974  14.128  0.0668  1.2802 -2.9036
 1198SOL    HW215057   3.662   3.943  14.216 -0.4487  0.1449 -0.5770
 1199SOL     OW15058   3.681   3.877   9.346  0.2540  0.7503  0.0346
 1199SOL    HW115059   3.678   3.857   9.440 -0.7433 -0.0421 -0.1627
 1199SOL    HW215060   3.590   3.848   9.337  0.1878  0.5890  1.2772
 1200SOL     OW15061   1.702   0.475  10.330  0.4440  0.2193  0.3099
 1200SOL    HW115062   1.744   0.518  10.404 -0.5370  0.0347  0.9720
 1200SOL    HW215063   1.643   0.412  10.371  0.0194  0.4059 -0.0151
 1201SOL     OW15064   4.123   1.774  11.849  0.2445  0.3196  0.2352
 1201SOL    HW115065   4.156   1.706  11.789  0.8256  2.0227 -1.3746
 1201SOL    HW215066   4.157   1.736  11.930  3.0540 -1.3416 -1.7076
 1202SOL     OW15067   1.845   1.112   2.981  0.5321 -0.0598  0.4226
 1202SOL    HW115068   1.853   1.205   2.958 -1.0702 -0.2796 -1.0355
 1202SOL    HW215069   1.815   1.091   2.892  1.6236 -1.7847  0.4699
 1203SOL     OW15070   4.313   2.534   4.781 -0.1000  0.0660  0.5531
 1203SOL    HW115071   4.378   2.483   4.831  0.7248  0.5315 -0.0455
 1203SOL    HW215072   4.267   2.465   4.735  0.8455  0.0375 -0.3469
 1204SOL     OW15073   3.184   4.333   5.771 -0.0908 -0.4662  0.2988
 1204SOL    HW115074   3.214   4.420   5.745 -0.1676 -0.5619 -0.1118
 1204SOL    HW215075   3.272   4.301   5.792 -0.4838 -1.0787  1.0150
 1205SOL     OW15076   3.082   1.274   8.699  0.1606 -0.1960  0.1195
 1205SOL    HW115077   3.143   1.315   8.760  1.2526  1.3314 -2.0119
 1205SOL    HW215078   3.085   1.338   8.629  1.7644 -0.6333 -0.2050
 1206SOL     OW15079   3.639   4.380   9.985  0.5852 -0.7183 -0.2522
 1206SOL    HW115080   3.655   4.466   9.947 -0.3082  0.4730  2.0696
 1206SOL    HW215081   3.724   4.361  10.025 -0.9381 -1.4042  2.6229
 1207SOL     OW15082   2.983   4.412  13.850 -0.5611  0.8674 -0.2879
 1207SOL    HW115083   3.040   4.483  13.880 -0.0907  1.0584 -1.6453
 1207SOL    HW215084   3.047   4.341  13.846 -1.6331 -0.1405  0.4227
 1208SOL     OW15085   1.407   4.550   7.002 -0.3857 -0.4732  0.2570
 1208SOL    HW115086   1.459   4.541   7.082 -0.4252  0.6886  0.4175
 1208SOL    HW215087   1.415   4.644   6.987  0.9005 -0.2457  2.4020
 1209SOL     OW15088   1.164   3.916  10.688  0.3457  0.1788  0.3122
 1209SOL    HW115089   1.112   3.876  10.618  1.8589  0.2639 -0.8609
 1209SOL    HW215090   1.092   3.969  10.722 -0.6948 -1.4456  0.6356
 1210SOL     OW15091   1.065   1.697   6.178 -0.1226  0.3978  0.9131
 1210SOL    HW115092   1.036   1.643   6.105  1.4129 -0.3607  0.8723
 1210SOL    HW215093   1.072   1.626   6.242  0.7783 -0.1398  0.2267
 1211SOL     OW15094   2.467   0.426  14.671  0.0393  0.4825  0.4225
 1211SOL    HW115095   2.484   0.466  14.585 -3.6110  1.8785  0.3302
 1211SOL    HW215096   2.553   0.444  14.707  0.8857  0.7775 -1.7365
 1212SOL     OW15097   3.350   1.058   3.542 -0.0173  0.0318  0.1810
 1212SOL    HW115098   3.349   1.142   3.587  1.1594  0.3002 -0.2932
 1212SOL    HW215099   3.316   1.001   3.611 -2.4903  0.0420 -1.0472
 1213SOL     OW15100   2.706   4.370  15.793  0.3127  0.0585  0.1499
 1213SOL    HW115101   2.695   4.303  15.861 -1.1631  0.3210  0.1660
 1213SOL    HW215102   2.624   4.362  15.745  0.6772  0.8593 -0.6155
 1214SOL     OW15103   1.943   2.196   5.112  0.1053  0.1950 -0.0853
 1214SOL    HW115104   1.893   2.251   5.052 -0.4089  1.1257  1.1954
 1214SOL    HW215105   1.992   2.254   5.170 -0.7695  2.6831 -1.8362
 1215SOL     OW15106   2.002   2.516   8.043 -0.1142  0.5058  0.2150
 1215SOL    HW115107   2.082   2.559   8.016 -0.8170  1.1914 -0.7654
 1215SOL    HW215108   2.010   2.522   8.139  1.5217 -2.2949  0.2517
 1216SOL     OW15109   1.991   0.166   5.305  0.6013  0.2137  0.5447
 1216SOL    HW115110   2.023   0.109   5.235 -1.2214  2.6269 -2.2687
 1216SOL    HW215111   1.905   0.188   5.269  0.3374 -0.4511  0.7677
 1217SOL     OW15112   2.501   3.856   2.125 -0.3000 -0.2571  0.2772
 1217SOL    HW115113   2.447   3.935   2.118 -0.0573 -0.1515 -0.4314
 1217SOL    HW215114   2.579   3.883   2.174 -0.9386  3.1435 -0.6138
 1218SOL     OW15115   3.643   0.789   6.849 -0.0309 -0.2629 -0.2315
 1218SOL    HW115116   3.719   0.828   6.892 -1.0237  1.1824  0.2259
 1218SOL    HW215117   3.579   0.842   6.898  3.4034  1.6229  2.2331
 1219SOL     OW15118   2.621   0.786   5.578  0.1565 -0.0831 -0.1341
 1219SOL    HW115119   2.690   0.851   5.593  1.1985 -1.1996 -0.1336
 1219SOL    HW215120   2.659   0.721   5.519  1.4815  1.5826 -1.1167
 1220SOL     OW15121   2.404   2.146   7.586  0.1358  0.1189 -0.0757
 1220SOL    HW115122   2.430   2.236   7.605 -2.0546  1.2956 -2.4899
 1220SOL    HW215123   2.312   2.150   7.613  0.5029  3.0926  0.7468
 1221SOL     OW15124   3.845   4.025   5.598 -0.5771  0.0750 -0.2584
 1221SOL    HW115125   3.768   3.970   5.580 -0.1501 -0.9043  0.9080
 1221SOL    HW215126   3.903   3.962   5.640  1.0173  0.6512 -1.5876
 1222SOL     OW15127   4.225   3.060   6.554  0.1545  0.0153  0.5761
 1222SOL    HW115128   4.314   3.031   6.534 -1.0206 -2.9203 -0.3523
 1222SOL    HW215129   4.208   3.005   6.630 -0.3360 -0.8611 -0.1634
 1223SOL     OW15130   0.832   4.612   8.523  0.0534  0.1396 -0.0491
 1223SOL    HW115131   0.839   4.705   8.542  1.4863  0.1437 -0.5551
 1223SOL    HW215132   0.904   4.587   8.464  1.0425 -1.0629  1.6440
 1224SOL     OW15133   2.838   2.588   3.800 -0.8935 -0.1410 -0.4527
 1224SOL    HW115134   2.880   2.566   3.883  1.0154 -1.1507 -1.6583
 1224SOL    HW215135   2.746   2.588   3.825 -0.8203  0.2639 -0.2002
 1225SOL     OW15136   4.173   4.108   0.024  0.1372  0.1865 -0.4900
 1225SOL    HW115137   4.231   4.177  17.699  0.2524  1.2620  1.9945
 1225SOL    HW215138   4.201   4.041  17.670 -1.9786 -0.4890 -0.7008
 1226SOL     OW15139   4.158   2.337   2.527  0.0849 -0.3500  0.1885
 1226SOL    HW115140   4.111   2.265   2.485 -1.3709  0.5081  0.3697
 1226SOL    HW215141   4.117   2.407   2.477  0.9497  0.3822  0.5149
 1227SOL     OW15142   1.662   3.250   2.051  0.1295 -0.2911 -0.4265
 1227SOL    HW115143   1.694   3.227   1.964  0.1739  2.3847 -1.1055
 1227SOL    HW215144   1.730   3.201   2.097  1.8313  0.8827 -1.7041
 1228SOL     OW15145   0.742   0.080   4.721 -0.7377  0.1279 -0.2212
 1228SOL    HW115146   0.729   0.138   4.646  2.6668  1.4262  0.1982
 1228SOL    HW215147   0.674   0.017   4.694 -1.0488 -0.1963  1.3089
 1229SOL     OW15148   4.230   1.564  17.034 -0.2564 -0.0684 -0.2296
 1229SOL    HW115149   4.245   1.477  17.071 -0.2178  0.7239  1.6139
 1229SOL    HW215150   4.318   1.584  17.002  0.7759 -0.7679  2.1613
 1230SOL     OW15151   4.560   1.006   7.368 -0.1980  0.3818 -0.5396
 1230SOL    HW115152   4.625   1.009   7.298  2.2397  0.7250  1.7409
 1230SOL    HW215153   4.570   1.096   7.398  2.9363  0.8247 -2.8407
 1231SOL     OW15154   2.780   4.327  17.334  0.0662  0.3543  0.0631
 1231SOL    HW115155   2.709   4.287  17.384  0.3185  0.5343  0.5556
 1231SOL    HW215156   2.825   4.246  17.309 -3.0502 -1.0494 -1.0400
 1232SOL     OW15157   3.093   2.436   7.517 -0.5187 -0.0807  0.0087
 1232SOL    HW115158   3.117   2.490   7.442 -0.0919  0.4984  0.5645
 1232SOL    HW215159   3.109   2.500   7.586 -0.8571 -0.6990  0.6635
 1233SOL     OW15160   3.786   4.423  13.825  0.4599  0.2166 -0.1006
 1233SOL    HW115161   3.761   4.338  13.861  0.0103  0.4919  0.2284
 1233SOL    HW215162   3.832   4.404  13.743 -0.2100 -0.7955 -0.2433
 1234SOL     OW15163   0.783   4.312   2.902 -0.0142 -0.1016 -0.9821
 1234SOL    HW115164   0.876   4.303   2.878  0.3845  0.1947  0.4679
 1234SOL    HW215165   0.791   4.319   2.997  0.9628 -1.3258 -0.9708
 1235SOL     OW15166   3.201   1.673   7.846  0.2875 -0.8290  0.2771
 1235SOL    HW115167   3.261   1.700   7.915 -0.3943  0.6946  0.2853
 1235SOL    HW215168   3.159   1.756   7.821  1.7656 -0.1331  0.1134
 1236SOL     OW15169   0.496   2.032   2.187  0.1196 -0.0550  0.1545
 1236SOL    HW115170   0.498   1.959   2.249 -1.7473  0.8274  1.2498
 1236SOL    HW215171   0.422   2.078   2.227 -0.5763 -1.7366  0.7626
 1237SOL     OW15172   1.981   0.088   1.715 -0.3450  0.4469 -0.2199
 1237SOL    HW115173   1.891   0.117   1.699 -0.1319  1.5819  0.6560
 1237SOL    HW215174   1.996   0.027   1.643  0.6041  1.8452 -1.2006
 1238SOL     OW15175   2.983   0.422   1.198  0.2957 -0.1399  0.1598
 1238SOL    HW115176   2.972   0.411   1.292  0.1626  0.7515  0.2482
 1238SOL    HW215177   3.065   0.373   1.189  0.6093  0.4657 -0.3048
 1239SOL     OW15178   1.767   3.476  13.998  0.3760  0.0255 -0.1203
 1239SOL    HW115179   1.745   3.569  13.996  0.4500  0.0561  0.5722
 1239SOL    HW215180   1.680   3.446  13.970  0.5816  0.2752 -1.0362
 1240SOL     OW15181   3.990   2.210   5.437  0.1884 -0.0540  0.0620
 1240SOL    HW115182   3.973   2.119   5.416 -1.6892 -0.3857  3.0389
 1240SOL    HW215183   3.910   2.231   5.486  0.9811 -0.8727  1.7172
 1241SOL     OW15184   4.261   0.866   6.916  0.5035 -0.1338 -0.3205
 1241SOL    HW115185   4.213   0.850   6.835  2.8777 -1.6820 -1.4454
 1241SOL    HW215186   4.232   0.953   6.943  0.6752 -0.6121  1.4408
 1242SOL     OW15187   2.028   4.623   6.395 -0.4722 -0.0095  0.2465
 1242SOL    HW115188   2.033   4.536   6.355 -4.2201 -0.0766 -0.0815
 1242SOL    HW215189   1.987   4.600   6.478 -0.3046 -0.8853  0.0945
 1243SOL     OW15190   0.558   2.295  17.033  0.5212 -0.2292 -0.4132
 1243SOL    HW115191   0.501   2.304  16.956 -1.5277  1.1533  1.2811
 1243SOL    HW215192   0.546   2.201  17.049 -0.9058 -0.0030 -0.1301
 1244SOL     OW15193   2.438   3.790   5.091  0.0603  0.2402 -0.2008
 1244SOL    HW115194   2.345   3.779   5.076 -0.1498  2.3043 -0.4567
 1244SOL    HW215195   2.463   3.708   5.133  1.5375  0.7037 -0.1808
 1245SOL     OW15196   0.260   0.287  12.171  0.1118 -0.1856  0.1709
 1245SOL    HW115197   0.229   0.338  12.245 -1.3750  0.4138 -0.8638
 1245SOL    HW215198   0.267   0.358  12.107 -0.9078 -0.8368 -0.6568
 1246SOL     OW15199   1.500   0.786   3.850  0.2284 -0.2974 -0.6229
 1246SOL    HW115200   1.493   0.802   3.756  1.1996  1.5339 -0.4058
 1246SOL    HW215201   1.492   0.872   3.892  0.5763 -1.3956  1.6830
 1247SOL     OW15202   2.793   3.814  17.441 -0.0445 -0.0429 -0.2449
 1247SOL    HW115203   2.858   3.868  17.486  0.9396 -0.6909 -0.9106
 1247SOL    HW215204   2.725   3.814  17.509  0.9629  3.5398  0.7931
 1248SOL     OW15205   1.521   1.191   7.484  0.3859 -0.1868 -0.2135
 1248SOL    HW115206   1.445   1.177   7.540 -0.6107  0.5928 -1.3840
 1248SOL    HW215207   1.590   1.154   7.539  0.2339  0.1853  0.2287
 1249SOL     OW15208   3.780   0.850   0.536 -0.4169  0.3968 -0.3971
 1249SOL    HW115209   3.714   0.900   0.583 -0.5494 -0.8989  0.8017
 1249SOL    HW215210   3.768   0.884   0.447 -1.3935 -0.0275 -0.4190
 1250SOL     OW15211   4.225   1.012   4.405  0.2250 -0.0910 -0.3181
 1250SOL    HW115212   4.244   0.930   4.452 -1.1945 -0.7281 -0.8635
 1250SOL    HW215213   4.145   0.986   4.360 -0.0522  1.2895 -0.6241
 1251SOL     OW15214   2.982   4.544   9.470 -0.5809 -0.6998 -0.0726
 1251SOL    HW115215   3.015   4.632   9.487 -0.5666 -1.3166  2.9491
 1251SOL    HW215216   2.967   4.501   9.554  1.1023  2.4447  1.8521
 1252SOL     OW15217   3.780   2.347   8.337  0.4101  0.4673  0.0119
 1252SOL    HW115218   3.819   2.336   8.424 -0.4022  0.8878  0.4311
 1252SOL    HW215219   3.734   2.266   8.318  2.0003 -0.3564 -0.3422
 1253SOL     OW15220   2.084   3.476   5.186  0.3964  0.2523 -0.0746
 1253SOL    HW115221   2.019   3.456   5.253 -0.6457  1.8446 -0.6088
 1253SOL    HW215222   2.108   3.566   5.208  0.9562  0.6213 -2.1433
 1254SOL     OW15223   4.349   4.631   8.492 -0.2362  0.3763 -0.1517
 1254SOL    HW115224   4.332   4.591   8.407 -0.7770  0.0896  0.0946
 1254SOL    HW215225   4.308   4.717   8.486  0.4462  0.6887 -0.3846
 1255SOL     OW15226   3.175   3.925   8.793 -0.0925  0.0594 -0.1664
 1255SOL    HW115227   3.128   3.848   8.762 -2.6841  1.9893 -0.9667
 1255SOL    HW215228   3.107   3.989   8.815 -1.3337 -0.2976 -2.9261
 1256SOL     OW15229   3.684   2.288   6.693 -0.4837  0.3606  0.5942
 1256SOL    HW115230   3.738   2.216   6.724 -1.4854 -0.8424 -0.4968
 1256SOL    HW215231   3.699   2.269   6.600  2.2839  0.0949  1.0822
 1257SOL     OW15232   2.040   3.752   8.616  0.0976 -0.5653 -0.9176
 1257SOL    HW115233   2.134   3.762   8.632  0.2177 -0.7586 -1.5204
 1257SOL    HW215234   2.019   3.807   8.541 -0.3530 -0.2588 -0.5678
 1258SOL     OW15235   2.310   2.564   2.230  0.4949 -0.1102  0.2920
 1258SOL    HW115236   2.215   2.568   2.219  0.3121  0.3283  2.0052
 1258SOL    HW215237   2.320   2.590   2.322 -0.8510 -0.9875  0.6990
 1259SOL     OW15238   3.660   1.752   4.055  0.3519  0.1519 -0.4253
 1259SOL    HW115239   3.751   1.726   4.041  0.3684  0.5786 -1.0807
 1259SOL    HW215240   3.648   1.812   3.982 -2.3715 -0.8794 -0.8267
 1260SOL     OW15241   2.847   2.219   4.254  0.4662 -0.9203  0.0442
 1260SOL    HW115242   2.845   2.288   4.320  2.8900 -0.5946 -0.2396
 1260SOL    HW215243   2.863   2.141   4.306 -1.5448 -0.2871  1.6134
 1261SOL     OW15244   3.331   0.478  16.940 -0.3779 -0.5146 -0.5893
 1261SOL    HW115245   3.270   0.460  16.868  0.1179 -1.4057 -0.7838
 1261SOL    HW215246   3.265   0.470  17.009  0.2029  1.3106  0.1690
 1262SOL     OW15247   3.793   0.914   6.520  0.2685  0.4475 -0.1397
 1262SOL    HW115248   3.813   0.838   6.465  2.8402  0.3521  0.9146
 1262SOL    HW215249   3.864   0.974   6.496  0.9005 -0.7406 -1.2475
 1263SOL     OW15250   0.363   0.520  10.887  0.0712  0.0395  0.0166
 1263SOL    HW115251   0.414   0.583  10.938  2.4218 -0.2283 -2.0086
 1263SOL    HW215252   0.276   0.543  10.921 -1.6943 -1.1064 -3.6212
 1264SOL     OW15253   0.792   4.386   1.638  0.5325  0.0318  0.1164
 1264SOL    HW115254   0.854   4.428   1.697 -1.6073  3.3967 -0.0521
 1264SOL    HW215255   0.748   4.340   1.709  0.0787  0.0618 -0.1437
 1265SOL     OW15256   4.209   0.835   6.547  0.2459 -0.0214  0.0933
 1265SOL    HW115257   4.300   0.838   6.574  0.3305  2.3600 -0.4018
 1265SOL    HW215258   4.191   0.925   6.519  0.2062 -0.4083 -1.1364
 1266SOL     OW15259   1.538   0.280   3.293 -0.5636 -0.2944 -0.0747
 1266SOL    HW115260   1.607   0.218   3.316  0.2481  0.8417  0.6111
 1266SOL    HW215261   1.463   0.230   3.261  0.0270 -1.2463  0.0215
 1267SOL     OW15262   3.717   3.420   8.762  0.9312  0.2615 -0.1452
 1267SOL    HW115263   3.791   3.465   8.804  0.8413  0.3263 -0.0587
 1267SOL    HW215264   3.772   3.351   8.723 -2.7412 -2.7212 -0.1064
 1268SOL     OW15265   2.274   2.170  16.411 -0.4544 -0.2857  0.4671
 1268SOL    HW115266   2.336   2.210  16.350 -1.1786  0.0370 -0.0556
 1268SOL    HW215267   2.286   2.078  16.389 -3.9768 -0.6698  0.1693
 1269SOL     OW15268   4.510   4.048   4.517 -0.0685 -0.3036  0.4756
 1269SOL    HW115269   4.578   3.988   4.487  1.3257  1.7739 -0.5565
 1269SOL    HW215270   4.552   4.131   4.495 -1.9738 -0.1202 -2.4992
 1270SOL     OW15271   1.076   4.272   7.045 -0.5238  0.1781  0.8146
 1270SOL    HW115272   1.117   4.349   7.004 -0.0493 -0.0136  0.9309
 1270SOL    HW215273   1.138   4.252   7.115  1.2737  0.6443 -0.6655
 1271SOL     OW15274   2.709   1.529   4.687 -0.1066 -0.1762  0.0117
 1271SOL    HW115275   2.790   1.480   4.693 -0.8793 -1.6726 -1.8158
 1271SOL    HW215276   2.648   1.464   4.652  2.3440 -1.8189 -1.1092
 1272SOL     OW15277   2.492   1.171  13.497  0.1401  0.4088  0.1859
 1272SOL    HW115278   2.521   1.088  13.459 -0.9473  0.6109 -1.1048
 1272SOL    HW215279   2.564   1.189  13.557 -1.2631  0.2697  1.9068
 1273SOL     OW15280   0.661   4.352   6.421  0.7346 -0.1390 -0.0164
 1273SOL    HW115281   0.713   4.395   6.489  0.9177  1.0754 -0.9241
 1273SOL    HW215282   0.570   4.368   6.444  0.4931 -1.6102  0.0836
 1274SOL     OW15283   3.500   4.420   5.125  0.0978  0.5884 -0.2852
 1274SOL    HW115284   3.539   4.342   5.166  1.5578  1.0144 -0.8627
 1274SOL    HW215285   3.456   4.386   5.047 -1.0778  1.1674  0.1168
 1275SOL     OW15286   2.707   0.755   0.608  0.3764 -0.4383 -0.3696
 1275SOL    HW115287   2.669   0.785   0.691 -0.0408  0.7529 -0.9951
 1275SOL    HW215288   2.776   0.821   0.613  0.9103 -1.1847  2.1951
 1276SOL     OW15289   0.284   3.766  11.441 -0.3475  0.2471 -0.2553
 1276SOL    HW115290   0.378   3.771  11.424 -0.2661 -0.7732 -0.1153
 1276SOL    HW215291   0.273   3.721  11.525  0.0209 -0.4297 -0.5650
 1277SOL     OW15292   0.969   4.626   8.122  0.1783 -0.4482 -0.5585
 1277SOL    HW115293   0.992   4.595   8.210 -2.0266 -3.6573 -1.1313
 1277SOL    HW215294   1.024   4.705   8.117 -0.6869  0.1353 -0.9533
 1278SOL     OW15295   0.032   3.058  16.710  0.2917 -0.4443  0.5361
 1278SOL    HW115296   4.674   3.018  16.730  0.7672 -1.4417  0.5441
 1278SOL    HW215297   0.089   3.000  16.760  1.8562  0.2685 -0.4436
 1279SOL     OW15298   1.294   3.117   7.635  0.7450 -0.0697  0.2213
 1279SOL    HW115299   1.220   3.164   7.675  1.3256 -0.3000  1.5721
 1279SOL    HW215300   1.262   3.090   7.549 -1.2827  2.1060  0.2730
 1280SOL     OW15301   2.428   0.531   4.326 -0.6758  0.0280 -0.7954
 1280SOL    HW115302   2.465   0.536   4.238 -1.1277  1.9150 -0.8737
 1280SOL    HW215303   2.333   0.530   4.315 -0.5032  0.3318 -2.2891
 1281SOL     OW15304   1.020   0.394   5.399 -0.4088 -0.0218  0.2342
 1281SOL    HW115305   0.993   0.342   5.475  1.4887  2.4268  2.5626
 1281SOL    HW215306   1.081   0.330   5.363 -1.9819 -0.8657 -0.9338
 1282SOL     OW15307   1.795   3.473   4.780  0.1117  0.5434 -0.2575
 1282SOL    HW115308   1.791   3.507   4.869  0.9589 -1.2947  0.4902
 1282SOL    HW215309   1.843   3.392   4.800  0.6603  1.2081  1.1556
 1283SOL     OW15310   2.950   3.710   2.262 -0.4777 -0.0546 -0.7933
 1283SOL    HW115311   3.004   3.746   2.192  0.6638 -1.1176 -0.4817
 1283SOL    HW215312   2.910   3.639   2.212  1.2416 -2.3798  1.1058
 1284SOL     OW15313   4.167   4.352   6.558  0.1400  0.2042  0.1961
 1284SOL    HW115314   4.133   4.442   6.560  0.2666  0.3036 -2.2267
 1284SOL    HW215315   4.095   4.304   6.599 -0.4529  0.5498 -0.4463
 1285SOL     OW15316   1.954   0.229  11.128  0.7303  0.1045 -0.1222
 1285SOL    HW115317   1.960   0.319  11.162  0.7026  0.6947 -1.7050
 1285SOL    HW215318   1.875   0.240  11.076 -0.1703  0.1919  1.2690
 1286SOL     OW15319   2.968   2.183   5.970 -0.0403 -0.0189 -0.5990
 1286SOL    HW115320   3.028   2.255   5.989  1.9916 -1.4913 -1.3291
 1286SOL    HW215321   2.971   2.139   6.055  0.7850  0.7660 -0.2262
 1287SOL     OW15322   4.079   3.339   9.711 -0.0225 -0.4418  0.5151
 1287SOL    HW115323   4.026   3.339   9.791 -0.4553 -0.8642  0.2289
 1287SOL    HW215324   4.088   3.431   9.686 -2.4322 -0.3890 -0.1405
 1288SOL     OW15325   4.185   1.696   5.338 -0.5425 -0.1541  0.0981
 1288SOL    HW115326   4.222   1.695   5.250 -1.4040  0.6308 -0.2693
 1288SOL    HW215327   4.135   1.615   5.333 -0.5310 -0.1744  0.3207
 1289SOL     OW15328   3.634   3.762   4.468  0.0201 -0.0941  0.3463
 1289SOL    HW115329   3.680   3.836   4.428  0.0546  1.0691  2.5278
 1289SOL    HW215330   3.562   3.765   4.405  2.7999 -1.9075 -2.8937
 1290SOL     OW15331   3.478   3.811   7.797  0.1952  0.2592 -0.2502
 1290SOL    HW115332   3.474   3.870   7.873  2.9499 -0.8558  0.7659
 1290SOL    HW215333   3.514   3.877   7.739  0.2545  2.2831  2.0876
 1291SOL     OW15334   3.211   1.796   2.533 -0.2729 -0.0923  0.0615
 1291SOL    HW115335   3.203   1.780   2.627  0.8575 -0.3408  0.1230
 1291SOL    HW215336   3.207   1.891   2.530  3.3345  0.0665 -0.0371
 1292SOL     OW15337   0.963   0.301  11.375  0.0789  0.8688  0.3846
 1292SOL    HW115338   0.875   0.279  11.403  0.8519  0.2453  2.2999
 1292SOL    HW215339   0.961   0.355  11.296  0.9171  1.1940  0.5792
 1293SOL     OW15340   4.467   2.988   0.446 -0.1564 -0.2581 -0.1911
 1293SOL    HW115341   4.466   2.909   0.500  2.4341 -0.8424 -1.0112
 1293SOL    HW215342   4.559   3.012   0.452 -0.2099  0.2377 -1.4847
 1294SOL     OW15343   2.259   4.345  16.831 -0.2053 -0.7996 -0.2264
 1294SOL    HW115344   2.183   4.299  16.796  0.4981 -0.8884 -1.6644
 1294SOL    HW215345   2.225   4.379  16.913 -0.7018 -0.9605 -0.3663
 1295SOL     OW15346   4.247   3.067   1.434  0.3986  0.0214 -0.4689
 1295SOL    HW115347   4.208   3.100   1.514  0.6262 -0.7152 -0.0511
 1295SOL    HW215348   4.255   2.972   1.445 -0.9204  0.0640  0.7688
 1296SOL     OW15349   0.774   0.082   2.529 -0.0822  0.0593 -0.2889
 1296SOL    HW115350   0.842   0.111   2.590 -1.7557  1.1520  1.0727
 1296SOL    HW215351   0.696   0.086   2.586  2.0886  1.9207  2.5418
 1297SOL     OW15352   3.265   4.582   5.681  0.2643 -0.3062  0.5346
 1297SOL    HW115353   3.360   4.597   5.674 -0.0217  1.4163  0.2325
 1297SOL    HW215354   3.243   4.658   5.735  0.8860  0.7018 -0.6312
 1298SOL     OW15355   1.914   0.324   3.957  1.0764  0.0227  0.5923
 1298SOL    HW115356   1.866   0.383   3.899  0.5940  0.7780  1.7742
 1298SOL    HW215357   1.859   0.248   3.939 -0.4674  1.3921 -0.4097
 1299SOL     OW15358   2.305   3.834   9.641  0.6247 -0.0263 -0.5136
 1299SOL    HW115359   2.224   3.857   9.596  0.2236  0.6923  0.5894
 1299SOL    HW215360   2.273   3.797   9.723  0.1323 -0.2947 -0.8295
 1300SOL     OW15361   3.293   1.050   6.360  0.4748  0.1756 -0.3897
 1300SOL    HW115362   3.209   1.009   6.383  0.7060 -0.8062 -1.2817
 1300SOL    HW215363   3.360   1.020   6.421 -0.2830 -2.5333 -0.8773
 1301SOL     OW15364   2.299   0.863   3.032  0.6388 -0.0915 -0.0802
 1301SOL    HW115365   2.203   0.861   3.027  0.7767 -2.3220 -2.0822
 1301SOL    HW215366   2.318   0.911   2.951  0.2303 -1.6547 -1.1100
 1302SOL     OW15367   0.164   2.612   7.938 -0.1103  0.1175  0.0505
 1302SOL    HW115368   0.119   2.582   8.017  1.3153 -0.5243  0.6108
 1302SOL    HW215369   0.118   2.695   7.923 -1.1326 -0.5075 -0.3074
 1303SOL     OW15370   0.688   2.200   4.618  1.0350 -0.4712 -0.5141
 1303SOL    HW115371   0.613   2.210   4.676 -0.2901 -0.5854 -2.1947
 1303SOL    HW215372   0.720   2.290   4.613  1.0587 -0.4904 -0.7002
 1304SOL     OW15373   3.263   3.140   4.149  0.3104 -0.8020 -0.3354
 1304SOL    HW115374   3.189   3.185   4.190 -0.7039 -0.3298 -2.6873
 1304SOL    HW215375   3.214   3.065   4.115  0.7353 -0.2585 -2.1241
 1305SOL     OW15376   4.005   1.390  13.606  0.7636  0.3176 -0.1025
 1305SOL    HW115377   3.955   1.328  13.659  1.2542 -0.9517 -1.1494
 1305SOL    HW215378   3.979   1.370  13.517  0.1465  0.7866 -0.0303
 1306SOL     OW15379   0.736   3.944   1.701  0.1254  0.3052  0.2498
 1306SOL    HW115380   0.710   4.025   1.744  0.8810  0.9332 -0.4609
 1306SOL    HW215381   0.730   3.980   1.612 -0.0987 -3.5982 -1.2989
 1307SOL     OW15382   0.866   2.699   7.301 -0.3676  0.3009 -0.3468
 1307SOL    HW115383   0.879   2.777   7.247  0.4710 -0.8019 -1.7279
 1307SOL    HW215384   0.856   2.732   7.391  0.3764 -0.4151 -0.0089
 1308SOL     OW15385   3.991   1.640   6.407 -0.8903  0.1928  0.2574
 1308SOL    HW115386   3.992   1.615   6.315 -0.7964  1.2193 -0.0252
 1308SOL    HW215387   3.896   1.648   6.421 -1.5450 -0.5095 -3.8235
 1309SOL     OW15388   2.109   1.084   1.972 -0.1261  0.7184 -0.2214
 1309SOL    HW115389   2.052   1.063   2.046  1.3130  0.7216  0.9039
 1309SOL    HW215390   2.164   1.008   1.953 -0.8455  0.0342  0.4158
 1310SOL     OW15391   3.188   3.922  12.126  0.4528 -0.4915  0.1690
 1310SOL    HW115392   3.277   3.932  12.161  1.1532  0.8474 -1.9913
 1310SOL    HW215393   3.132   3.914  12.203 -0.8421  0.6903 -0.6592
 1311SOL     OW15394   1.053   1.802   6.805 -0.2059  0.0095 -0.1109
 1311SOL    HW115395   1.076   1.870   6.742 -0.6856 -0.3603 -0.6902
 1311SOL    HW215396   1.043   1.721   6.754  0.3734  0.3844 -0.8169
 1312SOL     OW15397   1.406   3.002   2.989  0.1378  0.4691 -0.8323
 1312SOL    HW115398   1.451   3.018   2.906  0.0205  2.3856 -0.5186
 1312SOL    HW215399   1.449   2.920   3.015  0.3860  1.3139  1.3529
 1313SOL     OW15400   2.164   2.567   0.738 -0.3368  0.4446 -0.1133
 1313SOL    HW115401   2.168   2.475   0.713  2.8432  0.5416  0.0422
 1313SOL    HW215402   2.140   2.607   0.655 -0.9258  0.3253 -0.0044
 1314SOL     OW15403   2.293   4.118   9.757  0.6565 -0.0944 -0.1928
 1314SOL    HW115404   2.257   4.161   9.680  1.0089 -0.2897 -0.4665
 1314SOL    HW215405   2.386   4.129   9.737  0.4682 -0.1164 -1.0712
 1315SOL     OW15406   0.322   3.783   5.010 -0.0886 -0.0126 -0.1744
 1315SOL    HW115407   0.325   3.817   4.920  0.4409 -2.2802 -1.0105
 1315SOL    HW215408   0.344   3.865   5.055 -2.3892  1.3005 -1.4363
 1316SOL     OW15409   0.923   2.106   5.415  0.2518 -0.3679 -0.5661
 1316SOL    HW115410   0.872   2.075   5.490 -1.8197  0.4670 -1.6337
 1316SOL    HW215411   0.990   2.148   5.469 -1.5753  1.2320  0.4405
 1317SOL     OW15412   1.140   3.984  13.466 -0.2436  0.6357 -0.4083
 1317SOL    HW115413   1.104   3.896  13.469  0.1359  0.5028  0.0926
 1317SOL    HW215414   1.133   4.000  13.560 -1.5170 -0.7862 -0.2596
 1318SOL     OW15415   1.213   0.079   7.139  0.1243 -0.4322 -0.7935
 1318SOL    HW115416   1.167   0.099   7.057  1.4605  2.5253 -0.8364
 1318SOL    HW215417   1.298   0.117   7.116 -0.1005 -0.0459 -1.0017
 1319SOL     OW15418   0.909   2.988   4.303  0.1787 -0.1390 -0.5490
 1319SOL    HW115419   0.958   3.005   4.222  2.7094  0.1235  1.0160
 1319SOL    HW215420   0.838   2.938   4.263 -2.0080  0.9540  2.0154
 1320SOL     OW15421   3.735   3.801  12.167 -0.2706  0.2730 -0.1644
 1320SOL    HW115422   3.776   3.717  12.189  0.2891  0.1858 -1.5437
 1320SOL    HW215423   3.694   3.771  12.087 -0.1048 -0.0552 -0.1261
 1321SOL     OW15424   2.978   0.692   3.054 -0.0241  0.1662  0.4830
 1321SOL    HW115425   2.926   0.654   3.124  0.4406  0.3393  0.9215
 1321SOL    HW215426   3.010   0.771   3.097  0.5840 -0.3032  0.8896
 1322SOL     OW15427   1.251   0.760   5.311  0.2527 -0.6819 -0.3027
 1322SOL    HW115428   1.193   0.709   5.253 -0.6304 -1.3249  1.1414
 1322SOL    HW215429   1.208   0.844   5.326 -1.6172 -1.6374 -0.3047
 1323SOL     OW15430   4.219   3.949   6.393 -0.1243 -0.2885  0.1498
 1323SOL    HW115431   4.158   3.960   6.466 -0.5060 -0.6315 -0.1156
 1323SOL    HW215432   4.276   3.879   6.426  0.4643  0.4611  0.7476
 1324SOL     OW15433   1.912   3.537  16.420 -0.5648  0.9166  0.2905
 1324SOL    HW115434   1.856   3.459  16.431  1.0365 -0.0090  1.8501
 1324SOL    HW215435   1.937   3.565  16.508  3.6762 -1.0701 -0.2559
 1325SOL     OW15436   1.310   0.610   7.831  0.2289  1.0506  0.2219
 1325SOL    HW115437   1.356   0.693   7.835 -1.2359  1.9180 -1.0353
 1325SOL    HW215438   1.373   0.575   7.768 -3.2068 -3.6497 -0.6225
 1326SOL     OW15439   1.313   0.204   2.187 -0.3943  0.3202 -0.6260
 1326SOL    HW115440   1.307   0.207   2.282 -3.8593 -1.9948 -0.7979
 1326SOL    HW215441   1.287   0.114   2.168 -0.0644 -0.0478  0.7141
 1327SOL     OW15442   0.913   1.782   2.092 -0.1211 -0.6659 -0.3890
 1327SOL    HW115443   0.999   1.745   2.112 -1.0703 -2.0547  1.1777
 1327SOL    HW215444   0.947   1.869   2.069  1.7521 -0.9054  1.5113
 1328SOL     OW15445   0.078   2.336   2.294  0.4236 -0.1608 -0.1546
 1328SOL    HW115446   0.028   2.311   2.216 -0.2327 -0.7510  0.4582
 1328SOL    HW215447   0.044   2.425   2.300  0.4940 -0.0493 -1.3959
 1329SOL     OW15448   0.359   0.500   7.800  0.0432  0.1095  0.2677
 1329SOL    HW115449   0.387   0.551   7.724  0.6903  0.1754  0.5497
 1329SOL    HW215450   0.299   0.562   7.842  2.6458  1.6258  1.7909
 1330SOL     OW15451   2.096   0.076  17.468 -0.1091 -0.4140 -0.3167
 1330SOL    HW115452   2.013   0.100  17.426  0.6650  1.8591 -0.5592
 1330SOL    HW215453   2.075   0.103  17.557  0.5691  0.6085 -0.4628
 1331SOL     OW15454   0.281   0.730   4.142 -0.2480 -0.1505  0.0121
 1331SOL    HW115455   0.224   0.806   4.147  1.6983  1.3436 -0.5096
 1331SOL    HW215456   0.229   0.679   4.081 -1.3057  1.7155 -0.6223
 1332SOL     OW15457   3.377   2.333   4.309 -0.1222  0.5051  0.7032
 1332SOL    HW115458   3.377   2.246   4.269 -1.0577  0.1224  1.5521
 1332SOL    HW215459   3.346   2.390   4.238  0.6979  0.1337  0.0486
 1333SOL     OW15460   1.255   2.399   4.998  0.1130  0.7475  0.0243
 1333SOL    HW115461   1.212   2.455   4.933 -0.3755 -1.9564 -1.9561
 1333SOL    HW215462   1.221   2.441   5.077 -1.6059 -0.2208 -0.2239
 1334SOL     OW15463   2.793   3.805   5.724 -0.1323 -0.4467 -0.0082
 1334SOL    HW115464   2.799   3.872   5.792  2.0940  0.4686 -1.1289
 1334SOL    HW215465   2.698   3.809   5.709 -0.1107 -0.6947 -0.2099
 1335SOL     OW15466   1.226   0.539   7.325 -0.2975 -0.8564  0.3531
 1335SOL    HW115467   1.142   0.504   7.295 -0.2001 -1.0630  0.3170
 1335SOL    HW215468   1.198   0.583   7.405 -1.2319 -3.6007  1.5430
 1336SOL     OW15469   1.960   3.620   3.697  0.1141 -0.1556 -0.0484
 1336SOL    HW115470   1.999   3.538   3.728  3.0805  1.3571  0.2617
 1336SOL    HW215471   2.032   3.683   3.701  0.2078 -0.3505  1.3490
 1337SOL     OW15472   2.961   2.697   6.133 -0.4144 -0.2309 -0.3881
 1337SOL    HW115473   2.873   2.731   6.150 -0.2629  0.6418 -1.3915
 1337SOL    HW215474   3.021   2.765   6.163  0.7566 -1.5862  0.3418
 1338SOL     OW15475   2.954   1.367   6.386 -0.6131  0.6103 -0.0004
 1338SOL    HW115476   2.916   1.297   6.332  1.3504 -1.9171  1.8904
 1338SOL    HW215477   2.911   1.353   6.470  0.7180 -0.8174  0.4415
 1339SOL     OW15478   4.111   4.719   5.067 -0.2197  0.6765  0.3952
 1339SOL    HW115479   4.194   0.032   5.092 -1.2427  2.4869  0.8569
 1339SOL    HW215480   4.101   4.655   5.137  0.3866 -1.0694 -1.1068
 1340SOL     OW15481   2.206   3.723   2.567 -0.2749  0.2302  0.0784
 1340SOL    HW115482   2.256   3.771   2.633 -0.2827 -1.2403  1.1423
 1340SOL    HW215483   2.158   3.669   2.630 -0.0972  0.8396  0.7338
 1341SOL     OW15484   2.126   2.010   9.452  0.2956 -0.4963  0.8003
 1341SOL    HW115485   2.147   2.020   9.360 -1.1849 -1.8866  0.3008
 1341SOL    HW215486   2.149   2.099   9.478  0.2274 -0.6439  1.3873
 1342SOL     OW15487   2.113   1.387   0.841 -0.1353 -0.1005 -0.2603
 1342SOL    HW115488   2.150   1.466   0.880  0.6073 -0.1977 -0.7616
 1342SOL    HW215489   2.167   1.324   0.889  2.8218  0.6361 -2.6108
 1343SOL     OW15490   3.736   2.682   9.194 -0.1153 -0.0198 -0.3141
 1343SOL    HW115491   3.663   2.648   9.246  1.1973  1.6386  2.6473
 1343SOL    HW215492   3.796   2.608   9.188 -1.1841 -1.1306  2.4403
 1344SOL     OW15493   4.698   2.798   8.379  0.4280  0.4621  0.3296
 1344SOL    HW115494   0.017   2.744   8.314 -2.6969 -0.3372 -1.2284
 1344SOL    HW215495   4.638   2.848   8.324  0.6764 -0.5651 -0.8734
 1345SOL     OW15496   0.922   2.504   6.906 -0.6080 -0.1887 -0.3049
 1345SOL    HW115497   0.935   2.501   7.001 -0.4889 -3.3180 -0.4122
 1345SOL    HW215498   1.014   2.514   6.880 -0.7669  0.7156 -0.5098
 1346SOL     OW15499   2.434   3.968   9.225  0.8842  0.5569  1.0826
 1346SOL    HW115500   2.357   3.913   9.244  1.3541 -0.5415 -0.1592
 1346SOL    HW215501   2.509   3.908   9.218 -0.7641 -1.6238  1.9553
 1347SOL     OW15502   1.143   1.952   6.185  0.6028  0.3846 -0.4664
 1347SOL    HW115503   1.123   1.858   6.184  2.6962 -0.0506 -1.8145
 1347SOL    HW215504   1.096   1.977   6.265 -0.5593  3.1975 -2.0671
 1348SOL     OW15505   1.497   3.871   5.754  0.1289  0.1778 -0.0605
 1348SOL    HW115506   1.443   3.950   5.747 -1.3149 -0.7365  0.7211
 1348SOL    HW215507   1.555   3.879   5.679 -1.0245  1.8472 -0.7552
 1349SOL     OW15508   0.040   3.814   3.391 -0.1450 -0.4257  0.2860
 1349SOL    HW115509   0.094   3.772   3.324 -0.1569  1.7487 -1.0601
 1349SOL    HW215510   0.013   3.893   3.345  0.7305  0.5247  1.3920
 1350SOL     OW15511   0.815   2.964   4.975 -0.3482 -0.0412  0.1613
 1350SOL    HW115512   0.737   3.019   4.987  0.5414  0.6275  2.9351
 1350SOL    HW215513   0.862   3.018   4.911  0.3901  1.0570  1.6239
 1351SOL     OW15514   2.050   3.432   7.816  0.4256 -0.5288 -0.4389
 1351SOL    HW115515   2.120   3.367   7.803  0.1109 -0.9575 -0.0213
 1351SOL    HW215516   2.054   3.418   7.911 -1.0531  0.2504 -0.2740
 1352SOL     OW15517   0.763   0.227  12.448 -0.1887 -1.0792 -0.5761
 1352SOL    HW115518   0.852   0.220  12.414  0.2314  2.7149 -0.2766
 1352SOL    HW215519   0.754   0.137  12.480  3.7795 -1.7255 -1.3111
 1353SOL     OW15520   2.070   0.981   5.590 -0.3931 -0.9423 -0.0945
 1353SOL    HW115521   2.100   0.975   5.499  0.4026 -1.2548  0.1890
 1353SOL    HW215522   2.145   0.983   5.650 -0.3906  1.4722 -0.1716
 1354SOL     OW15523   0.411   4.580   2.662  0.0132  0.6597  0.0685
 1354SOL    HW115524   0.438   4.503   2.612 -2.2452 -1.7334  2.5877
 1354SOL    HW215525   0.321   4.562   2.687  0.5690 -0.0624  1.5051
 1355SOL     OW15526   2.077   4.178  16.733 -0.2519 -0.0510  0.0795
 1355SOL    HW115527   2.070   4.085  16.710  1.4778 -0.1869  0.0995
 1355SOL    HW215528   1.998   4.220  16.699 -1.5069 -0.7366  2.0945
 1356SOL     OW15529   0.995   3.256   8.690  0.3346 -0.6617 -0.1746
 1356SOL    HW115530   1.001   3.341   8.736  4.0010 -0.3304 -1.2975
 1356SOL    HW215531   1.014   3.289   8.602  0.6291 -0.5781 -0.0814
 1357SOL     OW15532   2.311   3.506   4.687 -0.3170  0.2000 -0.2861
 1357SOL    HW115533   2.313   3.453   4.767 -0.5011  0.5057 -0.0785
 1357SOL    HW215534   2.395   3.498   4.643  0.9407  2.2815  1.7835
 1358SOL     OW15535   1.347   3.357  13.608  0.4222  0.2432 -0.3220
 1358SOL    HW115536   1.441   3.367  13.594  0.1997  2.2483 -0.4414
 1358SOL    HW215537   1.339   3.263  13.591 -0.2702  0.9354 -3.7553
 1359SOL     OW15538   4.363   2.084  10.289 -0.1226  0.1816  0.0889
 1359SOL    HW115539   4.304   2.145  10.245 -1.2177 -0.3874  0.7845
 1359SOL    HW215540   4.418   2.071  10.211 -1.3417 -3.4669 -0.1669
 1360SOL     OW15541   2.255   1.456   2.404 -0.0107  0.0477  0.0660
 1360SOL    HW115542   2.349   1.439   2.404  0.1219  0.7932 -0.1511
 1360SOL    HW215543   2.222   1.372   2.437  1.3601 -0.5396 -0.0503
 1361SOL     OW15544   3.977   4.514  16.791  0.3325 -0.1200 -0.0572
 1361SOL    HW115545   3.995   4.607  16.809 -3.2352  0.5567  0.1240
 1361SOL    HW215546   4.058   4.470  16.815  0.3433  0.8218  1.7052
 1362SOL     OW15547   1.906   3.957   4.364 -0.6424  0.0162  0.2219
 1362SOL    HW115548   1.908   3.880   4.421 -1.0893 -0.0024  0.2158
 1362SOL    HW215549   1.815   3.986   4.374 -0.1644  0.8232  2.2112
 1363SOL     OW15550   1.487   2.669   3.772  0.5144  0.3289 -0.2684
 1363SOL    HW115551   1.541   2.622   3.709  0.4775 -0.7940  0.5350
 1363SOL    HW215552   1.559   2.680   3.834 -0.3524 -0.7895  0.9426
 1364SOL     OW15553   3.443   3.321   8.827 -0.5258  0.2696  0.5126
 1364SOL    HW115554   3.374   3.379   8.859 -0.0734  0.8856  0.3947
 1364SOL    HW215555   3.489   3.381   8.768  1.1505 -2.2995 -0.8134
 1365SOL     OW15556   2.940   1.358   3.057 -0.6836  0.5281 -0.3414
 1365SOL    HW115557   2.976   1.446   3.049  0.0654  0.1092 -1.6804
 1365SOL    HW215558   2.845   1.368   3.055 -0.9099 -1.4474 -0.3185
 1366SOL     OW15559   1.578   4.129  13.661  0.4524 -0.3697 -0.5151
 1366SOL    HW115560   1.650   4.170  13.709  0.0797  1.5273 -1.5852
 1366SOL    HW215561   1.562   4.184  13.585 -2.0455  1.4205  1.2801
 1367SOL     OW15562   2.193   2.448  14.511 -0.0657 -0.5518  0.7268
 1367SOL    HW115563   2.180   2.543  14.513 -2.4300 -0.8839  0.8835
 1367SOL    HW215564   2.247   2.434  14.589  1.8778  0.8272 -0.3602
 1368SOL     OW15565   3.175   0.259   2.200  0.0415  0.4695  0.5195
 1368SOL    HW115566   3.184   0.175   2.243  0.3156  0.3585  0.2456
 1368SOL    HW215567   3.264   0.279   2.172  0.1721  0.7914  1.1717
 1369SOL     OW15568   1.725   1.895   2.064  0.1466 -0.2354 -0.3903
 1369SOL    HW115569   1.696   1.966   2.007 -0.1754  0.3748  0.5311
 1369SOL    HW215570   1.771   1.841   1.999  0.6226 -0.3036  0.0065
 1370SOL     OW15571   0.279   4.249   4.727 -0.2302 -0.1538 -0.3537
 1370SOL    HW115572   0.206   4.188   4.736  0.9457 -1.4015  0.8419
 1370SOL    HW215573   0.321   4.245   4.813 -0.3119 -0.3089 -0.3205
 1371SOL     OW15574   0.570   3.639   3.648  0.2584 -0.0902  0.0332
 1371SOL    HW115575   0.549   3.727   3.618  1.5216 -0.6298 -2.4561
 1371SOL    HW215576   0.480   3.616   3.670  0.4236  1.0556  1.9081
 1372SOL     OW15577   1.937   1.734   5.365 -0.0061  0.2410  0.2116
 1372SOL    HW115578   2.024   1.707   5.396  0.9461 -0.4544 -3.0555
 1372SOL    HW215579   1.955   1.826   5.345  1.7211  0.2322  1.6639
 1373SOL     OW15580   2.176   4.400   9.414  0.2582  0.8131  0.2071
 1373SOL    HW115581   2.232   4.325   9.433  0.9165  1.5196  1.0473
 1373SOL    HW215582   2.224   4.440   9.342 -1.1206 -0.6719 -1.5456
 1374SOL     OW15583   0.869   3.675   7.803  0.1497 -0.6628  0.8562
 1374SOL    HW115584   0.824   3.730   7.867  1.0041  1.1833 -0.1204
 1374SOL    HW215585   0.806   3.685   7.733  0.7410 -1.3768  0.2236
 1375SOL     OW15586   3.562   0.842   7.582  0.2022 -0.5057 -0.3170
 1375SOL    HW115587   3.632   0.783   7.557 -2.0423 -2.5517 -1.7375
 1375SOL    HW215588   3.555   0.824   7.676  2.7209  1.3799  0.2116
 1376SOL     OW15589   2.535   3.421   7.970  0.4048  0.4483  0.1553
 1376SOL    HW115590   2.518   3.473   7.892  2.2605 -0.5822 -0.9178
 1376SOL    HW215591   2.629   3.423   7.985 -0.1020  0.1386  3.5245
 1377SOL     OW15592   2.545   4.634  15.279 -0.9238 -0.6072 -0.3279
 1377SOL    HW115593   2.452   4.657  15.283 -0.8381 -0.4620  0.9108
 1377SOL    HW215594   2.550   4.546  15.316  0.8770 -0.2455  0.3112
 1378SOL     OW15595   4.164   0.761  16.556  0.0598 -0.1716  0.0452
 1378SOL    HW115596   4.167   0.681  16.609  0.8204  0.5439  1.0784
 1378SOL    HW215597   4.128   0.825  16.616  0.9188 -1.2377  1.7002
 1379SOL     OW15598   1.125   4.461   2.392 -0.4525 -0.6443  0.1071
 1379SOL    HW115599   1.060   4.391   2.405  0.7311 -1.7930 -0.1849
 1379SOL    HW215600   1.077   4.543   2.380  0.4196 -0.1932 -0.3247
 1380SOL     OW15601   2.245   4.592   1.650 -0.6569  0.1029 -0.2035
 1380SOL    HW115602   2.314   4.601   1.716 -0.5186 -1.2002 -0.1738
 1380SOL    HW215603   2.293   4.560   1.574 -1.0528 -2.1862  0.5207
 1381SOL     OW15604   4.097   1.462  17.322 -0.4838  0.1925 -0.3100
 1381SOL    HW115605   4.009   1.437  17.295 -1.2660 -0.4521  2.7523
 1381SOL    HW215606   4.148   1.430  17.248  0.3323  1.1732 -0.1693
 1382SOL     OW15607   1.309   3.577   4.523 -0.5894  0.4223  0.2143
 1382SOL    HW115608   1.341   3.655   4.478  1.1797 -1.5197 -1.9179
 1382SOL    HW215609   1.217   3.578   4.498 -0.1222 -0.3147 -1.5766
 1383SOL     OW15610   2.395   3.560   4.290  0.2076 -0.1369  0.2467
 1383SOL    HW115611   2.315   3.528   4.332 -0.5961  0.3539 -0.9145
 1383SOL    HW215612   2.376   3.650   4.265 -1.6895 -0.0973  1.8381
 1384SOL     OW15613   2.058   3.222   7.389  0.5496  0.0287 -0.1866
 1384SOL    HW115614   2.043   3.188   7.478 -0.2258 -1.2787 -0.8208
 1384SOL    HW215615   2.154   3.219   7.385  0.6256  1.4375  0.5919
 1385SOL     OW15616   3.155   0.232   1.133  0.1238  0.6170 -0.2732
 1385SOL    HW115617   3.086   0.183   1.088  1.7070 -1.4137 -0.5075
 1385SOL    HW215618   3.219   0.225   1.062  0.3113  0.0790 -0.0523
 1386SOL     OW15619   1.402   1.885   7.562 -0.3147  0.0971  0.2829
 1386SOL    HW115620   1.382   1.939   7.638  0.9381  1.2931 -0.2324
 1386SOL    HW215621   1.317   1.878   7.519  0.1928  0.1181 -0.7487
 1387SOL     OW15622   3.976   0.496   3.635  0.3838 -0.1668 -0.2123
 1387SOL    HW115623   3.918   0.519   3.562 -1.8963 -2.1858  0.9633
 1387SOL    HW215624   4.060   0.534   3.612  0.1329  0.4467 -0.1132
 1388SOL     OW15625   0.798   2.272   7.873 -0.1350 -0.7093  0.5491
 1388SOL    HW115626   0.834   2.190   7.907  0.9594 -0.5089 -0.1240
 1388SOL    HW215627   0.879   2.309   7.839 -0.2721 -1.1804 -0.2925
 1389SOL     OW15628   2.544   4.295   0.457  0.1981 -0.2640  0.3278
 1389SOL    HW115629   2.523   4.268   0.546 -1.6697 -0.1514 -0.0866
 1389SOL    HW215630   2.504   4.228   0.402 -2.9667  1.4504  0.5616
 1390SOL     OW15631   3.067   1.500   8.534  0.2763 -0.2294  0.0622
 1390SOL    HW115632   2.983   1.541   8.514 -0.9562 -2.5126  0.6097
 1390SOL    HW215633   3.114   1.584   8.536 -1.2773  0.6049  1.8416
 1391SOL     OW15634   4.378   0.733   8.678 -0.1134 -0.1306  0.8553
 1391SOL    HW115635   4.472   0.727   8.664 -0.3267 -0.9326 -0.1831
 1391SOL    HW215636   4.380   0.756   8.771 -2.3998  0.3329  0.7906
 1392SOL     OW15637   2.930   3.059   9.249  0.0438  0.2441 -0.1615
 1392SOL    HW115638   2.928   3.083   9.342  0.2775 -0.4352  0.0193
 1392SOL    HW215639   2.981   2.978   9.255  0.9255  0.8056  0.0494
 1393SOL     OW15640   0.541   0.404  16.932  0.1344 -0.1348  0.0664
 1393SOL    HW115641   0.470   0.410  16.867  0.2120  0.1987  0.0139
 1393SOL    HW215642   0.574   0.491  16.908  0.0102 -0.4635 -1.2983
 1394SOL     OW15643   2.342   0.779   3.306  0.0261  0.4169  0.3132
 1394SOL    HW115644   2.425   0.819   3.335  0.4387 -0.4915  0.3994
 1394SOL    HW215645   2.337   0.794   3.212  2.2600 -1.0457 -0.0351
 1395SOL     OW15646   3.896   0.369   7.122 -0.4457  0.3027 -0.1356
 1395SOL    HW115647   3.911   0.289   7.072  0.2929  0.5989 -0.3784
 1395SOL    HW215648   3.807   0.345   7.149 -0.4256  0.6165  0.2218
 1396SOL     OW15649   0.198   3.434  15.700  0.1179  0.3882  0.2366
 1396SOL    HW115650   0.131   3.450  15.767 -0.5169  2.5929 -0.9281
 1396SOL    HW215651   0.279   3.437  15.750  1.3147  1.8375 -1.7802
 1397SOL     OW15652   4.507   0.796   3.061 -0.2155  0.1603 -0.2137
 1397SOL    HW115653   4.509   0.862   2.992  0.1802 -0.2393 -0.5830
 1397SOL    HW215654   4.415   0.771   3.060 -0.4759  0.9139  2.5246
 1398SOL     OW15655   4.444   4.178   8.097 -0.3458  0.0621 -0.2423
 1398SOL    HW115656   4.414   4.087   8.101 -3.3390  1.0008 -1.4477
 1398SOL    HW215657   4.374   4.226   8.053  1.4221  1.7142 -1.2393
 1399SOL     OW15658   2.162   1.485   3.366 -0.1667 -0.3156  0.1723
 1399SOL    HW115659   2.108   1.519   3.294  1.7591  1.2688 -0.5145
 1399SOL    HW215660   2.209   1.412   3.324  0.7234  1.2578 -1.5683
 1400SOL     OW15661   1.024   3.204   4.884  0.1498 -0.5269 -0.6257
 1400SOL    HW115662   1.052   3.287   4.844  1.5587  0.7668  3.0063
 1400SOL    HW215663   1.103   3.176   4.930 -1.3531 -4.0066 -0.1704
 1401SOL     OW15664   3.784   3.838   9.010  0.0533 -0.3956 -0.1249
 1401SOL    HW115665   3.776   3.908   9.075  2.0981  0.7398 -1.1062
 1401SOL    HW215666   3.710   3.783   9.036  0.5837 -2.1302 -2.2033
 1402SOL     OW15667   1.459   4.609   5.340  0.1807  0.7338 -0.1085
 1402SOL    HW115668   1.500   4.627   5.424 -0.5558  1.5580  0.0704
 1402SOL    HW215669   1.479   4.689   5.292  1.5199 -0.0685 -0.8882
 1403SOL     OW15670   0.985   1.912   8.617 -0.1271 -0.5376  0.5406
 1403SOL    HW115671   0.951   1.937   8.703 -1.2537  1.9626 -0.6263
 1403SOL    HW215672   0.919   1.954   8.562  0.9423  1.5601  0.8636
 1404SOL     OW15673   1.957   2.580   3.965 -0.5358  0.3765  0.8289
 1404SOL    HW115674   1.928   2.492   3.940 -0.8533  0.9620 -0.8113
 1404SOL    HW215675   2.052   2.571   3.967 -0.4976  0.3841 -1.7488
 1405SOL     OW15676   1.309   1.654   5.216 -0.5905  0.0125 -0.4329
 1405SOL    HW115677   1.307   1.745   5.246  1.5154  0.0521 -0.4363
 1405SOL    HW215678   1.248   1.605   5.271 -0.3694  0.0696 -0.1417
 1406SOL     OW15679   3.112   3.859   0.263  0.2957  0.0778 -0.2478
 1406SOL    HW115680   3.064   3.826   0.339  1.6895 -0.1436  0.5310
 1406SOL    HW215681   3.115   3.780   0.208  1.5165 -0.1060  0.1003
 1407SOL     OW15682   1.897   1.672   2.885  0.4892  0.2383  0.0464
 1407SOL    HW115683   1.865   1.713   2.965  1.3590 -0.7604  0.8942
 1407SOL    HW215684   1.984   1.712   2.884  0.8592 -0.5030  2.8124
 1408SOL     OW15685   1.498   2.274   1.747  0.0765 -0.8984  0.0672
 1408SOL    HW115686   1.422   2.257   1.804  0.9721 -1.6910  1.0192
 1408SOL    HW215687   1.545   2.318   1.818  2.8016 -2.0433 -1.0592
 1409SOL     OW15688   2.283   0.420   2.884 -0.1086 -0.3924 -0.1574
 1409SOL    HW115689   2.315   0.343   2.931  1.3368  0.2072 -0.1710
 1409SOL    HW215690   2.312   0.490   2.942 -0.3358 -1.1532  0.8691
 1410SOL     OW15691   1.701   2.576  10.658  0.6783 -0.2964 -0.1015
 1410SOL    HW115692   1.760   2.573  10.583 -0.3085 -1.1829 -0.8548
 1410SOL    HW215693   1.758   2.540  10.726 -0.3224 -0.3237  0.7249
 1411SOL     OW15694   3.100   3.932  12.390 -0.3460 -0.5839 -0.0966
 1411SOL    HW115695   3.005   3.921  12.403 -0.5762  1.4072 -0.0295
 1411SOL    HW215696   3.125   3.958  12.479 -4.6346 -1.6449  1.4189
 1412SOL     OW15697   1.134   1.266   5.861  0.1509 -0.1395 -0.3055
 1412SOL    HW115698   1.094   1.332   5.917 -1.6026 -1.5270  0.0936
 1412SOL    HW215699   1.093   1.300   5.782  0.9998  0.5129 -0.4653
 1413SOL     OW15700   1.528   4.329  16.823  0.4272  0.1042  0.6059
 1413SOL    HW115701   1.607   4.292  16.785 -0.0463 -1.4688  1.1215
 1413SOL    HW215702   1.513   4.275  16.901  0.6898 -1.1067 -0.1730
 1414SOL     OW15703   3.530   1.065   4.832  0.0792  0.6353 -0.0998
 1414SOL    HW115704   3.460   1.090   4.892 -2.1280  1.0783 -2.8683
 1414SOL    HW215705   3.599   1.062   4.898  0.1144 -1.0049 -0.1993
 1415SOL     OW15706   0.106   2.227   4.879  0.1223  0.2734 -0.0762
 1415SOL    HW115707   0.105   2.148   4.826 -3.7040  0.2420  0.0121
 1415SOL    HW215708   0.018   2.231   4.918  0.0688  1.3532 -0.2960
 1416SOL     OW15709   2.875   4.361   5.450  0.2033 -0.3276 -0.0345
 1416SOL    HW115710   2.814   4.333   5.518  1.7039 -1.6054  0.7709
 1416SOL    HW215711   2.881   4.455   5.465 -1.1183 -0.0076 -1.5371
 1417SOL     OW15712   2.035   2.240   5.974  0.3586  0.6532 -0.0970
 1417SOL    HW115713   2.092   2.265   5.901 -0.7050  1.6535 -0.5953
 1417SOL    HW215714   2.077   2.287   6.046 -0.6855 -1.9553  2.1661
 1418SOL     OW15715   3.530   3.057   6.960  0.2435 -0.4259 -0.3342
 1418SOL    HW115716   3.502   3.083   7.048  0.4499  0.0512 -0.4090
 1418SOL    HW215717   3.576   2.978   6.987 -0.5843 -1.2530 -1.3576
 1419SOL     OW15718   3.456   0.632   4.440 -0.0882  0.6988 -0.5157
 1419SOL    HW115719   3.525   0.697   4.425 -0.8344  0.9136 -3.0764
 1419SOL    HW215720   3.441   0.657   4.531  1.1228 -2.7059  0.5880
 1420SOL     OW15721   2.475   2.156   2.638 -0.2855 -0.1212 -0.3441
 1420SOL    HW115722   2.481   2.077   2.691  0.3752 -0.4812 -0.9607
 1420SOL    HW215723   2.462   2.230   2.697  0.8269 -0.5012  0.3758
 1421SOL     OW15724   3.130   1.528  11.250 -0.3700  0.6833  0.0958
 1421SOL    HW115725   3.103   1.436  11.243 -0.6490  0.6688  1.3039
 1421SOL    HW215726   3.225   1.518  11.240 -0.5245 -0.3205 -0.3950
 1422SOL     OW15727   1.955   4.373   2.286  0.0552 -0.3564 -0.4414
 1422SOL    HW115728   1.925   4.347   2.199  0.2035 -0.9362 -0.3193
 1422SOL    HW215729   1.921   4.462   2.292 -0.5703 -0.5994 -0.3916
 1423SOL     OW15730   2.796   3.221   3.278  0.2975 -0.0401  0.5274
 1423SOL    HW115731   2.749   3.215   3.195  0.0936 -1.0276  0.7160
 1423SOL    HW215732   2.807   3.315   3.290  0.5262 -0.0043  0.0489
 1424SOL     OW15733   2.823   4.018   5.511  1.0088  0.8743 -0.4657
 1424SOL    HW115734   2.914   3.997   5.491  0.6165 -0.4439 -0.8497
 1424SOL    HW215735   2.810   3.946   5.573  4.5126  2.2424  1.8727
 1425SOL     OW15736   0.342   1.853   4.275 -0.4895  0.0753  0.3179
 1425SOL    HW115737   0.371   1.842   4.184  1.6818 -0.3990  1.0616
 1425SOL    HW215738   0.415   1.799   4.304 -1.6475 -2.3435 -1.2957
 1426SOL     OW15739   4.148   3.196   3.257 -0.1838 -0.1498  0.1869
 1426SOL    HW115740   4.085   3.125   3.252 -0.7372  0.3261  0.3914
 1426SOL    HW215741   4.157   3.216   3.163 -3.0716 -2.9199 -0.6736
 1427SOL     OW15742   1.441   3.025   5.128 -0.0132 -0.6229  0.1492
 1427SOL    HW115743   1.466   2.971   5.202  1.5632 -0.3436 -0.1885
 1427SOL    HW215744   1.517   3.030   5.070  0.1857 -0.6433  0.4074
 1428SOL     OW15745   2.889   1.477   7.737  0.3452 -0.4164 -0.2681
 1428SOL    HW115746   2.966   1.466   7.793  0.6596  0.1804 -0.5792
 1428SOL    HW215747   2.826   1.495   7.806 -0.1608 -1.1647 -0.5315
 1429SOL     OW15748   3.805   4.295   7.804 -0.2935  0.5865 -0.3517
 1429SOL    HW115749   3.894   4.296   7.768 -0.1549  0.9603 -0.0030
 1429SOL    HW215750   3.788   4.387   7.824 -0.6826  0.0359  1.8483
 1430SOL     OW15751   0.710   2.560   0.397  0.0603  0.2663  0.0784
 1430SOL    HW115752   0.618   2.531   0.389  0.3552  0.3378 -3.7608
 1430SOL    HW215753   0.751   2.474   0.402 -1.9904 -0.6848  0.7790
 1431SOL     OW15754   2.736   0.237   9.444 -0.3042  0.4059  0.4696
 1431SOL    HW115755   2.741   0.280   9.359 -0.3887  1.1002  0.8173
 1431SOL    HW215756   2.668   0.289   9.487 -2.1849  0.9532 -3.1430
 1432SOL     OW15757   3.502   4.178   6.176 -0.2073  0.1829 -0.4251
 1432SOL    HW115758   3.594   4.202   6.171  0.3115 -1.4840  1.1145
 1432SOL    HW215759   3.457   4.260   6.158  2.1641  1.8670  1.4526
 1433SOL     OW15760   2.827   4.704   1.600  0.3976 -0.2918  0.2709
 1433SOL    HW115761   2.796   4.613   1.606  0.7845 -0.3820  0.9413
 1433SOL    HW215762   2.912   4.687   1.561  0.2106 -0.2838 -0.1359
 1434SOL     OW15763   3.833   0.863  16.146  0.0339  0.2565  0.3302
 1434SOL    HW115764   3.881   0.861  16.063  0.1190  3.1611  0.3082
 1434SOL    HW215765   3.893   0.810  16.197  1.5552 -0.2287 -1.9512
 1435SOL     OW15766   1.324   0.377   4.284 -0.0965 -0.2774  0.3122
 1435SOL    HW115767   1.364   0.429   4.354  1.1102  0.0948 -0.6625
 1435SOL    HW215768   1.396   0.352   4.227  0.5211  0.4949  0.7560
 1436SOL     OW15769   1.190   1.608  17.070  0.3705  0.8866  0.0630
 1436SOL    HW115770   1.104   1.639  17.041  0.6276  1.7450  0.2072
 1436SOL    HW215771   1.211   1.674  17.136  0.0285 -0.6453  1.6917
 1437SOL     OW15772   4.313   3.964  13.158 -0.6034  0.0911 -0.1256
 1437SOL    HW115773   4.381   3.907  13.122  1.0190  2.2067 -0.3649
 1437SOL    HW215774   4.236   3.923  13.118 -0.9153  0.4010  0.1554
 1438SOL     OW15775   3.813   1.249   8.117 -0.1008 -0.4887  0.1023
 1438SOL    HW115776   3.847   1.160   8.113  1.5324 -0.0443  4.5444
 1438SOL    HW215777   3.845   1.277   8.203  2.1940 -1.7062 -0.3634
 1439SOL     OW15778   4.297   0.924   6.196  0.3294 -0.5323 -0.5322
 1439SOL    HW115779   4.218   0.871   6.200 -0.1500  0.0266 -2.8922
 1439SOL    HW215780   4.270   1.003   6.149 -0.1050 -1.3930 -1.6972
 1440SOL     OW15781   1.610   3.845   3.027 -0.0677 -0.2235 -0.0515
 1440SOL    HW115782   1.701   3.842   3.057  0.1360  0.5588 -0.5950
 1440SOL    HW215783   1.614   3.761   2.982 -0.3423 -1.1054  1.5475
 1441SOL     OW15784   1.380   3.697   7.791 -0.2862 -0.4245  0.7854
 1441SOL    HW115785   1.320   3.667   7.859 -1.4154  0.2561  0.0837
 1441SOL    HW215786   1.319   3.695   7.718 -0.4545 -1.9862  0.9831
 1442SOL     OW15787   4.214   3.367   5.345  0.1826  0.3497  0.5458
 1442SOL    HW115788   4.147   3.401   5.404  0.5162  0.4253  0.8782
 1442SOL    HW215789   4.267   3.443   5.369 -0.5343  1.1768 -0.4277
 1443SOL     OW15790   4.531   0.503   7.080  0.0428  0.1528 -0.2055
 1443SOL    HW115791   4.536   0.598   7.068  1.1213 -0.0246 -1.2191
 1443SOL    HW215792   4.517   0.475   6.990  0.5741 -1.1169  0.0986
 1444SOL     OW15793   3.632   1.811   8.179  0.3902 -0.3096  0.3865
 1444SOL    HW115794   3.641   1.882   8.243 -1.4692  0.3115 -0.0230
 1444SOL    HW215795   3.584   1.750   8.235 -1.2017 -0.5080 -1.1894
 1445SOL     OW15796   0.861   0.403   9.039  0.0828  0.3625  0.0159
 1445SOL    HW115797   0.951   0.421   9.011  0.4989  1.3044  1.9590
 1445SOL    HW215798   0.813   0.418   8.958 -1.6079  0.9153  1.1292
 1446SOL     OW15799   2.744   1.453  11.390 -0.2384 -0.4855  0.4446
 1446SOL    HW115800   2.656   1.484  11.369  0.1320 -0.1540 -0.6470
 1446SOL    HW215801   2.781   1.536  11.421 -1.3588 -0.3957  1.5303
 1447SOL     OW15802   3.562   0.051   4.340  0.4761  0.2799  0.2397
 1447SOL    HW115803   3.649   0.010   4.337 -0.4105 -1.6264  0.5739
 1447SOL    HW215804   3.540   0.044   4.247 -2.7972  0.9382  0.9600
 1448SOL     OW15805   1.216   4.025  14.484  0.2070  0.7592 -0.7389
 1448SOL    HW115806   1.152   3.978  14.537 -0.3407  1.2321 -0.9776
 1448SOL    HW215807   1.202   4.112  14.522  0.5791  0.3309  0.3836
 1449SOL     OW15808   0.213   2.466  12.731  0.2270 -0.0519  0.5136
 1449SOL    HW115809   0.289   2.523  12.726  0.0233  0.3179  1.6739
 1449SOL    HW215810   0.186   2.472  12.823  1.2519 -0.5446  0.8377
 1450SOL     OW15811   1.852   0.939   6.214 -0.0438  0.2984  0.0157
 1450SOL    HW115812   1.871   0.921   6.306 -1.4363  0.8005  0.3990
 1450SOL    HW215813   1.934   0.962   6.170  1.3662 -1.3909  1.8013
 1451SOL     OW15814   4.592   2.603   1.327 -0.2858 -0.0440 -0.0003
 1451SOL    HW115815   4.526   2.672   1.323  0.6779  0.9360  1.4839
 1451SOL    HW215816   4.664   2.656   1.361  0.3021 -1.5425  1.0679
 1452SOL     OW15817   1.162   1.117  14.331  0.3803  0.3229  0.0524
 1452SOL    HW115818   1.242   1.076  14.363 -1.2016 -4.2022 -1.7370
 1452SOL    HW215819   1.161   1.095  14.238 -0.4178 -2.0197  0.6145
 1453SOL     OW15820   3.821   1.054   5.878  0.1959 -0.4608  0.7719
 1453SOL    HW115821   3.870   0.994   5.822 -0.3172 -0.5227  0.3800
 1453SOL    HW215822   3.729   1.045   5.852  0.2025 -0.5522  0.7815
 1454SOL     OW15823   1.228   1.433  10.370  0.4524 -0.1651  0.1004
 1454SOL    HW115824   1.188   1.463  10.452 -1.3465  0.1550 -0.9033
 1454SOL    HW215825   1.257   1.511  10.323  0.2236 -0.1478 -0.0090
 1455SOL     OW15826   1.545   3.025   9.627  0.5133 -0.0524 -0.0223
 1455SOL    HW115827   1.632   3.064   9.635  0.0358  0.1776  3.9548
 1455SOL    HW215828   1.490   3.103   9.615  1.2484  0.9497  3.1554
 1456SOL     OW15829   0.192   3.688  16.702  0.1427 -0.0567  0.2582
 1456SOL    HW115830   0.170   3.607  16.748 -0.7513  0.7651  1.3081
 1456SOL    HW215831   0.160   3.667  16.615  3.6853 -0.3468 -0.9496
 1457SOL     OW15832   4.421   0.654  15.203 -0.0248 -0.0895  0.0427
 1457SOL    HW115833   4.355   0.721  15.188  0.5729  0.0420 -2.1627
 1457SOL    HW215834   4.426   0.616  15.115 -0.6841 -2.8472  1.2123
 1458SOL     OW15835   0.840   2.691  17.096  0.1250  0.4803  0.1586
 1458SOL    HW115836   0.823   2.706  17.189  0.4164 -0.7926  0.4144
 1458SOL    HW215837   0.864   2.776  17.060  1.9176 -0.5509 -1.1152
 1459SOL     OW15838   3.929   2.038   3.444 -0.1993 -0.6614  0.0039
 1459SOL    HW115839   3.916   2.071   3.355  0.2929  2.6515  1.1678
 1459SOL    HW215840   3.845   2.058   3.485  1.1167  0.2168  2.2524
 1460SOL     OW15841   1.721   2.921   3.847  0.3884 -0.0818 -0.0564
 1460SOL    HW115842   1.772   2.950   3.772 -0.5935  0.0071 -0.6933
 1460SOL    HW215843   1.703   2.831   3.819  0.9227 -0.2893  0.2799
 1461SOL     OW15844   3.504   1.790  10.335  0.3574  0.2693 -0.6299
 1461SOL    HW115845   3.592   1.802  10.300  0.6796 -1.4021 -0.3814
 1461SOL    HW215846   3.518   1.721  10.400 -2.8907  1.2997  1.1801
 1462SOL     OW15847   1.788   1.646  11.105 -0.1730 -0.0350  0.1371
 1462SOL    HW115848   1.836   1.582  11.158 -1.5117 -0.4615  0.8338
 1462SOL    HW215849   1.779   1.725  11.159  1.5668 -0.5240  1.1631
 1463SOL     OW15850   0.986   3.568   2.586 -0.0413  0.5280  0.1127
 1463SOL    HW115851   0.899   3.537   2.560  0.4865  0.2145 -1.2594
 1463SOL    HW215852   1.010   3.496   2.644  1.4763  0.7421 -0.2601
 1464SOL     OW15853   3.554   3.436   3.449 -0.0749 -0.3400  0.3293
 1464SOL    HW115854   3.625   3.441   3.513  0.9393 -0.5609 -0.7683
 1464SOL    HW215855   3.510   3.356   3.478  2.6098 -2.2241 -0.7303
 1465SOL     OW15856   4.510   3.302   4.247  0.0367 -0.1655  0.0527
 1465SOL    HW115857   4.546   3.226   4.201  1.9535  0.1923  0.9652
 1465SOL    HW215858   4.415   3.297   4.234 -0.2153 -0.6153  2.0683
 1466SOL     OW15859   0.213   4.154   6.540 -0.3214 -0.3020  0.2477
 1466SOL    HW115860   0.199   4.108   6.458  0.9666  1.7498 -1.1069
 1466SOL    HW215861   0.123   4.177   6.562  1.2356  4.4309  1.6636
 1467SOL     OW15862   0.255   2.187  16.297 -0.1856 -0.1242 -0.6161
 1467SOL    HW115863   0.241   2.258  16.359  1.2638  0.1949 -0.6572
 1467SOL    HW215864   0.170   2.184  16.253 -1.0085 -0.8752  1.0275
 1468SOL     OW15865   4.052   3.965   3.685 -0.9201 -0.2003  0.1669
 1468SOL    HW115866   4.020   3.949   3.774  0.6608 -1.4928  0.5265
 1468SOL    HW215867   3.998   3.897   3.646  0.2913 -0.6639 -0.7179
 1469SOL     OW15868   0.680   0.905   6.913  0.2288  0.1069  0.5613
 1469SOL    HW115869   0.678   0.951   6.830 -0.8154 -1.7294 -0.4412
 1469SOL    HW215870   0.600   0.932   6.959 -1.2334 -1.8990 -0.7800
 1470SOL     OW15871   4.530   1.065  12.163  0.0336  0.1013 -0.4805
 1470SOL    HW115872   4.492   1.059  12.251 -0.5455  1.1687 -0.6558
 1470SOL    HW215873   4.559   1.156  12.167  1.4033 -0.4635  2.0729
 1471SOL     OW15874   0.189   2.910   9.794  0.0286 -0.3594 -0.5929
 1471SOL    HW115875   0.142   2.991   9.814 -2.1680 -1.7604 -0.0716
 1471SOL    HW215876   0.219   2.937   9.707  2.9423  0.9607  0.8102
 1472SOL     OW15877   4.091   2.591   3.688  0.4127 -0.0636  0.1570
 1472SOL    HW115878   4.161   2.637   3.733 -1.9649 -0.2346  4.0386
 1472SOL    HW215879   4.122   2.503   3.671 -0.3077 -0.5622  1.4605
 1473SOL     OW15880   3.046   2.778   8.497  0.3234 -0.2999  0.1646
 1473SOL    HW115881   3.098   2.836   8.553 -0.2153  1.9850 -1.6955
 1473SOL    HW215882   3.094   2.695   8.506 -0.5101 -0.7195  0.7967
 1474SOL     OW15883   3.943   3.979   7.740 -0.3555  0.2401  0.3211
 1474SOL    HW115884   3.992   4.058   7.761 -0.4737  0.4665 -0.2519
 1474SOL    HW215885   3.911   4.016   7.657 -0.9354  0.9094  0.8368
 1475SOL     OW15886   1.077   4.416   7.998 -0.7243 -0.0227 -1.0125
 1475SOL    HW115887   1.032   4.490   8.038  0.1322 -0.4889  0.8098
 1475SOL    HW215888   1.164   4.452   7.979  0.0292 -1.8244 -1.0005
 1476SOL     OW15889   0.698   4.371   2.283  0.0986 -0.3250  0.7006
 1476SOL    HW115890   0.750   4.444   2.316  1.0172 -0.6495 -0.0540
 1476SOL    HW215891   0.656   4.422   2.213  1.6795  1.6446  1.1989
 1477SOL     OW15892   4.591   1.587  12.607 -0.6894 -0.2034 -0.0857
 1477SOL    HW115893   4.616   1.531  12.681  1.0372  0.5577 -0.0846
 1477SOL    HW215894   4.517   1.634  12.645 -1.0282 -0.4365 -0.4593
 1478SOL     OW15895   2.554   0.468  17.517  0.2126  0.1794 -0.3322
 1478SOL    HW115896   2.606   0.500  17.591 -0.4992  3.0440 -1.0872
 1478SOL    HW215897   2.521   0.385  17.553 -0.3997 -0.0810 -1.5082
 1479SOL     OW15898   2.742   1.164   6.294  0.1267 -0.5476 -0.0793
 1479SOL    HW115899   2.700   1.250   6.285  1.8666  0.1596 -1.2891
 1479SOL    HW215900   2.673   1.101   6.314  0.5443 -0.9640  0.0298
 1480SOL     OW15901   4.616   0.328   4.740  0.3289 -0.5981  0.8886
 1480SOL    HW115902   4.665   0.310   4.660 -0.3038 -2.2921  0.8937
 1480SOL    HW215903   4.534   0.285   4.714 -0.2672  1.5117 -0.7658
 1481SOL     OW15904   0.115   0.632   4.718  0.5910  0.2716  0.1033
 1481SOL    HW115905   0.124   0.610   4.811  0.5076  0.3864  0.1385
 1481SOL    HW215906   0.081   0.550   4.684 -1.7052  0.2867  2.3448
 1482SOL     OW15907   3.915   4.287  14.476 -0.0200 -0.6380  0.4482
 1482SOL    HW115908   3.977   4.338  14.423  0.0092 -0.4808  0.6346
 1482SOL    HW215909   3.869   4.364  14.511  0.8937  0.5938 -1.0175
 1483SOL     OW15910   1.227   4.130   3.011  0.0057 -0.1954  0.0832
 1483SOL    HW115911   1.311   4.152   3.050 -0.4140  0.7164  0.4876
 1483SOL    HW215912   1.250   4.084   2.930  0.0545 -1.6988  0.9482
 1484SOL     OW15913   0.626   3.890   2.490 -0.1125 -0.4325  0.3881
 1484SOL    HW115914   0.663   3.978   2.495  1.5852 -1.1417  0.2975
 1484SOL    HW215915   0.672   3.847   2.562 -0.7287 -1.6709  0.0397
 1485SOL     OW15916   1.247   3.735   6.797 -0.0989 -0.3108 -0.7064
 1485SOL    HW115917   1.254   3.808   6.859 -0.9392 -1.6039  0.9150
 1485SOL    HW215918   1.293   3.664   6.842  1.9697  0.0496 -2.3016
 1486SOL     OW15919   0.806   1.150   0.266 -0.0459 -0.5255 -0.1704
 1486SOL    HW115920   0.744   1.202   0.215  0.7793 -0.5042 -1.1509
 1486SOL    HW215921   0.809   1.212   0.339  3.1302  2.0111 -2.4549
 1487SOL     OW15922   0.502   4.470   7.681 -0.3022 -0.6876  0.0852
 1487SOL    HW115923   0.546   4.387   7.700  0.4894  0.3531  2.8103
 1487SOL    HW215924   0.468   4.446   7.594 -1.0575 -1.6503  0.6478
 1488SOL     OW15925   2.146   2.594   7.451  0.2440  0.0425 -0.8432
 1488SOL    HW115926   2.212   2.528   7.429 -1.8480 -3.6023  3.7244
 1488SOL    HW215927   2.195   2.669   7.419  0.0576  1.2735  1.7368
 1489SOL     OW15928   2.604   3.099   6.572  0.2948  0.1888 -0.1927
 1489SOL    HW115929   2.628   3.114   6.663 -0.5526 -2.8720  0.5166
 1489SOL    HW215930   2.514   3.132   6.568 -0.4080 -1.6624  0.8285
 1490SOL     OW15931   2.111   4.204  12.338 -0.1904 -0.1538  0.3949
 1490SOL    HW115932   2.086   4.196  12.246  2.1676 -1.8438 -0.1038
 1490SOL    HW215933   2.182   4.268  12.336  0.4134 -0.8213  0.6261
 1491SOL     OW15934   2.641   4.626  11.881 -0.3620 -0.0289  0.4380
 1491SOL    HW115935   2.644   4.643  11.975 -2.4795 -1.5278  0.7734
 1491SOL    HW215936   2.616   4.535  11.897 -0.2055  0.4327  3.3077
 1492SOL     OW15937   1.311   1.793   4.003  0.1664  0.0696 -1.0028
 1492SOL    HW115938   1.385   1.854   4.011  0.4938 -0.7898  2.4544
 1492SOL    HW215939   1.241   1.851   4.034  0.7435  1.3297 -2.0465
 1493SOL     OW15940   2.238   4.037   3.752  0.0973  0.5744 -0.4972
 1493SOL    HW115941   2.198   3.950   3.759 -1.0430  1.0681 -0.8204
 1493SOL    HW215942   2.172   4.087   3.703  0.2738  0.6555 -0.6504
 1494SOL     OW15943   3.679   2.721   0.947 -0.1681  0.1098  0.3687
 1494SOL    HW115944   3.709   2.763   0.866  2.6457 -3.2026 -0.3557
 1494SOL    HW215945   3.769   2.708   0.977  0.3559  0.7195 -0.9233
 1495SOL     OW15946   3.725   2.801   4.513  0.1411 -0.2029 -0.3182
 1495SOL    HW115947   3.699   2.832   4.600  0.1749 -2.3692  0.4513
 1495SOL    HW215948   3.638   2.808   4.473 -0.0370  1.0372  0.2960
 1496SOL     OW15949   1.993   0.642  17.192 -0.5270  0.5600 -0.7509
 1496SOL    HW115950   2.036   0.724  17.170 -0.6251  0.8447  0.1044
 1496SOL    HW215951   2.033   0.631  17.279 -1.3484 -0.2062 -0.4656
 1497SOL     OW15952   2.811   3.639   5.075 -0.2490 -0.3667  0.1185
 1497SOL    HW115953   2.760   3.687   5.010  1.3956  2.2217  0.7407
 1497SOL    HW215954   2.891   3.690   5.066  0.5164 -1.3669  1.2496
 1498SOL     OW15955   1.743   1.410   5.401 -0.1448 -0.0246  0.2419
 1498SOL    HW115956   1.688   1.482   5.370  0.2753 -0.5721 -1.8038
 1498SOL    HW215957   1.724   1.378   5.489 -0.0940 -0.5839  0.0471
 1499SOL     OW15958   3.051   2.344  17.468 -0.2430  0.5209 -0.5056
 1499SOL    HW115959   3.098   2.423  17.494 -0.9908  1.1794 -1.1243
 1499SOL    HW215960   3.121   2.281  17.454 -0.6500 -0.0037 -0.2088
 1500SOL     OW15961   4.687   1.305   7.369 -0.0083  0.1225 -0.0785
 1500SOL    HW115962   0.017   1.376   7.398  0.7667 -0.4729 -0.1304
 1500SOL    HW215963   4.667   1.351   7.287 -0.0040  0.6980  0.2435
 1501SOL     OW15964   4.094   0.440   8.941 -0.0071  0.2105 -0.3412
 1501SOL    HW115965   4.161   0.400   8.885 -1.8451 -1.4729 -1.3027
 1501SOL    HW215966   4.133   0.436   9.028  1.2240  0.0783 -0.8884
 1502SOL     OW15967   0.424   3.607   0.912  0.1340  0.0114 -0.1631
 1502SOL    HW115968   0.362   3.676   0.934  0.1506  0.0983 -0.4017
 1502SOL    HW215969   0.481   3.641   0.843  0.8029  1.7182  1.2300
 1503SOL     OW15970   1.661   0.679   4.114 -0.3670 -0.1604  0.1329
 1503SOL    HW115971   1.599   0.625   4.163  0.4020 -1.4466 -0.3276
 1503SOL    HW215972   1.744   0.632   4.122 -0.2024  0.1633  0.3357
 1504SOL     OW15973   0.414   2.341   4.707 -0.0944  0.3870 -0.4413
 1504SOL    HW115974   0.397   2.258   4.663  0.1038 -1.5993  3.2074
 1504SOL    HW215975   0.421   2.318   4.800  0.5971  0.9365 -0.3593
 1505SOL     OW15976   0.845   3.612  13.627 -0.1587 -0.0789 -0.8890
 1505SOL    HW115977   0.861   3.524  13.593  0.0891 -1.2486  2.3103
 1505SOL    HW215978   0.750   3.618  13.616 -0.2933 -1.0282 -0.2735
 1506SOL     OW15979   2.578   3.909   9.563  0.1740  0.7030  0.0829
 1506SOL    HW115980   2.491   3.869   9.574  0.3362 -0.4637 -2.8279
 1506SOL    HW215981   2.569   3.959   9.644  0.0998 -0.7994  1.0005
 1507SOL     OW15982   0.819   3.341   9.308  0.5857  0.0984 -0.0469
 1507SOL    HW115983   0.842   3.307   9.395 -1.9976 -0.0458  0.5979
 1507SOL    HW215984   0.726   3.359   9.325  0.8118 -0.8392  2.1896
 1508SOL     OW15985   3.199   4.026  12.642  0.0772 -0.5576  0.1579
 1508SOL    HW115986   3.135   4.081  12.687 -1.8958 -2.1445 -0.7000
 1508SOL    HW215987   3.271   4.089  12.636 -0.0354 -0.4184  0.2543
 1509SOL     OW15988   1.298   4.494   2.899  0.6927 -0.2971 -0.1391
 1509SOL    HW115989   1.226   4.547   2.864  0.5262 -0.3788  0.0800
 1509SOL    HW215990   1.284   4.517   2.991  3.1958 -1.4842  0.5175
 1510SOL     OW15991   3.198   4.162  11.041  0.6251  0.2821  0.6451
 1510SOL    HW115992   3.278   4.137  10.994 -1.0455  0.1510 -2.1195
 1510SOL    HW215993   3.138   4.115  10.984 -0.9050  1.6229  1.1625
 1511SOL     OW15994   2.194   3.270   9.372  0.2049  0.0764  0.4919
 1511SOL    HW115995   2.128   3.203   9.391  1.4091 -0.7573  1.6964
 1511SOL    HW215996   2.136   3.344   9.353 -0.0450 -0.0322  0.8229
 1512SOL     OW15997   4.662   3.071   7.994 -0.0153  0.0048  1.2290
 1512SOL    HW115998   0.008   3.119   8.034  0.0808 -0.4145  1.5516
 1512SOL    HW215999   4.627   3.145   7.944 -1.3808 -0.3320  1.6839
 1513SOL     OW16000   2.569   0.389  10.150 -0.0823  0.1278 -0.2108
 1513SOL    HW116001   2.616   0.347  10.078  0.0101  2.0341 -1.2372
 1513SOL    HW216002   2.604   0.328  10.216 -0.3048  0.3891  0.1490
 1514SOL     OW16003   0.652   1.770   9.344 -0.4737 -0.0863 -0.4096
 1514SOL    HW116004   0.703   1.805   9.418 -3.7637  2.2540  0.7441
 1514SOL    HW216005   0.722   1.745   9.283 -0.3682  2.2637 -1.2395
 1515SOL     OW16006   0.771   2.850   2.851 -0.1360 -0.3118  0.1288
 1515SOL    HW116007   0.708   2.921   2.862 -0.1121 -0.2862  0.1014
 1515SOL    HW216008   0.852   2.901   2.859  0.2372 -0.9700  0.5728
 1516SOL     OW16009   0.578   3.035  14.750  0.2705 -0.1644 -0.9353
 1516SOL    HW116010   0.660   3.015  14.705  0.2116 -2.6954  0.0975
 1516SOL    HW216011   0.534   2.951  14.739  0.4550 -0.1888 -1.4845
 1517SOL     OW16012   1.354   4.010  10.133  0.0445 -0.3696 -0.4002
 1517SOL    HW116013   1.420   3.966  10.080 -0.3754 -1.6420  0.1333
 1517SOL    HW216014   1.413   4.052  10.196 -1.9582 -0.1776  1.3432
 1518SOL     OW16015   2.815   4.686   8.898 -0.1895 -0.4695  0.1132
 1518SOL    HW116016   2.878   4.614   8.894 -1.8382 -1.9877  1.3054
 1518SOL    HW216017   2.778   4.676   8.986 -0.1187  1.2273  0.3273
 1519SOL     OW16018   3.494   3.802   5.237 -0.3973 -0.6776  0.4212
 1519SOL    HW116019   3.444   3.735   5.284 -0.6461  0.2215  1.4302
 1519SOL    HW216020   3.571   3.824   5.290 -1.0280  0.3068  0.9136
 1520SOL     OW16021   0.638   1.164  10.783  0.2451  0.3511  0.3004
 1520SOL    HW116022   0.725   1.136  10.756  0.5423  2.1837 -0.6201
 1520SOL    HW216023   0.653   1.258  10.788 -2.4000  0.7430  1.0729
 1521SOL     OW16024   3.530   4.118   8.715  0.2557  1.0355 -0.0816
 1521SOL    HW116025   3.434   4.110   8.708  0.3882 -1.3144  0.8104
 1521SOL    HW216026   3.542   4.168   8.795 -0.5572 -0.3958  0.9436
 1522SOL     OW16027   2.112   0.443   1.702  0.1207  0.3558 -0.7764
 1522SOL    HW116028   2.143   0.359   1.670  2.1685  1.2796 -1.2485
 1522SOL    HW216029   2.038   0.419   1.758  0.1314 -0.3744 -1.0806
 1523SOL     OW16030   1.287   3.892   3.828 -0.6679  0.1856  0.3642
 1523SOL    HW116031   1.254   3.883   3.917 -0.9573 -2.7659 -0.0341
 1523SOL    HW216032   1.207   3.864   3.783 -0.3302 -1.1703  0.6042
 1524SOL     OW16033   2.143   1.785   2.899  0.4348  0.7238 -0.5327
 1524SOL    HW116034   2.226   1.832   2.886  1.1676 -0.7782 -1.2244
 1524SOL    HW216035   2.153   1.710   2.842 -1.2075  0.8883 -1.0367
 1525SOL     OW16036   4.325   3.937   8.225 -0.2561 -0.0420 -0.0793
 1525SOL    HW116037   4.254   3.889   8.182  0.0779 -1.4777  0.9776
 1525SOL    HW216038   4.273   3.990   8.287 -1.8835  2.2616 -3.3907
 1526SOL     OW16039   4.489   0.384   5.174 -0.7015 -0.6770 -0.3010
 1526SOL    HW116040   4.483   0.304   5.227  1.6543 -0.4229  0.3873
 1526SOL    HW216041   4.521   0.443   5.242  1.0729  0.5400 -2.1820
 1527SOL     OW16042   3.937   1.986   3.916 -0.3703  0.4386 -0.7955
 1527SOL    HW116043   3.881   2.003   3.993  0.3080  0.2629 -0.2627
 1527SOL    HW216044   3.934   1.890   3.911  0.3378  0.2232  2.7261
 1528SOL     OW16045   4.592   1.555   7.751  0.4600 -0.2186 -0.1447
 1528SOL    HW116046   4.643   1.539   7.671  0.5102  1.2644 -0.4063
 1528SOL    HW216047   4.502   1.554   7.719  0.2542 -0.5191  0.4490
 1529SOL     OW16048   3.349   2.485   6.792 -0.2303  0.4322  0.0335
 1529SOL    HW116049   3.307   2.401   6.772  0.2152  0.1942  0.1158
 1529SOL    HW216050   3.390   2.454   6.872 -0.9947 -2.6662 -0.7937
 1530SOL     OW16051   3.542   2.965   6.698  0.3188 -0.4328  0.3726
 1530SOL    HW116052   3.597   3.033   6.659  1.0295  0.6299  3.2485
 1530SOL    HW216053   3.550   2.979   6.792  0.7010 -2.4015  0.6419
 1531SOL     OW16054   0.411   0.572   9.001 -0.1702  0.2417  0.0937
 1531SOL    HW116055   0.475   0.606   9.063 -0.6736  1.3541  0.0108
 1531SOL    HW216056   0.370   0.651   8.965  1.6444  0.1025 -2.2728
 1532SOL     OW16057   0.705   2.727   2.079  0.3454 -0.9162 -0.3620
 1532SOL    HW116058   0.672   2.715   2.168 -0.7845  0.7999 -0.5665
 1532SOL    HW216059   0.799   2.713   2.094  0.1031 -1.6670  0.4742
 1533SOL     OW16060   0.712   4.172  12.836  0.1819 -0.3317  0.4764
 1533SOL    HW116061   0.685   4.261  12.862 -1.9540 -0.5439 -0.9899
 1533SOL    HW216062   0.766   4.190  12.759 -1.8224 -0.7626 -1.0357
 1534SOL     OW16063   4.627   0.111   5.737 -0.5589 -0.6749  0.6552
 1534SOL    HW116064   4.574   0.190   5.722 -0.3110 -0.7042 -0.3430
 1534SOL    HW216065   4.715   0.145   5.726 -0.4207 -1.5678 -0.8645
 1535SOL     OW16066   3.275   2.767   2.187  0.7446 -0.4659  0.1473
 1535SOL    HW116067   3.235   2.786   2.272  0.9268 -1.0018  0.3485
 1535SOL    HW216068   3.194   2.758   2.137  0.9948  1.0539 -0.5381
 1536SOL     OW16069   1.026   4.022  13.764  0.3061 -0.2335  0.2825
 1536SOL    HW116070   1.023   3.990  13.854 -0.0355 -1.3580 -0.1163
 1536SOL    HW216071   0.934   4.010  13.738  0.6186  3.2408 -2.4433
 1537SOL     OW16072   0.110   1.877  12.865  0.2866 -0.1759  0.1603
 1537SOL    HW116073   0.168   1.830  12.806 -0.5493 -0.7801 -0.1803
 1537SOL    HW216074   0.059   1.808  12.907 -0.9028  0.5728 -0.0414
 1538SOL     OW16075   1.834   0.825   6.476 -0.2439 -0.1300 -0.2815
 1538SOL    HW116076   1.741   0.801   6.469 -1.0383  2.2210  1.9719
 1538SOL    HW216077   1.854   0.776   6.556 -0.7021 -2.1829 -1.4258
 1539SOL     OW16078   4.450   2.450   8.073  0.2133 -0.1323  0.4056
 1539SOL    HW116079   4.494   2.511   8.014  0.6289  0.3123  1.1771
 1539SOL    HW216080   4.425   2.385   8.007  0.5850 -0.0448  0.1741
 1540SOL     OW16081   4.562   3.361   7.494 -0.2799 -0.0603  0.2969
 1540SOL    HW116082   4.467   3.356   7.486 -0.2877 -0.0729  0.4028
 1540SOL    HW216083   4.589   3.371   7.402 -0.0107  1.1998  0.5249
 1541SOL     OW16084   3.390   3.623  12.263 -0.0515 -0.0085 -0.5734
 1541SOL    HW116085   3.303   3.613  12.301  0.6608 -1.4402  0.6912
 1541SOL    HW216086   3.370   3.638  12.171  0.3670  1.3544 -0.4461
 1542SOL     OW16087   2.679   0.321   8.334 -0.2565  0.3845 -0.1412
 1542SOL    HW116088   2.598   0.367   8.312  0.0113  1.2601  0.6750
 1542SOL    HW216089   2.670   0.315   8.430  2.8855 -3.2986 -0.0691
 1543SOL     OW16090   2.218   4.517  10.452 -0.1147  0.2944  0.2063
 1543SOL    HW116091   2.124   4.513  10.473 -0.5311 -0.4296 -1.7690
 1543SOL    HW216092   2.255   4.454  10.513  0.8862  0.2014 -0.5007
 1544SOL     OW16093   4.051   1.016   7.885  0.0126 -0.4695  0.3489
 1544SOL    HW116094   4.009   0.979   7.963 -0.1876 -0.4370  0.2536
 1544SOL    HW216095   4.078   1.104   7.911 -3.0384  1.1382 -2.0565
 1545SOL     OW16096   0.497   4.374  13.200 -0.3782  0.4321  0.0209
 1545SOL    HW116097   0.586   4.369  13.235 -0.2038 -1.9135 -0.7621
 1545SOL    HW216098   0.475   4.467  13.201  1.0919  0.7877 -0.5371
 1546SOL     OW16099   3.307   0.735   1.931  0.0629 -0.9119 -0.3568
 1546SOL    HW116100   3.394   0.719   1.894  1.1531 -0.3378  1.9507
 1546SOL    HW216101   3.246   0.682   1.880 -1.1941 -0.9777  1.2067
 1547SOL     OW16102   2.589   0.194   7.683 -0.1801 -0.2240  0.2862
 1547SOL    HW116103   2.614   0.256   7.615 -1.6955  2.4702  2.1923
 1547SOL    HW216104   2.616   0.239   7.763  0.9049 -0.3321 -0.0187
 1548SOL     OW16105   3.485   1.969   7.760 -0.0134  0.3214 -0.4689
 1548SOL    HW116106   3.514   1.900   7.818  0.1057  1.8679  1.3151
 1548SOL    HW216107   3.456   1.914   7.687  0.4989 -0.1666 -0.3031
 1549SOL     OW16108   1.858   4.161  13.058 -0.3672  0.0919  0.2368
 1549SOL    HW116109   1.890   4.243  13.021 -1.0745 -1.2691 -3.3946
 1549SOL    HW216110   1.808   4.133  12.981 -1.8905 -0.1551  1.2927
 1550SOL     OW16111   2.420   1.767   6.559  0.1663 -0.0576  0.3182
 1550SOL    HW116112   2.430   1.687   6.507 -1.7529 -0.6307  0.8421
 1550SOL    HW216113   2.374   1.735   6.636 -0.3303  2.1014  0.9263
 1551SOL     OW16114   3.576   4.156   8.415  0.4464 -0.1888 -0.2977
 1551SOL    HW116115   3.586   4.115   8.501  0.8852  0.2670 -0.1289
 1551SOL    HW216116   3.617   4.243   8.416  0.9031 -0.4064 -0.3518
 1552SOL     OW16117   0.677   1.506  13.538  0.1895  0.1193 -0.4021
 1552SOL    HW116118   0.605   1.564  13.564  0.1259  0.1887 -0.7413
 1552SOL    HW216119   0.629   1.424  13.531 -2.9621  1.8537  1.1434
 1553SOL     OW16120   4.548   4.330   4.725  0.1628 -0.2240  0.0070
 1553SOL    HW116121   4.485   4.305   4.657 -0.6377  0.9290  0.3223
 1553SOL    HW216122   4.555   4.250   4.776  1.9881 -0.0061  0.1198
 1554SOL     OW16123   3.805   3.864  10.955  0.0178 -0.0007 -0.7986
 1554SOL    HW116124   3.803   3.958  10.936 -1.1311  0.5185  1.8153
 1554SOL    HW216125   3.897   3.862  10.980 -0.1249  1.8641 -0.1500
 1555SOL     OW16126   0.129   4.554   4.138 -0.0833  0.6747 -0.3294
 1555SOL    HW116127   0.107   4.559   4.231  0.7872 -0.8922 -0.0351
 1555SOL    HW216128   0.223   4.576   4.137 -0.3042  1.8242  1.8672
 1556SOL     OW16129   0.856   4.662   5.431  0.1450 -0.6055 -0.4928
 1556SOL    HW116130   0.854   0.007   5.368 -0.1887 -0.6809 -0.5654
 1556SOL    HW216131   0.948   4.636   5.425  0.8172  1.7201 -0.5241
 1557SOL     OW16132   3.616   1.374   3.319 -0.0602 -0.2268 -0.4614
 1557SOL    HW116133   3.659   1.347   3.400 -1.9855  2.0678  1.3502
 1557SOL    HW216134   3.649   1.464   3.324 -1.9661  0.4556 -0.2391
 1558SOL     OW16135   2.865   2.061   7.812 -0.0841  0.0548  0.3311
 1558SOL    HW116136   2.845   1.993   7.875 -0.1458 -0.3367 -0.1088
 1558SOL    HW216137   2.809   2.130   7.847 -0.2448  0.6970 -1.1612
 1559SOL     OW16138   4.183   3.506   3.434 -0.0720 -0.3311 -0.0190
 1559SOL    HW116139   4.207   3.572   3.370  0.5119  1.7092  2.3113
 1559SOL    HW216140   4.121   3.462   3.376 -0.3668  0.6338 -0.4335
 1560SOL     OW16141   0.629   4.107   3.244  0.1062  0.5071  0.0188
 1560SOL    HW116142   0.552   4.061   3.277 -0.3371  0.5596 -0.9566
 1560SOL    HW216143   0.625   4.181   3.304  2.0091  0.4788  0.2008
 1561SOL     OW16144   2.967   4.256  10.591  0.2359 -0.4940  0.6675
 1561SOL    HW116145   3.059   4.227  10.589 -0.0572 -1.3972  0.0861
 1561SOL    HW216146   2.924   4.186  10.542  0.2514 -1.2241  1.6863
 1562SOL     OW16147   2.160   3.237   5.844  0.7336 -0.1077  0.1081
 1562SOL    HW116148   2.191   3.275   5.762 -0.4068  1.5877  0.4460
 1562SOL    HW216149   2.159   3.145   5.820 -0.2862 -0.5093  1.6397
 1563SOL     OW16150   3.290   1.824   3.951 -0.5388 -0.0956  0.4791
 1563SOL    HW116151   3.224   1.886   3.918 -0.9901 -0.6127  0.4025
 1563SOL    HW216152   3.333   1.802   3.869 -1.2582  1.9431 -0.4460
 1564SOL     OW16153   3.811   0.899  13.087  0.2164  0.0067  0.0276
 1564SOL    HW116154   3.851   0.940  13.164 -2.9391  0.9188  1.1492
 1564SOL    HW216155   3.743   0.962  13.065 -0.0413 -0.5716 -0.8465
 1565SOL     OW16156   0.792   0.364   8.504 -0.0843 -0.1321  0.3315
 1565SOL    HW116157   0.795   0.446   8.555  0.0660  0.0411  0.0479
 1565SOL    HW216158   0.739   0.400   8.433 -0.4630  0.9582  1.1677
 1566SOL     OW16159   1.297   2.794   2.775  0.2705 -0.1477  0.5172
 1566SOL    HW116160   1.369   2.753   2.822  1.7962  0.8484 -0.9787
 1566SOL    HW216161   1.241   2.831   2.843 -2.6191 -0.9459 -1.4139
 1567SOL     OW16162   2.185   1.518   1.177 -0.4619 -0.1334  0.0226
 1567SOL    HW116163   2.238   1.522   1.097 -2.4533  1.1028 -1.2508
 1567SOL    HW216164   2.204   1.598   1.224 -1.7512 -0.4223  1.0221
 1568SOL     OW16165   2.134   0.011   8.116 -0.4607 -0.0149  0.3105
 1568SOL    HW116166   2.149   0.062   8.195  2.0707 -1.4929  0.7756
 1568SOL    HW216167   2.039   0.001   8.113 -0.4948  0.1722  0.8399
 1569SOL     OW16168   3.392   1.782   3.687 -0.1188 -0.4003  0.2871
 1569SOL    HW116169   3.356   1.792   3.599 -0.4792 -3.5640  0.0578
 1569SOL    HW216170   3.475   1.828   3.676 -0.8825  0.6554 -0.9933
 1570SOL     OW16171   1.907   3.217   7.165 -0.1080 -0.3989  0.4216
 1570SOL    HW116172   1.976   3.244   7.105  0.9661 -0.2936  1.6940
 1570SOL    HW216173   1.961   3.216   7.244 -1.4084  0.5238  1.3446
 1571SOL     OW16174   2.525   0.471   6.880  0.1376 -0.3090  0.1027
 1571SOL    HW116175   2.438   0.461   6.841  0.0520 -0.2472  0.2716
 1571SOL    HW216176   2.534   0.390   6.931  1.0748 -0.7533 -0.7950
 1572SOL     OW16177   2.223   0.603   1.459  0.2830 -0.2700 -0.5963
 1572SOL    HW116178   2.307   0.560   1.440 -0.0537 -0.4582 -1.6466
 1572SOL    HW216179   2.217   0.580   1.551 -0.8547  0.9431 -0.3751
 1573SOL     OW16180   3.220   3.188   5.951 -0.1633 -0.1397 -0.7458
 1573SOL    HW116181   3.303   3.220   5.915 -0.8429  1.7768 -0.5858
 1573SOL    HW216182   3.231   3.190   6.046  0.1544 -1.2029 -0.7593
 1574SOL     OW16183   0.488   1.133  11.776 -0.2479 -0.3390  0.4977
 1574SOL    HW116184   0.421   1.088  11.724  0.3340  1.6763 -2.0162
 1574SOL    HW216185   0.487   1.089  11.861 -0.9322  1.3647  1.3777
 1575SOL     OW16186   4.239   3.313   6.731 -0.1074 -0.2210 -0.1165
 1575SOL    HW116187   4.253   3.406   6.749  0.0739 -0.1563 -0.5878
 1575SOL    HW216188   4.268   3.307   6.639  0.0456  1.0551 -0.1646
 1576SOL     OW16189   0.859   4.097   2.527  0.1574 -0.1869 -0.0561
 1576SOL    HW116190   0.884   4.007   2.546 -0.9654 -0.1172  1.7824
 1576SOL    HW216191   0.785   4.106   2.587 -0.2875 -1.1381 -0.4664
 1577SOL     OW16192   1.366   1.103   7.935  0.4814  0.0961 -0.0086
 1577SOL    HW116193   1.450   1.141   7.910  0.4873 -0.1545 -0.3673
 1577SOL    HW216194   1.313   1.182   7.926  0.0445 -0.2164 -0.2158
 1578SOL     OW16195   2.302   0.325  15.380 -0.0995 -0.2292 -0.0066
 1578SOL    HW116196   2.248   0.358  15.452  0.4338  1.1088 -0.2204
 1578SOL    HW216197   2.377   0.385  15.378  1.8069 -2.7153 -2.6898
 1579SOL     OW16198   2.534   2.636   2.519  0.2713  0.2364  0.5130
 1579SOL    HW116199   2.600   2.605   2.456  0.4890  0.2206  0.7507
 1579SOL    HW216200   2.471   2.564   2.517  1.2482 -0.6491  1.3110
 1580SOL     OW16201   1.256   4.681   1.259  0.1149 -0.2733  0.3382
 1580SOL    HW116202   1.335   4.665   1.310 -0.8898 -2.6133  1.1570
 1580SOL    HW216203   1.225   4.593   1.239  4.0015 -1.3480 -0.8947
 1581SOL     OW16204   3.443   3.910   1.786  0.3046 -0.0086  0.6801
 1581SOL    HW116205   3.489   3.857   1.851  1.0720  0.0016  0.1380
 1581SOL    HW216206   3.367   3.931   1.842  0.9496  2.5095  0.6326
 1582SOL     OW16207   0.206   0.639  17.361 -0.1487  0.3607 -0.2902
 1582SOL    HW116208   0.201   0.628  17.267  3.8030  0.7566 -0.5471
 1582SOL    HW216209   0.259   0.566  17.393 -0.9352 -0.2277 -0.3042
 1583SOL     OW16210   4.407   3.542  14.504 -0.0367 -0.5618  0.1668
 1583SOL    HW116211   4.470   3.471  14.520  0.5591 -0.1176 -0.2197
 1583SOL    HW216212   4.335   3.482  14.486  0.6827 -1.4057  0.0826
 1584SOL     OW16213   0.150   2.943   6.499 -0.2154  0.1622  0.0219
 1584SOL    HW116214   0.092   2.874   6.532 -0.6205  0.6316  0.2806
 1584SOL    HW216215   0.098   3.023   6.490 -1.2824 -0.3199  1.8715
 1585SOL     OW16216   2.779   0.234   5.222  0.2209 -0.2144  0.6179
 1585SOL    HW116217   2.768   0.186   5.140  1.7860 -2.3078  1.6463
 1585SOL    HW216218   2.742   0.321   5.203 -1.4944 -1.5360 -2.2729
 1586SOL     OW16219   2.679   3.674   3.770 -0.5018  0.3032  0.0163
 1586SOL    HW116220   2.594   3.715   3.783 -0.3795  0.5438  0.0658
 1586SOL    HW216221   2.651   3.584   3.783  0.5484 -0.0630 -0.2178
 1587SOL     OW16222   4.196   4.517   1.270 -0.1346 -0.0941 -0.3537
 1587SOL    HW116223   4.171   4.509   1.178  1.8842 -1.9334 -0.7517
 1587SOL    HW216224   4.253   4.441   1.285  0.0933 -0.3205 -2.4601
 1588SOL     OW16225   4.239   3.280  14.533  0.4996 -0.2708  0.4839
 1588SOL    HW116226   4.281   3.212  14.480 -1.3243 -0.7476 -0.3507
 1588SOL    HW216227   4.178   3.224  14.581  0.3545 -0.2909  0.2741
 1589SOL     OW16228   3.085   4.009   9.570 -0.1211 -0.0909  0.0673
 1589SOL    HW116229   3.128   3.962   9.498 -0.9064  0.3278 -0.6778
 1589SOL    HW216230   3.149   4.010   9.641  0.5988 -0.7998 -0.5839
 1590SOL     OW16231   2.882   2.278   1.011  0.4418 -0.3464  0.3414
 1590SOL    HW116232   2.899   2.255   1.102  0.4448  0.6073  0.5801
 1590SOL    HW216233   2.818   2.214   0.981 -0.6901  0.7111  0.4654
 1591SOL     OW16234   2.117   3.055   5.571  0.3828 -0.3920 -0.6944
 1591SOL    HW116235   2.205   3.062   5.608 -0.5044  0.7167  1.1832
 1591SOL    HW216236   2.134   3.110   5.494 -0.9341  0.9415 -0.0234
 1592SOL     OW16237   0.406   2.379  16.069  0.3919  0.1689  0.2280
 1592SOL    HW116238   0.378   2.418  15.986  0.9390  0.2334  0.0767
 1592SOL    HW216239   0.393   2.453  16.128 -0.0647  0.6697 -0.4976
 1593SOL     OW16240   2.657   2.001  11.694 -0.0223 -0.7274  0.8286
 1593SOL    HW116241   2.745   1.965  11.701 -0.2063 -1.3487 -0.0011
 1593SOL    HW216242   2.620   1.926  11.646  1.6327 -2.4100  2.1565
 1594SOL     OW16243   1.523   3.812   6.726  0.4381  0.0869 -0.3661
 1594SOL    HW116244   1.446   3.760   6.706 -2.1205  4.1413 -1.0940
 1594SOL    HW216245   1.570   3.757   6.788  2.0916 -0.2031 -1.8634
 1595SOL     OW16246   1.379   1.174   5.718 -0.5916 -0.3021  0.3734
 1595SOL    HW116247   1.458   1.214   5.755 -0.5661  2.0723 -2.2853
 1595SOL    HW216248   1.313   1.208   5.779  0.7363  1.8941  0.5658
 1596SOL     OW16249   0.090   0.135  11.174 -0.2794  0.2847 -0.4809
 1596SOL    HW116250   0.006   0.123  11.130 -0.9373 -3.5087  1.8364
 1596SOL    HW216251   0.105   0.050  11.214  0.5903  1.3295  1.4409
 1597SOL     OW16252   1.135   2.565   5.146 -0.0594  0.2793  0.3057
 1597SOL    HW116253   1.052   2.517   5.140 -1.0535  1.9930  0.2589
 1597SOL    HW216254   1.128   2.638   5.084 -0.5528  0.0863  0.1292
 1598SOL     OW16255   0.988   3.870   2.605  0.0258  0.2974 -0.4902
 1598SOL    HW116256   1.067   3.881   2.551  1.0434 -1.9388  0.5374
 1598SOL    HW216257   0.982   3.774   2.612 -1.1356  0.4142  0.0925
 1599SOL     OW16258   1.496   4.263  15.587 -0.2368  0.0824 -0.4561
 1599SOL    HW116259   1.431   4.199  15.616 -0.0057 -0.5473 -1.3325
 1599SOL    HW216260   1.458   4.348  15.611  0.9011  0.3847  0.2851
 1600SOL     OW16261   1.695   3.637   2.899 -0.7227 -0.1503  0.9416
 1600SOL    HW116262   1.655   3.589   2.827 -2.1033  1.0918  0.8790
 1600SOL    HW216263   1.743   3.561   2.931  0.6343  0.5735  0.6427
 1601SOL     OW16264   2.382   3.444  10.422 -0.6694  0.6722  0.5510
 1601SOL    HW116265   2.313   3.440  10.356  2.1479  3.8695 -2.5956
 1601SOL    HW216266   2.448   3.492  10.373 -0.8566  0.5076  0.1358
 1602SOL     OW16267   3.767   0.531   3.459 -0.2390 -0.4720  0.5958
 1602SOL    HW116268   3.725   0.617   3.456 -2.7893 -1.7057  0.8049
 1602SOL    HW216269   3.699   0.475   3.497  0.5790 -0.6367  1.8443
 1603SOL     OW16270   3.379   1.245   5.773 -0.2842 -0.2745  0.0194
 1603SOL    HW116271   3.351   1.334   5.751  2.7379  0.9159  0.9182
 1603SOL    HW216272   3.429   1.261   5.853 -1.2858  1.1887  0.3588
 1604SOL     OW16273   2.736   2.971   6.836 -0.1203 -0.5262 -0.2158
 1604SOL    HW116274   2.831   2.961   6.834 -0.1658 -1.1246  0.7205
 1604SOL    HW216275   2.706   2.886   6.866 -1.3873 -0.3768 -1.0829
 1605SOL     OW16276   1.477   1.667   3.191  0.7933 -0.0040 -0.0088
 1605SOL    HW116277   1.569   1.648   3.211  0.7876  1.0928  1.0701
 1605SOL    HW216278   1.447   1.697   3.276  1.3059 -0.8100  0.4576
 1606SOL     OW16279   0.313   0.906  17.651  0.1648 -0.0364 -0.6759
 1606SOL    HW116280   0.338   0.960   0.018 -1.8518  1.5904 -1.1659
 1606SOL    HW216281   0.229   0.869  17.680  0.0803  0.8952  0.2776
 1607SOL     OW16282   4.413   3.731   6.442  0.3531  0.0476  0.1426
 1607SOL    HW116283   4.359   3.664   6.402  0.1811  1.4111 -1.9210
 1607SOL    HW216284   4.473   3.671   6.487  0.2767  0.1341  0.3579
 1608SOL     OW16285   3.030   0.697   3.909  0.1737 -0.1310  0.0745
 1608SOL    HW116286   2.992   0.725   3.992  1.1717 -2.8719  1.4501
 1608SOL    HW216287   3.000   0.606   3.911  1.5167 -0.5480  1.3157
 1609SOL     OW16288   1.985   1.924   7.036 -0.2518  0.0725  0.0813
 1609SOL    HW116289   1.989   1.828   7.031 -2.8153 -0.1301  1.5080
 1609SOL    HW216290   1.890   1.938   7.036 -0.5642 -2.0166  0.2857
 1610SOL     OW16291   0.697   0.681   9.250  0.6236 -0.7261  0.7400
 1610SOL    HW116292   0.792   0.671   9.253  0.7354 -0.9638 -3.2248
 1610SOL    HW216293   0.662   0.616   9.311  0.6320  1.4836  3.1010
 1611SOL     OW16294   0.873   3.955  15.540 -0.2108 -0.4585  0.1574
 1611SOL    HW116295   0.946   3.932  15.482 -0.8311  0.4464 -0.9715
 1611SOL    HW216296   0.837   3.868  15.559  0.8524 -1.0152 -0.3655
 1612SOL     OW16297   2.207   4.416   0.671  0.0245 -0.2698 -0.2826
 1612SOL    HW116298   2.178   4.337   0.626 -0.1273  0.0528 -0.7469
 1612SOL    HW216299   2.266   4.387   0.741 -2.5357 -2.5099  0.9888
 1613SOL     OW16300   4.651   2.459   4.351 -0.1558  0.0664 -0.3082
 1613SOL    HW116301   0.005   2.410   4.368 -0.0055  0.2590 -0.4734
 1613SOL    HW216302   4.677   2.531   4.294 -1.4403 -1.0599 -2.2889
 1614SOL     OW16303   2.811   1.458   5.400 -0.2316  0.3085  0.2807
 1614SOL    HW116304   2.765   1.399   5.341  0.3147  0.4504 -0.2843
 1614SOL    HW216305   2.898   1.443   5.364 -0.6713 -1.8560  0.1032
 1615SOL     OW16306   1.311   3.784   1.045  0.4289 -0.5198  0.4774
 1615SOL    HW116307   1.260   3.865   1.033 -2.0991 -2.4484 -1.9209
 1615SOL    HW216308   1.379   3.819   0.988 -2.1336  1.3812 -1.4619
 1616SOL     OW16309   1.856   3.075   7.763  0.0941 -0.2708 -0.5401
 1616SOL    HW116310   1.767   3.040   7.749 -0.2437  0.4574 -0.2186
 1616SOL    HW216311   1.894   3.008   7.819 -1.8306  0.3181  1.4911
 1617SOL     OW16312   0.315   2.656  12.017  0.3389 -0.1851  0.0974
 1617SOL    HW116313   0.397   2.608  12.016  0.2535 -0.2623 -3.3118
 1617SOL    HW216314   0.249   2.588  12.036  0.9194 -0.8283 -0.1817
 1618SOL     OW16315   1.825   2.479  16.269  0.6268  0.4017  0.4541
 1618SOL    HW116316   1.808   2.487  16.363 -2.0659  0.5337 -0.0693
 1618SOL    HW216317   1.907   2.429  16.275  0.5431  0.2298  0.1306
 1619SOL     OW16318   0.483   0.680  17.502  0.0473 -0.2394 -0.0940
 1619SOL    HW116319   0.394   0.696  17.469  0.0116  1.2112  0.6755
 1619SOL    HW216320   0.464   0.682  17.596 -2.3402 -0.3562 -0.5599
 1620SOL     OW16321   2.595   1.548   7.074 -0.5947  0.0618  0.4696
 1620SOL    HW116322   2.682   1.516   7.099  0.9685  4.2423  0.3808
 1620SOL    HW216323   2.612   1.639   7.052 -3.1178  0.5454  0.5023
 1621SOL     OW16324   1.888   3.995  16.441  0.2380  0.2309  0.2896
 1621SOL    HW116325   1.974   3.979  16.479  0.5907  0.6626 -0.3210
 1621SOL    HW216326   1.878   4.090  16.433 -0.9648  0.0747 -0.0063
 1622SOL     OW16327   3.215   2.012   7.984 -0.0785 -0.6151  0.1933
 1622SOL    HW116328   3.154   2.074   8.024  0.6546  0.2148  0.0356
 1622SOL    HW216329   3.249   1.952   8.050  1.5323  0.0828 -0.0231
 1623SOL     OW16330   4.487   0.344   5.770 -1.1496 -0.3898  1.3195
 1623SOL    HW116331   4.541   0.422   5.755  1.2585 -2.4328 -0.5817
 1623SOL    HW216332   4.449   0.375   5.852 -0.0837  3.0443  0.5101
 1624SOL     OW16333   4.657   3.145   2.280 -0.6817  0.0838  0.3041
 1624SOL    HW116334   0.006   3.100   2.242 -0.0698 -0.1591  1.8209
 1624SOL    HW216335   4.587   3.144   2.214 -0.5079  0.5845  0.1155
 1625SOL     OW16336   4.069   3.082   9.896  0.4155  0.6433 -0.3321
 1625SOL    HW116337   4.051   3.069   9.989  0.6129 -1.1133 -0.5420
 1625SOL    HW216338   4.012   3.159   9.884  0.9443  1.1134  0.1503
 1626SOL     OW16339   2.887   2.506  12.330  0.1140  0.1359 -0.1693
 1626SOL    HW116340   2.929   2.580  12.285  0.0650 -0.0391 -0.5080
 1626SOL    HW216341   2.968   2.463  12.357  0.1975 -0.7594 -1.8326
 1627SOL     OW16342   1.033   0.194   5.600 -0.2265 -0.0355  0.4090
 1627SOL    HW116343   1.096   0.130   5.565 -1.3529  0.6542 -2.8882
 1627SOL    HW216344   0.964   0.144   5.643  1.0189 -0.4281  1.9343
 1628SOL     OW16345   4.361   3.368   3.571 -0.2797  0.1503  0.4195
 1628SOL    HW116346   4.336   3.382   3.662  0.2289 -2.6930  1.0014
 1628SOL    HW216347   4.301   3.433   3.535  1.7432  1.3223 -0.8952
 1629SOL     OW16348   3.882   1.183   2.733  0.3460  0.8656  0.2454
 1629SOL    HW116349   3.886   1.117   2.664  0.8416 -0.2161  1.3074
 1629SOL    HW216350   3.902   1.256   2.675 -1.0743  1.2423  0.2175
 1630SOL     OW16351   1.071   4.242   3.918  0.5106  0.3327 -0.4341
 1630SOL    HW116352   1.079   4.303   3.845  2.4647  0.8898  0.2509
 1630SOL    HW216353   0.992   4.192   3.897  0.5079 -0.5010  1.6015
 1631SOL     OW16354   0.942   1.270  16.002  0.2686 -0.4147  0.2471
 1631SOL    HW116355   0.979   1.344  16.051  0.2984 -0.9619  1.0443
 1631SOL    HW216356   0.962   1.291  15.910 -0.8519 -1.2509 -0.1830
 1632SOL     OW16357   1.791   0.248   8.651 -0.1509 -0.0262  0.1576
 1632SOL    HW116358   1.876   0.246   8.606 -1.0766  0.4835 -1.6062
 1632SOL    HW216359   1.806   0.216   8.740 -0.6080 -0.9535 -0.1079
 1633SOL     OW16360   0.715   0.197  11.438 -0.2447  0.6714 -0.8013
 1633SOL    HW116361   0.754   0.184  11.525  0.5756 -1.0395 -1.4212
 1633SOL    HW216362   0.628   0.158  11.446 -0.0260  0.0597 -1.4781
 1634SOL     OW16363   1.790   0.147  10.161 -0.0361  0.2585 -0.1085
 1634SOL    HW116364   1.739   0.139  10.081  0.2013  0.7023 -0.3037
 1634SOL    HW216365   1.815   0.240  10.164  1.9362 -0.2640 -0.0996
 1635SOL     OW16366   2.413   3.609   9.186  1.0594 -0.6717 -0.4423
 1635SOL    HW116367   2.324   3.623   9.154  1.8969  2.7656 -1.3840
 1635SOL    HW216368   2.395   3.589   9.277 -2.5264  2.6754 -0.4178
 1636SOL     OW16369   3.390   3.410   3.149 -0.7080 -0.1233  0.1644
 1636SOL    HW116370   3.361   3.378   3.064 -0.9945 -1.5401  0.7962
 1636SOL    HW216371   3.348   3.343   3.203 -1.5939  1.3130  1.2551
 1637SOL     OW16372   0.356   3.133  15.752  0.0288  0.7746 -0.3156
 1637SOL    HW116373   0.441   3.099  15.778  0.1356  0.9919 -0.3858
 1637SOL    HW216374   0.368   3.223  15.783  1.1784  0.1624  1.0054
 1638SOL     OW16375   1.720   4.513   9.660 -0.1292  0.3844 -0.6019
 1638SOL    HW116376   1.706   4.605   9.639 -1.2188  0.8349  1.9973
 1638SOL    HW216377   1.782   4.516   9.733 -2.6177  1.4409  1.4980
 1639SOL     OW16378   0.069   1.028   5.620 -0.0151  0.0214 -0.0643
 1639SOL    HW116379   0.010   0.956   5.642 -0.7346  0.5062 -0.4092
 1639SOL    HW216380   0.058   1.021   5.525  5.0770  2.2034 -0.8134
 1640SOL     OW16381   3.200   4.566   4.613  0.2979 -0.2641  0.4461
 1640SOL    HW116382   3.249   4.643   4.585  1.4642 -0.9255  0.6228
 1640SOL    HW216383   3.260   4.491   4.604  0.4539 -0.2494  1.3044
 1641SOL     OW16384   1.902   2.092   1.660  0.4908 -0.2396  0.8074
 1641SOL    HW116385   1.992   2.085   1.630 -0.1697 -1.4380 -0.9437
 1641SOL    HW216386   1.894   2.183   1.686 -3.0279 -0.0464 -0.9532
 1642SOL     OW16387   0.381   1.860   5.067 -0.4531 -0.3446 -0.3690
 1642SOL    HW116388   0.338   1.781   5.037  0.1293 -0.5309 -0.7079
 1642SOL    HW216389   0.404   1.913   4.991 -1.3619  0.1239 -0.3074
 1643SOL     OW16390   3.318   3.092  12.753 -0.4335 -0.5160 -0.0242
 1643SOL    HW116391   3.348   3.169  12.706  0.1583  0.4679  1.9591
 1643SOL    HW216392   3.224   3.107  12.740 -0.5261 -0.8032  0.2854
 1644SOL     OW16393   3.726   1.380   4.860  0.0140  0.0330 -0.4018
 1644SOL    HW116394   3.715   1.352   4.769 -4.7158  0.4776  0.0224
 1644SOL    HW216395   3.769   1.465   4.866  0.1636 -0.0195 -0.7394
 1645SOL     OW16396   3.676   4.356   7.571 -0.4236 -0.2738  0.0355
 1645SOL    HW116397   3.632   4.439   7.587  1.3489  0.1729  2.4511
 1645SOL    HW216398   3.707   4.325   7.656  0.2543  1.2412  0.3381
 1646SOL     OW16399   2.802   3.468   7.920 -0.3328  0.7517  0.3371
 1646SOL    HW116400   2.861   3.417   7.975 -0.8733 -2.3352 -1.9914
 1646SOL    HW216401   2.859   3.540   7.891  0.3449 -0.3027 -0.9665
 1647SOL     OW16402   4.467   0.446   9.504  0.0969 -0.7716  0.2428
 1647SOL    HW116403   4.408   0.492   9.444 -1.9741  0.1484  2.9595
 1647SOL    HW216404   4.503   0.529   9.534  1.4395 -1.6113  0.9199
 1648SOL     OW16405   0.383   0.447  16.715 -0.2865  0.3721  0.3241
 1648SOL    HW116406   0.425   0.468  16.632  0.2522  2.3757  1.1037
 1648SOL    HW216407   0.291   0.466  16.695 -0.0739 -0.1373 -1.1534
 1649SOL     OW16408   0.942   0.786   7.266  0.2997 -0.9220 -0.4271
 1649SOL    HW116409   0.950   0.711   7.326  3.2745  0.6723  1.1853
 1649SOL    HW216410   0.868   0.833   7.303  1.9316  0.3065  1.2849
 1650SOL     OW16411   0.149   0.612  16.899  0.1786  0.0201  0.0413
 1650SOL    HW116412   0.133   0.530  16.947 -1.0965 -0.1286 -0.6168
 1650SOL    HW216413   0.133   0.580  16.810  1.0757 -0.0558 -0.0883
 1651SOL     OW16414   4.694   2.895   6.224 -0.2405 -0.0778  0.3745
 1651SOL    HW116415   0.005   2.830   6.284 -2.5873 -0.9661  0.8770
 1651SOL    HW216416   0.040   2.951   6.198 -1.0059  0.4286 -0.6670
 1652SOL     OW16417   4.636   1.969  11.717  0.4210  0.4337 -0.1293
 1652SOL    HW116418   4.579   1.969  11.794  1.7059  1.3850  0.8160
 1652SOL    HW216419   4.665   2.060  11.721  1.4708  0.0155  1.5115
 1653SOL     OW16420   2.247   0.532  10.494  0.2650  0.2592  0.6343
 1653SOL    HW116421   2.317   0.538  10.429  0.5760 -1.6651  0.8023
 1653SOL    HW216422   2.289   0.490  10.569  1.8394  1.1184  0.2443
 1654SOL     OW16423   1.851   2.179   4.240  0.3392  0.0692 -0.0045
 1654SOL    HW116424   1.895   2.133   4.169  0.1600  0.4466 -0.3603
 1654SOL    HW216425   1.865   2.126   4.319  3.4101  1.3111  0.2953
 1655SOL     OW16426   3.591   3.734   1.968  0.7014 -0.3684  0.4228
 1655SOL    HW116427   3.634   3.708   2.049  0.7255 -4.1393 -0.7975
 1655SOL    HW216428   3.669   3.714   1.915 -0.1149 -0.1337 -0.8709
 1656SOL     OW16429   2.850   2.753   4.472  0.1452  0.0682  0.5163
 1656SOL    HW116430   2.886   2.805   4.401 -0.2389  1.9596  1.7040
 1656SOL    HW216431   2.762   2.781   4.499 -0.1235  0.0836 -0.3669
 1657SOL     OW16432   2.563   2.452   4.657 -0.1415  0.7108 -0.1084
 1657SOL    HW116433   2.564   2.442   4.752  0.4313  1.0298 -0.0788
 1657SOL    HW216434   2.489   2.510   4.645  0.9417  2.0822 -0.1096
 1658SOL     OW16435   3.043   0.335   8.761  0.1656  0.0744  0.2360
 1658SOL    HW116436   3.050   0.427   8.735 -1.5172 -0.2675 -1.4021
 1658SOL    HW216437   3.087   0.291   8.688 -1.7942 -0.0505 -0.8726
 1659SOL     OW16438   2.065   3.929   4.102  0.1864 -0.1217  0.4389
 1659SOL    HW116439   1.997   3.923   4.035  0.0825 -0.9811  0.6277
 1659SOL    HW216440   2.015   3.979   4.166 -1.4911  0.2083 -1.1274
 1660SOL     OW16441   1.919   1.277   6.489 -0.2935 -0.3196  0.5745
 1660SOL    HW116442   2.013   1.273   6.504 -0.3026 -1.0325  0.4259
 1660SOL    HW216443   1.885   1.204   6.540  0.2906  0.0366  1.4756
 1661SOL     OW16444   2.421   2.862  12.596  0.2956  0.1879 -0.1117
 1661SOL    HW116445   2.501   2.861  12.649 -0.0989 -0.6344  0.4666
 1661SOL    HW216446   2.413   2.770  12.568  0.7528 -0.5801  2.3311
 1662SOL     OW16447   0.745   3.168   7.002 -0.1886  0.7416 -0.6357
 1662SOL    HW116448   0.787   3.094   7.046 -1.2416  1.1168  0.9978
 1662SOL    HW216449   0.652   3.150   7.014 -0.4026  0.5161 -2.6274
 1663SOL     OW16450   1.914   2.575   7.599 -0.9236 -0.0946 -0.0955
 1663SOL    HW116451   1.975   2.568   7.526 -1.5422  0.2443 -0.6540
 1663SOL    HW216452   1.884   2.485   7.611  3.4513 -1.4255  0.7114
 1664SOL     OW16453   4.522   0.828  15.593  0.2134  0.6296 -0.4633
 1664SOL    HW116454   4.548   0.738  15.573  0.1359  0.7826 -1.2652
 1664SOL    HW216455   4.431   0.834  15.562  0.7629  0.4649 -2.0998
 1665SOL     OW16456   3.991   0.245   3.773  0.2833 -0.6940 -0.5711
 1665SOL    HW116457   3.981   0.316   3.709 -0.3784  1.1939  1.6429
 1665SOL    HW216458   4.010   0.168   3.718  0.2023 -0.4055 -1.0037
 1666SOL     OW16459   2.674   0.633   2.597 -0.4215 -0.7852  0.0451
 1666SOL    HW116460   2.590   0.588   2.606 -0.3440 -0.8317  0.5759
 1666SOL    HW216461   2.718   0.613   2.680  1.7578 -0.6989 -1.1013
 1667SOL     OW16462   2.259   4.431   4.858 -0.3406  0.2677 -0.1743
 1667SOL    HW116463   2.329   4.497   4.862 -0.7231  0.4489  3.3939
 1667SOL    HW216464   2.303   4.356   4.818 -1.3018 -0.2609 -0.2225
 1668SOL     OW16465   2.080   0.665   8.526  0.0857 -0.1975 -0.9175
 1668SOL    HW116466   2.008   0.604   8.540  2.2097 -1.9686  2.3057
 1668SOL    HW216467   2.054   0.732   8.590  0.7423  0.1573 -1.0227
 1669SOL     OW16468   1.363   1.457  11.514 -0.3761 -0.3179 -0.0779
 1669SOL    HW116469   1.343   1.516  11.586  3.3307 -1.4588  1.9190
 1669SOL    HW216470   1.430   1.513  11.474  0.6014  0.2966  2.4189
 1670SOL     OW16471   1.100   0.126   8.061  0.4335  0.2401 -0.9468
 1670SOL    HW116472   1.196   0.133   8.057  0.4242  1.2623  0.5187
 1670SOL    HW216473   1.084   0.206   8.111  0.7015  0.3684 -1.0670
 1671SOL     OW16474   2.643   1.203   0.407 -0.5285 -0.2686 -0.6458
 1671SOL    HW116475   2.631   1.170   0.318 -0.8156 -1.8057 -0.0453
 1671SOL    HW216476   2.550   1.222   0.422 -0.5093  0.0729 -0.9490
 1672SOL     OW16477   0.667   0.325  12.999 -0.3106 -0.8102  0.2542
 1672SOL    HW116478   0.757   0.300  13.022  0.2891  0.8393 -0.2734
 1672SOL    HW216479   0.657   0.409  13.044  0.3023 -1.9379  2.4907
 1673SOL     OW16480   3.217   0.242   6.068 -0.1809 -0.2949 -0.2904
 1673SOL    HW116481   3.195   0.211   6.156 -0.2834  0.2195 -0.1355
 1673SOL    HW216482   3.218   0.333   6.099  3.9287 -0.3275 -0.2543
 1674SOL     OW16483   1.658   1.812  11.278 -0.7953 -0.1822 -0.0819
 1674SOL    HW116484   1.630   1.742  11.337  0.8185 -1.1649 -0.5060
 1674SOL    HW216485   1.573   1.855  11.268 -1.0185 -0.5063  0.4106
 1675SOL     OW16486   1.015   3.188   6.341 -0.2765  0.2069 -0.0633
 1675SOL    HW116487   0.931   3.153   6.311 -0.1180 -0.2254 -0.0169
 1675SOL    HW216488   1.060   3.225   6.265  1.1798 -1.3260  0.0306
 1676SOL     OW16489   2.938   1.097   0.347 -0.4999  0.3130 -0.2716
 1676SOL    HW116490   2.855   1.087   0.299 -0.4361  0.5514 -0.4328
 1676SOL    HW216491   2.937   1.188   0.378  0.8679  1.0137 -2.2505
 1677SOL     OW16492   0.660   4.621   1.495  0.3604 -0.5625 -0.5779
 1677SOL    HW116493   0.706   4.540   1.520  0.4145 -1.2144 -2.8242
 1677SOL    HW216494   0.730   4.666   1.449 -0.4798  0.9337 -0.3791
 1678SOL     OW16495   1.887   1.922   1.094  0.9854 -0.6810  0.0463
 1678SOL    HW116496   1.903   1.870   1.173  0.3739 -0.2539  0.4593
 1678SOL    HW216497   1.834   1.993   1.131  0.2704 -1.8977  1.3872
 1679SOL     OW16498   3.400   4.429   6.762 -0.2134  0.1120  0.4454
 1679SOL    HW116499   3.432   4.350   6.806 -2.4796 -0.1567  1.5698
 1679SOL    HW216500   3.404   4.397   6.672 -2.1917  0.9113  0.0832
 1680SOL     OW16501   4.691   1.512   3.131 -0.3037 -0.1934 -0.3166
 1680SOL    HW116502   0.039   1.506   3.190 -0.9001  1.8829  0.6298
 1680SOL    HW216503   4.709   1.598   3.094 -0.4708  1.2643  3.0707
 1681SOL     OW16504   2.948   2.634   2.989  0.2754  0.5403 -0.0588
 1681SOL    HW116505   3.028   2.641   2.937  1.9388 -1.8093  2.1693
 1681SOL    HW216506   2.974   2.701   3.052  0.8315 -1.0685  1.4585
 1682SOL     OW16507   4.083   1.989   0.676  0.2144  0.3234  0.0540
 1682SOL    HW116508   4.067   2.011   0.767  1.6086  0.0568  0.3577
 1682SOL    HW216509   4.009   2.030   0.632 -0.3053 -0.0032  0.6249
 1683SOL     OW16510   2.155   4.319   4.262  0.2057 -0.3803  0.3337
 1683SOL    HW116511   2.235   4.365   4.237 -0.1272 -0.4309 -0.8017
 1683SOL    HW216512   2.098   4.318   4.185  2.1435 -0.7214 -1.0922
 1684SOL     OW16513   3.087   4.726   5.308 -0.2562 -0.0968 -0.1222
 1684SOL    HW116514   3.100   0.051   5.228 -0.0508  0.7302  0.4506
 1684SOL    HW216515   3.177   4.703   5.331  0.1963  1.2960 -0.4731
 1685SOL     OW16516   0.332   0.318   3.975  0.3382  0.8515 -0.0337
 1685SOL    HW116517   0.269   0.388   3.994 -1.2187 -0.5747  0.1391
 1685SOL    HW216518   0.405   0.379   3.968  2.2506 -1.4213  0.3199
 1686SOL     OW16519   3.231   4.704   7.228  0.2244 -0.3084 -0.4482
 1686SOL    HW116520   3.147   4.719   7.271  0.7365 -0.6831  0.6984
 1686SOL    HW216521   3.212   4.623   7.180  0.7506 -0.8176  0.1965
 1687SOL     OW16522   0.926   4.540   1.406  0.3387  0.0494 -0.1039
 1687SOL    HW116523   0.895   4.455   1.436  0.0562 -0.3832 -1.6317
 1687SOL    HW216524   0.955   4.521   1.316 -1.0937  1.3156 -0.8253
 1688SOL     OW16525   4.368   4.211   7.321 -0.6458 -0.3835  0.0762
 1688SOL    HW116526   4.292   4.260   7.352 -0.0037 -0.0098  1.0772
 1688SOL    HW216527   4.431   4.274   7.358 -0.2222 -1.6366  1.4745
 1689SOL     OW16528   4.416   0.757  16.988 -0.7393  0.0022  0.3699
 1689SOL    HW116529   4.375   0.810  16.919  0.9456 -1.1919 -1.5655
 1689SOL    HW216530   4.361   0.780  17.063 -0.0566 -1.5725  1.3471
 1690SOL     OW16531   4.162   3.416  17.093 -0.6669  0.1339  0.2284
 1690SOL    HW116532   4.201   3.339  17.134  0.2143  0.4884  0.0609
 1690SOL    HW216533   4.097   3.372  17.039  0.1163  1.5666 -1.8953
 1691SOL     OW16534   4.373   2.998   4.217  0.0587 -0.1436 -0.2133
 1691SOL    HW116535   4.352   3.001   4.310  0.5582  2.3552 -0.1589
 1691SOL    HW216536   4.455   2.949   4.212 -0.1350 -0.5386  0.6528
 1692SOL     OW16537   1.920   3.547   4.543 -0.6006 -0.1290 -0.1483
 1692SOL    HW116538   1.843   3.573   4.493  0.2342  2.2271 -0.2104
 1692SOL    HW216539   1.883   3.536   4.630 -0.9899 -0.4328 -0.3522
 1693SOL     OW16540   1.544   4.243   6.033 -0.7506 -0.2281 -0.3852
 1693SOL    HW116541   1.507   4.186   6.101 -1.6315  2.2931  1.2345
 1693SOL    HW216542   1.620   4.283   6.075 -1.8491  1.0449  0.4067
 1694SOL     OW16543   2.684   1.979   7.269 -0.4066 -0.3650 -0.0392
 1694SOL    HW116544   2.728   1.990   7.354 -1.4045  0.1750  0.4057
 1694SOL    HW216545   2.687   2.071   7.243 -0.4532 -0.4386 -0.3031
 1695SOL     OW16546   0.280   1.181   7.429  0.0662 -0.3025  0.0754
 1695SOL    HW116547   0.345   1.204   7.496  2.0099 -1.3567 -1.4395
 1695SOL    HW216548   0.210   1.244   7.444 -1.2661 -1.6020 -0.6327
 1696SOL     OW16549   2.357   0.059  11.549  0.5810 -0.3441  0.5767
 1696SOL    HW116550   2.321   0.148  11.550  1.8592  0.1671  0.9188
 1696SOL    HW216551   2.339   0.035  11.640 -0.2398  1.2234  0.8257
 1697SOL     OW16552   0.041   0.183   9.664 -0.4093  0.3500 -0.0655
 1697SOL    HW116553   0.110   0.238   9.700 -0.0785  0.8277 -1.4350
 1697SOL    HW216554   4.711   0.177   9.741  0.5018  0.6517  0.6351
 1698SOL     OW16555   2.979   0.009   5.719  0.5884 -0.2825 -0.4253
 1698SOL    HW116556   3.022   4.694   5.794  1.6476 -1.0706 -1.4797
 1698SOL    HW216557   2.964   0.093   5.763  1.1534 -1.3189  1.7381
 1699SOL     OW16558   2.213   4.605  17.077 -0.0497  0.0798  0.2251
 1699SOL    HW116559   2.192   4.511  17.071  2.6868 -0.6133  1.4820
 1699SOL    HW216560   2.162   4.637  17.003  2.0320 -2.3384 -2.2669
 1700SOL     OW16561   3.446   3.861   2.304  0.8823  0.0045  0.2061
 1700SOL    HW116562   3.455   3.782   2.357  0.6341  0.8742  1.5433
 1700SOL    HW216563   3.489   3.927   2.359  0.3684  1.1634 -0.7872
 1701SOL     OW16564   1.577   2.535  13.276 -0.2954  0.3115 -0.1963
 1701SOL    HW116565   1.599   2.481  13.352 -1.4064  1.2212  0.7782
 1701SOL    HW216566   1.550   2.465  13.217 -0.8227 -0.3965  0.8725
 1702SOL     OW16567   2.751   1.588  15.328  0.0991  0.0198  0.1009
 1702SOL    HW116568   2.724   1.671  15.366  2.2339  1.0375 -0.6117
 1702SOL    HW216569   2.667   1.544  15.340 -0.4704  0.7698 -1.2074
 1703SOL     OW16570   4.607   1.961  12.752  0.4794 -0.2137  0.5986
 1703SOL    HW116571   4.690   1.922  12.780  1.9902  1.6459 -1.2254
 1703SOL    HW216572   4.633   2.049  12.725  0.0826  0.0352  1.0439
 1704SOL     OW16573   3.531   1.440  12.724  0.0100  0.1166  0.2499
 1704SOL    HW116574   3.496   1.518  12.768 -0.3208  0.7374 -1.1019
 1704SOL    HW216575   3.579   1.480  12.652  0.9606 -0.8931  0.3220
 1705SOL     OW16576   0.786   4.018   8.915 -0.0222 -0.6236  0.0317
 1705SOL    HW116577   0.709   3.974   8.950  0.1687  1.2334  2.8071
 1705SOL    HW216578   0.837   3.959   8.859  1.8551 -1.0056  2.1746
 1706SOL     OW16579   4.195   0.458   3.954 -0.5228  0.2272  0.1448
 1706SOL    HW116580   4.251   0.411   3.893  0.4843 -0.8813  1.9301
 1706SOL    HW216581   4.254   0.456   4.029 -3.6798  0.0644  2.6666
 1707SOL     OW16582   4.232   0.870  15.669  0.4247 -0.0919  0.4844
 1707SOL    HW116583   4.180   0.942  15.706 -0.1173 -0.7672  1.0259
 1707SOL    HW216584   4.180   0.831  15.599  1.7678 -0.2625 -0.4203
 1708SOL     OW16585   3.727   0.308  14.224 -0.1322 -0.0415 -0.2990
 1708SOL    HW116586   3.645   0.340  14.262 -0.2818 -0.6748 -0.0996
 1708SOL    HW216587   3.715   0.325  14.130 -2.2772  1.1011  0.1634
 1709SOL     OW16588   2.939   0.248   5.936  0.0236 -0.0358  0.2926
 1709SOL    HW116589   2.974   0.331   5.905 -0.0732 -0.0729  0.0822
 1709SOL    HW216590   2.991   0.232   6.014 -1.1470 -2.9845  0.4728
 1710SOL     OW16591   3.421   4.315  16.579 -0.1461 -0.1231  0.2433
 1710SOL    HW116592   3.349   4.370  16.610 -0.4335 -0.6089  0.4410
 1710SOL    HW216593   3.374   4.240  16.545 -0.7622  0.1681  0.4525
 1711SOL     OW16594   2.225   2.296   9.854  0.3349  0.5822 -0.6542
 1711SOL    HW116595   2.295   2.253   9.806 -1.2978 -1.4435 -1.2263
 1711SOL    HW216596   2.261   2.364   9.912  1.1815  0.0479 -0.5647
 1712SOL     OW16597   4.284   4.362   0.738  0.5657 -0.4172  0.0093
 1712SOL    HW116598   4.274   4.372   0.644  0.4285 -1.5252 -0.0890
 1712SOL    HW216599   4.306   4.446   0.778  1.5189 -0.7137  0.1147
 1713SOL     OW16600   1.573   3.719   1.699 -0.4251 -0.3184 -0.1082
 1713SOL    HW116601   1.589   3.757   1.613 -1.5581 -1.3837 -0.7973
 1713SOL    HW216602   1.491   3.671   1.686 -0.1493 -0.7096 -0.3913
 1714SOL     OW16603   1.907   1.975   5.815  0.9578 -0.1992 -0.7348
 1714SOL    HW116604   1.920   2.013   5.728 -3.1168  1.6826 -0.5351
 1714SOL    HW216605   1.865   1.892   5.790 -0.8385  0.3582  0.4505
 1715SOL     OW16606   2.103   4.435   1.813  0.1635 -0.2243 -0.4681
 1715SOL    HW116607   2.149   4.351   1.805  0.1019 -0.2886 -0.1215
 1715SOL    HW216608   2.140   4.491   1.745  0.1046  0.8409  0.3909
 1716SOL     OW16609   2.212   2.361   4.964  0.0718 -0.9550  0.4867
 1716SOL    HW116610   2.256   2.278   4.944 -1.4559 -1.7548  0.4930
 1716SOL    HW216611   2.268   2.397   5.033 -0.0330  0.1330 -0.0033
 1717SOL     OW16612   4.027   0.665   6.307 -0.3076 -0.8853  0.3957
 1717SOL    HW116613   3.957   0.647   6.370  0.6328 -3.3034  0.7116
 1717SOL    HW216614   4.013   0.759   6.292  1.6745 -1.1490 -3.2087
 1718SOL     OW16615   4.157   0.127  14.373 -0.5240 -0.6179  0.1431
 1718SOL    HW116616   4.128   0.051  14.424  1.3016 -1.9586 -0.8359
 1718SOL    HW216617   4.139   0.099  14.284 -1.9899  1.2347 -0.1543
 1719SOL     OW16618   2.100   4.637   2.480 -0.1984  0.4610 -0.7823
 1719SOL    HW116619   2.136   4.564   2.430 -0.4898 -0.8373  0.9330
 1719SOL    HW216620   2.158   4.709   2.458 -1.5911  1.2972 -1.7472
 1720SOL     OW16621   3.772   4.375   9.171  0.5651 -0.4684 -0.5728
 1720SOL    HW116622   3.837   4.358   9.239  0.7808 -2.1487 -1.2006
 1720SOL    HW216623   3.733   4.288   9.159 -1.3992  0.1576  1.3109
 1721SOL     OW16624   2.197   1.351   7.070  0.3936 -0.4006  0.0334
 1721SOL    HW116625   2.244   1.429   7.100  2.1846 -1.2265 -0.6284
 1721SOL    HW216626   2.203   1.359   6.974  1.2617  2.6571  0.3429
 1722SOL     OW16627   1.689   3.116   3.159  0.3475  0.7055  0.0338
 1722SOL    HW116628   1.684   3.050   3.090 -1.9583  0.7769  0.1200
 1722SOL    HW216629   1.641   3.073   3.229  0.1755  2.6603  1.1196
 1723SOL     OW16630   4.180   1.699  10.252 -0.5425  0.3331 -0.0863
 1723SOL    HW116631   4.266   1.717  10.290 -0.6812  0.2336  0.2769
 1723SOL    HW216632   4.177   1.750  10.171 -0.4784  1.1434  0.4266
 1724SOL     OW16633   4.507   3.370   6.209 -0.0650  0.0581  0.4919
 1724SOL    HW116634   4.454   3.355   6.131 -0.3169  1.0761  0.4598
 1724SOL    HW216635   4.519   3.279   6.234 -0.8558 -0.7010 -1.9068
 1725SOL     OW16636   0.880   0.451  16.314  0.0774 -0.6706  0.0023
 1725SOL    HW116637   0.874   0.482  16.224  1.8748 -0.4933 -0.0486
 1725SOL    HW216638   0.802   0.396  16.322  0.8604 -2.0160 -1.7480
 1726SOL     OW16639   1.958   1.431   3.176 -0.1634  0.4575 -0.1457
 1726SOL    HW116640   1.927   1.367   3.239  0.8043  0.8131  0.6954
 1726SOL    HW216641   1.908   1.409   3.097 -0.1181 -1.9277  0.5139
 1727SOL     OW16642   3.412   0.076   6.730 -0.1816 -0.8931  0.2803
 1727SOL    HW116643   3.377   0.162   6.752 -0.1887 -0.8496  0.1025
 1727SOL    HW216644   3.358   0.021   6.787 -1.9896  0.8094  0.1970
 1728SOL     OW16645   2.845   3.864  10.153  0.3525  0.0744 -0.2863
 1728SOL    HW116646   2.796   3.875  10.234 -0.7340 -3.3862 -0.4757
 1728SOL    HW216647   2.925   3.819  10.180  0.4197  0.2862 -0.1323
 1729SOL     OW16648   2.398   1.386   8.660 -0.1200 -0.2920 -0.2093
 1729SOL    HW116649   2.344   1.320   8.616 -2.2450  0.1931  1.6867
 1729SOL    HW216650   2.369   1.351   8.744  0.2168 -1.4179 -0.5589
 1730SOL     OW16651   0.559   0.440   3.990 -0.2316 -0.4905 -0.0792
 1730SOL    HW116652   0.590   0.469   4.076  1.3616  0.2476 -0.9236
 1730SOL    HW216653   0.642   0.441   3.943 -0.2677 -0.6121 -0.1454
 1731SOL     OW16654   3.021   3.690   9.538  0.0565  0.5974 -0.5725
 1731SOL    HW116655   2.965   3.748   9.486 -0.3985  1.9236  1.3855
 1731SOL    HW216656   3.107   3.732   9.535  1.0136 -1.2682  0.8600
 1732SOL     OW16657   2.403   2.313  10.822  0.4073  0.3938 -0.6353
 1732SOL    HW116658   2.454   2.233  10.817 -0.3540 -0.2228  1.5006
 1732SOL    HW216659   2.384   2.318  10.916  0.3547  0.4997 -0.6509
 1733SOL     OW16660   3.518   1.669  12.327  0.0629 -0.3009  0.0572
 1733SOL    HW116661   3.455   1.709  12.267 -0.0033  0.1112  0.4087
 1733SOL    HW216662   3.470   1.586  12.333 -2.4921  1.2346  0.8463
 1734SOL     OW16663   0.570   3.745   5.850  0.4050 -0.0129  0.6516
 1734SOL    HW116664   0.592   3.838   5.842  0.7066 -0.1921 -0.5598
 1734SOL    HW216665   0.576   3.732   5.945  1.3825 -0.6932  0.5032
 1735SOL     OW16666   2.585   1.114   7.994 -0.1881 -0.0576 -0.3373
 1735SOL    HW116667   2.533   1.062   8.055  0.1876  0.6538  0.5918
 1735SOL    HW216668   2.591   1.195   8.044 -1.8118  0.8943 -1.6942
 1736SOL     OW16669   0.665   0.326  11.829  0.5656  0.8698  0.2068
 1736SOL    HW116670   0.587   0.368  11.793  1.0850  0.3604 -1.5165
 1736SOL    HW216671   0.653   0.325  11.924  1.8345 -1.1263  0.3731
 1737SOL     OW16672   3.034   2.615   3.619  0.1788  0.1148  0.0623
 1737SOL    HW116673   3.093   2.540   3.623  0.7408  0.4731 -1.4599
 1737SOL    HW216674   2.963   2.592   3.679  0.6449 -2.7035 -0.4719
 1738SOL     OW16675   2.176   2.019   2.681 -0.2853 -0.2645 -0.2301
 1738SOL    HW116676   2.244   2.082   2.657  1.6582 -1.8225  1.2760
 1738SOL    HW216677   2.144   2.047   2.767  0.4408  1.0506 -0.3874
 1739SOL     OW16678   3.246   4.389  12.769 -0.2793  0.0315 -0.2652
 1739SOL    HW116679   3.306   4.322  12.735  2.4568  0.6548  3.3054
 1739SOL    HW216680   3.305   4.451  12.811 -2.2384  0.2187  2.2576
 1740SOL     OW16681   2.467   3.417   1.975  0.4120  0.3149 -0.5702
 1740SOL    HW116682   2.457   3.408   2.070  1.9442 -0.7908 -0.5106
 1740SOL    HW216683   2.501   3.506   1.962  2.6682 -0.4821 -0.0279
 1741SOL     OW16684   3.015   1.813   9.922 -0.0205 -0.7046 -0.0638
 1741SOL    HW116685   3.054   1.842  10.005 -1.7633  1.3705  0.0192
 1741SOL    HW216686   3.071   1.736   9.906 -1.0717 -1.3732 -0.5261
 1742SOL     OW16687   1.878   0.956  10.792 -0.2077  0.1380  0.1991
 1742SOL    HW116688   1.861   1.036  10.842  0.3749 -0.5783  1.5538
 1742SOL    HW216689   1.784   0.939  10.781 -0.0556 -1.5382  1.6011
 1743SOL     OW16690   4.213   4.137  14.107  0.4846 -0.5739  0.0292
 1743SOL    HW116691   4.159   4.109  14.033  2.3754 -3.0207 -0.4086
 1743SOL    HW216692   4.158   4.210  14.137  0.6188 -0.0445 -0.9807
 1744SOL     OW16693   0.992   3.929   1.347  0.0402  0.1417  0.0438
 1744SOL    HW116694   0.994   3.834   1.339 -0.2070  0.0070  1.5329
 1744SOL    HW216695   0.903   3.942   1.314  0.1904 -0.4739 -0.6013
 1745SOL     OW16696   3.102   4.421   4.228 -0.3312 -0.5154  0.7389
 1745SOL    HW116697   3.046   4.471   4.169 -0.2234  0.3337  1.3424
 1745SOL    HW216698   3.051   4.341   4.240 -0.1113 -0.8459 -0.5610
 1746SOL     OW16699   2.039   3.922   8.386 -0.8781 -0.0102 -0.0857
 1746SOL    HW116700   2.071   3.987   8.447  0.1974  1.1708 -1.9123
 1746SOL    HW216701   1.990   3.983   8.332  2.0635  0.2554 -2.4490
 1747SOL     OW16702   0.575   3.856   8.159  0.0546 -0.0071  0.6476
 1747SOL    HW116703   0.602   3.943   8.188 -0.2036  1.5324 -3.6501
 1747SOL    HW216704   0.480   3.861   8.147  0.3362  0.7804 -1.4246
 1748SOL     OW16705   2.208   3.562   2.135  0.1836 -0.7831  0.6857
 1748SOL    HW116706   2.288   3.572   2.187  1.1928 -1.7523 -0.6698
 1748SOL    HW216707   2.151   3.506   2.187 -1.3144  2.0011  2.0275
 1749SOL     OW16708   3.370   1.197  16.699  0.4620 -0.6212 -0.5406
 1749SOL    HW116709   3.422   1.123  16.730  0.6779  0.3085  1.3037
 1749SOL    HW216710   3.334   1.174  16.613  2.2285 -1.0274 -1.1774
 1750SOL     OW16711   3.736   4.247   1.949 -0.2403 -0.4066  0.2083
 1750SOL    HW116712   3.701   4.164   1.982 -2.0285 -0.0600 -0.8067
 1750SOL    HW216713   3.772   4.211   1.867 -1.0630 -2.7236  0.8531
 1751SOL     OW16714   0.599   3.126   4.074  0.3377  0.1976  0.4841
 1751SOL    HW116715   0.515   3.157   4.041 -1.1025 -1.4681  2.5755
 1751SOL    HW216716   0.662   3.143   4.004 -0.8223  2.6254  0.0620
 1752SOL     OW16717   2.687   2.070   2.418  0.1832 -0.5753 -0.1372
 1752SOL    HW116718   2.632   2.114   2.484  1.3396 -0.3934  0.7099
 1752SOL    HW216719   2.630   2.053   2.343  1.1661  3.0718 -1.7332
 1753SOL     OW16720   1.804   0.045   2.040 -0.0246  0.7144  0.6472
 1753SOL    HW116721   1.896   0.031   2.015 -0.4252 -1.2097  0.2646
 1753SOL    HW216722   1.767   0.104   1.975 -1.9267 -1.4854 -0.2699
 1754SOL     OW16723   2.461   2.994   1.864 -0.4178 -0.0294  0.7762
 1754SOL    HW116724   2.394   3.063   1.861 -0.6322 -0.2749 -0.1302
 1754SOL    HW216725   2.426   2.927   1.923 -0.3015  1.3131  2.3647
 1755SOL     OW16726   1.225   0.225   9.762  0.1110  0.6446  0.6297
 1755SOL    HW116727   1.232   0.160   9.693  0.7073  1.2557  0.1038
 1755SOL    HW216728   1.187   0.173   9.832 -1.0710  1.3716  0.5284
 1756SOL     OW16729   4.529   2.242  11.522 -0.0666 -0.3833  0.4729
 1756SOL    HW116730   4.508   2.275  11.434 -1.5338 -1.7080  0.3203
 1756SOL    HW216731   4.619   2.219  11.497 -0.3165  0.2114 -1.0203
 1757SOL     OW16732   2.814   2.406   0.429 -0.1484  0.2403  0.1364
 1757SOL    HW116733   2.787   2.491   0.395 -1.9379 -0.8238 -1.1175
 1757SOL    HW216734   2.805   2.358   0.346  4.1032  1.3347 -0.9700
 1758SOL     OW16735   4.254   2.829   3.484 -0.0443 -0.2101 -0.5148
 1758SOL    HW116736   4.333   2.871   3.517 -0.2577 -0.3946  0.2141
 1758SOL    HW216737   4.224   2.798   3.569 -1.0741  0.7827 -0.5205
 1759SOL     OW16738   3.497   3.874  16.184 -0.3519  0.0769  0.1281
 1759SOL    HW116739   3.524   3.783  16.193 -0.6425 -0.0387 -0.1830
 1759SOL    HW216740   3.442   3.880  16.262 -0.3453  0.3792  0.1101
 1760SOL     OW16741   1.270   0.022  16.861  0.6346 -0.2357 -0.4076
 1760SOL    HW116742   1.313   0.063  16.785 -0.2215 -1.2374 -1.4188
 1760SOL    HW216743   1.338   4.691  16.896  0.2559  0.1639  0.9726
 1761SOL     OW16744   4.160   1.102   6.976 -0.1907 -0.6407 -0.7950
 1761SOL    HW116745   4.104   1.127   7.049  0.2773 -2.5399  0.2277
 1761SOL    HW216746   4.107   1.120   6.898 -2.2794 -1.5409  0.4280
 1762SOL     OW16747   3.294   1.585   4.919 -0.5432  0.3389 -0.1235
 1762SOL    HW116748   3.262   1.646   4.852  0.0212  2.0040  1.1039
 1762SOL    HW216749   3.217   1.532   4.939  1.2232 -1.3022  2.3440
 1763SOL     OW16750   3.541   0.973  13.638  0.0790 -0.7027 -0.1285
 1763SOL    HW116751   3.606   0.920  13.592  0.3976 -0.8057  0.4360
 1763SOL    HW216752   3.576   0.980  13.727  1.4563  1.7889 -0.8427
 1764SOL     OW16753   1.954   0.877   1.450  0.0243  0.1399 -0.4589
 1764SOL    HW116754   1.977   0.810   1.515 -1.2475  0.5376  0.4030
 1764SOL    HW216755   2.008   0.946   1.489 -2.6514  1.6658  0.6040
 1765SOL     OW16756   3.423   4.557  17.195 -0.5053  0.2369  0.3678
 1765SOL    HW116757   3.339   4.585  17.231 -0.4844  0.5514  0.1670
 1765SOL    HW216758   3.435   4.476  17.245 -1.1973  0.1330  0.3667
 1766SOL     OW16759   1.383   3.731  13.517  0.3322 -0.5580  0.7644
 1766SOL    HW116760   1.288   3.728  13.527  0.3556  0.1177  1.2126
 1766SOL    HW216761   1.387   3.814  13.564  2.1720  0.6208 -1.4662
 1767SOL     OW16762   4.307   2.024   6.132  0.4701 -0.4242  0.1365
 1767SOL    HW116763   4.323   2.026   6.038  0.8217 -0.6171  0.1943
 1767SOL    HW216764   4.386   2.060   6.172  0.3064 -0.4963  0.5211
 1768SOL     OW16765   3.436   1.764   2.749  0.2572 -0.3314 -0.1452
 1768SOL    HW116766   3.459   1.776   2.657 -1.8255  1.0598 -0.4640
 1768SOL    HW216767   3.477   1.679   2.765  0.0271 -0.1952  1.1361
 1769SOL     OW16768   2.413   4.417   7.698  0.1378  0.2590 -0.0821
 1769SOL    HW116769   2.433   4.510   7.691  0.2169  0.3949  1.9049
 1769SOL    HW216770   2.441   4.395   7.610 -0.1323 -0.6934  0.0625
 1770SOL     OW16771   1.407   1.526   6.113 -0.6421 -0.1231  0.0623
 1770SOL    HW116772   1.410   1.535   6.018  0.5260 -2.0261 -0.0702
 1770SOL    HW216773   1.490   1.482   6.129 -0.7114 -0.2297  0.1321
 1771SOL     OW16774   4.570   3.762  15.540 -0.3978 -0.1066 -0.2205
 1771SOL    HW116775   4.607   3.777  15.453 -0.1765  1.5514  0.1747
 1771SOL    HW216776   4.583   3.668  15.553  2.0424  0.5117  1.7323
 1772SOL     OW16777   3.915   2.167  13.169  0.5655  0.3093  0.3578
 1772SOL    HW116778   3.919   2.198  13.259 -1.4322 -0.6724  0.7941
 1772SOL    HW216779   3.958   2.233  13.114  0.6353 -0.6902 -0.7999
 1773SOL     OW16780   4.214   1.635   2.693 -0.3131  0.1286 -0.0271
 1773SOL    HW116781   4.277   1.616   2.623 -0.9349 -2.0131 -0.0161
 1773SOL    HW216782   4.132   1.642   2.644 -1.0403 -2.3465  0.8247
 1774SOL     OW16783   3.462   1.841   8.753  0.0074 -0.4032  0.2338
 1774SOL    HW116784   3.533   1.778   8.768 -1.1066 -1.3311  1.6416
 1774SOL    HW216785   3.448   1.868   8.844  0.5534 -0.0980  0.2278
 1775SOL     OW16786   2.282   4.596   3.563 -0.1026  0.2120 -0.5127
 1775SOL    HW116787   2.289   4.571   3.471  2.0451 -1.2575  0.0506
 1775SOL    HW216788   2.209   4.548   3.601  0.9161 -0.2054  0.9229
 1776SOL     OW16789   2.740   0.666   1.795  0.0039  0.3724  0.1139
 1776SOL    HW116790   2.744   0.758   1.771 -0.9366  0.6663  1.0612
 1776SOL    HW216791   2.645   0.662   1.808  0.2439 -1.5018  1.2719
 1777SOL     OW16792   4.684   1.879   3.537  0.5674 -0.6077  0.4075
 1777SOL    HW116793   4.672   1.970   3.566  0.5513 -0.3608 -0.3676
 1777SOL    HW216794   4.660   1.828   3.614  0.1737 -0.5754  0.3083
 1778SOL     OW16795   1.177   4.246   4.169 -0.0560 -0.1060  0.0734
 1778SOL    HW116796   1.126   4.255   4.088 -0.0754 -0.9898 -0.0182
 1778SOL    HW216797   1.136   4.312   4.225 -2.0225 -1.0546 -0.2214
 1779SOL     OW16798   4.138   3.186   7.517 -0.1373  0.0549  0.3508
 1779SOL    HW116799   4.061   3.136   7.488 -1.2168  1.3116  1.0877
 1779SOL    HW216800   4.120   3.204   7.609  0.1785 -1.6571  0.7514
 1780SOL     OW16801   0.828   4.286  16.193  0.1081 -0.2167  0.0500
 1780SOL    HW116802   0.735   4.285  16.216  0.1182 -1.1446  0.0769
 1780SOL    HW216803   0.843   4.356  16.130 -0.2319  1.4494  1.8059
 1781SOL     OW16804   4.436   1.757  12.726  0.2612 -0.6959  0.0022
 1781SOL    HW116805   4.481   1.837  12.752 -0.1026  0.5469 -3.2250
 1781SOL    HW216806   4.347   1.789  12.744  0.4667  0.2417 -0.6646
 1782SOL     OW16807   0.986   2.513   9.847  0.1045 -0.2072  0.4412
 1782SOL    HW116808   0.918   2.530   9.913 -0.8663 -2.1622 -0.0513
 1782SOL    HW216809   0.989   2.419   9.868  0.4887 -0.6482 -1.5738
 1783SOL     OW16810   0.859   0.883   5.416  0.3178  0.1677  0.1809
 1783SOL    HW116811   0.765   0.896   5.401  0.6853  1.0682 -1.3803
 1783SOL    HW216812   0.871   0.789   5.407  0.2496 -0.1739  3.4823
 1784SOL     OW16813   3.501   3.415   2.676 -0.0958  0.1014  0.0191
 1784SOL    HW116814   3.462   3.335   2.712 -0.5080 -0.4874 -1.7634
 1784SOL    HW216815   3.593   3.389   2.671  0.4191  2.2554 -1.7177
 1785SOL     OW16816   2.559   4.390   4.829 -0.0898 -0.1578  0.8126
 1785SOL    HW116817   2.591   4.470   4.871  1.5297  0.0545 -0.8597
 1785SOL    HW216818   2.611   4.386   4.749  2.1018 -2.5968  2.3571
 1786SOL     OW16819   4.287   2.609   3.094  0.0827  0.2905  0.1304
 1786SOL    HW116820   4.338   2.599   3.175  1.7427  0.3365 -0.9078
 1786SOL    HW216821   4.280   2.518   3.064  0.9758  0.1298  0.3924
 1787SOL     OW16822   1.947   2.324  14.499  0.5121 -0.0936 -0.4228
 1787SOL    HW116823   2.027   2.377  14.490 -1.2697  2.9905  1.8272
 1787SOL    HW216824   1.963   2.276  14.580 -0.2297  0.5597  0.1100
 1788SOL     OW16825   1.286   2.638  11.575 -0.6402  0.0526  0.0820
 1788SOL    HW116826   1.333   2.716  11.546  0.4432 -0.4543  0.4689
 1788SOL    HW216827   1.232   2.623  11.498 -0.7495  2.3346 -0.3027
 1789SOL     OW16828   1.202   0.908   4.214  0.0524 -0.4996 -0.1329
 1789SOL    HW116829   1.251   0.918   4.132  0.9846  1.1064  0.6167
 1789SOL    HW216830   1.209   0.995   4.254  1.3042 -0.8334  0.3643
 1790SOL     OW16831   3.065   1.460   7.935 -0.0479  0.0970 -0.3420
 1790SOL    HW116832   3.116   1.533   7.899 -0.2133  0.9190  1.0812
 1790SOL    HW216833   3.078   1.476   8.029 -0.5696 -0.2645 -0.2121
 1791SOL     OW16834   0.780   2.452  14.548  0.4421 -0.3654  0.0980
 1791SOL    HW116835   0.809   2.397  14.475  1.5773 -0.4938  0.6502
 1791SOL    HW216836   0.686   2.463  14.533  0.7661  3.0531  0.7067
 1792SOL     OW16837   4.360   0.277   8.894 -0.4335 -0.2351  0.1527
 1792SOL    HW116838   4.345   0.315   8.981  1.8103  3.2939 -1.0239
 1792SOL    HW216839   4.414   0.202   8.920  1.8677 -0.2342 -4.5251
 1793SOL     OW16840   4.277   0.508   8.121 -0.3210  0.1202 -0.8092
 1793SOL    HW116841   4.305   0.446   8.189 -0.0066  0.9161 -0.2069
 1793SOL    HW216842   4.183   0.490   8.118  0.0357 -1.8971 -0.0317
 1794SOL     OW16843   2.939   3.526   5.415 -0.3816 -0.0082 -0.8304
 1794SOL    HW116844   2.982   3.605   5.383 -1.6023  0.1428 -2.0938
 1794SOL    HW216845   2.920   3.477   5.335  0.4551  2.3601 -2.4438
 1795SOL     OW16846   1.240   0.425   3.184 -0.0604  0.6451 -0.0016
 1795SOL    HW116847   1.160   0.380   3.160 -0.8410  1.7746  0.4997
 1795SOL    HW216848   1.272   0.360   3.247 -0.1823 -1.9626 -2.6857
 1796SOL     OW16849   4.184   3.421   2.838 -0.4711  0.0758  0.1070
 1796SOL    HW116850   4.190   3.477   2.915  0.7402  1.6656 -1.1152
 1796SOL    HW216851   4.236   3.456   2.765 -1.4719 -0.0656 -0.6793
 1797SOL     OW16852   0.185   3.258  10.938  0.0469  0.3592  0.4185
 1797SOL    HW116853   0.178   3.290  10.848 -1.2360 -0.1040  0.3586
 1797SOL    HW216854   0.167   3.335  10.991 -1.2606  0.7020 -0.5260
 1798SOL     OW16855   3.485   1.764  10.024 -0.7949 -0.2563 -0.4875
 1798SOL    HW116856   3.429   1.791  10.097  0.2924  0.5704  0.0380
 1798SOL    HW216857   3.487   1.671  10.043 -2.0575 -0.2999 -0.5092
 1799SOL     OW16858   0.111   0.555  16.649 -0.6415  0.2411 -0.2640
 1799SOL    HW116859   0.025   0.517  16.630 -2.0049  1.5584  3.2322
 1799SOL    HW216860   0.124   0.595  16.563  0.2172  0.2501 -0.1288
 1800SOL     OW16861   4.583   4.616   7.878 -0.4165 -0.3921 -0.0742
 1800SOL    HW116862   4.606   4.613   7.971  3.7311  1.3084 -1.0898
 1800SOL    HW216863   4.652   4.671   7.843  1.0055 -0.8306  2.0257
 1801SOL     OW16864   3.437   3.637   8.612  0.1145  0.1223  0.0408
 1801SOL    HW116865   3.500   3.709   8.606  0.5315 -0.0552  2.1136
 1801SOL    HW216866   3.487   3.559   8.588  0.0294  0.1122 -0.1005
 1802SOL     OW16867   1.833   0.536   5.071  0.0931  0.2034  0.4288
 1802SOL    HW116868   1.764   0.601   5.055  1.8653  1.8094 -0.7741
 1802SOL    HW216869   1.885   0.567   4.996  0.1663 -0.3842  0.2426
 1803SOL     OW16870   3.854   1.775   3.618 -0.4226 -0.2023  0.2014
 1803SOL    HW116871   3.882   1.723   3.542 -1.5530 -0.3604 -0.1057
 1803SOL    HW216872   3.885   1.859   3.585 -0.1016 -0.4571 -0.1586
 1804SOL     OW16873   2.426   3.328   1.166  0.1106  0.3690  0.3906
 1804SOL    HW116874   2.411   3.236   1.187 -0.6711  0.8638  1.9895
 1804SOL    HW216875   2.379   3.340   1.084  0.7240 -1.1599 -0.1772
 1805SOL     OW16876   1.647   4.262   7.459 -0.6406 -0.3754 -0.0316
 1805SOL    HW116877   1.621   4.353   7.469 -2.2818 -0.6423 -1.9567
 1805SOL    HW216878   1.577   4.214   7.503 -0.3660  1.5480  2.4689
 1806SOL     OW16879   3.571   2.138  16.744 -0.2628  0.2620 -0.4844
 1806SOL    HW116880   3.588   2.069  16.680 -1.4097 -1.1938  0.7760
 1806SOL    HW216881   3.587   2.214  16.689 -0.1751  0.0555 -0.7426
 1807SOL     OW16882   3.408   3.265   3.784  0.4282  0.0658  0.3310
 1807SOL    HW116883   3.451   3.236   3.704  0.7071 -0.3537  0.6365
 1807SOL    HW216884   3.485   3.266   3.841  1.6320  0.0735 -1.2930
 1808SOL     OW16885   2.099   3.867   9.492 -0.2703 -0.2892 -0.6058
 1808SOL    HW116886   2.084   3.782   9.449 -1.6119 -0.8432  0.9654
 1808SOL    HW216887   2.015   3.908   9.471 -0.2112 -0.7247 -1.7027
 1809SOL     OW16888   4.232   3.397   3.811  0.8332 -0.4205 -0.6086
 1809SOL    HW116889   4.148   3.417   3.770  1.1610  0.2563 -0.9510
 1809SOL    HW216890   4.206   3.362   3.896  1.4557 -0.5906 -0.4902
 1810SOL     OW16891   3.070   0.891   6.476  0.3003  0.2615 -0.1601
 1810SOL    HW116892   2.980   0.916   6.498  0.1301  1.3426 -2.0699
 1810SOL    HW216893   3.054   0.829   6.404 -1.2242  0.4903 -0.0255
 1811SOL     OW16894   1.513   4.114   8.643  0.2291 -0.0737 -0.4182
 1811SOL    HW116895   1.525   4.039   8.585  2.5913 -0.1154  0.1454
 1811SOL    HW216896   1.461   4.072   8.712  3.4715  0.9061  2.5919
 1812SOL     OW16897   3.090   3.633   0.139  0.4381  0.2523  0.0940
 1812SOL    HW116898   3.045   3.671   0.064  2.8719 -0.6932 -1.8707
 1812SOL    HW216899   3.113   3.548   0.102  0.6630 -0.1394  1.1402
 1813SOL     OW16900   1.573   3.535  17.640 -0.2853  0.3096 -0.0557
 1813SOL    HW116901   1.542   3.532   0.022 -1.1435  0.4832 -0.3438
 1813SOL    HW216902   1.596   3.443  17.635 -2.8986 -0.3647  0.0056
 1814SOL     OW16903   2.732   3.665   8.225  0.3605  0.2373  0.5061
 1814SOL    HW116904   2.697   3.695   8.141 -1.4091 -0.4691  1.0086
 1814SOL    HW216905   2.697   3.728   8.288  0.3468  1.0166 -0.2906
 1815SOL     OW16906   3.520   2.308   6.910 -0.1250  0.5210  0.2510
 1815SOL    HW116907   3.563   2.305   6.825 -2.3361  2.0571 -0.9227
 1815SOL    HW216908   3.497   2.218   6.929  1.4441  0.2519  0.8624
 1816SOL     OW16909   3.675   0.202  13.493  0.2313 -0.3445 -0.1966
 1816SOL    HW116910   3.618   0.142  13.542  1.5460  2.9073  5.2416
 1816SOL    HW216911   3.635   0.288  13.505  1.4942  0.3194 -0.8483
 1817SOL     OW16912   4.515   0.128   6.261  0.0016 -0.5916  0.3547
 1817SOL    HW116913   4.540   0.215   6.292 -3.5220  0.3313  0.6812
 1817SOL    HW216914   4.429   0.146   6.223  0.0525 -0.7468  0.1623
 1818SOL     OW16915   1.845   0.729   7.799  0.2399  0.3991 -0.0299
 1818SOL    HW116916   1.823   0.635   7.796  1.3882  0.1557 -0.8082
 1818SOL    HW216917   1.806   0.757   7.882 -0.4728 -0.7128  0.0125
 1819SOL     OW16918   4.147   3.754   8.097 -0.3188  0.4709  0.4300
 1819SOL    HW116919   4.172   3.723   8.010 -1.1134 -1.7814  1.0017
 1819SOL    HW216920   4.066   3.800   8.076 -1.5077 -2.7186 -1.9368
 1820SOL     OW16921   0.253   0.156   8.620 -0.6723 -0.1468  0.4803
 1820SOL    HW116922   0.217   0.242   8.641 -0.4988 -0.3561  1.6238
 1820SOL    HW216923   0.337   0.188   8.587 -0.7187  0.6646  1.1574
 1821SOL     OW16924   2.729   0.293   3.715 -0.0061 -0.3541 -0.1956
 1821SOL    HW116925   2.654   0.265   3.663 -0.5091 -2.4886  1.6893
 1821SOL    HW216926   2.707   0.384   3.693 -1.8569 -0.4427  1.2629
 1822SOL     OW16927   1.912   3.996   3.855  0.5125  0.3573  0.4922
 1822SOL    HW116928   1.934   4.027   3.767  1.9755 -1.4607  0.2077
 1822SOL    HW216929   1.820   4.020   3.868  0.5385 -0.6789  2.5903
 1823SOL     OW16930   1.373   3.725   2.147 -0.1953  0.1696 -0.2263
 1823SOL    HW116931   1.458   3.757   2.118 -0.2075 -0.4638 -0.9554
 1823SOL    HW216932   1.335   3.726   2.060 -1.5746 -1.4157  0.3657
 1824SOL     OW16933   1.132   0.193   8.415 -0.0717 -0.3090 -0.1637
 1824SOL    HW116934   1.046   0.232   8.429 -0.6252 -0.4475 -3.1866
 1824SOL    HW216935   1.171   0.183   8.502 -0.0864  3.6598  0.2624
 1825SOL     OW16936   0.274   2.991   3.969  0.0670  0.1126  0.0611
 1825SOL    HW116937   0.232   2.906   3.984 -0.9932  0.4819 -0.7942
 1825SOL    HW216938   0.343   2.970   3.905  1.4878  2.8140  0.6983
 1826SOL     OW16939   2.050   4.083   4.725 -0.5762 -0.4649 -0.7764
 1826SOL    HW116940   2.143   4.060   4.718 -0.1320  1.0936 -0.0122
 1826SOL    HW216941   2.038   4.140   4.649 -2.6038  0.5943  0.3533
 1827SOL     OW16942   1.437   3.869  14.511  0.8339 -0.2185 -0.2880
 1827SOL    HW116943   1.349   3.903  14.498 -0.3361 -3.4753 -0.6802
 1827SOL    HW216944   1.489   3.949  14.499  0.0955 -0.2710 -3.6746
 1828SOL     OW16945   0.575   3.398   4.979  0.5722 -0.4704 -0.4757
 1828SOL    HW116946   0.516   3.387   4.904 -1.6042  1.4852  0.9468
 1828SOL    HW216947   0.547   3.482   5.016  0.4531  0.3748 -2.4651
 1829SOL     OW16948   2.724   0.368  12.470  0.1118  0.7279 -0.3546
 1829SOL    HW116949   2.676   0.424  12.531 -0.3665 -1.4522  1.2480
 1829SOL    HW216950   2.814   0.375  12.502  0.4672  0.8279 -1.3707
 1830SOL     OW16951   2.662   1.808   7.059  0.3463  0.2384  0.2778
 1830SOL    HW116952   2.724   1.831   6.989  0.3087 -3.0529 -0.8461
 1830SOL    HW216953   2.688   1.868   7.130  2.0093 -0.9634  0.6661
 1831SOL     OW16954   4.474   3.640  15.777  0.2633  0.0277 -0.2976
 1831SOL    HW116955   4.438   3.713  15.828  0.2555 -0.6538  0.6844
 1831SOL    HW216956   4.500   3.695  15.704  2.5112  0.6400  0.9803
 1832SOL     OW16957   3.589   2.360   3.919 -0.4793 -0.3658 -0.0680
 1832SOL    HW116958   3.568   2.445   3.959  0.2970  0.9096 -2.4083
 1832SOL    HW216959   3.583   2.316   4.004  1.0108 -0.6216 -0.1023
 1833SOL     OW16960   3.745   4.492   5.456  0.3888 -0.1602  0.1456
 1833SOL    HW116961   3.712   4.417   5.505  0.6671 -0.1342  0.3748
 1833SOL    HW216962   3.789   4.455   5.379  0.7514  0.9511 -0.1860
 1834SOL     OW16963   4.438   3.596   8.375 -0.4199  0.4713 -0.4225
 1834SOL    HW116964   4.352   3.629   8.400 -0.1509 -0.7551  2.0743
 1834SOL    HW216965   4.449   3.527   8.440  0.1312  1.0405  0.0989
 1835SOL     OW16966   3.404   2.866   7.413 -0.0624  0.1043  0.0056
 1835SOL    HW116967   3.444   2.790   7.370  0.0265  1.2116 -1.8177
 1835SOL    HW216968   3.411   2.840   7.505 -0.4770 -3.9148 -1.0649
 1836SOL     OW16969   2.594   2.118   6.332 -0.1535  0.0671  0.7624
 1836SOL    HW116970   2.499   2.127   6.337 -0.5225 -2.9657 -0.6479
 1836SOL    HW216971   2.615   2.204   6.296 -0.1003 -0.3846 -0.3074
 1837SOL     OW16972   2.983   3.479   0.359 -0.1255  0.1829 -0.1400
 1837SOL    HW116973   2.893   3.469   0.328  0.0061  2.3682 -1.1801
 1837SOL    HW216974   3.037   3.498   0.283 -1.0719  1.4086 -0.4988
 1838SOL     OW16975   4.627   3.647   9.076 -0.2766  0.1986  0.6264
 1838SOL    HW116976   4.559   3.588   9.044 -0.5746  1.5466 -1.2519
 1838SOL    HW216977   4.687   3.662   9.003  0.2601 -0.4591  0.9349
 1839SOL     OW16978   1.382   4.152   6.546 -0.1620  0.4204 -0.1370
 1839SOL    HW116979   1.303   4.181   6.501 -0.4229  0.3230  0.2585
 1839SOL    HW216980   1.395   4.069   6.499 -2.0416  0.2887 -0.4123
 1840SOL     OW16981   1.412   0.245   9.975 -0.2387 -0.3749  0.2672
 1840SOL    HW116982   1.349   0.292   9.921  0.5685 -0.8347 -1.0764
 1840SOL    HW216983   1.365   0.227  10.056 -3.3565 -1.2562 -1.7728
 1841SOL     OW16984   3.678   2.184   7.910 -0.1884  0.1976  0.1136
 1841SOL    HW116985   3.626   2.198   7.830  1.3405 -0.3442 -0.9673
 1841SOL    HW216986   3.609   2.174   7.975  1.7750 -0.0576  2.1392
 1842SOL     OW16987   0.417   3.991   4.534  0.6696  0.1885  0.3086
 1842SOL    HW116988   0.334   4.038   4.540 -0.4597 -1.4499 -2.4417
 1842SOL    HW216989   0.422   3.942   4.452 -1.5193  2.9206 -1.4473
 1843SOL     OW16990   0.086   1.753   3.348 -0.1025 -0.0129 -0.6137
 1843SOL    HW116991   0.070   1.821   3.283  0.5004 -0.5520 -1.3258
 1843SOL    HW216992   0.040   1.794   3.422 -0.7832  2.8205 -2.5927
 1844SOL     OW16993   3.257   2.077   1.687  0.7997  0.5010 -0.5077
 1844SOL    HW116994   3.306   2.013   1.635  0.5417 -1.3957  1.5643
 1844SOL    HW216995   3.170   2.040   1.669  0.1686  0.3226  2.7524
 1845SOL     OW16996   0.540   2.263   4.175 -0.7268 -0.7845  0.6619
 1845SOL    HW116997   0.626   2.305   4.180 -0.3079 -1.5024 -0.3923
 1845SOL    HW216998   0.529   2.262   4.270 -0.9153 -1.7433  0.6285
 1846SOL     OW16999   1.266   3.769  12.680  0.1483  0.0536  0.2582
 1846SOL    HW117000   1.216   3.821  12.616 -0.8341  0.0102  0.9842
 1846SOL    HW217001   1.236   3.800  12.766  1.6648 -0.5757  1.0125
 1847SOL     OW17002   2.202   4.294   8.696 -0.3570  0.6711 -0.2931
 1847SOL    HW117003   2.231   4.350   8.624 -1.1135 -1.0980 -1.9964
 1847SOL    HW217004   2.249   4.334   8.769  1.1816 -0.9376 -0.3940
 1848SOL     OW17005   3.550   2.015   5.706 -0.0105  0.3390 -0.2724
 1848SOL    HW117006   3.521   2.074   5.637 -2.4158 -2.2733 -1.4722
 1848SOL    HW217007   3.503   2.050   5.782 -0.1816 -0.6178  0.0592
 1849SOL     OW17008   0.648   1.672   7.395 -0.2049 -0.3743  0.2470
 1849SOL    HW117009   0.742   1.684   7.407 -0.5210 -0.6025  2.7831
 1849SOL    HW217010   0.625   1.728   7.321 -0.2178 -0.7809 -0.0568
 1850SOL     OW17011   1.415   0.685   6.834 -0.0195  0.2752  0.3568
 1850SOL    HW117012   1.485   0.629   6.867 -0.1159 -0.4036 -0.5749
 1850SOL    HW217013   1.408   0.753   6.900  1.0707  1.7714 -1.0722
 1851SOL     OW17014   3.122   2.277  11.051  0.3721 -0.0276  0.1243
 1851SOL    HW117015   3.205   2.230  11.037 -0.4380 -1.4362  0.0250
 1851SOL    HW217016   3.140   2.330  11.129  0.6103  0.7280 -0.4467
 1852SOL     OW17017   3.257   2.882  14.983 -0.0971 -0.1320  0.4438
 1852SOL    HW117018   3.349   2.874  15.009  0.2017 -2.3305 -1.3552
 1852SOL    HW217019   3.226   2.912  15.069 -1.3859 -2.9575  0.9412
 1853SOL     OW17020   4.643   1.069  10.593 -0.6962  0.2967 -0.0657
 1853SOL    HW117021   4.622   0.987  10.549 -0.7242  1.7576 -2.7897
 1853SOL    HW217022   4.716   1.100  10.538  1.9254 -3.0320  1.5845
 1854SOL     OW17023   0.819   1.541  11.296  0.5362 -0.0139  0.0577
 1854SOL    HW117024   0.877   1.519  11.368  0.3263  0.2059  0.2927
 1854SOL    HW217025   0.883   1.528  11.226  2.0245  1.3078  1.1686
 1855SOL     OW17026   0.925   3.252   7.342  0.5769 -0.1827 -0.0878
 1855SOL    HW117027   0.994   3.208   7.391  0.4220  0.6620  0.8957
 1855SOL    HW217028   0.929   3.343   7.370 -0.0341  0.0147 -0.6384
 1856SOL     OW17029   3.092   2.989   0.397  0.2063 -0.2832 -0.0163
 1856SOL    HW117030   3.052   3.067   0.359  1.4377  1.1544  1.6227
 1856SOL    HW217031   3.020   2.978   0.458  1.5435 -3.1493  1.0682
 1857SOL     OW17032   3.887   2.074  10.725 -0.2350  0.4280 -0.0178
 1857SOL    HW117033   3.808   2.076  10.779  0.2945 -0.4397  0.7884
 1857SOL    HW217034   3.866   2.032  10.642  0.4287 -0.2748  0.1749
 1858SOL     OW17035   0.228   3.976  10.906  0.2355 -0.2376  0.4432
 1858SOL    HW117036   0.272   3.908  10.856  1.2836  0.5927  0.2314
 1858SOL    HW217037   0.237   3.947  10.997  1.4815  1.5998  0.9245
 1859SOL     OW17038   3.946   2.819   6.036  0.4158 -0.0843  0.3710
 1859SOL    HW117039   3.963   2.733   6.074 -2.1472 -0.0301  1.6700
 1859SOL    HW217040   3.876   2.849   6.094  1.4449  2.9201  0.0764
 1860SOL     OW17041   0.949   0.599   5.676 -0.1615 -0.2214  0.0857
 1860SOL    HW117042   1.035   0.639   5.667  0.3651 -1.4179 -0.2763
 1860SOL    HW217043   0.898   0.610   5.596  0.0050 -1.0058 -0.1336
 1861SOL     OW17044   4.541   2.070   6.480 -0.0549  0.0702  0.9938
 1861SOL    HW117045   4.468   2.132   6.487 -0.5928 -0.3049 -1.3126
 1861SOL    HW217046   4.566   2.073   6.573 -0.7095  2.0351  1.1207
 1862SOL     OW17047   0.640   0.285  16.335  0.1295  0.6343  0.7474
 1862SOL    HW117048   0.694   0.206  16.322 -1.2079 -0.1756  0.1263
 1862SOL    HW217049   0.594   0.260  16.414 -1.3493 -0.2432 -0.4000
 1863SOL     OW17050   0.997   1.999   6.401 -0.0421  0.2580  0.6034
 1863SOL    HW117051   1.048   1.994   6.482 -0.2996 -2.0387  0.6262
 1863SOL    HW217052   0.967   2.090   6.395 -0.0924  0.2387  0.5511
 1864SOL     OW17053   2.414   2.778  13.802 -0.4496 -0.0413  0.3739
 1864SOL    HW117054   2.413   2.725  13.722  0.6848  1.5771 -0.7198
 1864SOL    HW217055   2.419   2.858  13.749 -0.2613 -1.1589 -1.3015
 1865SOL     OW17056   0.520   3.751   6.966  0.0213  0.3570 -0.0575
 1865SOL    HW117057   0.544   3.820   6.904 -0.2164  1.1464  0.7289
 1865SOL    HW217058   0.607   3.728   7.000 -0.5744 -3.2682 -1.0539
 1866SOL     OW17059   3.914   2.560  13.035 -0.3318  0.5508 -0.1761
 1866SOL    HW117060   3.959   2.555  12.950 -0.2562 -1.3344 -0.0265
 1866SOL    HW217061   3.829   2.519  13.018 -0.4004 -0.5898  2.8474
 1867SOL     OW17062   1.937   3.381   5.737  0.2720  0.3693  0.3974
 1867SOL    HW117063   2.009   3.389   5.675  0.9944  2.1801  1.4302
 1867SOL    HW217064   1.992   3.348   5.808 -0.3454 -0.5865  0.4218
 1868SOL     OW17065   2.663   1.168   9.784  0.3170 -0.2915 -0.6039
 1868SOL    HW117066   2.677   1.260   9.806 -2.2561 -0.6010  2.2827
 1868SOL    HW217067   2.603   1.139   9.853  0.9076 -2.7062 -1.1049
 1869SOL     OW17068   1.168   2.249  12.437  0.3040  0.4627 -0.1375
 1869SOL    HW117069   1.158   2.320  12.373  1.0589  1.0361  0.3791
 1869SOL    HW217070   1.115   2.184  12.391 -1.4391  0.7445  1.4873
 1870SOL     OW17071   3.394   0.884   7.853 -0.1910  0.0898 -0.1912
 1870SOL    HW117072   3.340   0.864   7.930 -1.3095  0.7005 -0.8165
 1870SOL    HW217073   3.456   0.811   7.855  0.2336  0.4754  0.5025
 1871SOL     OW17074   1.393   1.079   8.952 -0.0114 -0.4522  0.4981
 1871SOL    HW117075   1.442   1.150   8.996  0.4389  0.3143 -1.2351
 1871SOL    HW217076   1.336   1.134   8.899  0.2122 -0.4619  0.2489
 1872SOL     OW17077   0.473   2.374   3.633 -0.0553 -0.2325 -0.1031
 1872SOL    HW117078   0.430   2.360   3.717  4.7207  1.2353  2.5512
 1872SOL    HW217079   0.523   2.293   3.618 -0.1503  0.0284 -1.8950
 1873SOL     OW17080   3.198   0.013   3.698 -0.3135 -0.1453 -0.1384
 1873SOL    HW117081   3.141   4.701   3.632 -0.1885 -0.8382  0.1573
 1873SOL    HW217082   3.285   0.020   3.659 -1.9563 -2.3945 -4.1507
 1874SOL     OW17083   2.554   0.524   6.355 -0.1772 -0.4725  0.1739
 1874SOL    HW117084   2.638   0.501   6.313 -0.6730 -1.9393 -0.0356
 1874SOL    HW217085   2.546   0.471   6.435 -1.1199 -2.6531 -1.3680
 1875SOL     OW17086   0.972   3.455   8.872  1.0170 -0.1930 -0.4955
 1875SOL    HW117087   1.038   3.497   8.926 -2.6683  3.4696  1.1835
 1875SOL    HW217088   0.904   3.523   8.876 -0.0680 -1.3141  0.4559
 1876SOL     OW17089   1.069   0.183   3.223 -0.7719 -0.1112 -0.1316
 1876SOL    HW117090   1.156   0.144   3.223 -0.5152  0.4595  0.6378
 1876SOL    HW217091   1.027   0.114   3.275 -1.9190  0.3836 -0.4077
 1877SOL     OW17092   0.913   1.908  10.187  0.0662  0.3558 -0.1850
 1877SOL    HW117093   0.872   1.826  10.160  0.3691 -0.1654  0.9261
 1877SOL    HW217094   1.001   1.880  10.162 -0.2393 -0.5406 -0.2258
 1878SOL     OW17095   2.335   2.342   8.244  0.0367 -0.6300  0.0962
 1878SOL    HW117096   2.270   2.406   8.213  0.2446  0.1292  1.2369
 1878SOL    HW217097   2.280   2.278   8.289 -1.8221  1.2851  0.5746
 1879SOL     OW17098   2.620   0.618   5.004  0.1921  0.6693  0.3867
 1879SOL    HW117099   2.645   0.637   5.094 -0.3655 -0.1657  0.7125
 1879SOL    HW217100   2.654   0.696   4.959  1.0075 -1.2767 -2.3451
 1880SOL     OW17101   0.223   2.638   0.281  0.6585 -0.0523 -0.9117
 1880SOL    HW117102   0.158   2.673   0.343 -0.3725  0.3262 -2.1978
 1880SOL    HW217103   0.161   2.611   0.214  0.0868 -0.2549 -0.3089
 1881SOL     OW17104   1.826   0.587   6.028  0.1273  1.5034 -0.4250
 1881SOL    HW117105   1.758   0.520   6.026  1.1064  0.5626 -1.6012
 1881SOL    HW217106   1.906   0.542   6.055  1.0371  1.8736 -2.5145
 1882SOL     OW17107   2.908   1.869   2.231 -0.1127 -0.5669  0.2568
 1882SOL    HW117108   2.830   1.822   2.202 -0.5637  0.0514  0.4605
 1882SOL    HW217109   2.896   1.853   2.325  3.1995  1.6123  1.0551
 1883SOL     OW17110   2.302   3.970   4.676 -0.0537  0.1310 -0.0751
 1883SOL    HW117111   2.376   3.934   4.724  1.6223 -0.4592 -3.0469
 1883SOL    HW217112   2.248   3.893   4.660 -0.2614 -0.3267  2.9593
 1884SOL     OW17113   3.895   1.566   6.025 -0.3079 -0.5322 -0.6656
 1884SOL    HW117114   3.928   1.492   5.975  0.9950  0.7907 -1.7355
 1884SOL    HW217115   3.905   1.640   5.966  1.2049 -0.7802 -0.7212
 1885SOL     OW17116   2.506   0.203   5.902  0.0168  0.0327  0.4600
 1885SOL    HW117117   2.554   0.285   5.915 -2.4881  0.8355  4.4696
 1885SOL    HW217118   2.542   0.168   5.820  1.3270  1.6316  0.3440
 1886SOL     OW17119   1.332   0.810   8.388 -0.2093 -0.0183  0.2290
 1886SOL    HW117120   1.419   0.778   8.362 -0.6301 -0.3721 -0.7577
 1886SOL    HW217121   1.327   0.890   8.335 -0.1431 -0.2006 -0.0528
 1887SOL     OW17122   3.841   0.305   2.936 -0.3427 -0.5439  0.7339
 1887SOL    HW117123   3.922   0.286   2.983  0.0961  3.4331  1.5964
 1887SOL    HW217124   3.782   0.259   2.994  0.5474  0.1618  2.2053
 1888SOL     OW17125   0.415   2.802   2.610 -0.8225 -0.5385  0.1019
 1888SOL    HW117126   0.382   2.885   2.645 -0.0632  0.7772 -2.2979
 1888SOL    HW217127   0.503   2.815   2.574 -0.8381  2.3632  1.0839
 1889SOL     OW17128   2.279   2.030   1.314 -0.2922 -0.1336  0.1318
 1889SOL    HW117129   2.241   2.083   1.385  0.0228  0.4252 -0.1161
 1889SOL    HW217130   2.256   2.084   1.239  1.5730  1.9653  1.0651
 1890SOL     OW17131   4.153   2.914   5.861  0.3601 -0.1537 -0.4827
 1890SOL    HW117132   4.099   2.874   5.929  1.8568  0.5467  1.0890
 1890SOL    HW217133   4.204   2.837   5.836  0.7311 -0.5451  1.4776
 1891SOL     OW17134   3.130   0.107   8.349 -0.0584  0.7183 -0.2101
 1891SOL    HW117135   3.191   0.172   8.316 -1.2057  1.6805 -0.4633
 1891SOL    HW217136   3.049   0.144   8.313  0.2916  0.0306 -1.6968
 1892SOL     OW17137   1.505   3.107  12.712  0.0034 -0.3996  0.0560
 1892SOL    HW117138   1.450   3.081  12.638  2.4632 -0.0895 -1.8955
 1892SOL    HW217139   1.454   3.073  12.785  2.3045 -0.6061  1.5952
 1893SOL     OW17140   1.651   1.354   3.331 -0.0299  0.1400  0.1534
 1893SOL    HW117141   1.673   1.317   3.416  2.4419 -1.3183 -1.1005
 1893SOL    HW217142   1.593   1.294   3.284 -0.2880 -0.6096  1.4468
 1894SOL     OW17143   3.603   0.680   4.125 -0.3988 -0.2694 -0.2512
 1894SOL    HW117144   3.574   0.757   4.076  0.0967  0.2323  0.2499
 1894SOL    HW217145   3.695   0.704   4.131 -0.3003  0.1159 -3.1554
 1895SOL     OW17146   2.200   1.298   8.191  0.1731  0.4149  0.4566
 1895SOL    HW117147   2.200   1.315   8.097 -0.3741 -0.0976  0.3608
 1895SOL    HW217148   2.114   1.325   8.223  0.6290  0.9598  1.1949
 1896SOL     OW17149   3.427   4.030   8.021 -0.3631  0.1167 -0.2131
 1896SOL    HW117150   3.515   4.060   8.044  0.2149 -3.0623  1.6275
 1896SOL    HW217151   3.373   4.045   8.098 -0.2592 -4.0830  0.6545
 1897SOL     OW17152   4.110   2.013  13.713  0.5132 -0.3000  0.0951
 1897SOL    HW117153   4.106   2.010  13.617 -0.1164  0.7731  0.0836
 1897SOL    HW217154   4.188   1.960  13.729 -1.5043 -3.1316  0.7274
 1898SOL     OW17155   4.361   2.114   4.618 -0.7944 -0.1246 -0.2288
 1898SOL    HW117156   4.441   2.166   4.618 -1.5829  1.1003  1.1878
 1898SOL    HW217157   4.394   2.026   4.634 -1.4661 -0.1170  1.2134
 1899SOL     OW17158   1.879   4.409  10.683 -0.3838  0.1431  0.4300
 1899SOL    HW117159   1.954   4.468  10.675  0.4173 -1.0181 -0.5430
 1899SOL    HW217160   1.919   4.343  10.627  0.8621 -1.4826  3.2235
 1900SOL     OW17161   2.460   0.764   7.887 -0.2400 -0.0357  0.2922
 1900SOL    HW117162   2.390   0.718   7.935 -0.4904  0.7667  0.6880
 1900SOL    HW217163   2.456   0.843   7.941 -1.3601 -0.9950  1.6315
 1901SOL     OW17164   3.084   1.979   4.227  0.5490  0.0017 -0.4263
 1901SOL    HW117165   3.021   1.921   4.184 -0.5771 -0.2279  1.5314
 1901SOL    HW217166   3.040   2.011   4.306 -0.8872  1.5200 -1.8567
 1902SOL     OW17167   2.529   2.250  12.578 -0.6884 -0.0872 -0.0893
 1902SOL    HW117168   2.591   2.321  12.593  0.6782 -1.4952  1.0461
 1902SOL    HW217169   2.514   2.254  12.484  1.0016  0.4256 -0.3332
 1903SOL     OW17170   4.311   3.310  15.415 -0.1682 -0.2043  0.3908
 1903SOL    HW117171   4.267   3.316  15.330 -0.2289 -0.7132  0.3889
 1903SOL    HW217172   4.399   3.286  15.387 -0.0776  0.8400 -0.2592
 1904SOL     OW17173   2.508   4.367   2.044 -0.2849 -0.4670  0.1566
 1904SOL    HW117174   2.541   4.319   1.968 -1.1956  1.4775 -1.4438
 1904SOL    HW217175   2.482   4.292   2.098 -0.2981  0.0864  0.9265
 1905SOL     OW17176   0.350   3.159   4.368 -0.2783  0.0972  0.0844
 1905SOL    HW117177   0.340   3.078   4.418 -3.6543 -0.8246 -2.0839
 1905SOL    HW217178   0.298   3.146   4.289  0.8489  0.9099 -0.7851
 1906SOL     OW17179   3.291   3.135   1.001  0.0782 -0.4844 -0.7956
 1906SOL    HW117180   3.359   3.067   0.998  0.7153  0.1608 -1.1341
 1906SOL    HW217181   3.229   3.106   0.934 -0.0373 -1.1018 -0.4212
 1907SOL     OW17182   2.589   4.061  15.209  0.3710  0.5561 -0.0619
 1907SOL    HW117183   2.508   4.043  15.256  1.3347  0.8427  1.6855
 1907SOL    HW217184   2.593   4.153  15.235  1.7005  0.2824  0.7053
 1908SOL     OW17185   4.688   3.394   2.348 -0.4643  0.1776 -0.1878
 1908SOL    HW117186   0.026   3.424   2.284 -1.5434  0.4613 -1.1498
 1908SOL    HW217187   4.666   3.306   2.318 -1.2486  1.0326 -2.1195
 1909SOL     OW17188   2.753   4.710   4.554  0.1806  0.4008  0.0262
 1909SOL    HW117189   2.749   4.663   4.471  1.4988 -0.8633  0.6783
 1909SOL    HW217190   2.846   4.715   4.576  0.1242 -1.4867  0.6935
 1910SOL     OW17191   3.143   3.586   5.095 -0.9540 -0.3545  0.0321
 1910SOL    HW117192   3.165   3.644   5.022 -0.5156 -3.3376 -2.2040
 1910SOL    HW217193   3.109   3.647   5.159  0.6170  0.8230 -0.2478
 1911SOL     OW17194   0.599   4.100   8.302  0.6677 -0.0204 -0.0059
 1911SOL    HW117195   0.676   4.070   8.351  0.6466 -1.6730 -0.9814
 1911SOL    HW217196   0.569   4.185   8.334  2.0737  0.5285 -0.1483
 1912SOL     OW17197   2.095   2.172  17.130  0.2536  0.7674 -0.4583
 1912SOL    HW117198   2.097   2.132  17.043  3.9351  1.1016 -0.5385
 1912SOL    HW217199   2.107   2.261  17.097  1.2598  1.7158  2.4008
 1913SOL     OW17200   2.239   2.027   6.822  0.0689 -0.4964  0.2816
 1913SOL    HW117201   2.303   1.997   6.886 -0.3138 -1.4673  0.2004
 1913SOL    HW217202   2.292   2.067   6.753 -2.3610 -0.3349 -1.5072
 1914SOL     OW17203   0.124   1.007  12.489  0.5151  0.0198  0.0411
 1914SOL    HW117204   0.102   1.010  12.396 -0.7869  0.5037  0.3620
 1914SOL    HW217205   0.197   1.068  12.500  0.1136  0.3660  0.7454
 1915SOL     OW17206   2.378   2.427  13.778 -0.4854 -0.6540 -0.5450
 1915SOL    HW117207   2.348   2.497  13.721  0.5484 -1.6854 -2.3619
 1915SOL    HW217208   2.350   2.342  13.744 -2.0620 -0.0375 -0.7898
 1916SOL     OW17209   4.263   3.862   9.199  0.4447 -0.1707  0.3902
 1916SOL    HW117210   4.211   3.914   9.260 -1.6946 -1.1080 -0.6370
 1916SOL    HW217211   4.320   3.810   9.255  2.2010 -1.1375 -2.2680
 1917SOL     OW17212   2.359   1.522   6.425 -0.1836  0.1243 -0.4394
 1917SOL    HW117213   2.271   1.526   6.462 -0.5659  0.7258 -1.4235
 1917SOL    HW217214   2.346   1.505   6.332  1.5358 -0.1456 -0.6335
 1918SOL     OW17215   0.731   2.931  16.757 -0.3739  0.0747  0.7987
 1918SOL    HW117216   0.659   2.932  16.819  1.2130  1.0852  2.6459
 1918SOL    HW217217   0.806   2.924  16.816 -0.1911 -0.5721  0.4943
 1919SOL     OW17218   0.531   2.982   6.050 -0.1231 -0.0353 -0.6844
 1919SOL    HW117219   0.608   3.011   6.003 -0.6851 -2.7216 -3.3131
 1919SOL    HW217220   0.517   3.058   6.106  2.2890  0.8143 -1.2604
 1920SOL     OW17221   2.244   4.207   6.992  0.2968  0.3265 -0.1013
 1920SOL    HW117222   2.314   4.267   6.967  0.8565 -0.2146  0.1691
 1920SOL    HW217223   2.215   4.248   7.074 -1.3105  1.5229 -1.2480
 1921SOL     OW17224   1.717   3.688   4.234 -0.3920 -0.3034  0.2797
 1921SOL    HW117225   1.629   3.711   4.204  0.2356  3.3872  1.3181
 1921SOL    HW217226   1.767   3.728   4.163 -1.6461 -0.6625 -0.8072
 1922SOL     OW17227   1.914   4.504   8.388 -0.7453 -0.0938  0.0001
 1922SOL    HW117228   1.888   4.581   8.339 -0.0981  0.7896  1.0536
 1922SOL    HW217229   1.852   4.508   8.460  0.9899  1.7337  1.3758
 1923SOL     OW17230   2.230   1.001   7.415 -0.6884  0.0545  0.1352
 1923SOL    HW117231   2.247   0.928   7.474  0.2475 -0.9603 -1.3835
 1923SOL    HW217232   2.169   1.057   7.462 -1.5521 -0.3947 -0.4420
 1924SOL     OW17233   4.370   4.723  11.829 -0.4292 -0.0841  0.7069
 1924SOL    HW117234   4.386   4.694  11.740  1.4750  2.1259  0.3219
 1924SOL    HW217235   4.441   4.676  11.873  0.1775  0.5712  0.4334
 1925SOL     OW17236   3.765   1.847   4.707  0.0954  0.0503  0.0738
 1925SOL    HW117237   3.687   1.890   4.672  0.0960 -0.6971 -0.8421
 1925SOL    HW217238   3.759   1.897   4.788  1.8267 -0.1549  0.3364
 1926SOL     OW17239   2.970   3.660   6.144 -0.5712 -0.5120 -0.2750
 1926SOL    HW117240   2.938   3.748   6.165  1.3304 -0.1702  1.2543
 1926SOL    HW217241   3.038   3.676   6.078  2.1294 -1.4818  2.2541
 1927SOL     OW17242   4.351   0.261   8.299  0.2494 -0.0969 -0.2617
 1927SOL    HW117243   4.435   0.249   8.343  1.1767  0.5309 -1.9050
 1927SOL    HW217244   4.285   0.287   8.363  0.8701  1.4231 -0.2476
 1928SOL     OW17245   3.931   2.536  16.743  0.1028  0.1506  0.0032
 1928SOL    HW117246   3.989   2.488  16.802  1.0081 -1.0025 -1.7911
 1928SOL    HW217247   3.990   2.597  16.699  1.5004 -1.6602 -0.6290
 1929SOL     OW17248   1.947   1.417  15.875  0.4790 -0.1531  0.3048
 1929SOL    HW117249   1.978   1.458  15.794 -0.3912  1.8686  0.9875
 1929SOL    HW217250   1.855   1.431  15.851  0.2069 -2.0839  0.2466
 1930SOL     OW17251   3.903   0.681   4.127  0.3040  0.2524  0.2735
 1930SOL    HW117252   3.929   0.664   4.036  1.0143  1.0045  0.3471
 1930SOL    HW217253   3.938   0.599   4.161 -1.9674 -0.2603  1.3771
 1931SOL     OW17254   3.839   0.376  11.800 -0.4958 -0.2665 -0.1558
 1931SOL    HW117255   3.751   0.343  11.784 -1.2113  2.3903 -1.7127
 1931SOL    HW217256   3.815   0.457  11.844 -0.0563  0.1047 -0.5979
 1932SOL     OW17257   3.725   2.879   7.021 -0.0971  0.0164 -0.7014
 1932SOL    HW117258   3.727   2.790   7.057  0.0112 -0.2795 -1.4413
 1932SOL    HW217259   3.810   2.883   6.978  0.5262  2.4802  0.7092
 1933SOL     OW17260   0.070   2.573   6.902 -0.1653 -0.1438 -0.3933
 1933SOL    HW117261   4.721   2.562   6.845  1.2575 -0.5188 -2.2171
 1933SOL    HW217262   0.041   2.533   6.984  0.1158  1.4168  0.4655
 1934SOL     OW17263   3.993   3.493   3.731 -0.0545  0.2168  0.1622
 1934SOL    HW117264   3.936   3.518   3.803  1.2042  0.9541  0.9141
 1934SOL    HW217265   3.944   3.426   3.684  1.3234 -0.1286 -0.7727
 1935SOL     OW17266   0.661   1.410   6.718 -0.6342 -0.3511  0.5427
 1935SOL    HW117267   0.611   1.449   6.790  0.4041 -0.6545  1.4312
 1935SOL    HW217268   0.584   1.380   6.670 -1.5290  1.4319  0.9001
 1936SOL     OW17269   0.209   0.230   7.391 -0.1405  0.2988  0.2094
 1936SOL    HW117270   0.280   0.293   7.408  0.2947 -0.4639  1.1968
 1936SOL    HW217271   0.140   0.296   7.396  1.2244  1.8807 -1.4551
 1937SOL     OW17272   1.617   3.617   2.328  0.0379  0.2003  0.2153
 1937SOL    HW117273   1.653   3.565   2.256 -1.3125 -0.0735 -0.2597
 1937SOL    HW217274   1.535   3.570   2.343 -0.4447  1.3012  0.9975
 1938SOL     OW17275   4.286   3.231   2.499 -0.3941 -0.1373  0.0633
 1938SOL    HW117276   4.363   3.198   2.546  0.0548 -0.0666 -0.6240
 1938SOL    HW217277   4.326   3.286   2.431 -0.8836 -2.8858 -2.4327
 1939SOL     OW17278   1.027   4.180   3.217  0.8190  0.3517 -0.4255
 1939SOL    HW117279   1.095   4.146   3.158 -0.5300 -0.8937 -1.2616
 1939SOL    HW217280   1.090   4.212   3.281  2.5686 -2.1285 -0.9206
 1940SOL     OW17281   3.534   2.039   4.606  0.5471  0.0713  0.5017
 1940SOL    HW117282   3.524   2.070   4.696 -0.5246 -1.5937  0.9753
 1940SOL    HW217283   3.450   2.003   4.578  0.1696  0.8556  0.6447
 1941SOL     OW17284   4.442   4.047   0.833 -0.2372 -0.1138  0.5047
 1941SOL    HW117285   4.536   4.055   0.853  0.1367 -0.8525 -0.9475
 1941SOL    HW217286   4.421   3.966   0.879 -2.0128  1.5588  2.6108
 1942SOL     OW17287   2.864   0.835   2.745  0.0225 -0.2387  0.4798
 1942SOL    HW117288   2.953   0.800   2.742  0.6105  1.3097  0.1474
 1942SOL    HW217289   2.882   0.915   2.793  0.4013  0.8957 -1.5645
 1943SOL     OW17290   4.492   3.917   5.899  0.1310  0.0266 -0.3343
 1943SOL    HW117291   4.559   3.850   5.906 -0.0091 -0.2401 -1.5053
 1943SOL    HW217292   4.475   3.944   5.990 -1.7851  0.4813 -0.8161
 1944SOL     OW17293   2.726   0.389   1.436 -0.1282  0.1116  0.7082
 1944SOL    HW117294   2.805   0.349   1.472  0.1110  0.8255  0.9682
 1944SOL    HW217295   2.705   0.426   1.521 -1.4658 -1.7623  1.1976
 1945SOL     OW17296   4.142   0.024   6.381 -0.4416  0.5755  0.1387
 1945SOL    HW117297   4.120   0.077   6.457 -0.1624  0.3433  0.3790
 1945SOL    HW217298   4.174   0.087   6.317 -1.5237 -0.2821 -1.2717
 1946SOL     OW17299   0.188   2.591   1.167 -0.3172 -0.2916  0.3157
 1946SOL    HW117300   0.206   2.618   1.257  2.9305  0.6393 -0.6424
 1946SOL    HW217301   0.270   2.545   1.153 -0.1778 -0.3494  1.3150
 1947SOL     OW17302   2.920   4.324   2.809 -0.2653 -0.4367 -0.0187
 1947SOL    HW117303   2.826   4.340   2.800 -0.5322 -2.2637 -0.4176
 1947SOL    HW217304   2.912   4.234   2.840  0.1103  0.5028  2.8554
 1948SOL     OW17305   4.726   0.464   4.109  0.1095  0.4237  0.0120
 1948SOL    HW117306   4.711   0.535   4.171  0.8294  0.9593 -0.4286
 1948SOL    HW217307   0.013   0.517   4.031  0.5336 -0.4559 -0.5099
 1949SOL     OW17308   2.925   2.817  16.537  0.5109  0.1667  0.2957
 1949SOL    HW117309   2.916   2.894  16.592 -2.6596 -0.4984  0.7425
 1949SOL    HW217310   2.889   2.751  16.596  0.9637 -0.0388  0.3385
 1950SOL     OW17311   4.249   0.672   1.274 -0.0359 -0.6987 -0.1063
 1950SOL    HW117312   4.318   0.679   1.340 -0.2127 -1.7761  0.1967
 1950SOL    HW217313   4.217   0.761   1.290  0.5060 -0.3473 -0.9778
 1951SOL     OW17314   1.001   0.931  13.737 -0.3349  0.1160  0.3827
 1951SOL    HW117315   1.084   0.918  13.782 -0.9121  1.5137  1.8756
 1951SOL    HW217316   0.952   0.970  13.810 -2.2895  0.2796 -1.0080
 1952SOL     OW17317   1.095   3.983  10.243 -0.5644 -0.2748  0.5401
 1952SOL    HW117318   1.178   4.015  10.208 -1.6133 -0.1994 -1.8867
 1952SOL    HW217319   1.069   4.046  10.310 -0.5602 -1.0362  1.2569
 1953SOL     OW17320   3.339   0.852   0.155  0.3988 -0.1969 -0.0084
 1953SOL    HW117321   3.415   0.905   0.130  0.6830 -0.9344 -0.7026
 1953SOL    HW217322   3.305   0.914   0.219  0.9605  0.3422 -0.2349
 1954SOL     OW17323   4.498   0.887   5.232 -0.6564 -0.6766  0.4919
 1954SOL    HW117324   4.507   0.931   5.147 -3.6613 -1.5301 -0.2580
 1954SOL    HW217325   4.410   0.851   5.225 -0.6441 -0.6350  0.0731
 1955SOL     OW17326   2.541   0.078  12.521 -0.2641 -0.3268 -0.2193
 1955SOL    HW117327   2.599   0.068  12.445  1.1951 -0.0975  0.8604
 1955SOL    HW217328   2.588   0.026  12.586 -1.5906  0.2706  1.2241
 1956SOL     OW17329   0.770   3.659   8.968  0.2523 -0.1258 -0.2576
 1956SOL    HW117330   0.707   3.725   8.941 -1.5099 -0.9536  1.8025
 1956SOL    HW217331   0.770   3.667   9.063  0.7880  0.5961 -0.3216
 1957SOL     OW17332   0.992   0.343   2.419 -0.4072  0.3944  0.1453
 1957SOL    HW117333   0.940   0.282   2.366 -0.1235  0.3841 -0.1211
 1957SOL    HW217334   1.075   0.298   2.428  0.3093  1.3518 -1.7526
 1958SOL     OW17335   1.361   4.297   4.372 -0.2451  0.1502  0.0948
 1958SOL    HW117336   1.279   4.265   4.333 -0.0908  2.6012 -2.2214
 1958SOL    HW217337   1.378   4.368   4.311  0.9370  0.0642  0.3223
 1959SOL     OW17338   1.503   0.334   7.853  0.1076 -0.2406 -0.1175
 1959SOL    HW117339   1.547   0.273   7.795  1.0638 -1.5889  2.0216
 1959SOL    HW217340   1.480   0.412   7.802 -1.5851  0.0733  1.0934
 1960SOL     OW17341   3.015   3.675   8.415  0.0095 -0.7583  0.0478
 1960SOL    HW117342   3.094   3.622   8.423 -0.5480 -1.3647  1.6044
 1960SOL    HW217343   3.005   3.689   8.321 -0.0532  0.9672  0.3153
 1961SOL     OW17344   3.379   2.061   6.830  0.5109 -0.5258  0.4747
 1961SOL    HW117345   3.354   1.993   6.893  0.3825 -0.6700  0.2675
 1961SOL    HW217346   3.442   2.014   6.776  1.4391  0.9903  0.2548
 1962SOL     OW17347   0.078   1.256  10.002 -0.6191 -0.3989 -0.3510
 1962SOL    HW117348   0.020   1.281   9.930  0.3748  0.7494 -0.7369
 1962SOL    HW217349   0.017   1.219  10.066 -0.6693  0.7022  0.2439
 1963SOL     OW17350   1.527   3.911   4.855  0.9034 -0.0065 -0.0975
 1963SOL    HW117351   1.588   3.864   4.911  1.0375 -2.7955 -2.6009
 1963SOL    HW217352   1.584   3.972   4.807  0.0207  0.9909  0.1187
 1964SOL     OW17353   1.215   1.670   6.427 -0.0070  0.0113 -0.5278
 1964SOL    HW117354   1.164   1.589   6.422  0.3225 -0.2810  0.9735
 1964SOL    HW217355   1.147   1.728   6.463 -1.0462 -1.1976 -0.5554
 1965SOL     OW17356   2.296   0.360   2.601  0.2019  0.3207  0.0336
 1965SOL    HW117357   2.323   0.383   2.689 -1.2108  1.9059  0.0515
 1965SOL    HW217358   2.328   0.439   2.557  0.8581 -0.6640 -1.2646
 1966SOL     OW17359   3.322   3.872   5.585  0.2325 -0.0675  0.6048
 1966SOL    HW117360   3.235   3.909   5.603  0.6641  1.2498 -0.0055
 1966SOL    HW217361   3.375   3.904   5.658  1.2416  0.0825 -0.1936
 1967SOL     OW17362   0.904   1.796   9.540  0.2293 -0.0680 -0.4373
 1967SOL    HW117363   0.873   1.719   9.588  2.5121  1.1082  2.8981
 1967SOL    HW217364   0.994   1.764   9.548  0.3642  0.1278 -1.1662
 1968SOL     OW17365   3.514   4.204   0.137  0.2908 -0.2034  0.5826
 1968SOL    HW117366   3.595   4.254   0.139 -0.8805  1.6646  1.6381
 1968SOL    HW217367   3.535   4.140   0.206 -2.4502 -2.2239 -0.4244
 1969SOL     OW17368   2.023   3.143  13.418  0.2200 -0.6961 -0.3767
 1969SOL    HW117369   1.954   3.083  13.389 -0.3863  0.5829 -1.5894
 1969SOL    HW217370   2.045   3.108  13.504  1.7408 -0.6588 -0.7583
 1970SOL     OW17371   1.035   3.253   6.821 -0.4478  0.4803  0.1458
 1970SOL    HW117372   1.053   3.229   6.730  0.0946 -1.3236  0.7266
 1970SOL    HW217373   1.126   3.246   6.849 -0.5531  1.6512  0.8148
 1971SOL     OW17374   3.291   1.099   4.506  0.0540 -0.6360 -0.3946
 1971SOL    HW117375   3.376   1.120   4.544  0.3338  1.0089 -1.8939
 1971SOL    HW217376   3.237   1.172   4.537  2.3131  0.3027  1.3032
 1972SOL     OW17377   1.010   3.646   0.489 -0.3870  0.9167 -0.1316
 1972SOL    HW117378   0.964   3.716   0.535  0.6472  1.6673 -0.2245
 1972SOL    HW217379   1.027   3.700   0.412  0.0444  2.0628  0.7686
 1973SOL     OW17380   0.812   3.068   7.642  0.2948 -0.4138  0.0475
 1973SOL    HW117381   0.761   3.059   7.561  2.0800  0.0560 -1.1146
 1973SOL    HW217382   0.751   3.030   7.706 -0.5414 -1.3517 -1.3102
 1974SOL     OW17383   3.514   1.965   8.492 -0.0470  0.6997 -0.5860
 1974SOL    HW117384   3.498   1.932   8.580 -1.7875  1.0506 -0.7723
 1974SOL    HW217385   3.456   1.909   8.440 -0.5551 -0.2741  1.0490
 1975SOL     OW17386   1.407   3.517   8.662 -0.3400 -0.1027 -0.1010
 1975SOL    HW117387   1.392   3.610   8.674 -0.4245 -0.2237  0.7279
 1975SOL    HW217388   1.427   3.498   8.754  0.1242  0.3870 -0.0996
 1976SOL     OW17389   0.594   3.713   1.764 -0.0965  0.2468 -0.5399
 1976SOL    HW117390   0.508   3.733   1.726 -1.0394 -2.3582  0.1909
 1976SOL    HW217391   0.636   3.798   1.755 -1.3678  0.6324 -2.8287
 1977SOL     OW17392   0.959   1.846   9.864 -0.1079  0.1733 -0.1251
 1977SOL    HW117393   1.007   1.896   9.798 -2.0929  1.7879 -0.3401
 1977SOL    HW217394   0.906   1.914   9.905 -0.4455 -0.0251 -0.2321
 1978SOL     OW17395   0.071   3.271   8.500 -0.5861 -0.3406 -0.7463
 1978SOL    HW117396   0.045   3.179   8.508 -1.1994 -0.0005  0.9563
 1978SOL    HW217397   0.026   3.292   8.418 -0.5724 -2.3697 -1.2818
 1979SOL     OW17398   3.591   1.367  14.245  0.2656  0.7070 -0.4079
 1979SOL    HW117399   3.515   1.399  14.294  0.4363  1.3689 -0.5802
 1979SOL    HW217400   3.651   1.434  14.280  2.6030  0.2885 -3.6488
 1980SOL     OW17401   1.708   0.041   3.315  0.3506 -0.0496 -0.3069
 1980SOL    HW117402   1.759   0.007   3.241 -0.4679 -0.8377 -0.5110
 1980SOL    HW217403   1.769   0.086   3.373 -0.0804  1.3189 -0.9175
 1981SOL     OW17404   3.852   2.033   7.642  0.2379 -0.4193  0.5553
 1981SOL    HW117405   3.793   2.079   7.702  0.5580 -0.5467  0.9719
 1981SOL    HW217406   3.896   2.109   7.605  0.1241 -0.7275 -0.2066
 1982SOL     OW17407   1.972   2.125   3.972  0.4267 -0.2340  0.2690
 1982SOL    HW117408   1.920   2.055   3.933 -1.2553 -1.1153  4.0811
 1982SOL    HW217409   2.012   2.081   4.047  1.5711 -0.8291 -0.6847
 1983SOL     OW17410   0.999   1.147   8.404 -0.4757  0.0309 -0.1659
 1983SOL    HW117411   1.031   1.237   8.403  0.4013 -0.2848 -0.1092
 1983SOL    HW217412   1.023   1.106   8.487  0.3012 -1.0173 -0.9204
 1984SOL     OW17413   1.473   2.498   6.022 -0.1176  0.1627 -0.0389
 1984SOL    HW117414   1.387   2.537   6.039 -0.1157  0.4059 -0.5855
 1984SOL    HW217415   1.520   2.531   6.098 -0.6462 -3.2101  1.7818
 1985SOL     OW17416   1.554   3.103   6.852  0.0191  0.7170 -0.2117
 1985SOL    HW117417   1.602   3.025   6.881 -0.6056  0.3261 -0.2182
 1985SOL    HW217418   1.614   3.176   6.864  2.5929 -1.3008 -0.7645
 1986SOL     OW17419   3.813   3.766   3.338  0.0730  0.5839  0.2126
 1986SOL    HW117420   3.743   3.788   3.401  1.0565 -0.9648  1.8456
 1986SOL    HW217421   3.775   3.796   3.255 -0.3536 -0.6667 -0.0383
 1987SOL     OW17422   2.185   2.483   7.705 -0.4216 -0.2286  0.2427
 1987SOL    HW117423   2.116   2.427   7.739 -2.0257  0.7281 -1.3968
 1987SOL    HW217424   2.148   2.510   7.621 -0.1236  0.2583  0.2650
 1988SOL     OW17425   0.673   2.727   5.634  0.0569  0.2005 -0.3090
 1988SOL    HW117426   0.684   2.653   5.575  1.4786 -0.4185  0.7478
 1988SOL    HW217427   0.580   2.712   5.653  0.2300  0.5021  0.7917
 1989SOL     OW17428   3.442   0.101  12.204 -0.1014 -0.4140 -0.5077
 1989SOL    HW117429   3.443   0.072  12.295 -0.7862 -0.3659 -0.4781
 1989SOL    HW217430   3.406   0.188  12.222 -0.9087 -1.6200  3.6536
 1990SOL     OW17431   4.382   3.504   8.906  0.3213  0.2550  0.8101
 1990SOL    HW117432   4.364   3.410   8.908 -0.9790  0.5152  1.7418
 1990SOL    HW217433   4.308   3.541   8.954  1.1725  1.0206  1.5551
 1991SOL     OW17434   1.516   2.895   5.493  0.3443 -0.5128 -0.0450
 1991SOL    HW117435   1.562   2.874   5.412  0.0184  1.8239 -0.8661
 1991SOL    HW217436   1.425   2.869   5.476 -0.0285  0.1328  0.9609
 1992SOL     OW17437   1.377   1.604  15.796  0.2867 -0.7321 -0.5837
 1992SOL    HW117438   1.372   1.635  15.706  2.1170  1.2745  0.0083
 1992SOL    HW217439   1.313   1.533  15.795 -0.5501  0.0005  0.4691
 1993SOL     OW17440   0.172   2.060   7.236  0.2468  0.4267  0.3868
 1993SOL    HW117441   0.232   1.985   7.234  0.6085  0.7413 -0.6016
 1993SOL    HW217442   0.092   2.019   7.269  0.7270 -1.0681 -0.3303
 1994SOL     OW17443   1.124   0.158   6.895 -0.1888 -0.0756 -0.1127
 1994SOL    HW117444   1.135   0.093   6.826  0.0286  0.8003 -0.9045
 1994SOL    HW217445   1.104   0.233   6.839  0.6835 -0.2616 -0.6849
 1995SOL     OW17446   1.128   1.424  10.859  0.4934 -0.2808  0.1739
 1995SOL    HW117447   1.057   1.430  10.923  0.6357  0.4706  0.2588
 1995SOL    HW217448   1.179   1.350  10.891  0.8429  0.1469  0.5986
 1996SOL     OW17449   1.352   3.935  16.754  0.4645  0.1773  0.4989
 1996SOL    HW117450   1.391   3.969  16.835  2.7208 -1.6902  0.2046
 1996SOL    HW217451   1.289   3.877  16.796 -0.1898  0.7538  0.3172
 1997SOL     OW17452   2.756   3.465  13.269 -0.6664  0.1873 -0.0358
 1997SOL    HW117453   2.834   3.411  13.281  0.7118  2.0621 -0.8213
 1997SOL    HW217454   2.686   3.400  13.257  1.5188 -2.1145 -0.2699
 1998SOL     OW17455   2.631   2.572  10.766 -0.3552  0.3310 -0.1104
 1998SOL    HW117456   2.691   2.562  10.840 -0.2111 -0.0017 -0.2678
 1998SOL    HW217457   2.635   2.481  10.734  2.6677  0.7679 -1.0111
 1999SOL     OW17458   3.914   1.738   5.841 -0.3824  0.4303 -0.5155
 1999SOL    HW117459   3.947   1.776   5.759 -0.5821  3.6211  0.8731
 1999SOL    HW217460   3.855   1.808   5.868  1.8280  2.2656 -0.4124
 2000SOL     OW17461   4.138   4.072   6.856  0.0283  0.2009  0.2762
 2000SOL    HW117462   4.120   3.987   6.896  1.6626 -1.2873 -2.1433
 2000SOL    HW217463   4.232   4.083   6.865  0.1027  0.8450 -1.1866
 2001SOL     OW17464   0.888   0.514   6.968  0.0432  0.4381 -0.0603
 2001SOL    HW117465   0.949   0.572   6.922 -1.3681  2.3721  0.4684
 2001SOL    HW217466   0.820   0.576   6.997 -0.8625  0.1856 -1.6204
 2002SOL     OW17467   1.066   3.972   8.233 -0.1974 -0.1130  0.4453
 2002SOL    HW117468   1.139   3.912   8.215  0.4101 -0.2430  3.3804
 2002SOL    HW217469   1.044   3.947   8.323 -2.2915 -0.8298 -0.2593
 2003SOL     OW17470   2.793   2.388   5.067 -0.2341  0.4727 -0.5334
 2003SOL    HW117471   2.790   2.292   5.063  1.2188  0.4045 -0.0741
 2003SOL    HW217472   2.886   2.403   5.049 -0.0762 -0.5251 -0.5632
 2004SOL     OW17473   0.831   3.891   2.028 -0.2474  0.4453 -0.1184
 2004SOL    HW117474   0.843   3.796   2.033 -0.8801  0.4690  1.9350
 2004SOL    HW217475   0.909   3.930   2.066  0.8800 -0.8269 -1.1618
 2005SOL     OW17476   3.160   1.332  16.863 -0.5498  0.0026 -0.0179
 2005SOL    HW117477   3.220   1.267  16.825  1.9211  2.0088  0.4366
 2005SOL    HW217478   3.091   1.268  16.879 -0.8910 -0.1745 -2.1720
 2006SOL     OW17479   1.347   2.889   9.048 -0.6264  0.4242  0.7672
 2006SOL    HW117480   1.352   2.814   8.989  0.3925  2.1990 -1.3789
 2006SOL    HW217481   1.441   2.887   9.062 -0.4971  2.0004  0.1060
 2007SOL     OW17482   1.276   4.222   5.091  0.7307 -0.6661 -0.7688
 2007SOL    HW117483   1.254   4.306   5.052 -0.9705 -1.4671 -1.5336
 2007SOL    HW217484   1.308   4.253   5.176  1.0706  0.5534 -1.3429
 2008SOL     OW17485   0.551   2.710   4.036  0.0805 -0.6538 -0.2057
 2008SOL    HW117486   0.487   2.644   4.061 -0.3918 -0.0050  0.3210
 2008SOL    HW217487   0.492   2.774   3.994 -1.7187 -2.3598 -0.3037
 2009SOL     OW17488   1.628   0.266  11.976  0.0443  0.5091  0.6500
 2009SOL    HW117489   1.535   0.289  11.971 -0.3775 -0.9981  1.5803
 2009SOL    HW217490   1.671   0.340  11.932  0.5605  0.6601  1.4041
 2010SOL     OW17491   0.104   1.187  11.283  0.0795  0.0394  0.0802
 2010SOL    HW117492   0.075   1.269  11.243  0.3112 -0.4802 -1.1877
 2010SOL    HW217493   0.129   1.138  11.204  0.3002 -0.2153  0.3079
 2011SOL     OW17494   2.469   3.673   0.063  0.2471 -0.1216 -0.4293
 2011SOL    HW117495   2.528   3.735   0.021 -0.1596  0.5731  0.0392
 2011SOL    HW217496   2.496   3.694   0.152  1.7155 -4.2755  0.1041
 2012SOL     OW17497   1.207   2.365   4.388 -0.3710 -0.1449 -0.2572
 2012SOL    HW117498   1.163   2.279   4.392 -0.0796 -0.1793  2.0924
 2012SOL    HW217499   1.137   2.420   4.423  0.4530  0.6264  0.1582
 2013SOL     OW17500   1.645   2.793   5.902  0.4018  0.0781 -0.1669
 2013SOL    HW117501   1.628   2.880   5.866 -0.1323  0.3134  0.6437
 2013SOL    HW217502   1.568   2.741   5.880  0.4408 -0.4061  0.8257
 2014SOL     OW17503   0.340   4.005  10.378 -0.6880 -0.3435  0.6221
 2014SOL    HW117504   0.309   4.087  10.340  0.3262  0.4007  1.4033
 2014SOL    HW217505   0.260   3.960  10.350 -1.0026 -0.5734  1.9175
 2015SOL     OW17506   1.747   1.175   8.632 -0.0056 -0.6522 -0.3872
 2015SOL    HW117507   1.700   1.209   8.709 -0.3068 -1.2377 -0.3120
 2015SOL    HW217508   1.754   1.080   8.642  0.5928 -0.5091  0.6911
 2016SOL     OW17509   3.984   0.519   7.661 -0.5955 -0.2939 -0.2758
 2016SOL    HW117510   3.970   0.445   7.602  0.3853 -1.5522  1.0570
 2016SOL    HW217511   4.036   0.472   7.726 -0.0629 -0.4940 -0.8530
 2017SOL     OW17512   2.393   3.122   3.942 -0.5287  0.1445 -0.3363
 2017SOL    HW117513   2.476   3.092   3.905  0.4095  1.5020  0.6677
 2017SOL    HW217514   2.350   3.159   3.865 -0.6829 -1.0104 -0.8040
 2018SOL     OW17515   1.441   3.399   5.108  0.0721 -0.1356 -0.3085
 2018SOL    HW117516   1.532   3.368   5.106 -0.3637 -1.3803 -0.2170
 2018SOL    HW217517   1.412   3.353   5.030 -3.0722  2.9718 -0.9676
 2019SOL     OW17518   3.447   1.669   6.381 -0.1680 -0.0870  0.4753
 2019SOL    HW117519   3.401   1.744   6.344 -1.3948 -0.9817  0.1807
 2019SOL    HW217520   3.445   1.607   6.308 -4.5816 -1.5506  1.7970
 2020SOL     OW17521   0.653   0.521   4.603 -0.1537 -0.2677 -0.0529
 2020SOL    HW117522   0.575   0.574   4.585  0.3727  1.1038  1.8202
 2020SOL    HW217523   0.676   0.562   4.686  1.7590  0.1991 -0.8117
 2021SOL     OW17524   0.581   0.371  10.888 -0.0827  0.3067  0.3143
 2021SOL    HW117525   0.489   0.391  10.904 -0.9474 -2.2400 -1.4351
 2021SOL    HW217526   0.578   0.398  10.797  2.4280  0.3058  0.2486
 2022SOL     OW17527   4.423   3.336   4.802 -0.1730  0.2465  0.3901
 2022SOL    HW117528   4.435   3.337   4.707 -0.0013 -1.0925  0.3982
 2022SOL    HW217529   4.506   3.304   4.839  0.1181  0.5953  0.0403
 2023SOL     OW17530   4.431   4.033   0.182 -0.0979 -0.5017 -0.0209
 2023SOL    HW117531   4.361   4.082   0.139  1.2052 -1.2121 -3.0040
 2023SOL    HW217532   4.481   4.094   0.235  0.9867 -2.4820  1.2139
 2024SOL     OW17533   4.653   4.606  10.298 -0.2248 -0.3436 -0.1527
 2024SOL    HW117534   4.583   4.547  10.326  1.6596 -1.6966  1.7298
 2024SOL    HW217535   4.602   4.677  10.258 -1.4109 -0.2155  1.5743
 2025SOL     OW17536   3.726   3.892   3.062  0.4963  0.5181  0.6266
 2025SOL    HW117537   3.744   3.963   3.001 -0.5648  0.8475  0.7052
 2025SOL    HW217538   3.699   3.830   2.995  1.5945 -0.1122  0.7704
 2026SOL     OW17539   4.359   2.514   2.637  0.2750 -0.4171 -0.3916
 2026SOL    HW117540   4.323   2.435   2.595 -0.0307 -0.2839 -0.3771
 2026SOL    HW217541   4.350   2.472   2.723 -1.1800 -1.1981 -0.9262
 2027SOL     OW17542   2.200   3.400   3.164 -0.0742 -0.3415 -0.0188
 2027SOL    HW117543   2.279   3.439   3.202 -0.1322 -0.9417  0.7168
 2027SOL    HW217544   2.238   3.390   3.077 -1.9119 -3.8236 -0.4187
 2028SOL     OW17545   2.662   1.528   5.599 -0.1719  0.2003  0.2003
 2028SOL    HW117546   2.713   1.517   5.518 -2.7101  0.9014 -1.4889
 2028SOL    HW217547   2.630   1.439   5.610 -1.3963  0.7755  1.1877
 2029SOL     OW17548   4.501   1.114   9.942 -0.2281 -0.7764  0.1340
 2029SOL    HW117549   4.558   1.172   9.891 -0.0615 -1.3075 -0.2880
 2029SOL    HW217550   4.523   1.134  10.033  1.3714  1.0325 -0.6544
 2030SOL     OW17551   0.657   1.915   4.278  0.5322  0.2159  0.5237
 2030SOL    HW117552   0.656   1.832   4.230  0.8788  1.1012 -0.9965
 2030SOL    HW217553   0.712   1.893   4.353 -0.7075 -0.3531  1.2638
 2031SOL     OW17554   4.078   0.786  15.422 -0.1709  0.3501 -0.4574
 2031SOL    HW117555   4.016   0.859  15.426 -1.8105 -0.9915 -1.3968
 2031SOL    HW217556   4.137   0.814  15.352 -1.3318  0.1061 -1.5398
 2032SOL     OW17557   4.305   3.589   7.548  0.2243 -0.2129 -0.0974
 2032SOL    HW117558   4.290   3.522   7.481 -0.9362  0.9425 -0.9809
 2032SOL    HW217559   4.213   3.610   7.564  0.2433 -2.0229  2.4560
 2033SOL     OW17560   2.014   0.566   8.111  0.2734  0.5194  0.4772
 2033SOL    HW117561   1.992   0.657   8.093  1.3729  1.2212  2.6539
 2033SOL    HW217562   1.932   0.519   8.099 -0.4545  1.2976  2.5210
 2034SOL     OW17563   1.091   1.325   1.107 -0.3521 -0.1136 -0.4678
 2034SOL    HW117564   1.073   1.399   1.050 -2.6862 -1.0451 -0.9553
 2034SOL    HW217565   1.034   1.261   1.064  0.8646 -0.3157 -1.7899
 2035SOL     OW17566   1.114   1.226  14.573 -0.1714  0.0549  0.2588
 2035SOL    HW117567   1.205   1.218  14.602 -0.2246  1.5848  0.8716
 2035SOL    HW217568   1.124   1.188  14.485 -1.7535 -0.3617  0.2630
 2036SOL     OW17569   2.780   0.521   6.169 -0.1356 -0.3139 -0.2749
 2036SOL    HW117570   2.803   0.614   6.173 -0.0522 -0.3239 -0.5076
 2036SOL    HW217571   2.867   0.484   6.186 -0.7635 -1.4601  0.4439
 2037SOL     OW17572   1.676   1.014  11.702 -0.5325  0.3067  0.0567
 2037SOL    HW117573   1.688   1.097  11.655  0.3647 -0.2284 -0.6549
 2037SOL    HW217574   1.719   0.957  11.639 -2.6035 -1.7928  0.5373
 2038SOL     OW17575   0.123   3.429  16.519  0.0741 -0.1832 -0.1959
 2038SOL    HW117576   0.164   3.356  16.565  2.8855  0.8469 -1.1011
 2038SOL    HW217577   0.153   3.409  16.431  1.1346 -1.2939  0.4228
 2039SOL     OW17578   2.015   1.730   4.370 -0.3854 -0.0656 -0.0230
 2039SOL    HW117579   2.013   1.657   4.308  1.5504 -0.5661  0.5065
 2039SOL    HW217580   2.106   1.736   4.400  0.3554 -2.2462 -1.8601
 2040SOL     OW17581   1.473   0.223   5.970  0.3213  0.0703 -0.3214
 2040SOL    HW117582   1.456   0.220   5.876  1.6762  0.2614 -0.5694
 2040SOL    HW217583   1.388   0.198   6.007  0.8392 -1.6354 -0.3170
 2041SOL     OW17584   4.433   3.250   7.048  0.2426 -0.1369 -0.4196
 2041SOL    HW117585   4.398   3.212   7.129 -1.3866  0.0150 -1.0588
 2041SOL    HW217586   4.430   3.341   7.077 -1.7602 -0.2873 -0.1477
 2042SOL     OW17587   4.196   0.464   6.853 -0.5051  0.0252  0.0997
 2042SOL    HW117588   4.278   0.488   6.809  0.5801  0.2115  2.2020
 2042SOL    HW217589   4.211   0.373   6.877  0.0943  0.4630  1.4122
 2043SOL     OW17590   2.672   3.663   2.717 -0.1878  0.2394 -0.3632
 2043SOL    HW117591   2.735   3.624   2.656  2.6538  1.0417  2.0666
 2043SOL    HW217592   2.628   3.717   2.652 -0.1570  0.5326 -0.1395
 2044SOL     OW17593   4.414   2.378  10.669 -0.3073 -0.3471  0.3937
 2044SOL    HW117594   4.419   2.443  10.599 -0.0835 -2.3927 -1.4832
 2044SOL    HW217595   4.350   2.418  10.728  0.1845  0.6041  0.2977
 2045SOL     OW17596   1.740   0.292  14.709 -0.1412  0.0032  0.1318
 2045SOL    HW117597   1.718   0.200  14.691  2.1363 -0.6360  0.5908
 2045SOL    HW217598   1.654   0.325  14.732 -0.6444 -0.1388 -1.5081
 2046SOL     OW17599   3.668   2.312   4.546 -0.1187  0.0950 -0.1298
 2046SOL    HW117600   3.587   2.262   4.535 -0.1648  0.3007 -0.7136
 2046SOL    HW217601   3.688   2.352   4.462 -1.1528 -0.1017 -0.4588
 2047SOL     OW17602   4.287   0.656   3.057  0.4098  0.7435  0.1119
 2047SOL    HW117603   4.319   0.577   3.100 -0.2855  0.7367  0.6154
 2047SOL    HW217604   4.271   0.614   2.973 -0.3898  0.1324  0.5692
 2048SOL     OW17605   0.190   3.755   2.290 -0.1979 -0.2094 -0.6991
 2048SOL    HW117606   0.252   3.828   2.284  0.0673 -0.3364  0.5621
 2048SOL    HW217607   0.213   3.728   2.379  1.1779 -0.1447 -1.0301
 2049SOL     OW17608   0.293   3.701   5.929  0.4017 -0.1046  0.5013
 2049SOL    HW117609   0.274   3.795   5.927  1.3376  0.1023  1.3983
 2049SOL    HW217610   0.382   3.693   5.894 -0.2620  1.2774 -1.4637
 2050SOL     OW17611   0.808   3.145   3.425 -0.1537 -0.0233  0.2642
 2050SOL    HW117612   0.830   3.225   3.473  0.1472 -0.8639  1.5212
 2050SOL    HW217613   0.897   3.133   3.391 -0.7250  0.8951 -1.5892
 2051SOL     OW17614   1.994   2.362   4.793  0.3006 -0.6146  0.2084
 2051SOL    HW117615   1.918   2.364   4.851  1.2150  1.2710  1.3481
 2051SOL    HW217616   2.061   2.347   4.860 -0.3791  0.6692  1.1833
 2052SOL     OW17617   4.721   0.936  12.051 -0.4483  0.1324 -0.2403
 2052SOL    HW117618   0.038   1.004  12.000  0.5215 -1.2393 -1.2114
 2052SOL    HW217619   4.655   0.986  12.099  0.4157  0.0365  1.0351
 2053SOL     OW17620   4.608   1.281   5.466  0.1633  0.9050 -0.3928
 2053SOL    HW117621   4.653   1.266   5.549  0.1430  2.0572 -0.1688
 2053SOL    HW217622   4.636   1.205   5.414 -0.3755 -0.3152  1.0963
 2054SOL     OW17623   3.925   0.287   6.147 -0.3231 -0.5468 -0.7344
 2054SOL    HW117624   3.892   0.278   6.236 -0.5377  1.5000 -0.6116
 2054SOL    HW217625   4.001   0.344   6.157 -0.6574  0.0700 -1.7412
 2055SOL     OW17626   1.822   4.162  14.081 -0.0875 -0.1430  0.1150
 2055SOL    HW117627   1.769   4.147  14.159 -2.7394  0.6108 -1.5465
 2055SOL    HW217628   1.892   4.218  14.113 -2.3036  1.8874  1.4233
 2056SOL     OW17629   1.480   2.423   2.946  0.2335 -0.2185 -0.6227
 2056SOL    HW117630   1.467   2.446   2.854  0.7801 -2.3344 -1.2168
 2056SOL    HW217631   1.400   2.378   2.973  1.2974 -0.5932  1.9243
 2057SOL     OW17632   3.772   4.214   3.271  0.0484  0.2845  0.0875
 2057SOL    HW117633   3.744   4.160   3.197 -2.3938  2.2286 -0.4177
 2057SOL    HW217634   3.848   4.162   3.295  1.1405  1.6127 -0.4968
 2058SOL     OW17635   4.385   1.820   4.579 -0.4627  0.3150  0.2788
 2058SOL    HW117636   4.465   1.770   4.597 -0.6127  0.8153  2.3774
 2058SOL    HW217637   4.323   1.748   4.571  0.2699 -0.2986  0.1604
 2059SOL     OW17638   1.088   3.517  13.154  0.0469  0.4263 -0.1417
 2059SOL    HW117639   1.121   3.431  13.180  0.6169  0.4093 -0.9264
 2059SOL    HW217640   1.156   3.573  13.190  2.1019 -2.1427  0.0092
 2060SOL     OW17641   1.260   4.547   3.165 -0.4566 -0.0036  0.0793
 2060SOL    HW117642   1.203   4.576   3.236 -0.2629  2.6379 -0.8319
 2060SOL    HW217643   1.305   4.483   3.220 -0.5546 -0.2597 -0.1420
 2061SOL     OW17644   2.360   2.436  14.782  0.3826 -0.1069  0.1946
 2061SOL    HW117645   2.348   2.436  14.877 -1.2808 -0.4841 -0.0114
 2061SOL    HW217646   2.375   2.342  14.772 -1.9582 -0.3855 -0.7609
 2062SOL     OW17647   0.733   1.894   7.977  0.3197 -0.1462 -0.3032
 2062SOL    HW117648   0.815   1.923   7.938  0.4656  0.2887  0.3346
 2062SOL    HW217649   0.746   1.920   8.068 -0.9585 -1.3314  0.2151
 2063SOL     OW17650   4.513   0.518   7.956 -0.1371  0.2237  0.8943
 2063SOL    HW117651   4.498   0.484   7.868 -1.0972  4.5816 -0.5973
 2063SOL    HW217652   4.437   0.487   8.006  0.5149  1.5041  2.6931
 2064SOL     OW17653   4.125   1.195   5.326  0.6542  0.8446 -0.9900
 2064SOL    HW117654   4.084   1.278   5.351 -1.4219  0.0159 -1.6005
 2064SOL    HW217655   4.057   1.138   5.362  2.5621 -1.2706 -0.7630
 2065SOL     OW17656   2.406   2.697   6.719 -0.2340 -0.5052 -0.0949
 2065SOL    HW117657   2.451   2.773   6.757 -0.7166  0.1961 -0.9385
 2065SOL    HW217658   2.451   2.706   6.635  0.5831  0.0987  0.4099
 2066SOL     OW17659   3.138   4.157   4.709  1.2159  0.6261  0.1251
 2066SOL    HW117660   3.186   4.194   4.635 -1.0900  1.3127 -1.0206
 2066SOL    HW217661   3.210   4.126   4.764 -0.1524 -1.7209  0.5925
 2067SOL     OW17662   1.948   1.499  15.606  0.0577 -0.0604 -0.3199
 2067SOL    HW117663   1.915   1.554  15.534  2.4228 -2.9768 -3.6469
 2067SOL    HW217664   1.939   1.416  15.559 -1.5668  1.7205 -3.2397
 2068SOL     OW17665   1.309   4.244  17.627  0.2104  0.3500 -0.1584
 2068SOL    HW117666   1.309   4.149  17.620  0.4444  0.4100 -1.0324
 2068SOL    HW217667   1.231   4.279  17.583 -0.2394 -0.1233  0.2654
 2069SOL     OW17668   2.986   2.951   8.910  0.2282 -0.3818 -0.1975
 2069SOL    HW117669   3.066   2.900   8.894 -0.5898 -0.1282 -4.9514
 2069SOL    HW217670   2.952   2.899   8.983  2.3541  0.6309  1.5242
 2070SOL     OW17671   3.673   4.170  13.937  0.1336  0.3162 -0.0027
 2070SOL    HW117672   3.716   4.230  13.997 -1.1462  1.0731  0.1669
 2070SOL    HW217673   3.644   4.100  13.996  2.7428 -0.8437 -0.1279
 2071SOL     OW17674   1.161   4.699  17.667  0.0180  0.3192  0.2761
 2071SOL    HW117675   1.155   4.621  17.612 -1.7228  1.2978 -0.9478
 2071SOL    HW217676   1.237   0.018  17.629  0.7835 -1.3297 -0.1902
 2072SOL     OW17677   3.555   4.658   8.451 -0.1046 -0.0624 -0.3905
 2072SOL    HW117678   3.469   4.639   8.489  0.4363  1.5805  1.6619
 2072SOL    HW217679   3.607   4.648   8.530  1.9971  2.4784 -1.4410
 2073SOL     OW17680   0.465   0.795   5.700 -0.0196  0.7232  0.0942
 2073SOL    HW117681   0.560   0.788   5.708  0.1781 -0.1368 -2.9580
 2073SOL    HW217682   0.434   0.708   5.673 -1.4018  1.3490 -0.3024
 2074SOL     OW17683   1.356   2.572  12.112 -0.5938 -0.6153  0.2970
 2074SOL    HW117684   1.302   2.646  12.087 -1.5568 -1.9865 -1.6705
 2074SOL    HW217685   1.288   2.524  12.159  0.9285 -0.7980  2.3718
 2075SOL     OW17686   3.347   3.042   2.885  0.0237 -0.0260  0.2812
 2075SOL    HW117687   3.360   2.990   2.964 -1.3648 -2.2454 -0.9343
 2075SOL    HW217688   3.262   3.007   2.858 -0.5428  2.6618 -1.4522
 2076SOL     OW17689   4.240   1.273  17.168  0.4402 -0.1087  0.5422
 2076SOL    HW117690   4.167   1.212  17.154  0.4200  0.0694 -0.1575
 2076SOL    HW217691   4.306   1.206  17.150 -0.6798 -1.0392 -0.1243
 2077SOL     OW17692   2.413   2.779   3.670  0.6704 -0.0139  0.3168
 2077SOL    HW117693   2.352   2.810   3.738 -0.0293  3.9112 -2.0702
 2077SOL    HW217694   2.349   2.737   3.613  1.9710 -0.7130 -0.6084
 2078SOL     OW17695   0.726   0.206   9.775  0.1518 -0.4253 -0.0897
 2078SOL    HW117696   0.774   0.152   9.712  2.1294  1.5327 -0.2940
 2078SOL    HW217697   0.749   0.150   9.849  0.3815  0.4905  0.5305
 2079SOL     OW17698   3.347   0.312   4.537 -0.9321  0.1183 -0.6437
 2079SOL    HW117699   3.399   0.383   4.502  0.2611  0.5039  1.8934
 2079SOL    HW217700   3.277   0.359   4.583 -1.5452 -0.9398 -0.4933
 2080SOL     OW17701   0.448   0.928   7.440  0.5825  0.3343  0.0701
 2080SOL    HW117702   0.483   0.987   7.507 -2.6367  2.0173  0.2643
 2080SOL    HW217703   0.371   0.979   7.418  0.3769 -0.4974 -1.1357
 2081SOL     OW17704   0.585   1.167   8.806  0.2208 -0.6817  0.0190
 2081SOL    HW117705   0.631   1.107   8.748  0.1491 -0.5774 -0.1485
 2081SOL    HW217706   0.610   1.254   8.775  0.1732 -1.0517 -1.0541
 2082SOL     OW17707   1.188   0.186   0.185 -0.3719 -0.2970 -0.2175
 2082SOL    HW117708   1.159   0.256   0.126  1.5002  1.4049  0.9034
 2082SOL    HW217709   1.177   0.117   0.119 -0.2817  0.5786 -1.1458
 2083SOL     OW17710   1.686   3.682   2.583  0.2317 -0.2219  0.5311
 2083SOL    HW117711   1.608   3.640   2.619  1.1252 -2.3934 -0.1331
 2083SOL    HW217712   1.683   3.653   2.493 -2.6184 -0.3124  0.6496
 2084SOL     OW17713   0.551   0.468   8.396 -0.3249 -0.2129 -0.0801
 2084SOL    HW117714   0.510   0.409   8.332 -1.9386  0.1933  0.5873
 2084SOL    HW217715   0.493   0.542   8.382 -0.6521 -0.6154 -0.8781
 2085SOL     OW17716   2.245   1.113   2.207 -0.3983  0.0302 -0.4361
 2085SOL    HW117717   2.181   1.125   2.137  0.7358  0.8499 -1.3313
 2085SOL    HW217718   2.176   1.110   2.274 -1.9805  2.3505 -1.9680
 2086SOL     OW17719   3.722   3.359   6.115 -0.5138  0.2721  0.1928
 2086SOL    HW117720   3.763   3.321   6.037 -1.8070  0.5996 -0.6373
 2086SOL    HW217721   3.631   3.368   6.087  0.0126  3.3061 -0.4697
 2087SOL     OW17722   2.290   2.133   2.377 -0.3986 -0.0146  0.0639
 2087SOL    HW117723   2.357   2.065   2.384  1.4018  1.8620  1.2859
 2087SOL    HW217724   2.296   2.161   2.286  1.2707  4.1808  1.4458
 2088SOL     OW17725   4.021   3.257   6.892 -0.1791 -0.2942  0.0115
 2088SOL    HW117726   3.967   3.192   6.847  3.2040 -2.7273 -0.5620
 2088SOL    HW217727   4.098   3.260   6.835 -2.3351 -0.1993 -2.8825
 2089SOL     OW17728   0.725   1.472   9.577 -0.6207 -0.2052  0.3703
 2089SOL    HW117729   0.772   1.393   9.550 -0.3111 -0.3400  1.3430
 2089SOL    HW217730   0.763   1.493   9.662 -2.2157 -2.1689  1.5768
 2090SOL     OW17731   3.613   0.480   3.041 -0.3015 -0.3755 -0.1559
 2090SOL    HW117732   3.652   0.403   3.083 -0.6304 -0.3479  0.1995
 2090SOL    HW217733   3.610   0.453   2.949  0.5373 -3.5509  0.7363
 2091SOL     OW17734   2.939   3.607  10.308  0.3454  0.3696  0.0995
 2091SOL    HW117735   3.004   3.544  10.339  0.6062 -0.2024 -1.5864
 2091SOL    HW217736   2.945   3.591  10.214 -0.6603  0.1746  0.0598
 2092SOL     OW17737   1.171   4.605   4.069  0.1776  0.2926  0.6904
 2092SOL    HW117738   1.076   4.617   4.081 -0.1566 -0.7603 -0.9117
 2092SOL    HW217739   1.199   4.634   4.156 -0.5573 -2.5103  1.8715
 2093SOL     OW17740   1.891   1.710   3.155  0.4984  0.4702  0.6566
 2093SOL    HW117741   1.922   1.621   3.141  1.1962  0.5174  1.8540
 2093SOL    HW217742   1.851   1.698   3.241 -1.4482  0.3632 -0.2709
 2094SOL     OW17743   3.361   1.383  17.396  0.6029 -0.0835 -0.1371
 2094SOL    HW117744   3.380   1.376  17.490  1.1857  1.2238 -0.1434
 2094SOL    HW217745   3.326   1.472  17.392  1.8130  0.5695  3.6731
 2095SOL     OW17746   2.552   2.122   3.134 -0.0800  0.3188  0.3126
 2095SOL    HW117747   2.569   2.160   3.220 -0.8773 -0.8743  1.0020
 2095SOL    HW217748   2.631   2.150   3.087 -1.3883  1.2238 -1.3423
 2096SOL     OW17749   2.427   0.060   7.352  0.3678  0.8416  0.2145
 2096SOL    HW117750   2.450   4.702   7.313 -1.3167  1.3829 -1.9495
 2096SOL    HW217751   2.510   0.107   7.346  0.4624  0.8331  1.5568
 2097SOL     OW17752   1.818   3.068  10.843 -0.1060  0.1370 -0.1468
 2097SOL    HW117753   1.911   3.086  10.852 -0.7308  2.2703  1.9450
 2097SOL    HW217754   1.796   3.131  10.774 -2.8476 -0.9265 -0.2528
 2098SOL     OW17755   3.038   4.298   4.955 -0.2749  0.1128 -0.0736
 2098SOL    HW117756   2.979   4.293   4.880 -0.3266  0.0610 -0.0298
 2098SOL    HW217757   2.973   4.332   5.016 -0.1048 -0.0966  0.2236
 2099SOL     OW17758   2.551   2.759   4.361 -0.1127  0.1726 -0.3529
 2099SOL    HW117759   2.552   2.705   4.282 -0.4893  1.5048 -1.2724
 2099SOL    HW217760   2.509   2.707   4.429  0.4855 -2.0698 -1.6726
 2100SOL     OW17761   1.248   0.438  14.877  0.7438  0.2310 -0.1143
 2100SOL    HW117762   1.163   0.473  14.904  1.8377  1.3616  1.9299
 2100SOL    HW217763   1.303   0.488  14.938  0.7816  0.1669 -0.0960
 2101SOL     OW17764   2.980   2.328   6.756  0.6082  0.3485 -0.0931
 2101SOL    HW117765   2.973   2.281   6.672 -2.5511  0.8100 -0.0810
 2101SOL    HW217766   3.071   2.306   6.777  0.1590 -1.1780  0.2495
 2102SOL     OW17767   2.601   2.408   4.256  0.1053 -0.3686  0.3226
 2102SOL    HW117768   2.680   2.390   4.306  1.6148  1.8338 -1.2834
 2102SOL    HW217769   2.598   2.329   4.201 -0.8212 -0.9049  1.1332
 2103SOL     OW17770   0.889   2.698   3.063  0.0369 -0.1121 -0.2083
 2103SOL    HW117771   0.838   2.718   3.141  0.8341 -0.8941  0.5235
 2103SOL    HW217772   0.841   2.748   2.998 -0.7567 -0.7646 -0.1252
 2104SOL     OW17773   3.526   0.496   6.789  0.1718 -0.2023  0.1500
 2104SOL    HW117774   3.435   0.527   6.790  0.2288 -0.0869  1.5808
 2104SOL    HW217775   3.570   0.559   6.845 -1.9986  0.1109  1.4768
 2105SOL     OW17776   0.718   1.572   0.622 -0.0808 -0.8916  0.7099
 2105SOL    HW117777   0.778   1.637   0.587 -0.8001 -0.2424  0.6685
 2105SOL    HW217778   0.630   1.610   0.625 -0.0234 -0.8532  1.8807
 2106SOL     OW17779   0.028   1.435   6.186  0.5903  0.2655  0.3322
 2106SOL    HW117780   0.006   1.472   6.100  1.9647  1.1101  0.3432
 2106SOL    HW217781   4.723   1.345   6.182  1.9429 -0.2868  1.8606
 2107SOL     OW17782   2.396   0.278   3.743 -0.3316 -0.0134  0.2720
 2107SOL    HW117783   2.350   0.250   3.823  1.3695 -0.3066  1.1512
 2107SOL    HW217784   2.428   0.363   3.773  0.3067  0.2267 -1.1079
 2108SOL     OW17785   4.480   2.146  12.578 -0.3399 -0.3796  0.2276
 2108SOL    HW117786   4.527   2.218  12.537  0.3334 -0.8395  0.2054
 2108SOL    HW217787   4.432   2.195  12.645  0.7265  1.7081 -0.5470
 2109SOL     OW17788   2.388   2.664   4.584  0.6672 -0.0618  0.0862
 2109SOL    HW117789   2.307   2.649   4.633 -0.1576  0.5856 -1.0491
 2109SOL    HW217790   2.351   2.713   4.510 -1.6140 -1.1471  0.4895
 2110SOL     OW17791   4.193   3.992   4.664 -0.2129 -0.1153  0.5552
 2110SOL    HW117792   4.209   3.898   4.665 -2.1585 -0.4664 -2.0503
 2110SOL    HW217793   4.273   4.027   4.625 -1.8787  3.8434  0.6329
 2111SOL     OW17794   2.023   0.168  12.485 -0.0788  0.3048 -0.0161
 2111SOL    HW117795   1.970   0.094  12.514  1.5776 -1.5285 -1.7921
 2111SOL    HW217796   2.054   0.216  12.562  0.0668  0.6614 -0.2971
 2112SOL     OW17797   2.073   2.469  15.915 -0.1193 -0.0022  0.2810
 2112SOL    HW117798   2.013   2.421  15.973  0.1164  0.3067  0.7786
 2112SOL    HW217799   2.107   2.545  15.963  0.9961  0.1961 -0.8269
 2113SOL     OW17800   3.523   2.332  12.621  0.1646  0.2791  0.1126
 2113SOL    HW117801   3.508   2.426  12.628 -1.4309  0.0020  0.2848
 2113SOL    HW217802   3.577   2.322  12.700  0.7902 -0.3366 -0.3952
 2114SOL     OW17803   2.546   0.629   9.931 -0.1943 -0.0732 -0.1172
 2114SOL    HW117804   2.553   0.704   9.990 -1.5017 -0.0781  0.0395
 2114SOL    HW217805   2.619   0.649   9.872 -0.0449 -3.8753 -1.2311
 2115SOL     OW17806   3.765   4.621   9.053  0.2451  0.0757  0.7681
 2115SOL    HW117807   3.851   4.590   9.080 -0.0827 -1.0933  0.4542
 2115SOL    HW217808   3.706   4.549   9.073 -0.8913  0.6601 -0.4943
 2116SOL     OW17809   4.693   4.486   8.743 -0.3626 -0.3407  0.2537
 2116SOL    HW117810   4.599   4.468   8.741 -0.4041  0.0721 -1.4285
 2116SOL    HW217811   4.688   4.515   8.652 -0.4520 -1.0930  0.0218
 2117SOL     OW17812   3.789   4.321   2.203  0.5559 -0.1445 -0.6758
 2117SOL    HW117813   3.830   4.243   2.166 -1.2718 -0.8178 -1.2933
 2117SOL    HW217814   3.754   4.358   2.122 -1.3436  1.8949  1.0598
 2118SOL     OW17815   4.383   3.619   5.973  0.4904 -0.3134  0.3764
 2118SOL    HW117816   4.474   3.647   5.983  0.4558  0.6873 -2.2614
 2118SOL    HW217817   4.351   3.655   6.056  0.7133  1.8908 -0.5125
 2119SOL     OW17818   4.035   3.668   7.582 -0.1417 -0.1531  0.2028
 2119SOL    HW117819   4.020   3.662   7.488 -2.7812  0.3419  0.6029
 2119SOL    HW217820   3.946   3.646   7.610 -0.0167 -2.1326 -0.9655
 2120SOL     OW17821   2.113   2.902   6.887  0.7989 -0.8960 -0.2731
 2120SOL    HW117822   2.064   2.832   6.930 -1.0160  0.6616  0.2373
 2120SOL    HW217823   2.159   2.843   6.827 -1.8542 -2.1615 -1.0826
 2121SOL     OW17824   2.750   1.185   5.645 -0.0278 -0.1086 -0.4743
 2121SOL    HW117825   2.730   1.093   5.662 -0.0930  0.3153  1.6669
 2121SOL    HW217826   2.659   1.211   5.628  0.7732  2.1228 -1.4192
 2122SOL     OW17827   2.581   3.315   6.293  0.1966  0.6849 -0.3235
 2122SOL    HW117828   2.534   3.378   6.240  0.5262 -0.2697 -1.7686
 2122SOL    HW217829   2.552   3.347   6.378  1.5660  2.4462 -0.5144
 2123SOL     OW17830   0.706   2.837  11.233 -0.7363 -0.7102 -0.0133
 2123SOL    HW117831   0.618   2.872  11.218 -0.3843 -0.0729 -0.6100
 2123SOL    HW217832   0.753   2.863  11.153 -0.9729  1.6324  0.6028
 2124SOL     OW17833   4.489   2.485   5.834  0.0089  0.3225 -0.1415
 2124SOL    HW117834   4.471   2.394   5.857  1.2443  0.4175  1.2095
 2124SOL    HW217835   4.512   2.516   5.921 -0.8484  0.9757 -0.1528
 2125SOL     OW17836   1.687   3.455  16.612 -0.1622  0.1078 -0.0231
 2125SOL    HW117837   1.640   3.428  16.691 -2.3678 -1.9704 -2.0266
 2125SOL    HW217838   1.692   3.550  16.618 -0.2838  0.2008 -1.2376
 2126SOL     OW17839   3.603   3.377   1.478 -0.1422  0.3646 -0.0154
 2126SOL    HW117840   3.637   3.443   1.539 -2.6107 -0.6970  2.4832
 2126SOL    HW217841   3.692   3.372   1.442 -1.1516  0.8586 -2.5218
 2127SOL     OW17842   0.011   1.887  12.473 -0.0108 -0.1577  0.1702
 2127SOL    HW117843   0.077   1.901  12.540 -0.8764  0.0373  0.9773
 2127SOL    HW217844   0.034   1.798  12.447 -0.6397 -0.0568 -0.7394
 2128SOL     OW17845   2.866   3.677   7.475  0.0414  0.1758 -0.1334
 2128SOL    HW117846   2.800   3.667   7.406 -0.5082  0.9819  0.2896
 2128SOL    HW217847   2.874   3.588   7.509 -1.0837 -0.2756 -1.0289
 2129SOL     OW17848   4.545   1.774   5.743 -0.4861 -0.2405  0.1201
 2129SOL    HW117849   4.553   1.840   5.673  0.5978  1.5405  1.9076
 2129SOL    HW217850   4.477   1.717   5.708 -0.4856 -0.9658  1.3309
 2130SOL     OW17851   1.021   3.027  14.809 -1.3735 -0.4350  0.3431
 2130SOL    HW117852   1.082   2.967  14.851  0.3172  0.9101 -0.1587
 2130SOL    HW217853   0.945   3.017  14.866 -0.7158 -1.2591  1.0737
 2131SOL     OW17854   4.491   2.971  16.868  0.6035 -0.1759  0.5371
 2131SOL    HW117855   4.473   3.047  16.923  0.1987 -2.2275  3.2852
 2131SOL    HW217856   4.401   2.951  16.840  0.8333 -1.8688  0.9950
 2132SOL     OW17857   4.616   1.111   1.120 -0.4224  0.0773  0.5009
 2132SOL    HW117858   4.675   1.183   1.100  0.2746 -0.0802  1.9692
 2132SOL    HW217859   4.685   1.045   1.120 -0.3626  0.1407  1.0582
 2133SOL     OW17860   0.007   3.080  15.353 -0.5240 -0.5232  0.1373
 2133SOL    HW117861   0.069   3.008  15.357 -1.7263 -1.5381  0.6680
 2133SOL    HW217862   4.681   3.063  15.431  0.0564 -0.0047  0.6331
 2134SOL     OW17863   1.528   4.126   9.451  0.2599 -0.0803 -0.2468
 2134SOL    HW117864   1.433   4.134   9.460  0.4213  0.6073  0.7785
 2134SOL    HW217865   1.535   4.113   9.356 -0.8221  2.3272 -0.6799
 2135SOL     OW17866   4.380   2.877   7.454  0.0092 -0.0177 -0.0637
 2135SOL    HW117867   4.451   2.931   7.489  0.9385 -2.2463  1.5394
 2135SOL    HW217868   4.320   2.907   7.522  1.0164 -1.8647  1.6694
 2136SOL     OW17869   2.657   3.632  13.888  0.2481  0.2491 -0.2312
 2136SOL    HW117870   2.628   3.546  13.918  1.5008 -0.6158 -1.5123
 2136SOL    HW217871   2.701   3.597  13.811  0.8483 -0.7997  0.6068
 2137SOL     OW17872   4.727   1.350   2.760  0.0930 -0.2891  0.1735
 2137SOL    HW117873   4.635   1.373   2.778  0.9973  0.9522  3.1725
 2137SOL    HW217874   0.020   1.308   2.844  0.5457 -1.5227 -0.5512
 2138SOL     OW17875   1.949   4.621   8.761 -0.2551  0.2017  0.1814
 2138SOL    HW117876   1.947   4.525   8.756  0.0984  0.0810  2.4923
 2138SOL    HW217877   1.982   4.661   8.680 -0.1366  1.5611  0.8998
 2139SOL     OW17878   2.873   3.843   3.684 -0.3478 -0.5899 -0.0586
 2139SOL    HW117879   2.949   3.784   3.692 -1.6339 -2.0050  1.6776
 2139SOL    HW217880   2.792   3.793   3.691 -0.4502 -0.3471  0.4914
 2140SOL     OW17881   3.987   3.736   7.164 -0.1897 -0.0164 -0.0458
 2140SOL    HW117882   3.993   3.671   7.233 -1.4553  1.4841  1.4742
 2140SOL    HW217883   4.053   3.709   7.101  1.3253  0.6598  1.2719
 2141SOL     OW17884   0.675   4.462   2.026  0.7220 -0.1312  0.0212
 2141SOL    HW117885   0.770   4.459   2.019  0.7687  2.2084 -0.3023
 2141SOL    HW217886   0.669   4.552   1.993  0.7643 -0.2513 -0.3243
 2142SOL     OW17887   3.497   3.815  14.999 -0.0722  0.0412 -0.3433
 2142SOL    HW117888   3.463   3.904  15.008  0.7736  0.3430 -0.1624
 2142SOL    HW217889   3.438   3.770  14.939  0.3507 -3.0438  1.5519
 2143SOL     OW17890   2.456   1.384   4.947 -0.0513  0.8940  0.1802
 2143SOL    HW117891   2.428   1.454   4.887  3.8231  2.5507  0.2868
 2143SOL    HW217892   2.371   1.373   4.989  0.5171 -0.0741  1.0641
 2144SOL     OW17893   2.949   1.048   6.166  0.4717  0.1206 -0.8290
 2144SOL    HW117894   2.876   1.092   6.211  1.5529 -0.5058  1.5353
 2144SOL    HW217895   3.007   1.123   6.158 -0.0713  0.7414  0.9584
 2145SOL     OW17896   0.395   0.003   7.580 -0.0421  0.3107  0.4643
 2145SOL    HW117897   0.429   0.073   7.636  0.2908  1.6794 -1.4271
 2145SOL    HW217898   0.416   4.656   7.636  0.0242 -0.2521 -0.3080
 2146SOL     OW17899   0.815   2.339   4.329  0.1463 -0.4421 -0.4473
 2146SOL    HW117900   0.760   2.412   4.358  0.8574  0.5695 -1.6323
 2146SOL    HW217901   0.822   2.374   4.240 -2.6789 -0.2182 -0.5796
 2147SOL     OW17902   2.864   2.313   7.544 -0.4603  0.4610  0.0090
 2147SOL    HW117903   2.861   2.347   7.633  2.2180  0.2672  0.1728
 2147SOL    HW217904   2.940   2.364   7.517 -0.3572  0.2172 -0.1657
 2148SOL     OW17905   2.252   3.496   3.516  0.4983 -0.2206 -0.0117
 2148SOL    HW117906   2.314   3.490   3.589  2.4430 -2.1132 -1.7914
 2148SOL    HW217907   2.309   3.511   3.440 -0.3794  2.8225 -0.0411
 2149SOL     OW17908   1.035   2.426   1.976  0.4420 -0.3151 -0.0193
 2149SOL    HW117909   1.044   2.457   1.885 -0.1536 -0.2968 -0.0676
 2149SOL    HW217910   0.941   2.416   1.990 -0.0149  3.6612 -0.1464
 2150SOL     OW17911   1.482   4.694   3.467  0.5759  0.0123  0.0073
 2150SOL    HW117912   1.553   4.704   3.404  2.3063  0.9533  2.0985
 2150SOL    HW217913   1.501   0.048   3.515  1.2008  0.9080 -1.7170
 2151SOL     OW17914   2.856   0.583   3.638 -0.3194 -0.9147  0.7419
 2151SOL    HW117915   2.809   0.667   3.644 -3.1353 -2.3531 -0.8732
 2151SOL    HW217916   2.872   0.589   3.544 -0.2704  0.4104  0.8386
 2152SOL     OW17917   1.321   3.674   3.398 -0.1401  0.0382  0.1934
 2152SOL    HW117918   1.385   3.740   3.425 -3.2084  2.4096  1.5909
 2152SOL    HW217919   1.358   3.639   3.316  1.7034  0.5346  0.8105
 2153SOL     OW17920   3.030   1.727   5.291  0.4150 -0.2810 -0.0179
 2153SOL    HW117921   3.012   1.749   5.199 -0.0054 -0.2127  0.0797
 2153SOL    HW217922   2.946   1.748   5.333  1.7472  0.1179  2.3977
 2154SOL     OW17923   2.488   3.064  14.106  0.1324 -0.5873 -0.1321
 2154SOL    HW117924   2.471   3.102  14.020 -0.0336  2.1024  1.0576
 2154SOL    HW217925   2.479   3.138  14.167 -0.6752 -0.0426 -0.9130
 2155SOL     OW17926   1.874   0.091   3.525 -0.6529 -0.3165  0.1839
 2155SOL    HW117927   1.785   0.111   3.555 -0.5614 -0.5500  0.6172
 2155SOL    HW217928   1.918   0.098   3.610 -1.2745  2.2610  0.2876
 2156SOL     OW17929   4.617   4.263   0.626 -0.6400  0.3332 -0.1763
 2156SOL    HW117930   4.591   4.260   0.718  4.5658  1.2593  1.3221
 2156SOL    HW217931   4.634   4.357   0.618  1.1671 -0.1503 -2.0959
 2157SOL     OW17932   1.594   2.935   7.780 -0.0038 -0.6413 -0.0978
 2157SOL    HW117933   1.632   2.847   7.776  1.5268  0.0124  0.1400
 2157SOL    HW217934   1.502   2.909   7.771 -0.5256  1.5538 -0.8933
 2158SOL     OW17935   3.997   3.599   6.093 -0.2828  0.2053  0.0067
 2158SOL    HW117936   4.041   3.521   6.127  0.5534  1.1299  1.0789
 2158SOL    HW217937   4.073   3.657   6.104 -1.0772  1.6046 -1.8381
 2159SOL     OW17938   2.037   4.726  10.221  0.1954 -0.0120  0.1832
 2159SOL    HW117939   1.951   4.690  10.240  0.3296  0.5562  1.9523
 2159SOL    HW217940   2.093   4.649  10.213 -0.3228 -0.2757 -0.8156
 2160SOL     OW17941   3.182   4.293  16.876  0.8249 -0.7369 -0.2094
 2160SOL    HW117942   3.122   4.350  16.924  1.2206 -0.9923  0.5861
 2160SOL    HW217943   3.252   4.358  16.877 -0.9508  1.1760 -0.7509
 2161SOL     OW17944   0.896   3.051   8.493 -0.1893 -0.5438 -0.2628
 2161SOL    HW117945   0.888   3.108   8.569  2.5207 -1.0501  0.4044
 2161SOL    HW217946   0.938   2.973   8.531 -1.7047 -1.0166  0.4521
 2162SOL     OW17947   3.099   3.766   9.181 -0.3245  0.6580  0.0390
 2162SOL    HW117948   3.037   3.698   9.208 -1.4873  1.6539 -0.1735
 2162SOL    HW217949   3.113   3.755   9.087 -0.2935 -1.7015  0.3242
 2163SOL     OW17950   0.851   0.121   1.446 -0.0323 -0.5703 -0.5226
 2163SOL    HW117951   0.807   0.119   1.531 -0.7349 -0.1676 -0.8789
 2163SOL    HW217952   0.915   0.050   1.455 -0.5949 -1.1244 -0.8011
 2164SOL     OW17953   0.365   2.558   2.525  0.2133 -0.5216 -0.0695
 2164SOL    HW117954   0.430   2.513   2.578  0.9140  0.6137  0.0415
 2164SOL    HW217955   0.367   2.644   2.568  2.3302 -0.6207  0.0304
 2165SOL     OW17956   3.754   0.387   3.796  0.1333 -0.1735  0.2611
 2165SOL    HW117957   3.833   0.442   3.794  0.6813 -0.9707  0.1937
 2165SOL    HW217958   3.700   0.449   3.845 -0.1324 -1.0216  1.0285
 2166SOL     OW17959   2.077   1.380  14.655 -0.2864  0.0014 -0.2982
 2166SOL    HW117960   2.020   1.314  14.615  0.4929 -1.0003  0.2793
 2166SOL    HW217961   2.166   1.347  14.647 -1.2845 -2.7087  0.0298
 2167SOL     OW17962   2.793   2.800   0.809  0.2225  0.3171 -0.3648
 2167SOL    HW117963   2.783   2.714   0.851  1.2940  1.6657  2.6048
 2167SOL    HW217964   2.721   2.845   0.853  0.9926  1.8401 -0.6843
 2168SOL     OW17965   2.168   2.548   4.678 -0.1821 -0.0973 -0.8167
 2168SOL    HW117966   2.114   2.470   4.688 -0.4727  0.2825  0.6595
 2168SOL    HW217967   2.113   2.586   4.609 -0.7174 -2.0781 -1.4818
 2169SOL     OW17968   1.320   1.551   6.849 -0.5786 -0.6183  0.1183
 2169SOL    HW117969   1.239   1.521   6.806 -1.5712  1.7886  0.3165
 2169SOL    HW217970   1.380   1.480   6.829  0.2931  0.1958 -0.1403
 2170SOL     OW17971   4.039   3.884   0.547  0.1638  0.2668 -0.3111
 2170SOL    HW117972   4.101   3.871   0.476  1.0238 -1.1142  0.6930
 2170SOL    HW217973   3.966   3.836   0.508  0.5716 -0.9329  0.4038
 2171SOL     OW17974   1.459   1.112   6.235 -0.3289 -0.6469 -0.1957
 2171SOL    HW117975   1.461   1.024   6.198 -0.4770 -1.1359  0.9852
 2171SOL    HW217976   1.367   1.133   6.220 -0.2532  0.6390  1.1046
 2172SOL     OW17977   4.528   1.197   3.929  0.2005 -0.1692 -0.0951
 2172SOL    HW117978   4.467   1.270   3.925  0.1691 -0.3128 -2.1167
 2172SOL    HW217979   4.558   1.191   4.020  0.9651 -0.4427 -0.3652
 2173SOL     OW17980   3.730   4.519   8.048 -0.3310 -0.7838 -1.1290
 2173SOL    HW117981   3.743   4.579   8.122 -0.9255  1.3212 -2.7377
 2173SOL    HW217982   3.819   4.491   8.026  1.0519  1.1787  1.9181
 2174SOL     OW17983   2.781   0.164   1.166 -0.0622  0.1779  0.2429
 2174SOL    HW117984   2.778   0.256   1.141 -0.5048  0.1303  0.1158
 2174SOL    HW217985   2.864   0.136   1.128  0.0701 -1.4248  1.6855
 2175SOL     OW17986   2.186   1.947   5.969  0.3552  0.4371  0.1397
 2175SOL    HW117987   2.271   1.918   6.002 -0.1793 -1.9521 -0.6221
 2175SOL    HW217988   2.125   1.876   5.988 -0.2380  0.8590 -0.2195
 2176SOL     OW17989   2.481   3.993   0.885  0.0518 -0.6480 -0.6262
 2176SOL    HW117990   2.387   3.984   0.871 -0.1746 -1.9184  1.7335
 2176SOL    HW217991   2.484   3.935   0.961 -2.8463 -0.1739 -0.1504
 2177SOL     OW17992   1.117   4.460   5.803  0.2937 -0.0684  0.0991
 2177SOL    HW117993   1.205   4.433   5.830  0.8839  1.2946 -0.4648
 2177SOL    HW217994   1.110   4.545   5.845  0.0616 -0.3191  0.5616
 2178SOL     OW17995   1.780   2.800  11.957  0.2234  0.3566 -0.2745
 2178SOL    HW117996   1.806   2.877  12.007  1.0305  1.0052 -1.7014
 2178SOL    HW217997   1.691   2.791  11.991  0.4600 -0.9077  0.0349
 2179SOL     OW17998   2.125   2.949   1.192 -0.7120 -0.0147 -0.0206
 2179SOL    HW117999   2.067   2.887   1.148  0.2768 -1.0110  0.1003
 2179SOL    HW218000   2.074   3.026   1.164 -3.6758 -2.5039 -1.5329
 2180SOL     OW18001   3.057   3.922  10.582  0.1961 -0.1756  0.4223
 2180SOL    HW118002   2.983   3.967  10.541 -0.3367  0.0609  1.6662
 2180SOL    HW218003   3.016   3.836  10.594  1.2919 -0.7857 -0.2109
 2181SOL     OW18004   3.868   4.491   4.957 -0.0466  0.0372 -0.0655
 2181SOL    HW118005   3.819   4.550   5.014 -0.1036  0.6429 -0.7452
 2181SOL    HW218006   3.928   4.444   5.015 -0.0782 -1.0674 -0.9398
 2182SOL     OW18007   2.736   4.653   3.804 -0.0599 -0.6078  0.5501
 2182SOL    HW118008   2.732   4.604   3.722  0.5122 -0.2732  0.3259
 2182SOL    HW218009   2.649   4.693   3.812 -0.0745 -0.4098 -0.6559
 2183SOL     OW18010   1.041   0.701   3.132  0.0883 -0.2328  0.1711
 2183SOL    HW118011   0.969   0.644   3.162 -1.0444 -0.5535 -3.1423
 2183SOL    HW218012   1.108   0.684   3.198  2.6976  0.8040 -2.2447
 2184SOL     OW18013   0.418   2.878   7.111  0.3905  0.3344 -0.1460
 2184SOL    HW118014   0.460   2.961   7.088  2.0091 -0.3146  0.4684
 2184SOL    HW218015   0.347   2.925   7.154 -0.1707  0.7930 -1.5764
 2185SOL     OW18016   1.911   0.871   7.555  0.1409  0.0144  0.2756
 2185SOL    HW118017   1.889   0.840   7.643 -1.6509  0.3554 -0.0599
 2185SOL    HW218018   1.961   0.948   7.585  1.7021 -0.7879 -0.2504
 2186SOL     OW18019   0.402   2.668   5.596  0.2370  0.2757  0.4254
 2186SOL    HW118020   0.389   2.589   5.648  2.4302  1.7058  3.1655
 2186SOL    HW218021   0.359   2.645   5.514 -0.7264 -0.4295  1.1231
 2187SOL     OW18022   3.100   3.046   4.985 -0.1726 -0.9118 -0.2485
 2187SOL    HW118023   3.075   3.095   4.906 -1.2909 -0.3141  0.4869
 2187SOL    HW218024   3.181   3.091   5.011 -0.0197 -0.1000 -2.1105
 2188SOL     OW18025   2.405   3.640  15.681  0.8913  0.1282  0.3436
 2188SOL    HW118026   2.327   3.591  15.707  0.1080  0.6557 -0.9888
 2188SOL    HW218027   2.394   3.726  15.723 -1.0422 -0.4526  1.0474
 2189SOL     OW18028   2.761   4.683  15.139 -0.3112 -0.3545  0.2222
 2189SOL    HW118029   2.679   4.682  15.188 -0.0723  0.6777  0.6314
 2189SOL    HW218030   2.749   4.614  15.073  0.4067  0.4325 -0.7247
 2190SOL     OW18031   4.572   0.819   8.405  0.5837 -0.0236  0.0659
 2190SOL    HW118032   4.519   0.836   8.327 -1.7770 -0.4014  1.5740
 2190SOL    HW218033   4.555   0.725   8.416 -1.0020  0.7563  4.4811
 2191SOL     OW18034   2.931   2.175   3.417  0.0403 -0.0915  0.3270
 2191SOL    HW118035   2.951   2.243   3.353  0.5196 -2.0451 -1.6006
 2191SOL    HW218036   2.912   2.228   3.494  0.5258  0.0432  0.3557
 2192SOL     OW18037   3.015   0.392   0.155  0.5709  0.0581 -0.3048
 2192SOL    HW118038   2.923   0.418   0.163  0.4024 -0.2903 -1.1263
 2192SOL    HW218039   3.026   0.433   0.069  0.2919  0.2428 -0.2533
 2193SOL     OW18040   0.987   1.003   6.726  0.0725 -0.0717 -0.1535
 2193SOL    HW118041   1.068   1.054   6.716 -0.6822  1.6405  2.4522
 2193SOL    HW218042   0.927   1.066   6.685 -0.5456 -0.0458  0.8085
 2194SOL     OW18043   4.065   3.481  12.815  0.2147  0.3396 -0.0222
 2194SOL    HW118044   4.006   3.556  12.823 -1.3459 -0.8338 -0.3202
 2194SOL    HW218045   4.019   3.420  12.873  2.3478 -1.1552  0.0983
 2195SOL     OW18046   0.507   1.257   1.245 -0.2950 -1.0222 -0.6311
 2195SOL    HW118047   0.599   1.262   1.219 -0.2581 -0.2089 -0.3603
 2195SOL    HW218048   0.518   1.298   1.332 -1.5385  0.2317 -1.0658
 2196SOL     OW18049   2.347   4.562   8.214 -0.0945 -0.4639  0.0958
 2196SOL    HW118050   2.273   4.600   8.166  1.6527  3.1788  0.3459
 2196SOL    HW218051   2.303   4.480   8.236 -1.0786 -0.0718 -0.4318
 2197SOL     OW18052   4.411   3.989   6.661 -0.2849  0.2201  0.0513
 2197SOL    HW118053   4.391   3.896   6.659 -0.2580  0.1923  1.1152
 2197SOL    HW218054   4.450   3.994   6.748 -0.5799 -0.8543  0.2425
 2198SOL     OW18055   3.193   0.326   0.658  0.1115  0.0581  0.3605
 2198SOL    HW118056   3.209   0.349   0.567 -4.7243 -0.4298 -0.5999
 2198SOL    HW218057   3.099   0.343   0.659 -0.2740 -2.0182  0.5244
 2199SOL     OW18058   4.497   3.913   6.158 -0.0109 -0.0795 -0.2311
 2199SOL    HW118059   4.549   3.850   6.209 -1.2297 -0.6062  0.3623
 2199SOL    HW218060   4.492   3.991   6.213  1.4012 -1.6984  2.2247
 2200SOL     OW18061   1.397   3.992   9.744 -0.5927 -0.3991  0.0369
 2200SOL    HW118062   1.399   3.923   9.677 -2.6398 -0.8115  0.3917
 2200SOL    HW218063   1.463   3.978   9.811  0.7170 -0.9692 -1.3652
 2201SOL     OW18064   2.473   0.489   1.410 -0.4393  0.3173  0.5119
 2201SOL    HW118065   2.517   0.434   1.345 -1.7567 -1.0350  0.7604
 2201SOL    HW218066   2.514   0.450   1.488  3.2818  2.3836 -0.4198
 2202SOL     OW18067   1.782   4.601   5.679  0.1361 -0.2521  0.0618
 2202SOL    HW118068   1.805   4.534   5.744  1.7749 -1.6236 -1.9265
 2202SOL    HW218069   1.859   4.658   5.673  0.3816 -0.5370  0.4813
 2203SOL     OW18070   0.898   0.732   3.454 -0.4121  0.3720  0.3361
 2203SOL    HW118071   0.986   0.696   3.461  0.2722  1.7668 -0.8881
 2203SOL    HW218072   0.843   0.661   3.487 -0.7309  0.2499 -0.4520
 2204SOL     OW18073   3.259   0.504   5.423 -0.1612  0.3039  0.4040
 2204SOL    HW118074   3.271   0.506   5.328 -0.0541  0.1876  0.4157
 2204SOL    HW218075   3.238   0.411   5.432  1.0448  0.0961  0.9773
 2205SOL     OW18076   1.788   0.012   9.487 -0.0781 -0.4564 -0.1607
 2205SOL    HW118077   1.825   4.670   9.432  1.2329  0.3636 -0.3060
 2205SOL    HW218078   1.865   0.051   9.527 -0.5627  0.2371  0.0850
 2206SOL     OW18079   4.580   1.299   4.367 -0.3735  0.4599 -0.6094
 2206SOL    HW118080   4.528   1.379   4.366 -0.2295  0.5291 -2.3349
 2206SOL    HW218081   4.520   1.238   4.411  1.1180 -0.6661 -0.1264
 2207SOL     OW18082   3.057   2.855   0.782  0.2962 -0.2971 -0.1091
 2207SOL    HW118083   2.964   2.847   0.804 -0.1217 -0.7084 -2.0809
 2207SOL    HW218084   3.082   2.940   0.818  3.2643 -1.6204  0.9154
 2208SOL     OW18085   4.556   3.614   5.460  0.4706 -0.5192 -1.0700
 2208SOL    HW118086   4.618   3.555   5.504 -0.2038 -0.8178 -0.5091
 2208SOL    HW218087   4.575   3.588   5.370  2.7457 -0.2169 -0.6686
 2209SOL     OW18088   1.323   3.635   2.861  0.6478 -0.4036 -0.3268
 2209SOL    HW118089   1.309   3.625   2.767  0.5398 -2.5123 -0.0938
 2209SOL    HW218090   1.310   3.730   2.866 -3.2629 -0.8717 -1.6212
 2210SOL     OW18091   0.291   2.801   2.161 -0.0180  0.1973  0.3087
 2210SOL    HW118092   0.336   2.741   2.220 -2.1551 -1.1679  0.5748
 2210SOL    HW218093   0.281   2.747   2.082 -0.5920  0.3784  0.2498
 2211SOL     OW18094   3.456   1.640  14.155  0.0405 -0.2831  0.0670
 2211SOL    HW118095   3.410   1.604  14.231 -0.4155  0.6884  0.2618
 2211SOL    HW218096   3.440   1.733  14.174  0.6357  0.0146 -0.8701
 2212SOL     OW18097   2.521   3.544   5.207  0.3292  0.2795  0.0195
 2212SOL    HW118098   2.489   3.454   5.199 -0.9930  0.7736 -0.3120
 2212SOL    HW218099   2.557   3.539   5.296  1.0753  3.2138 -0.1446
 2213SOL     OW18100   1.703   4.558   1.886  0.6459 -0.3869 -0.2753
 2213SOL    HW118101   1.608   4.563   1.889  0.8451  0.9930  2.9493
 2213SOL    HW218102   1.725   4.624   1.951  0.6223  0.5240 -1.1979
 2214SOL     OW18103   0.703   4.097   9.257  0.2645 -0.5743 -0.2461
 2214SOL    HW118104   0.660   4.123   9.175  0.8006  0.6575 -0.1311
 2214SOL    HW218105   0.656   4.018   9.286 -0.1508 -0.8920 -1.8031
 2215SOL     OW18106   0.859   0.498   5.055 -0.3776 -0.1331 -0.5621
 2215SOL    HW118107   0.796   0.556   5.100 -0.3218  0.1405 -0.8365
 2215SOL    HW218108   0.857   0.540   4.969 -1.6873 -1.3710 -1.1436
 2216SOL     OW18109   1.865   0.899   9.634  0.0123 -0.2196 -0.2851
 2216SOL    HW118110   1.907   0.877   9.551 -0.1058  1.7590 -0.8769
 2216SOL    HW218111   1.775   0.888   9.601  0.5009  1.0404 -2.0288
 2217SOL     OW18112   2.615   1.040  10.539 -0.1945  0.4529  0.3807
 2217SOL    HW118113   2.650   1.128  10.550 -1.0965  0.9506 -0.6440
 2217SOL    HW218114   2.606   1.013  10.630  0.9000 -0.1945  0.2929
 2218SOL     OW18115   2.721   1.164   0.664  0.1086 -0.0976  0.2110
 2218SOL    HW118116   2.670   1.245   0.659 -0.6318 -0.6476 -1.0954
 2218SOL    HW218117   2.709   1.141   0.572  1.1607  0.0640  0.0278
 2219SOL     OW18118   3.964   0.200   4.450  0.2332 -0.1618  0.4926
 2219SOL    HW118119   3.979   0.289   4.417  0.5827 -0.6987 -0.7939
 2219SOL    HW218120   4.042   0.200   4.507  2.3989  0.8336 -2.4506
 2220SOL     OW18121   3.486   2.838   5.214  0.1438 -0.3089 -0.3690
 2220SOL    HW118122   3.525   2.911   5.262 -0.6617 -0.0802 -0.0679
 2220SOL    HW218123   3.567   2.791   5.191  1.0091  0.3037  1.3619
 2221SOL     OW18124   1.656   2.162   5.780 -0.3831  0.1765  0.0422
 2221SOL    HW118125   1.751   2.166   5.768 -0.5095  2.3404 -0.2859
 2221SOL    HW218126   1.647   2.068   5.768  0.7445 -0.0596  1.0103
 2222SOL     OW18127   1.998   0.274   9.442 -0.0538 -0.3965  0.4397
 2222SOL    HW118128   2.034   0.198   9.487 -0.9311 -1.3186 -0.4200
 2222SOL    HW218129   1.903   0.267   9.449  0.1318 -2.1752  0.9681
 2223SOL     OW18130   0.992   4.171  17.414 -0.2594  0.1531 -0.1602
 2223SOL    HW118131   0.941   4.234  17.465  0.3845  1.3234 -0.9715
 2223SOL    HW218132   0.982   4.197  17.322 -0.5781  1.6846  0.3060
 2224SOL     OW18133   3.648   0.066   3.812 -0.2757 -0.0292 -0.0953
 2224SOL    HW118134   3.621   0.035   3.726 -1.1452 -2.2099  0.9472
 2224SOL    HW218135   3.617   0.008   3.882  0.0260 -2.0525 -1.6369
 2225SOL     OW18136   4.366   2.524  12.538  0.1740  0.0487 -0.1088
 2225SOL    HW118137   4.379   2.618  12.556  0.6821 -0.3907  1.9076
 2225SOL    HW218138   4.436   2.510  12.475 -0.4501 -2.2208 -0.2745
 2226SOL     OW18139   1.019   4.152   0.400 -0.4130  0.1338 -0.0904
 2226SOL    HW118140   1.033   4.213   0.327 -1.1482  0.5032  0.0813
 2226SOL    HW218141   1.049   4.074   0.354 -1.5545 -0.3141 -0.0544
 2227SOL     OW18142   1.589   3.177  15.092  0.4281 -0.4782 -0.0995
 2227SOL    HW118143   1.566   3.267  15.070  0.7390  0.1920  2.3294
 2227SOL    HW218144   1.648   3.192  15.167 -1.6686  1.2109  1.2123
 2228SOL     OW18145   1.481   2.972  15.254 -0.3220 -0.9345  0.0059
 2228SOL    HW118146   1.429   2.942  15.180  0.5202  0.8924 -1.3494
 2228SOL    HW218147   1.534   3.036  15.206  0.5076 -1.9262 -0.3777
 2229SOL     OW18148   4.690   2.408   0.744 -0.2930 -0.0753 -0.1614
 2229SOL    HW118149   4.598   2.381   0.745 -0.2816 -0.0936  2.7922
 2229SOL    HW218150   4.680   2.501   0.722  0.0366  0.7895  3.3421
 2230SOL     OW18151   4.166   0.918   8.760  0.5781  0.0974  0.0744
 2230SOL    HW118152   4.073   0.901   8.749  0.5602 -0.1024  0.5641
 2230SOL    HW218153   4.207   0.832   8.752 -1.1579 -0.5585 -1.6406
 2231SOL     OW18154   4.301   3.742   4.738  0.2181 -0.4148 -0.1548
 2231SOL    HW118155   4.397   3.735   4.741  0.1268 -2.1697 -1.0052
 2231SOL    HW218156   4.270   3.697   4.817  2.5123 -1.7000  0.0230
 2232SOL     OW18157   0.241   2.035   8.202 -0.2076 -0.0760 -0.0650
 2232SOL    HW118158   0.240   2.128   8.179  2.4629  0.2535  1.1372
 2232SOL    HW218159   0.332   2.023   8.229 -0.1433 -0.6810 -0.5350
 2233SOL     OW18160   0.916   4.233   2.311  0.2724  0.5790  0.0057
 2233SOL    HW118161   0.837   4.287   2.298 -0.4426 -0.0543  1.6596
 2233SOL    HW218162   0.881   4.187   2.387 -0.9259 -0.1992 -1.0245
 2234SOL     OW18163   0.762   2.844  16.501 -0.2258 -0.0947 -0.0332
 2234SOL    HW118164   0.756   2.937  16.481  0.6912 -0.1154 -0.4305
 2234SOL    HW218165   0.763   2.849  16.597 -1.1193 -0.7580  0.0047
 2235SOL     OW18166   0.502   4.034  15.519  0.0658  0.1291 -0.0126
 2235SOL    HW118167   0.444   3.995  15.454 -1.0968  2.8899 -0.6447
 2235SOL    HW218168   0.447   4.042  15.597  2.8318  0.5186  1.9212
 2236SOL     OW18169   3.382   0.928  11.423  0.2066 -0.2979 -0.1406
 2236SOL    HW118170   3.302   0.934  11.475 -0.3053  1.1721 -1.0918
 2236SOL    HW218171   3.413   0.845  11.458  0.1796 -0.7192 -1.1048
 2237SOL     OW18172   1.552   0.327   2.627  0.3123 -0.1397  0.2190
 2237SOL    HW118173   1.624   0.309   2.687 -0.5809 -2.5309  0.5643
 2237SOL    HW218174   1.562   0.269   2.552 -0.6770  0.6572 -0.5290
 2238SOL     OW18175   0.164   1.342  13.369 -0.3754 -0.2314 -0.3210
 2238SOL    HW118176   0.251   1.384  13.366  0.2881 -1.6266 -0.4105
 2238SOL    HW218177   0.188   1.251  13.383  0.1213  0.2170  1.8255
 2239SOL     OW18178   4.121   2.368   7.412 -0.2613  0.1044  0.4766
 2239SOL    HW118179   4.026   2.356   7.404  0.1943 -2.2542 -1.5782
 2239SOL    HW218180   4.152   2.313   7.340 -1.5821 -0.7708  0.5654
 2240SOL     OW18181   2.711   2.992   5.471 -0.2944 -0.0147  0.3026
 2240SOL    HW118182   2.681   2.924   5.530 -0.6521 -0.4055 -0.3268
 2240SOL    HW218183   2.730   2.939   5.394 -0.5941  0.8695 -0.3806
 2241SOL     OW18184   2.699   3.619   6.447  0.5455 -0.0578  0.2126
 2241SOL    HW118185   2.731   3.529   6.441  0.5078 -0.0122 -0.6882
 2241SOL    HW218186   2.609   3.610   6.416  0.3667  2.6784 -0.1064
 2242SOL     OW18187   2.583   1.788   8.178  0.3347 -0.4761 -0.2852
 2242SOL    HW118188   2.653   1.790   8.112  1.2146  3.2211  0.7728
 2242SOL    HW218189   2.529   1.855   8.137  1.0902  0.6385  0.5637
 2243SOL     OW18190   3.658   2.691   7.366  0.3526  0.5229  0.0283
 2243SOL    HW118191   3.655   2.622   7.300 -1.1016 -0.4077  1.0652
 2243SOL    HW218192   3.670   2.646   7.450 -0.1049 -0.7287 -0.5738
 2244SOL     OW18193   2.951   2.881  12.817 -0.6220  0.4741 -0.5130
 2244SOL    HW118194   2.908   2.902  12.734 -2.3709  4.3909  1.3719
 2244SOL    HW218195   2.953   2.786  12.801 -0.3815  0.5228 -0.7568
 2245SOL     OW18196   4.098   4.199   3.993 -0.3063 -0.0167 -0.3854
 2245SOL    HW118197   4.071   4.112   3.965  4.7415 -1.6174 -0.3321
 2245SOL    HW218198   4.174   4.216   3.937 -0.7695  1.1633 -0.6373
 2246SOL     OW18199   4.603   2.726   0.796 -0.3781 -0.1570  0.3263
 2246SOL    HW118200   4.682   2.712   0.848  0.0974  3.8102  0.6952
 2246SOL    HW218201   4.581   2.810   0.836  2.9033  0.0100  1.7333
 2247SOL     OW18202   2.870   1.637   2.975 -0.0995  0.0410 -0.3299
 2247SOL    HW118203   2.838   1.665   2.889 -1.4112  0.0719  0.1648
 2247SOL    HW218204   2.951   1.596   2.944 -0.7924 -0.2834 -1.7049
 2248SOL     OW18205   3.222   1.558  10.230 -0.0567  0.4406  0.3169
 2248SOL    HW118206   3.232   1.646  10.267  0.6856  0.3590  0.3050
 2248SOL    HW218207   3.128   1.555  10.213  0.0340 -0.2596 -0.0664
 2249SOL     OW18208   1.949   2.273  17.348  0.6887 -0.1421 -0.1442
 2249SOL    HW118209   1.994   2.218  17.284 -0.3782 -1.8718  0.5680
 2249SOL    HW218210   1.878   2.215  17.378  0.3481  1.4831  2.1709
 2250SOL     OW18211   0.440   4.624   6.261 -0.6843 -0.9225  0.1547
 2250SOL    HW118212   0.479   4.654   6.343  1.6746 -1.3246 -0.8192
 2250SOL    HW218213   0.509   4.648   6.200 -1.4573 -0.3667 -0.5113
 2251SOL     OW18214   1.354   2.056  13.724 -0.5185  0.5962  0.0921
 2251SOL    HW118215   1.366   2.095  13.638  1.3219 -0.5183 -0.1378
 2251SOL    HW218216   1.422   2.104  13.771 -2.6178  1.2631  2.5144
 2252SOL     OW18217   1.333   1.340  11.229  0.4972 -0.1212 -0.0750
 2252SOL    HW118218   1.373   1.367  11.311  0.5818  1.3470 -0.5908
 2252SOL    HW218219   1.282   1.265  11.257 -0.6625  0.6060 -0.2224
 2253SOL     OW18220   3.659   1.818   6.215 -0.7301  0.3227 -0.2746
 2253SOL    HW118221   3.677   1.845   6.125 -0.1014 -0.0612 -0.2651
 2253SOL    HW218222   3.589   1.875   6.245 -0.2072  0.6504  0.3045
 2254SOL     OW18223   3.500   1.908  11.323  0.4588 -0.8895 -0.3862
 2254SOL    HW118224   3.485   1.854  11.401  0.0981 -0.7051 -0.3285
 2254SOL    HW218225   3.539   1.845  11.261  2.2152  0.8323 -1.0468
 2255SOL     OW18226   2.230   3.075   8.934  0.3132  0.6474  0.1735
 2255SOL    HW118227   2.274   3.004   8.888 -0.3844  0.7237 -0.6178
 2255SOL    HW218228   2.308   3.112   8.976 -1.0697  2.1616  1.4540
 2256SOL     OW18229   2.007   0.864   8.064  0.5743  0.4259  0.9008
 2256SOL    HW118230   1.917   0.840   8.044  0.5687  1.3095 -0.1365
 2256SOL    HW218231   1.990   0.950   8.102 -0.3097  0.6604 -0.0259
 2257SOL     OW18232   1.313   0.022   8.844 -0.5938 -0.4555  0.0271
 2257SOL    HW118233   1.379   4.681   8.858  0.2901  0.4325  0.1377
 2257SOL    HW218234   1.277   0.030   8.932 -1.3086  3.4700 -0.6286
 2258SOL     OW18235   0.808   1.761   2.430 -0.2620 -0.2402 -0.2520
 2258SOL    HW118236   0.763   1.770   2.514 -0.2820  0.8918 -0.3753
 2258SOL    HW218237   0.887   1.814   2.434  0.2329 -0.7497 -3.2211
 2259SOL     OW18238   0.469   1.830  14.977  0.4671 -0.1216 -0.4123
 2259SOL    HW118239   0.440   1.885  14.903  1.2808 -1.9323 -2.0787
 2259SOL    HW218240   0.400   1.765  14.986  1.1811 -0.4385  2.5101
 2260SOL     OW18241   2.132   4.435   6.209  0.2958 -1.0624  0.4258
 2260SOL    HW118242   2.188   4.446   6.132 -1.0465 -0.1020 -0.4146
 2260SOL    HW218243   2.191   4.479   6.271  1.0016 -1.7465  0.2392
 2261SOL     OW18244   3.277   4.596   2.719  0.1841  0.2515  0.1106
 2261SOL    HW118245   3.204   4.543   2.686  0.4948 -0.7877  1.0794
 2261SOL    HW218246   3.348   4.574   2.658 -1.8932 -1.5921 -1.6583
 2262SOL     OW18247   0.624   3.156   5.299  0.1919  0.3040 -0.5435
 2262SOL    HW118248   0.565   3.091   5.338  0.2388 -1.1095 -2.7968
 2262SOL    HW218249   0.563   3.228   5.284  1.7117  2.1239  2.1223
 2263SOL     OW18250   0.534   4.654   8.529  0.1668 -0.3562  0.5070
 2263SOL    HW118251   0.581   0.010   8.523 -1.4409  0.5472  0.3571
 2263SOL    HW218252   0.569   4.622   8.612  1.4700  2.4209  1.0028
 2264SOL     OW18253   1.930   4.267   9.374  0.1805 -0.5676  0.4716
 2264SOL    HW118254   1.848   4.289   9.418 -0.1821 -1.9975  0.5013
 2264SOL    HW218255   1.978   4.350   9.384  0.1710 -0.5238  0.1240
 2265SOL     OW18256   0.146   1.899  11.145  0.6166 -0.1376  0.8429
 2265SOL    HW118257   0.130   1.992  11.129 -2.3468 -0.2968  3.0303
 2265SOL    HW218258   0.195   1.901  11.227 -0.8401  0.1390  1.7018
 2266SOL     OW18259   1.104   1.591   3.294 -0.0984  0.3776 -0.4064
 2266SOL    HW118260   1.021   1.611   3.337  0.1665  0.6416 -0.0235
 2266SOL    HW218261   1.071   1.580   3.204  1.2824  1.2768 -1.0202
 2267SOL     OW18262   2.488   4.263   7.466 -0.1711  0.2141 -0.0387
 2267SOL    HW118263   2.529   4.333   7.415 -0.1521  0.6975  0.6325
 2267SOL    HW218264   2.465   4.202   7.396  0.1742  0.8439 -0.7019
 2268SOL     OW18265   2.184   3.355  11.355  0.0891  0.4929  0.0357
 2268SOL    HW118266   2.089   3.358  11.361  0.1232  0.6365  0.4976
 2268SOL    HW218267   2.189   3.418  11.283 -1.4890  2.1781  1.3970
 2269SOL     OW18268   3.572   3.465   5.277 -0.4571  0.0143  0.4274
 2269SOL    HW118269   3.602   3.446   5.365  2.5418  1.4259 -0.2620
 2269SOL    HW218270   3.629   3.399   5.237  1.3454  1.3491  0.7901
 2270SOL     OW18271   4.089   4.614  12.395 -0.3572 -0.3164 -0.5550
 2270SOL    HW118272   4.171   4.622  12.347 -0.4252 -1.1156 -0.8134
 2270SOL    HW218273   4.028   4.661  12.339  1.7043  1.8368 -0.9770
 2271SOL     OW18274   0.915   2.422   8.255  0.3034  0.3884  0.9070
 2271SOL    HW118275   0.949   2.502   8.296  0.3897 -0.1696  1.9160
 2271SOL    HW218276   0.994   2.376   8.230 -1.2049 -0.0121 -3.1589
 2272SOL     OW18277   2.471   1.942   5.796 -0.1367 -0.2329  0.3504
 2272SOL    HW118278   2.534   1.962   5.866 -2.7978  2.3685  2.0145
 2272SOL    HW218279   2.466   1.847   5.800  0.6012 -0.3828 -2.4275
 2273SOL     OW18280   3.188   3.515   4.655  0.4292 -0.0413  0.1778
 2273SOL    HW118281   3.277   3.481   4.658  0.5477  0.3732  1.3806
 2273SOL    HW218282   3.196   3.610   4.643  0.4080 -0.6629 -4.9966
 2274SOL     OW18283   1.500   1.310   5.056  0.4491 -0.1617 -0.2923
 2274SOL    HW118284   1.588   1.287   5.086  0.4823 -1.6173 -1.5162
 2274SOL    HW218285   1.457   1.282   5.137  1.9400  0.8177  0.8531
 2275SOL     OW18286   1.809   2.434   0.125 -0.5254 -0.3099 -0.3088
 2275SOL    HW118287   1.847   2.515   0.159 -0.5819 -1.4517  2.5038
 2275SOL    HW218288   1.881   2.381   0.091 -0.3818 -0.3597  0.0774
 2276SOL     OW18289   0.902   1.957   7.377 -0.3603  0.4340 -1.0759
 2276SOL    HW118290   0.940   1.925   7.295  0.2261  0.3866 -0.7859
 2276SOL    HW218291   0.842   2.028   7.354 -1.7113 -0.6700 -0.9685
 2277SOL     OW18292   0.002   2.328   7.370  0.0321  0.5613 -0.2960
 2277SOL    HW118293   0.026   2.302   7.459 -0.4054 -3.3018 -1.3444
 2277SOL    HW218294   4.727   2.423   7.382  0.4489  0.6837 -1.1837
 2278SOL     OW18295   1.512   3.227   2.568  0.4094  0.6429  0.0323
 2278SOL    HW118296   1.597   3.204   2.530  0.2027  0.8527 -0.5505
 2278SOL    HW218297   1.465   3.147   2.544  0.9957  0.1665  0.4732
 2279SOL     OW18298   1.516   4.396  17.616 -0.4370 -0.5996  0.2321
 2279SOL    HW118299   1.566   4.318  17.641  0.9053  0.2723  0.3099
 2279SOL    HW218300   1.431   4.363  17.644 -0.7860 -0.1196 -0.2665
 2280SOL     OW18301   3.210   1.568  12.253 -0.5449 -0.4917  0.1452
 2280SOL    HW118302   3.230   1.609  12.338  0.8470 -0.1186 -0.3681
 2280SOL    HW218303   3.253   1.483  12.268  2.7751  0.8306 -1.8523
 2281SOL     OW18304   3.541   2.919   4.128 -0.6199 -0.4052  0.0215
 2281SOL    HW118305   3.532   2.899   4.035 -1.5699 -1.4494  0.3347
 2281SOL    HW218306   3.465   2.886   4.176  0.4357  0.7393  2.4826
 2282SOL     OW18307   1.560   0.147   4.702  0.1982 -0.1112  0.0884
 2282SOL    HW118308   1.605   0.210   4.757  0.4876  0.1669 -0.4642
 2282SOL    HW218309   1.584   0.189   4.619 -1.5463  2.3938  0.8605
 2283SOL     OW18310   0.079   0.086   8.844  0.2846  0.1409 -0.3211
 2283SOL    HW118311   0.086   0.125   8.757  4.6744  0.6981  0.3100
 2283SOL    HW218312   0.140   0.140   8.893 -0.9458  2.1167 -0.9630
 2284SOL     OW18313   0.861   3.325   0.711  0.6509  0.3092 -0.4000
 2284SOL    HW118314   0.935   3.350   0.656  0.4564 -1.3563 -1.4502
 2284SOL    HW218315   0.798   3.388   0.676 -0.6992 -0.6917  0.2224
 2285SOL     OW18316   3.107   2.361   3.296  0.0245  0.2419  0.0527
 2285SOL    HW118317   3.118   2.452   3.322 -2.6022  0.2847  1.0167
 2285SOL    HW218318   3.195   2.332   3.274  0.0971  1.5478 -1.3620
 2286SOL     OW18319   1.799   2.316  15.712  0.1100 -0.8918  0.2132
 2286SOL    HW118320   1.752   2.395  15.686  1.2778  0.0573  0.9744
 2286SOL    HW218321   1.755   2.243  15.669 -1.2505  0.4833 -0.7263
 2287SOL     OW18322   0.042   1.467   3.966 -0.0354 -0.0017  0.4187
 2287SOL    HW118323   0.131   1.486   3.937  0.7973 -2.6361  1.2429
 2287SOL    HW218324   0.011   1.412   3.894  0.4223 -0.0720  0.2790
 2288SOL     OW18325   0.394   2.368   3.369  0.2413  0.1937 -0.0491
 2288SOL    HW118326   0.404   2.359   3.464 -1.6446  1.1456  0.2507
 2288SOL    HW218327   0.352   2.454   3.364 -0.5999 -0.1431  1.0215
 2289SOL     OW18328   0.311   3.974   1.926  0.4702  0.5406 -0.6261
 2289SOL    HW118329   0.299   3.898   1.869 -0.6027  0.3850 -0.1905
 2289SOL    HW218330   0.403   3.978   1.953  0.7763  1.0682 -1.7563
 2290SOL     OW18331   3.542   3.588  16.355  0.5853 -0.2654 -0.2799
 2290SOL    HW118332   3.561   3.588  16.261 -0.1119 -2.0623 -0.4198
 2290SOL    HW218333   3.494   3.670  16.367 -0.4027 -1.0301  0.9290
 2291SOL     OW18334   0.142   2.167   5.377 -0.1040  0.5697 -0.1764
 2291SOL    HW118335   0.120   2.133   5.290  0.9741  1.1305 -0.6589
 2291SOL    HW218336   0.082   2.241   5.379  0.4948  1.0440  0.2044
 2292SOL     OW18337   4.360   0.082   5.399  0.1691 -0.7350  0.3467
 2292SOL    HW118338   4.392   4.724   5.430 -0.8611 -0.3281  2.5152
 2292SOL    HW218339   4.292   0.096   5.465  0.0979 -0.8512  0.2977
 2293SOL     OW18340   0.443   3.874  16.954 -0.6568 -0.3363  0.6372
 2293SOL    HW118341   0.436   3.826  16.872  0.5810 -1.7394  1.3393
 2293SOL    HW218342   0.495   3.951  16.931  0.4573 -1.2385  0.1696
 2294SOL     OW18343   0.746   3.105   5.944  0.2259  0.3847  0.6055
 2294SOL    HW118344   0.833   3.069   5.925 -0.5136 -0.7775 -0.5786
 2294SOL    HW218345   0.765   3.197   5.929  0.2632 -0.0525 -2.0357
 2295SOL     OW18346   2.736   0.818  10.942 -0.3923  0.0091 -0.7129
 2295SOL    HW118347   2.779   0.835  10.858  1.1847 -0.7068 -0.0525
 2295SOL    HW218348   2.757   0.900  10.985  0.1204 -0.0698 -0.8208
 2296SOL     OW18349   3.009   4.659   4.457 -0.2008 -0.4137  0.6089
 2296SOL    HW118350   2.971   4.571   4.462  0.3236 -0.8872 -4.1764
 2296SOL    HW218351   3.088   4.640   4.508  0.3376 -1.4248 -0.5953
 2297SOL     OW18352   3.494   1.103  16.978  0.2699 -0.5091  0.1906
 2297SOL    HW118353   3.489   1.195  17.006 -0.2891 -0.6317  0.4966
 2297SOL    HW218354   3.419   1.076  17.031 -1.0585  0.3113 -1.2724
 2298SOL     OW18355   1.515   4.224   1.297 -0.2620 -0.7290 -0.0549
 2298SOL    HW118356   1.512   4.130   1.279  1.7706 -0.5444 -1.3458
 2298SOL    HW218357   1.575   4.238   1.370  0.6314  0.8144 -1.0815
 2299SOL     OW18358   2.794   1.627   7.300  0.6554 -0.1897 -0.0554
 2299SOL    HW118359   2.837   1.563   7.357  3.2261  0.2741 -1.4461
 2299SOL    HW218360   2.868   1.659   7.247  0.0930 -1.0216 -1.3436
 2300SOL     OW18361   4.322   3.681  14.739 -1.2394  0.0282 -0.0349
 2300SOL    HW118362   4.270   3.616  14.786 -0.4720  2.3262  3.9793
 2300SOL    HW218363   4.382   3.630  14.685 -3.1715  0.1036 -2.2607
 2301SOL     OW18364   2.919   0.593   5.303 -0.3031 -0.2420  0.7315
 2301SOL    HW118365   2.983   0.628   5.365 -0.2230  2.2604 -0.7408
 2301SOL    HW218366   2.904   0.512   5.352 -1.0360 -0.2808  0.4453
 2302SOL     OW18367   2.134   0.981   5.331  0.1478 -0.3210  0.0881
 2302SOL    HW118368   2.088   0.897   5.323  1.6310 -1.0634 -0.4793
 2302SOL    HW218369   2.061   1.037   5.302 -0.3026  0.3828  2.5638
 2303SOL     OW18370   4.408   1.469   5.862 -0.1455 -0.6471 -0.3246
 2303SOL    HW118371   4.368   1.476   5.775 -0.9988 -0.1100  0.1154
 2303SOL    HW218372   4.402   1.376   5.884  1.1264 -0.5160  0.5872
 2304SOL     OW18373   3.779   3.228   0.409  0.1537  0.3764  0.5263
 2304SOL    HW118374   3.770   3.236   0.504  0.1059 -1.9506  0.7147
 2304SOL    HW218375   3.843   3.156   0.404  2.2767  2.1187  2.5737
 2305SOL     OW18376   2.432   1.097   1.635  0.4694  0.0783  0.4067
 2305SOL    HW118377   2.471   1.155   1.570 -1.5654 -0.3359 -1.1631
 2305SOL    HW218378   2.409   1.023   1.579 -3.6059  0.0222  2.1490
 2306SOL     OW18379   0.555   3.916   2.033  0.2438 -0.0510 -0.0416
 2306SOL    HW118380   0.650   3.926   2.026  0.1743  0.4663 -0.2876
 2306SOL    HW218381   0.559   3.843   2.094 -1.8318 -0.7153 -0.7084
 2307SOL     OW18382   1.572   4.331   6.468 -0.1130 -0.7430 -0.0802
 2307SOL    HW118383   1.523   4.311   6.388 -1.8710  3.6436 -0.0643
 2307SOL    HW218384   1.518   4.293   6.538 -0.0723 -0.4006  0.1352
 2308SOL     OW18385   3.587   0.737   5.796 -0.6383  0.5107 -0.1255
 2308SOL    HW118386   3.551   0.656   5.831 -1.2350  1.3567  1.2143
 2308SOL    HW218387   3.605   0.709   5.706  2.3892  3.4385 -0.4429
 2309SOL     OW18388   0.300   0.834   9.079 -0.8294 -0.2594  0.4837
 2309SOL    HW118389   0.370   0.871   9.133 -1.2237  1.5824 -0.2962
 2309SOL    HW218390   0.304   0.895   9.006  2.7735  1.4159  2.0745
 2310SOL     OW18391   1.682   3.881   8.156 -0.4854  0.0494 -0.3535
 2310SOL    HW118392   1.724   3.959   8.192  0.0051 -0.1332 -0.5325
 2310SOL    HW218393   1.591   3.902   8.177 -0.1001  0.1295  1.2434
 2311SOL     OW18394   4.661   2.558   5.285  0.2208 -0.1846  0.4544
 2311SOL    HW118395   4.665   2.466   5.311 -0.3618  0.2843  2.1995
 2311SOL    HW218396   4.579   2.574   5.331  0.3932  1.5922  0.1418
 2312SOL     OW18397   4.508   0.182   3.065 -0.1571 -0.2733 -0.0784
 2312SOL    HW118398   4.586   0.237   3.065 -0.7859  0.5905 -2.1042
 2312SOL    HW218399   4.498   0.146   3.154 -1.4873  1.8702  0.6389
 2313SOL     OW18400   0.873   0.430  17.620  0.3644 -0.5305 -0.4595
 2313SOL    HW118401   0.850   0.408   0.002 -1.1117 -0.3742 -0.8013
 2313SOL    HW218402   0.795   0.454  17.571 -1.6288 -2.4156  1.7736
 2314SOL     OW18403   2.065   1.170  14.404  0.4344  0.3209 -0.1295
 2314SOL    HW118404   1.991   1.170  14.465  0.3030 -0.1164 -0.2877
 2314SOL    HW218405   2.133   1.122  14.451 -0.0902 -1.5604 -1.2730
 2315SOL     OW18406   1.646   2.677  12.292  0.0106  0.1492 -0.5752
 2315SOL    HW118407   1.616   2.587  12.289  0.1761  0.0851 -0.3425
 2315SOL    HW218408   1.588   2.719  12.228 -1.5680 -0.7868  0.2376
 2316SOL     OW18409   0.693   2.587   8.160  0.5223  0.0642 -0.0813
 2316SOL    HW118410   0.720   2.514   8.105  1.3675  0.5348 -0.2824
 2316SOL    HW218411   0.654   2.647   8.096  0.1861 -0.8956 -0.7773
 2317SOL     OW18412   3.296   4.711  15.993  0.4166  0.2680 -0.1861
 2317SOL    HW118413   3.259   0.054  15.940  0.4014 -0.6002 -1.3323
 2317SOL    HW218414   3.243   4.721  16.072  1.4591  3.0269  0.1701
 2318SOL     OW18415   0.566   3.209   6.209  0.2744  0.0105 -0.8082
 2318SOL    HW118416   0.602   3.221   6.297 -0.5189  2.2001 -0.7942
 2318SOL    HW218417   0.569   3.294   6.165  0.9490  1.3131  1.7431
 2319SOL     OW18418   3.633   3.879   5.996  0.5371  0.8206  0.4637
 2319SOL    HW118419   3.698   3.865   6.065  2.8310  1.8752 -1.5166
 2319SOL    HW218420   3.675   3.883   5.910  0.3510 -3.2155  0.1882
 2320SOL     OW18421   2.739   4.721   1.897  0.5307  0.2800  0.3203
 2320SOL    HW118422   2.781   4.719   1.811  2.1749  0.8624  1.1179
 2320SOL    HW218423   2.813   0.033   1.944  0.6515 -1.1912  1.3461
 2321SOL     OW18424   4.264   0.143  16.721 -0.5708  0.0124  0.0776
 2321SOL    HW118425   4.290   0.206  16.788 -1.5805  0.9369 -0.4106
 2321SOL    HW218426   4.345   0.137  16.669 -0.2520 -0.6795  0.6505
 2322SOL     OW18427   3.163   1.186   3.143 -0.1163  0.3861  0.5410
 2322SOL    HW118428   3.217   1.246   3.195  0.1542  1.0953 -0.5414
 2322SOL    HW218429   3.078   1.232   3.139 -0.3536 -0.1653 -0.7708
 2323SOL     OW18430   2.395   1.127  16.180 -0.4434  0.1892 -0.3085
 2323SOL    HW118431   2.473   1.182  16.182  0.1940 -0.7610  0.8307
 2323SOL    HW218432   2.319   1.182  16.199 -0.1341  0.2818  0.6347
 2324SOL     OW18433   4.005   0.545   9.342  0.3049 -0.4794  0.0016
 2324SOL    HW118434   4.097   0.563   9.363  0.6576 -0.9159 -1.1480
 2324SOL    HW218435   3.967   0.596   9.413 -0.1553 -0.1871 -0.4570
 2325SOL     OW18436   4.632   3.252   3.575  0.5067  0.1508 -0.0628
 2325SOL    HW118437   4.540   3.270   3.593  0.0595 -0.3131 -1.8967
 2325SOL    HW218438   4.653   3.322   3.513  0.9446 -0.6249 -0.7866
 2326SOL     OW18439   4.715   2.094   0.542 -0.4716 -0.1962 -0.4109
 2326SOL    HW118440   4.642   2.155   0.554  0.8513  1.2792  0.1957
 2326SOL    HW218441   0.050   2.155   0.501 -1.8426  1.1069 -0.5681
 2327SOL     OW18442   2.045   2.389   2.413 -0.1230  0.3983  0.4584
 2327SOL    HW118443   1.979   2.358   2.352 -1.1020  2.0580  0.6779
 2327SOL    HW218444   2.108   2.319   2.398 -1.9915 -1.5253  1.6744
 2328SOL     OW18445   1.720   0.588  17.363 -0.1818 -0.0597 -0.5669
 2328SOL    HW118446   1.775   0.513  17.340  0.0181 -0.4878  1.3092
 2328SOL    HW218447   1.639   0.548  17.333 -0.2663 -1.1880  1.2004
 2329SOL     OW18448   2.160   2.522  17.549 -0.1614 -0.1542 -0.2709
 2329SOL    HW118449   2.224   2.456  17.523  0.6397  0.5745 -0.1413
 2329SOL    HW218450   2.099   2.522  17.476  0.8881 -1.5419 -1.1551
 2330SOL     OW18451   2.491   0.424   8.069  0.0089 -0.1150 -0.2379
 2330SOL    HW118452   2.416   0.469   8.031 -0.1313  0.0090  0.1808
 2330SOL    HW218453   2.488   0.451   8.161 -0.2856 -3.6184  0.7627
 2331SOL     OW18454   0.095   2.821   7.158  0.1421 -0.4866  0.1220
 2331SOL    HW118455   0.078   2.914   7.174  0.2649 -0.3251 -0.7026
 2331SOL    HW218456   0.014   2.778   7.188  0.3150  0.5485  2.0799
 2332SOL     OW18457   3.652   2.540   8.102 -0.6851 -0.5689  0.6425
 2332SOL    HW118458   3.697   2.593   8.168 -0.2587  0.1323 -0.2126
 2332SOL    HW218459   3.660   2.451   8.138  1.8418 -0.0359  1.3773
 2333SOL     OW18460   1.701   0.170   1.762 -0.5044 -0.0564  0.3097
 2333SOL    HW118461   1.624   0.133   1.720 -1.2074 -0.2716  1.8092
 2333SOL    HW218462   1.682   0.262   1.780  0.2949  0.5942 -2.1014
 2334SOL     OW18463   2.892   3.924  16.499  0.4395  0.2119 -0.2233
 2334SOL    HW118464   2.948   3.859  16.455  1.4533  1.3642 -0.6250
 2334SOL    HW218465   2.881   3.989  16.430  1.4917 -2.0770 -2.5809
 2335SOL     OW18466   2.234   3.815  13.176  0.3981 -0.3228  0.5007
 2335SOL    HW118467   2.300   3.880  13.198 -2.3159  2.0349  1.7433
 2335SOL    HW218468   2.154   3.858  13.206  0.1324 -0.5955  0.1806
 2336SOL     OW18469   4.163   3.399   8.588 -0.1827 -0.0012  0.2174
 2336SOL    HW118470   4.131   3.329   8.645  1.8204 -0.1481  1.1621
 2336SOL    HW218471   4.106   3.391   8.512 -0.1837  0.5561  0.1577
 2337SOL     OW18472   0.897   3.818   5.012 -0.0268  0.5682 -0.5593
 2337SOL    HW118473   0.809   3.840   4.982 -0.0463  0.9648 -0.2133
 2337SOL    HW218474   0.925   3.906   5.039  2.1594 -0.3338  0.1526
 2338SOL     OW18475   0.919   4.444  17.303  0.2724 -0.2775 -0.6026
 2338SOL    HW118476   0.928   4.447  17.208 -0.2077  1.3481 -0.6032
 2338SOL    HW218477   0.864   4.519  17.327  0.7315  0.3347 -1.4626
 2339SOL     OW18478   3.698   1.540  14.460 -0.1115 -0.1434 -0.1238
 2339SOL    HW118479   3.646   1.619  14.448  2.2476  1.1619 -1.8412
 2339SOL    HW218480   3.787   1.562  14.433  0.7969  1.0850  3.8698
 2340SOL     OW18481   2.198   2.603   9.413 -0.1903  0.2155  0.5714
 2340SOL    HW118482   2.206   2.562   9.499  1.7002  0.2906  0.4306
 2340SOL    HW218483   2.177   2.693   9.437  0.4199  0.5109 -0.0386
 2341SOL     OW18484   0.612   3.902   7.640  0.3421  0.3551  0.4693
 2341SOL    HW118485   0.641   3.900   7.732 -1.0732  2.6501  0.9550
 2341SOL    HW218486   0.662   3.830   7.602  0.0076  0.4303 -0.1002
 2342SOL     OW18487   2.621   2.155  10.888 -0.4445  0.0838 -1.1342
 2342SOL    HW118488   2.691   2.178  10.948 -3.0699  1.1287  1.5456
 2342SOL    HW218489   2.608   2.061  10.900  0.3942  0.4162  2.3834
 2343SOL     OW18490   3.481   2.224   8.448  0.5187  0.3624 -0.2268
 2343SOL    HW118491   3.420   2.218   8.375 -2.0769  0.2171  1.9738
 2343SOL    HW218492   3.486   2.131   8.473  1.9931 -0.0168 -1.9438
 2344SOL     OW18493   3.630   0.243   4.086 -0.1463  0.0943  0.2032
 2344SOL    HW118494   3.614   0.317   4.144  0.3061  0.7110 -0.4566
 2344SOL    HW218495   3.537   0.219   4.088  0.0963 -0.7465  0.9481
 2345SOL     OW18496   2.066   1.751   6.318  0.7369 -0.1789  0.6284
 2345SOL    HW118497   2.158   1.768   6.297  1.1093 -1.9119  0.7844
 2345SOL    HW218498   2.073   1.673   6.374 -0.6512  0.8405  2.1740
 2346SOL     OW18499   2.433   4.062   2.905 -0.5352 -0.4039 -0.1048
 2346SOL    HW118500   2.435   3.972   2.873  3.4624  0.3194 -1.8744
 2346SOL    HW218501   2.507   4.108   2.864 -0.1404 -0.6059  0.3867
 2347SOL     OW18502   1.193   4.650   7.365 -0.0774  0.2318  0.5418
 2347SOL    HW118503   1.251   4.705   7.418  0.4857  1.1362 -1.0295
 2347SOL    HW218504   1.198   4.701   7.284 -1.8989 -0.7153 -0.1641
 2348SOL     OW18505   4.186   1.469   2.893  0.4773 -0.6580 -0.4734
 2348SOL    HW118506   4.191   1.541   2.830 -0.4438  0.9325  1.2829
 2348SOL    HW218507   4.266   1.431   2.857  0.7327 -0.2605 -0.3382
 2349SOL     OW18508   4.001   0.796   2.381  0.0985  0.0417  0.4550
 2349SOL    HW118509   4.051   0.724   2.343  0.6994  1.0170 -0.6413
 2349SOL    HW218510   4.024   0.868   2.322  0.2904  0.9211  1.5985
 2350SOL     OW18511   2.145   1.702   5.111 -0.2943 -0.1900  1.0643
 2350SOL    HW118512   2.107   1.766   5.051  0.1639  0.9476  1.9848
 2350SOL    HW218513   2.230   1.670   5.081 -0.0961  1.8310 -0.4706
 2351SOL     OW18514   3.236   3.325   6.552  0.5294  0.4491 -0.3331
 2351SOL    HW118515   3.328   3.302   6.540  0.5977 -0.7501  2.5165
 2351SOL    HW218516   3.233   3.391   6.483  0.1579 -1.2490 -1.9671
 2352SOL     OW18517   0.344   2.086   6.658 -0.3752 -0.0788 -0.0739
 2352SOL    HW118518   0.401   2.029   6.606 -0.8643  1.2000 -2.0307
 2352SOL    HW218519   0.371   2.168   6.616 -1.9921  0.8178  0.6421
 2353SOL     OW18520   0.075   1.833   0.615 -0.6454  0.2413 -0.4541
 2353SOL    HW118521   0.133   1.846   0.540  2.8225 -0.4126  2.1151
 2353SOL    HW218522   0.027   1.916   0.612  0.8509  1.0573 -1.6358
 2354SOL     OW18523   3.888   1.330  17.184  0.0840  0.7858  0.2353
 2354SOL    HW118524   3.852   1.382  17.112  0.3314 -0.7391 -0.9855
 2354SOL    HW218525   3.809   1.286  17.215  1.2844  0.0524  2.2887
 2355SOL     OW18526   2.383   1.595  14.414  0.2997 -0.0797 -0.1661
 2355SOL    HW118527   2.474   1.624  14.402 -0.2040  1.4948 -0.1323
 2355SOL    HW218528   2.349   1.680  14.441 -0.8700 -0.2143 -1.2306
 2356SOL     OW18529   0.546   1.593   4.340 -0.8558  0.2005  0.1314
 2356SOL    HW118530   0.610   1.531   4.304  1.0552  0.5399  2.9445
 2356SOL    HW218531   0.574   1.587   4.431  1.6788  0.8936 -0.6111
 2357SOL     OW18532   1.071   4.398   3.674  0.1914  0.7446 -0.1355
 2357SOL    HW118533   1.125   4.458   3.621  0.1944 -0.5236 -1.5868
 2357SOL    HW218534   0.990   4.389   3.625 -0.1878 -0.5754  0.7606
 2358SOL     OW18535   3.004   4.675   6.742  0.2488  0.1234 -0.2162
 2358SOL    HW118536   3.090   4.652   6.707  0.2680  0.9039 -0.6848
 2358SOL    HW218537   3.037   0.014   6.803  2.2037 -0.3693 -0.7223
 2359SOL     OW18538   1.326   2.804  15.418 -0.0675 -0.2420  0.1846
 2359SOL    HW118539   1.250   2.860  15.434 -0.1628 -0.0291 -0.9892
 2359SOL    HW218540   1.378   2.860  15.360 -1.7091  1.7916  0.6566
 2360SOL     OW18541   2.829   2.186  13.525  0.6931  0.4587  0.8696
 2360SOL    HW118542   2.876   2.189  13.442 -2.9100  1.3933 -1.1328
 2360SOL    HW218543   2.803   2.095  13.532  0.7313  0.4890  1.4252
 2361SOL     OW18544   1.887   3.309  10.355  0.7010  0.0912 -0.3085
 2361SOL    HW118545   1.854   3.397  10.338  2.2064  0.3245 -2.0288
 2361SOL    HW218546   1.977   3.309  10.323  0.7105 -0.1321 -0.2815
 2362SOL     OW18547   3.119   4.704  16.196  0.1535  0.0627 -0.4601
 2362SOL    HW118548   3.079   4.658  16.270  0.9301 -0.4709 -0.3677
 2362SOL    HW218549   3.077   0.062  16.212 -1.9353 -0.8046 -1.2341
 2363SOL     OW18550   2.520   0.689   4.041 -0.0744 -0.1526  0.0257
 2363SOL    HW118551   2.433   0.648   4.037 -0.3764  0.3382  1.6614
 2363SOL    HW218552   2.564   0.614   4.000 -0.8237 -1.1785  1.1008
 2364SOL     OW18553   4.026   3.130   8.280  0.0717  0.0735 -0.3072
 2364SOL    HW118554   3.940   3.088   8.273  0.8433 -1.6978  0.9037
 2364SOL    HW218555   4.007   3.206   8.335 -0.3772 -0.1369 -0.1747
 2365SOL     OW18556   4.223   3.715  17.119 -0.1413 -0.9654  0.1348
 2365SOL    HW118557   4.193   3.624  17.124 -5.0415  0.7756  2.3069
 2365SOL    HW218558   4.277   3.716  17.040  1.2602  1.4031  1.1309
 2366SOL     OW18559   0.922   0.754   1.252 -0.2164 -0.1317 -0.1553
 2366SOL    HW118560   0.990   0.746   1.319 -1.5529 -2.7029  0.9114
 2366SOL    HW218561   0.854   0.790   1.309 -0.7200 -1.2445 -0.0373
 2367SOL     OW18562   1.150   1.790   3.071 -0.2003  0.4525  0.5595
 2367SOL    HW118563   1.215   1.806   3.139 -0.2002 -0.6661  0.8211
 2367SOL    HW218564   1.214   1.762   3.006 -0.6741  0.1990  0.2025
 2368SOL     OW18565   1.105   4.076   0.745 -0.0452  0.1268  0.1655
 2368SOL    HW118566   1.142   4.005   0.693  0.3329  0.2736  0.2349
 2368SOL    HW218567   1.150   4.064   0.829 -2.0466  0.7809  1.3427
 2369SOL     OW18568   1.375   2.781   3.208 -0.3030 -0.2547  0.4064
 2369SOL    HW118569   1.297   2.749   3.161 -0.2160 -0.8323  0.6499
 2369SOL    HW218570   1.440   2.762   3.141 -0.5775 -0.1057  0.0976
 2370SOL     OW18571   2.245   2.684  16.059  0.6974  0.1149  0.5626
 2370SOL    HW118572   2.203   2.758  16.103  2.4401  1.1065  0.5511
 2370SOL    HW218573   2.273   2.628  16.131  0.7580 -1.9452 -1.0728
 2371SOL     OW18574   4.034   1.108  17.077 -0.3342 -0.0409  0.3188
 2371SOL    HW118575   3.970   1.074  17.015 -0.5015 -0.4897  0.7312
 2371SOL    HW218576   3.973   1.158  17.132 -2.9045 -3.8684  0.9750
 2372SOL     OW18577   3.756   4.332   0.124  0.9381  0.5155 -0.0239
 2372SOL    HW118578   3.848   4.324   0.099  0.9974 -0.3112  0.4718
 2372SOL    HW218579   3.756   4.387   0.203 -2.6906  0.2359  0.1777
 2373SOL     OW18580   0.270   3.969   8.152  0.0932 -0.0410  0.1080
 2373SOL    HW118581   0.195   3.988   8.096 -0.6638  2.2573  1.8990
 2373SOL    HW218582   0.242   4.004   8.237  0.9555  1.7507 -0.3519
 2374SOL     OW18583   0.149   4.707   7.475 -0.3239 -0.2692 -0.0235
 2374SOL    HW118584   0.146   0.074   7.456 -2.8635 -0.5221 -0.8734
 2374SOL    HW218585   0.243   4.693   7.488  0.1738  2.1164 -1.0430
 2375SOL     OW18586   2.671   3.721   7.761  0.1529  0.5442 -0.8790
 2375SOL    HW118587   2.712   3.765   7.835  1.6468 -0.7173 -0.9689
 2375SOL    HW218588   2.579   3.719   7.788  0.2951  0.9436 -0.3634
 2376SOL     OW18589   0.177   0.655   5.784 -0.4942  0.1309 -0.1664
 2376SOL    HW118590   0.198   0.599   5.710 -1.4457 -1.8279  1.0664
 2376SOL    HW218591   0.144   0.591   5.846  0.6929 -2.0323 -1.7956
 2377SOL     OW18592   0.307   1.315   6.721 -0.5289  0.3631 -0.1614
 2377SOL    HW118593   0.360   1.373   6.665  1.2967  0.8169  2.0456
 2377SOL    HW218594   0.220   1.330   6.685 -0.2134 -0.5548 -1.3251
 2378SOL     OW18595   1.261   4.112   9.467  0.1229  0.5551 -0.3025
 2378SOL    HW118596   1.169   4.129   9.483  0.1638 -0.2769  0.8498
 2378SOL    HW218597   1.243   4.025   9.431 -0.3934 -0.2961  1.9866
 2379SOL     OW18598   0.848   0.548   4.040 -0.0381  0.3807 -0.3663
 2379SOL    HW118599   0.933   0.511   4.064  0.3900  1.8508  0.4405
 2379SOL    HW218600   0.844   0.591   3.954  0.5971  0.5499 -0.3154
 2380SOL     OW18601   4.687   0.656   5.247 -0.3364  0.1109  0.1314
 2380SOL    HW118602   4.646   0.635   5.330  0.0602 -1.9001 -0.1821
 2380SOL    HW218603   4.632   0.733   5.228 -1.8829 -1.1188 -0.4144
 2381SOL     OW18604   1.322   0.758   9.514  0.3646 -0.0514  0.0920
 2381SOL    HW118605   1.357   0.801   9.592 -0.2958  1.6736 -0.5519
 2381SOL    HW218606   1.404   0.757   9.463  1.0648  2.4521  1.1535
 2382SOL     OW18607   1.600   2.938  14.364  0.1776  0.3948  0.0440
 2382SOL    HW118608   1.538   2.989  14.314 -1.5471 -1.8800 -0.1229
 2382SOL    HW218609   1.674   2.999  14.357  1.8930 -1.4574  1.7743
 2383SOL     OW18610   2.358   3.716   1.144 -0.0556 -0.0759  0.4625
 2383SOL    HW118611   2.317   3.705   1.230 -0.1434  0.4787  0.4966
 2383SOL    HW218612   2.426   3.778   1.169  0.3833 -0.6375  0.6416
 2384SOL     OW18613   2.300   1.910   2.114 -0.2328 -0.2242 -0.5299
 2384SOL    HW118614   2.286   1.903   2.019 -0.2144 -2.7577 -0.3283
 2384SOL    HW218615   2.288   1.821   2.145 -2.6635 -0.2517 -1.4971
 2385SOL     OW18616   4.416   1.857   4.937  0.2977 -0.2005  0.4838
 2385SOL    HW118617   4.336   1.811   4.962 -1.1116  0.6051 -2.5580
 2385SOL    HW218618   4.399   1.943   4.976 -1.6300 -0.4867  0.2592
 2386SOL     OW18619   4.312   0.822   2.477 -0.1316 -0.2000 -0.6616
 2386SOL    HW118620   4.350   0.828   2.389 -0.0305 -1.0284 -0.6744
 2386SOL    HW218621   4.245   0.889   2.483 -0.8165 -1.1264  1.7926
 2387SOL     OW18622   3.598   3.570   7.415 -0.4782  0.3093  0.2481
 2387SOL    HW118623   3.539   3.563   7.340  1.5411 -0.6921 -1.2207
 2387SOL    HW218624   3.674   3.535   7.369 -0.6417 -0.6496  0.7013
 2388SOL     OW18625   4.693   1.896   5.956  0.2392 -0.3102 -0.2583
 2388SOL    HW118626   4.710   1.989   5.946 -0.8658 -0.2090 -1.1875
 2388SOL    HW218627   4.633   1.878   5.884 -1.0203 -1.4144  1.0631
 2389SOL     OW18628   0.091   0.775   2.902  0.5804  0.1049  1.5100
 2389SOL    HW118629   0.125   0.796   2.815  0.6823 -0.3191  1.4463
 2389SOL    HW218630   0.055   0.855   2.938  0.2528  0.9737 -0.7404
 2390SOL     OW18631   1.286   2.764   8.131  0.2334 -0.1634  0.0880
 2390SOL    HW118632   1.194   2.785   8.113  0.9874  2.3581 -0.8158
 2390SOL    HW218633   1.288   2.669   8.141  0.0011 -0.1002  0.7655
 2391SOL     OW18634   4.569   3.911   1.148 -0.4485 -0.1421 -0.7142
 2391SOL    HW118635   4.559   3.863   1.231  0.4189 -0.9097 -1.0602
 2391SOL    HW218636   4.508   3.882   1.081 -1.2536  0.6193 -0.3206
 2392SOL     OW18637   4.433   4.490   5.816  0.3880  1.1629  0.2065
 2392SOL    HW118638   4.504   4.426   5.818 -0.9639 -0.3536 -0.3722
 2392SOL    HW218639   4.416   4.487   5.910 -0.9960 -0.6880 -0.1130
 2393SOL     OW18640   1.673   3.626   7.011  0.4254 -0.1172  0.0615
 2393SOL    HW118641   1.600   3.570   6.984  0.4976 -0.1805 -0.0033
 2393SOL    HW218642   1.639   3.659   7.094 -0.3234 -1.4982  0.3096
 2394SOL     OW18643   0.678   0.377   6.413 -0.1990 -0.1632  0.3281
 2394SOL    HW118644   0.690   0.471   6.428  0.0061  0.1443 -1.7856
 2394SOL    HW218645   0.584   0.368   6.430 -0.0183 -0.0311  1.3808
 2395SOL     OW18646   4.347   1.252   7.190 -0.5128  0.1825  0.2648
 2395SOL    HW118647   4.310   1.164   7.189  0.7356 -0.3271 -0.4554
 2395SOL    HW218648   4.434   1.239   7.150 -0.1685 -1.7427  1.6648
 2396SOL     OW18649   3.618   4.075  16.033 -0.0889  0.1643 -0.0858
 2396SOL    HW118650   3.548   4.140  16.025 -0.4191  0.0832  2.4200
 2396SOL    HW218651   3.565   4.008  16.076  0.5844 -0.2416  0.1247
 2397SOL     OW18652   2.489   2.515  14.070  0.2829  0.6489 -0.5601
 2397SOL    HW118653   2.473   2.609  14.062  0.0361  0.7732  1.5174
 2397SOL    HW218654   2.436   2.481  13.998 -1.9007  1.2827  0.7784
 2398SOL     OW18655   1.873   0.087   2.552 -0.2697  0.1931  0.3767
 2398SOL    HW118656   1.927   0.109   2.477  0.8180  0.9373  1.3773
 2398SOL    HW218657   1.941   0.033   2.593 -0.1587  0.6874  0.8469
 2399SOL     OW18658   3.021   1.156   5.557  0.2976 -0.4699 -0.1609
 2399SOL    HW118659   2.932   1.154   5.591  0.8581 -0.2608  1.3520
 2399SOL    HW218660   3.054   1.245   5.568 -2.2289  0.2526  1.5925
 2400SOL     OW18661   1.182   4.360  11.356  0.3452  0.4189 -0.2993
 2400SOL    HW118662   1.194   4.321  11.270 -1.0671 -1.0394  0.1536
 2400SOL    HW218663   1.260   4.413  11.370  1.0920 -0.9358  0.7234
 2401SOL     OW18664   0.788   2.073   2.238  0.0100 -0.3539  0.4462
 2401SOL    HW118665   0.722   2.011   2.204 -0.6101  0.0439  0.9296
 2401SOL    HW218666   0.739   2.113   2.309  0.6372 -0.3679  0.8847
 2402SOL     OW18667   2.933   3.365  16.911  0.3643 -0.5671 -0.9201
 2402SOL    HW118668   2.868   3.303  16.946 -0.0355 -1.0544 -2.4901
 2402SOL    HW218669   2.882   3.444  16.897  0.6968 -0.1057  0.4986
 2403SOL     OW18670   3.710   2.366   7.351  0.8743 -0.4409  0.2429
 2403SOL    HW118671   3.745   2.278   7.339  1.0570 -0.4949  1.1784
 2403SOL    HW218672   3.623   2.354   7.315  1.0454 -0.5182 -0.1472
 2404SOL     OW18673   3.932   4.116   8.525 -0.0387 -0.1561 -0.0251
 2404SOL    HW118674   3.876   4.108   8.448  1.0160 -1.1562 -0.6763
 2404SOL    HW218675   3.889   4.174   8.588 -1.6427  0.2271 -1.4826
 2405SOL     OW18676   2.370   3.657  12.989  0.1291  0.2266  0.2354
 2405SOL    HW118677   2.304   3.600  12.948 -0.0223 -0.1167  0.9532
 2405SOL    HW218678   2.320   3.712  13.049  0.1152  0.7041 -0.2109
 2406SOL     OW18679   3.627   0.918   8.064  0.0687 -0.4364 -0.2303
 2406SOL    HW118680   3.639   0.831   8.025  0.1578  0.6773 -2.6935
 2406SOL    HW218681   3.716   0.934   8.094  0.7609 -0.0160 -2.5292
 2407SOL     OW18682   3.052   4.207  16.671  0.4698  0.0064  0.3541
 2407SOL    HW118683   3.105   4.247  16.601  0.5603  1.7687  1.4151
 2407SOL    HW218684   3.100   4.244  16.745 -0.0960  2.4009 -0.4629
 2408SOL     OW18685   3.949   2.275  13.448 -0.0160  0.0557 -0.3337
 2408SOL    HW118686   3.893   2.288  13.524 -0.9671 -2.1474 -0.6602
 2408SOL    HW218687   4.037   2.265  13.484  0.2619 -0.7412 -1.2269
 2409SOL     OW18688   2.473   1.728   3.414  0.3726 -0.0299  0.0066
 2409SOL    HW118689   2.459   1.812   3.458 -0.1511  0.0468 -0.2979
 2409SOL    HW218690   2.387   1.694   3.437  1.6984 -1.4926  2.8082
 2410SOL     OW18691   4.694   0.628  15.099  0.3344 -0.6969  0.1284
 2410SOL    HW118692   4.706   0.575  15.178 -1.1315 -2.1487 -0.6126
 2410SOL    HW218693   4.600   0.648  15.103  0.6093  0.7274 -0.5313
 2411SOL     OW18694   2.844   4.640   2.552  0.2314  0.1096  0.3233
 2411SOL    HW118695   2.895   4.716   2.578 -2.3548  2.3203 -1.0664
 2411SOL    HW218696   2.917   4.578   2.555 -0.9151 -1.2151  1.1475
 2412SOL     OW18697   3.206   4.588   3.088  0.0381  0.0451  0.0098
 2412SOL    HW118698   3.253   4.588   3.005 -1.7516 -0.9492 -0.9868
 2412SOL    HW218699   3.117   4.562   3.065 -0.1105  1.2096 -0.6841
 2413SOL     OW18700   2.364   4.084   2.209  0.2746 -0.3205  0.0512
 2413SOL    HW118701   2.385   4.165   2.256 -0.4618 -0.7835  1.1756
 2413SOL    HW218702   2.270   4.085   2.194  0.5204  0.6070 -1.3504
 2414SOL     OW18703   4.082   4.188   4.496 -0.1275  0.4767  0.5233
 2414SOL    HW118704   4.037   4.235   4.425  0.1129 -0.7200 -0.4106
 2414SOL    HW218705   4.160   4.162   4.447 -2.7161 -0.0085 -3.3727
 2415SOL     OW18706   2.704   0.812  15.231 -0.1659 -0.9782 -0.0102
 2415SOL    HW118707   2.726   0.731  15.278  2.7238 -2.4638 -3.9118
 2415SOL    HW218708   2.711   0.780  15.141  1.9921  0.9694 -0.5395
 2416SOL     OW18709   0.468   3.042   7.455 -0.0238 -0.0452 -0.6277
 2416SOL    HW118710   0.462   2.951   7.482  0.9423 -0.2035 -0.9462
 2416SOL    HW218711   0.554   3.041   7.414  1.1694  2.8150  1.7972
 2417SOL     OW18712   4.451   2.779  12.996  0.2470 -0.4165  0.4319
 2417SOL    HW118713   4.512   2.790  13.069  1.4895 -1.5985 -0.4315
 2417SOL    HW218714   4.393   2.856  13.000 -0.8180 -1.0820 -2.6109
 2418SOL     OW18715   1.073   2.617   9.127 -0.0099  0.1888 -0.2511
 2418SOL    HW118716   1.026   2.557   9.068  0.2731 -1.2704  1.0030
 2418SOL    HW218717   1.157   2.572   9.138  0.2207  0.8806  0.7769
 2419SOL     OW18718   3.764   3.021  15.240  0.0940  0.7175  0.1197
 2419SOL    HW118719   3.813   2.941  15.221 -0.4846  0.3643  0.1048
 2419SOL    HW218720   3.831   3.066  15.292  1.3479 -0.4397 -0.4908
 2420SOL     OW18721   4.093   3.488  14.587  0.0056  0.0783 -0.3097
 2420SOL    HW118722   4.092   3.462  14.679  1.9996  1.1690  0.0161
 2420SOL    HW218723   4.136   3.414  14.544  2.1994  0.7664  0.7216
 2421SOL     OW18724   0.009   0.886   2.230  0.4039 -0.0161 -0.9533
 2421SOL    HW118725   0.062   0.818   2.271 -0.0355 -0.0844 -0.4973
 2421SOL    HW218726   4.683   0.842   2.163 -1.1406  2.3598 -1.3193
 2422SOL     OW18727   0.420   2.906   3.470  0.8894  0.1116  0.1957
 2422SOL    HW118728   0.500   2.866   3.437  0.2745 -1.4014  0.4864
 2422SOL    HW218729   0.442   2.999   3.465  1.8452 -0.0991  0.4948
 2423SOL     OW18730   1.837   1.038   5.392  0.2432 -0.4447  0.3056
 2423SOL    HW118731   1.908   1.023   5.455 -0.9963  0.9061  2.0434
 2423SOL    HW218732   1.774   0.979   5.433  0.6662  0.2291  1.9457
 2424SOL     OW18733   3.567   4.367  13.541  0.1409  0.5223 -0.1177
 2424SOL    HW118734   3.483   4.369  13.495  0.2533 -1.8879 -0.4491
 2424SOL    HW218735   3.610   4.443  13.503  0.0192  0.8479  0.4011
 2425SOL     OW18736   2.930   0.160   2.051  0.2776 -0.0818  0.5215
 2425SOL    HW118737   2.931   0.250   2.019  2.8165 -0.7007 -1.1539
 2425SOL    HW218738   3.023   0.138   2.056  0.7010  2.4034  2.8271
 2426SOL     OW18739   4.022   1.626   7.702  0.0646  0.5373 -0.1616
 2426SOL    HW118740   3.967   1.693   7.743 -0.6464  0.0706 -0.3493
 2426SOL    HW218741   3.989   1.541   7.730  1.3279  0.5849  1.4506
 2427SOL     OW18742   1.680   2.312  17.622 -0.3040  0.1072 -0.0333
 2427SOL    HW118743   1.710   2.337   0.001 -1.2811  0.2034  0.2812
 2427SOL    HW218744   1.718   2.375  17.561  0.7848 -0.2355  0.2944
 2428SOL     OW18745   3.205   0.791  17.254 -0.3966 -1.1771  0.1870
 2428SOL    HW118746   3.280   0.812  17.200 -1.1386 -0.7713 -0.6905
 2428SOL    HW218747   3.192   0.698  17.236 -0.9078 -1.2101  0.7003
 2429SOL     OW18748   3.495   2.100   7.131 -0.5474 -0.1153  0.1507
 2429SOL    HW118749   3.484   2.030   7.066 -1.9310  0.9528 -0.7441
 2429SOL    HW218750   3.443   2.072   7.206  1.3024  1.1777  1.9217
 2430SOL     OW18751   2.490   0.854  14.600 -0.2742 -0.2375 -0.5037
 2430SOL    HW118752   2.427   0.801  14.551  0.0752 -0.8837 -0.2513
 2430SOL    HW218753   2.457   0.944  14.589 -0.9968 -0.2281  1.7461
 2431SOL     OW18754   0.790   0.908   0.899 -0.4234  0.3643  0.3945
 2431SOL    HW118755   0.739   0.939   0.825 -1.4956  0.7998  1.3116
 2431SOL    HW218756   0.878   0.925   0.868 -0.4980  0.5899  0.3122
 2432SOL     OW18757   2.246   2.403  12.099  0.1157  0.4720 -0.1896
 2432SOL    HW118758   2.339   2.389  12.080  0.0336  0.0575 -0.2670
 2432SOL    HW218759   2.266   2.489  12.137 -0.5985  0.1931  0.8252
 2433SOL     OW18760   0.960   0.559   8.687 -0.2701  0.1111  0.0725
 2433SOL    HW118761   0.872   0.545   8.720 -0.0974 -2.4194 -0.5334
 2433SOL    HW218762   1.002   0.503   8.752 -0.2840 -1.1827 -1.0334
 2434SOL     OW18763   2.048   0.733   1.232  0.3009 -0.4619 -0.2455
 2434SOL    HW118764   2.076   0.786   1.157 -1.4967  0.3588 -0.3301
 2434SOL    HW218765   2.018   0.799   1.295  0.0238 -0.8224  0.0013
 2435SOL     OW18766   0.146   3.998  13.791  0.3715 -0.5444 -0.2694
 2435SOL    HW118767   0.233   3.959  13.802  0.8368 -0.3837 -3.5081
 2435SOL    HW218768   0.157   4.075  13.737  0.8589  0.5632  1.3964
 2436SOL     OW18769   0.450   2.443   5.751  0.1252  0.4592  0.0283
 2436SOL    HW118770   0.446   2.349   5.768  0.2761  0.2938 -0.8174
 2436SOL    HW218771   0.481   2.484   5.831  2.1639 -3.2162  1.1023
 2437SOL     OW18772   1.670   2.308   8.434 -0.0229  0.0845 -0.6579
 2437SOL    HW118773   1.596   2.248   8.444  1.0642 -1.1501 -0.1482
 2437SOL    HW218774   1.632   2.379   8.381  0.9826  2.3066  1.5883
 2438SOL     OW18775   0.293   0.459   9.789  0.5085 -0.2465 -0.5714
 2438SOL    HW118776   0.303   0.383   9.732 -0.1560 -0.3166 -0.5883
 2438SOL    HW218777   0.366   0.455   9.851 -0.6005 -1.2466  0.6631
 2439SOL     OW18778   3.243   1.617  12.511  0.6438 -0.2545 -0.9743
 2439SOL    HW118779   3.165   1.671  12.524  1.2799  0.4871 -0.2001
 2439SOL    HW218780   3.298   1.643  12.585 -0.1650 -1.6197  0.0976
 2440SOL     OW18781   1.206   3.511   4.840 -0.5981  0.0222 -0.9484
 2440SOL    HW118782   1.253   3.591   4.863  1.6825 -1.3603 -0.7383
 2440SOL    HW218783   1.273   3.448   4.868  0.8043  1.4984 -0.9958
 2441SOL     OW18784   4.330   0.230  12.651 -0.4142  0.2689  0.1105
 2441SOL    HW118785   4.349   0.311  12.699  2.8451  0.4194 -1.4553
 2441SOL    HW218786   4.256   0.267  12.604 -0.5812 -0.8578 -0.5099
 2442SOL     OW18787   2.892   1.212   2.490 -0.0028 -0.5037 -0.6745
 2442SOL    HW118788   2.928   1.266   2.420 -1.2102  0.7326 -0.3604
 2442SOL    HW218789   2.963   1.224   2.554 -1.3699  1.2432  0.5472
 2443SOL     OW18790   0.713   1.639   2.198  0.0390 -0.0843 -0.1879
 2443SOL    HW118791   0.724   1.684   2.282 -0.4653 -2.0780  0.9294
 2443SOL    HW218792   0.767   1.696   2.142 -0.8348 -2.3760 -3.3633
 2444SOL     OW18793   0.888   2.535   6.064  0.1008  0.3901 -0.1388
 2444SOL    HW118794   0.857   2.580   6.142 -1.6927 -0.9515 -0.0872
 2444SOL    HW218795   0.935   2.607   6.021 -0.0079  1.3395  1.3146
 2445SOL     OW18796   1.507   3.954   7.791 -0.2333  0.0771 -0.3468
 2445SOL    HW118797   1.478   3.983   7.877  0.8985 -1.5152  0.5729
 2445SOL    HW218798   1.470   3.866   7.784  2.6628 -1.2989  2.1097
 2446SOL     OW18799   2.879   4.479   8.500 -0.0162 -0.3346 -0.7707
 2446SOL    HW118800   2.921   4.565   8.498 -0.6859  0.0656  3.3741
 2446SOL    HW218801   2.931   4.436   8.568  0.8077  0.2326 -1.0365
 2447SOL     OW18802   0.453   0.936   9.305  0.1462 -0.0256  0.0391
 2447SOL    HW118803   0.468   0.899   9.393 -0.6143 -0.3062  0.0585
 2447SOL    HW218804   0.536   0.977   9.282  0.4482 -1.2137 -0.9848
 2448SOL     OW18805   4.153   2.400   9.888  0.4252 -0.0507 -0.3767
 2448SOL    HW118806   4.200   2.451   9.954 -0.4477  0.1244  0.1201
 2448SOL    HW218807   4.076   2.458   9.895  1.0297  0.9471 -2.0707
 2449SOL     OW18808   3.334   0.298   8.962 -0.5647 -0.3517 -0.2317
 2449SOL    HW118809   3.401   0.325   9.025 -0.7857 -1.6484  0.5759
 2449SOL    HW218810   3.269   0.367   8.956  0.4118  0.4958 -0.9587
 2450SOL     OW18811   1.887   2.887  15.608 -0.2214 -0.2361  0.2376
 2450SOL    HW118812   1.949   2.818  15.585  0.5541 -0.1110  1.9498
 2450SOL    HW218813   1.823   2.884  15.537 -0.9448 -0.0316  0.8851
 2451SOL     OW18814   0.315   3.971   3.826 -0.1453  0.3071 -0.0197
 2451SOL    HW118815   0.276   3.904   3.881  1.6015  3.0008  4.4524
 2451SOL    HW218816   0.328   4.039   3.892  1.6155 -0.1182  0.0613
 2452SOL     OW18817   3.841   0.070   5.244 -0.0869 -0.7767  0.6143
 2452SOL    HW118818   3.790   4.727   5.203 -0.1409 -0.9865  1.0416
 2452SOL    HW218819   3.861   0.021   5.324  3.3256 -0.3556  0.0172
 2453SOL     OW18820   2.863   3.502  14.236 -0.0831  0.0975 -0.1539
 2453SOL    HW118821   2.860   3.445  14.160 -0.4538  0.6015 -0.5122
 2453SOL    HW218822   2.831   3.437  14.298  2.9065  1.1991  2.6114
 2454SOL     OW18823   3.795   2.871   1.780  0.1444  0.4472  0.1529
 2454SOL    HW118824   3.775   2.796   1.725 -0.4041  0.9279 -0.3133
 2454SOL    HW218825   3.889   2.869   1.762  0.1545 -1.5763  0.5147
 2455SOL     OW18826   0.028   2.609   7.387  0.3114 -0.3179 -0.4427
 2455SOL    HW118827   4.720   2.685   7.433 -2.0235 -1.8289  0.2932
 2455SOL    HW218828   0.119   2.597   7.415  0.4364  2.9747  0.4909
 2456SOL     OW18829   1.913   0.486  11.132  0.4814 -0.0543  0.2345
 2456SOL    HW118830   1.841   0.520  11.187  0.3551  0.6636 -0.3652
 2456SOL    HW218831   1.939   0.572  11.097 -3.1968  1.4363  1.1020
 2457SOL     OW18832   4.418   2.191   0.328  0.7650  0.5549 -0.1680
 2457SOL    HW118833   4.351   2.140   0.374  0.9119 -0.5560 -1.1760
 2457SOL    HW218834   4.492   2.130   0.316  0.8213  0.5691  0.0980
 2458SOL     OW18835   2.060   1.339   1.988 -0.0899 -0.2947 -0.8532
 2458SOL    HW118836   2.077   1.248   1.966  0.8258 -0.6999  1.5584
 2458SOL    HW218837   2.092   1.382   1.908 -0.9597  1.2900 -0.3652
 2459SOL     OW18838   2.556   0.763   4.474 -0.3429 -0.4652  0.1059
 2459SOL    HW118839   2.503   0.688   4.446  0.4979 -1.5640  1.4534
 2459SOL    HW218840   2.572   0.812   4.393  0.9245  0.4281  0.9013
 2460SOL     OW18841   0.906   3.511   7.533  0.7077 -0.2401 -0.1627
 2460SOL    HW118842   1.000   3.529   7.540  0.4025  1.3779 -0.0381
 2460SOL    HW218843   0.884   3.446   7.600  0.1362 -0.2374 -0.3465
 2461SOL     OW18844   3.150   0.305   4.031 -0.0426  0.2391  0.0362
 2461SOL    HW118845   3.169   0.213   4.012  0.2975  0.6614 -1.5891
 2461SOL    HW218846   3.087   0.293   4.102  2.4562  1.2981  2.4679
 2462SOL     OW18847   1.498   3.266   7.811  0.6710  0.9708  0.1158
 2462SOL    HW118848   1.452   3.299   7.888 -1.7964  0.7965 -1.2510
 2462SOL    HW218849   1.442   3.195   7.779  0.6262  1.2424 -0.4215
 2463SOL     OW18850   0.813   0.940   4.391  0.4222 -0.3242 -0.4796
 2463SOL    HW118851   0.897   0.904   4.418 -0.1169  0.0848  1.7351
 2463SOL    HW218852   0.814   0.904   4.302 -0.2538 -1.0822 -0.1842
 2464SOL     OW18853   2.982   2.974   2.183 -0.0389 -0.3026 -0.0618
 2464SOL    HW118854   2.975   2.960   2.088  0.2733 -2.3037  0.2084
 2464SOL    HW218855   2.892   2.964   2.214 -0.0764  1.1177  0.3087
 2465SOL     OW18856   0.432   1.998   3.786 -0.5423 -0.7684  0.2343
 2465SOL    HW118857   0.371   2.003   3.712 -0.2821  0.0877  0.0811
 2465SOL    HW218858   0.510   2.037   3.747 -1.3829 -1.2968 -1.9675
 2466SOL     OW18859   3.076   3.391   2.617 -0.6838  0.5606  0.7010
 2466SOL    HW118860   3.125   3.473   2.617 -1.5225  1.0651 -1.8612
 2466SOL    HW218861   3.146   3.330   2.593 -0.2025  1.3590  0.0822
 2467SOL     OW18862   0.384   2.664   4.739  0.4939 -0.2678  0.4768
 2467SOL    HW118863   0.397   2.728   4.809 -0.6902  0.9577 -0.4261
 2467SOL    HW218864   0.334   2.595   4.784 -2.7492  1.2427 -0.8037
 2468SOL     OW18865   3.290   2.258   5.785  0.2184  0.2215 -0.0627
 2468SOL    HW118866   3.228   2.330   5.786 -0.6890 -0.5305 -2.5997
 2468SOL    HW218867   3.368   2.313   5.789 -0.1325  0.8551 -1.8458
 2469SOL     OW18868   3.649   1.203  17.268 -0.5913 -0.5417 -0.4763
 2469SOL    HW118869   3.596   1.266  17.219 -1.6602 -0.4797  0.7970
 2469SOL    HW218870   3.594   1.126  17.252 -2.7757  1.0350 -0.4754
 2470SOL     OW18871   1.318   0.521   1.821  0.0540  1.0082 -0.2794
 2470SOL    HW118872   1.260   0.475   1.881  0.0682  0.9045 -0.3464
 2470SOL    HW218873   1.289   0.609   1.845 -0.0256  0.8729  0.1184
 2471SOL     OW18874   0.629   3.204   2.497  0.4401 -0.6805  0.6360
 2471SOL    HW118875   0.714   3.192   2.539  1.5673  0.5561 -1.2789
 2471SOL    HW218876   0.640   3.146   2.422  0.1731  2.7274 -2.0716
 2472SOL     OW18877   0.153   1.928   5.577 -0.0256 -0.3741 -0.1446
 2472SOL    HW118878   0.079   1.964   5.527 -0.5855  0.0470  0.9963
 2472SOL    HW218879   0.147   1.836   5.552  1.4268 -1.1075  2.2314
 2473SOL     OW18880   2.511   0.877  10.083  0.2303  0.2287 -0.0571
 2473SOL    HW118881   2.497   0.854  10.175  0.9668  1.9549  0.4757
 2473SOL    HW218882   2.587   0.932  10.101  0.6281 -0.3808  0.1068
 2474SOL     OW18883   3.084   0.918   8.204 -0.2531 -0.4064  0.3415
 2474SOL    HW118884   3.115   1.004   8.234  1.6265 -1.0014  0.1179
 2474SOL    HW218885   3.030   0.938   8.127  0.2505 -1.6050 -0.3278
 2475SOL     OW18886   1.899   3.456  12.660  0.7986 -0.2977 -0.7658
 2475SOL    HW118887   1.983   3.413  12.676  0.3289 -0.9392 -0.0116
 2475SOL    HW218888   1.923   3.533  12.608 -2.2575  0.3986 -1.1560
 2476SOL     OW18889   1.104   3.660   8.963  0.6517 -0.1967  0.1286
 2476SOL    HW118890   1.086   3.658   9.057 -2.0964  2.0018 -0.3370
 2476SOL    HW218891   1.187   3.708   8.967 -0.8130  2.1560  2.7292
 2477SOL     OW18892   2.312   0.672  14.513 -0.3244 -0.2480  0.0942
 2477SOL    HW118893   2.282   0.591  14.554  0.4110  0.5439  2.2411
 2477SOL    HW218894   2.247   0.698  14.448 -1.6363 -2.1953  0.6249
 2478SOL     OW18895   0.233   1.583   3.551 -0.6025  0.2853  0.2365
 2478SOL    HW118896   0.323   1.559   3.532 -0.7812 -1.0408  1.1088
 2478SOL    HW218897   0.207   1.610   3.463  1.3597 -2.0293 -1.0291
 2479SOL     OW18898   0.461   1.578  13.802  0.2069 -0.3941  0.0620
 2479SOL    HW118899   0.546   1.578  13.846 -0.9535 -0.6805  2.2841
 2479SOL    HW218900   0.468   1.652  13.741  0.5590 -0.4875 -0.0109
 2480SOL     OW18901   3.300   2.314   3.117  0.6243 -0.1900  0.3200
 2480SOL    HW118902   3.394   2.297   3.113  0.2389 -2.0995 -0.4219
 2480SOL    HW218903   3.293   2.374   3.042 -2.6288 -1.9536 -0.8128
 2481SOL     OW18904   3.524   0.857   6.601  0.5178  0.5528 -0.5705
 2481SOL    HW118905   3.595   0.874   6.539  0.0656 -1.0640 -1.5152
 2481SOL    HW218906   3.570   0.845   6.683 -0.6100  0.7353  0.0888
 2482SOL     OW18907   0.359   1.254   2.061  0.2358 -0.5689 -0.0094
 2482SOL    HW118908   0.265   1.262   2.078  0.6790  2.1504  1.1406
 2482SOL    HW218909   0.368   1.343   2.028 -0.4767 -0.4236  0.1753
 2483SOL     OW18910   3.352   1.059   5.576 -0.0913 -0.3930  0.0371
 2483SOL    HW118911   3.419   1.100   5.520 -1.4552  0.2803 -1.1077
 2483SOL    HW218912   3.352   1.125   5.646 -0.3194 -0.1428 -0.1953
 2484SOL     OW18913   1.054   3.772   3.456  0.2914  0.1618  0.2821
 2484SOL    HW118914   1.013   3.765   3.369  0.6649  1.4941  0.0010
 2484SOL    HW218915   1.141   3.735   3.441 -0.1165 -0.7509  0.1050
 2485SOL     OW18916   0.067   4.240   4.197  0.1994  0.1078 -0.3405
 2485SOL    HW118917   0.065   4.242   4.101  0.2174  0.3886 -0.3346
 2485SOL    HW218918   0.152   4.277   4.217  0.0607  1.8786 -3.0204
 2486SOL     OW18919   2.341   1.167   6.101  0.0182 -0.1547 -0.7261
 2486SOL    HW118920   2.298   1.204   6.178 -0.8666  0.8705 -1.7128
 2486SOL    HW218921   2.392   1.089   6.124 -1.9044 -1.2393 -0.1156
 2487SOL     OW18922   3.113   1.992   3.753 -0.0569  0.6033  0.2804
 2487SOL    HW118923   3.033   2.046   3.753 -0.4775 -0.0392  1.1841
 2487SOL    HW218924   3.162   2.031   3.681  0.2914 -0.8099 -0.2413
 2488SOL     OW18925   4.223   1.370   3.637  0.6156  0.2691  0.3791
 2488SOL    HW118926   4.181   1.403   3.557  0.1741 -1.4621 -0.1078
 2488SOL    HW218927   4.314   1.372   3.609  0.9568  0.1072  1.5057
 2489SOL     OW18928   0.788   4.176  10.220 -0.6871 -0.1690  0.1042
 2489SOL    HW118929   0.761   4.090  10.190 -0.0703 -0.0325 -0.8489
 2489SOL    HW218930   0.731   4.174  10.296 -1.0060  2.0442 -0.0693
 2490SOL     OW18931   2.650   4.286   6.207 -0.8084  0.1174 -0.3604
 2490SOL    HW118932   2.588   4.348   6.168 -1.5529 -0.1441  0.4115
 2490SOL    HW218933   2.593   4.244   6.271 -0.9368  0.1918 -0.4273
 2491SOL     OW18934   0.692   0.457   7.695 -0.3175  0.3157 -0.3694
 2491SOL    HW118935   0.680   0.549   7.671 -3.6130 -0.3671 -1.3165
 2491SOL    HW218936   0.781   0.443   7.661  1.0273  1.8549  2.4813
 2492SOL     OW18937   1.867   1.987  15.726  0.2301  0.0420  0.4489
 2492SOL    HW118938   1.940   2.035  15.766 -0.4971  0.1938  1.6015
 2492SOL    HW218939   1.882   2.012  15.635  0.3484 -0.8255  0.2288
 2493SOL     OW18940   1.799   3.687   3.485 -0.0276 -0.7401  0.0655
 2493SOL    HW118941   1.745   3.608   3.478 -1.8965  0.3297  2.5704
 2493SOL    HW218942   1.847   3.671   3.566 -2.0928  0.0128  1.4365
 2494SOL     OW18943   0.172   1.774   1.064  0.3935 -0.3491 -0.4196
 2494SOL    HW118944   0.214   1.860   1.056  2.0203 -0.9885  1.2192
 2494SOL    HW218945   0.123   1.771   1.146 -2.4421 -0.2192 -2.1046
 2495SOL     OW18946   3.819   4.457   4.205 -0.0461  0.0621 -0.0632
 2495SOL    HW118947   3.845   4.540   4.244  0.2371  0.1369 -0.4139
 2495SOL    HW218948   3.733   4.442   4.245 -0.1054  2.2079  0.6440
 2496SOL     OW18949   4.128   0.658   7.053  0.9167  0.3627 -0.0657
 2496SOL    HW118950   4.174   0.590   7.002  0.1455  0.4413 -0.8569
 2496SOL    HW218951   4.177   0.728   7.011 -1.6427  1.6287 -0.9404
 2497SOL     OW18952   2.703   4.096   8.931  0.0665 -0.5160  0.5166
 2497SOL    HW118953   2.740   4.025   8.880  0.3229 -0.5049  0.6921
 2497SOL    HW218954   2.610   4.087   8.909 -0.3763 -1.4234  2.7971
 2498SOL     OW18955   2.778   3.244   5.986  0.0539  0.0293 -0.2630
 2498SOL    HW118956   2.752   3.335   5.995 -0.4966 -0.0503 -1.0603
 2498SOL    HW218957   2.690   3.208   5.987  0.7622 -1.7296 -0.5027
 2499SOL     OW18958   3.242   1.986  14.992  0.3855  0.4301  0.0995
 2499SOL    HW118959   3.334   2.010  14.981  1.1802 -2.1061  1.1936
 2499SOL    HW218960   3.208   2.051  14.930 -1.0454 -1.3134 -0.9314
 2500SOL     OW18961   4.549   4.144   2.065 -0.3716  0.3619  0.1796
 2500SOL    HW118962   4.638   4.114   2.084  0.1177  1.7533  0.1066
 2500SOL    HW218963   4.502   4.090   2.129  0.1337 -0.5370 -0.2167
 2501SOL     OW18964   3.979   0.602   3.892 -0.5735 -0.2945  0.1428
 2501SOL    HW118965   4.064   0.565   3.916  0.0908 -0.5267 -2.5731
 2501SOL    HW218966   3.954   0.549   3.816 -1.2022  0.2536 -0.0360
 2502SOL     OW18967   1.141   2.617   7.470 -0.3532  0.0481 -0.6486
 2502SOL    HW118968   1.118   2.616   7.377 -0.2174 -0.0332 -0.6818
 2502SOL    HW218969   1.082   2.682   7.507 -0.8776 -0.2152 -1.0138
 2503SOL     OW18970   0.901   4.307   9.975  0.1259  0.2662 -0.1582
 2503SOL    HW118971   0.839   4.283  10.044 -2.6648  1.7934 -2.1241
 2503SOL    HW218972   0.982   4.277  10.017 -0.4892 -0.2541  0.6589
 2504SOL     OW18973   2.049   2.126  15.013  0.0439  1.0314  0.1936
 2504SOL    HW118974   2.002   2.047  15.041 -0.6083  1.8313  1.3772
 2504SOL    HW218975   2.143   2.110  15.022 -0.0828  0.7117  0.9140
 2505SOL     OW18976   3.007   1.824   5.007 -0.2505  0.0066  0.0115
 2505SOL    HW118977   3.069   1.810   4.935 -1.6462  1.1235 -1.4058
 2505SOL    HW218978   2.932   1.768   4.986  1.2564 -2.2387  0.4980
 2506SOL     OW18979   1.917   1.161   0.917  0.1658  0.5874 -0.5674
 2506SOL    HW118980   1.893   1.238   0.967 -1.0204 -1.5170  2.1184
 2506SOL    HW218981   1.952   1.104   0.986 -0.2518 -0.1585 -0.9751
 2507SOL     OW18982   3.667   4.554   3.977 -0.7894  0.1417 -0.5885
 2507SOL    HW118983   3.640   4.495   4.047 -1.1853  0.2377 -0.6637
 2507SOL    HW218984   3.583   4.567   3.934 -1.0194  0.6000  0.0072
 2508SOL     OW18985   4.648   2.320   2.572  0.0166 -0.8549 -0.0305
 2508SOL    HW118986   4.599   2.284   2.498 -1.8027  1.9863 -0.1673
 2508SOL    HW218987   4.720   2.367   2.530 -1.5473  0.6105 -1.0442
 2509SOL     OW18988   1.569   0.976   7.218 -0.2877 -0.2564  0.4372
 2509SOL    HW118989   1.522   0.989   7.300  0.5658 -2.8722  1.3459
 2509SOL    HW218990   1.645   1.029   7.245 -0.6305 -0.5322  1.9089
 2510SOL     OW18991   3.195   0.170   2.987 -0.3974  0.0285  0.0788
 2510SOL    HW118992   3.284   0.138   3.001 -0.4637 -0.2929 -0.2586
 2510SOL    HW218993   3.206   0.261   2.959  2.1995 -1.1239 -2.5501
 2511SOL     OW18994   3.140   4.565   1.005 -0.4649  0.8524 -0.3727
 2511SOL    HW118995   3.082   4.528   1.071  1.6751  0.4497  1.2704
 2511SOL    HW218996   3.170   4.489   0.956  2.4588  0.5410  1.9401
 2512SOL     OW18997   2.237   3.395  10.674 -0.3151 -0.5942  0.5608
 2512SOL    HW118998   2.289   3.435  10.744 -0.9807 -0.1189  0.7810
 2512SOL    HW218999   2.276   3.420  10.590  1.2004  1.5792  1.9022
 2513SOL     OW19000   4.117   1.807   3.687 -0.1261  0.0652 -0.0406
 2513SOL    HW119001   4.093   1.896   3.713 -3.0238 -1.1411  1.4602
 2513SOL    HW219002   4.195   1.824   3.635  0.1663  0.4474  0.5261
 2514SOL     OW19003   4.071   2.983  10.176 -0.1238  0.4629  0.1680
 2514SOL    HW119004   4.161   3.016  10.176  0.3158 -0.8087 -1.9849
 2514SOL    HW219005   4.041   3.003  10.265  3.2010 -0.6080  1.5528
 2515SOL     OW19006   1.559   1.381   2.900 -0.5997  0.6579 -0.3839
 2515SOL    HW119007   1.478   1.385   2.951 -0.2073  1.3189  0.1931
 2515SOL    HW219008   1.524   1.382   2.811 -1.0262  2.8887 -0.1849
 2516SOL     OW19009   3.332   2.601   5.934  0.5147  0.3369  0.7518
 2516SOL    HW119010   3.371   2.535   5.877  1.6280  0.8139  0.9603
 2516SOL    HW219011   3.342   2.682   5.884 -1.8025 -1.2904 -2.3287
 2517SOL     OW19012   3.178   2.888   6.164  0.2243  0.6753 -0.1511
 2517SOL    HW119013   3.113   2.915   6.099 -0.1490 -0.7262 -0.3590
 2517SOL    HW219014   3.136   2.907   6.248  0.3884 -2.1965  0.5641
 2518SOL     OW19015   0.687   2.800   8.772 -0.8445  0.0410 -0.0735
 2518SOL    HW119016   0.675   2.732   8.837  0.9928  0.5862  0.8488
 2518SOL    HW219017   0.702   2.881   8.821 -0.9196 -0.0388  0.0811
 2519SOL     OW19018   0.383   4.146   4.018 -0.2776  0.1423 -0.1584
 2519SOL    HW119019   0.358   4.207   4.087  0.9759  1.3730 -0.7823
 2519SOL    HW219020   0.468   4.122   4.054  0.7613 -0.9275 -3.3230
 2520SOL     OW19021   4.686   3.710   5.864  0.1441  0.4810  0.5080
 2520SOL    HW119022   4.676   3.625   5.820  0.0097  1.3643 -1.1559
 2520SOL    HW219023   4.692   3.684   5.956 -1.4858  1.6737  0.9413
 2521SOL     OW19024   0.316   3.047  17.050  0.0085 -0.1470  0.7478
 2521SOL    HW119025   0.327   3.042  17.145  2.8188  2.1814  0.5676
 2521SOL    HW219026   0.304   3.142  17.044  1.3690 -0.0425 -0.4567
 2522SOL     OW19027   2.061   1.725   8.902 -0.3234 -0.0629  0.5991
 2522SOL    HW119028   2.019   1.769   8.976  0.0099 -0.5029  1.0458
 2522SOL    HW219029   2.099   1.645   8.939  0.7269  0.5227  0.7881
 2523SOL     OW19030   2.941   3.583   8.883  0.2500  0.4130  0.0173
 2523SOL    HW119031   2.894   3.501   8.874  0.8674  0.1528 -0.7593
 2523SOL    HW219032   2.935   3.619   8.795  0.0410  0.7534  0.1680
 2524SOL     OW19033   3.291   4.440   2.051  0.3980  0.0927  0.0819
 2524SOL    HW119034   3.339   4.522   2.060 -4.4094  2.6724  2.7739
 2524SOL    HW219035   3.240   4.434   2.132 -1.3461  0.7710 -0.9574
 2525SOL     OW19036   1.918   2.863   4.578 -0.1243 -0.1631  0.0720
 2525SOL    HW119037   1.940   2.770   4.581  1.6645  0.2138 -1.1986
 2525SOL    HW219038   1.944   2.888   4.489 -0.2528 -0.5442 -0.0713
 2526SOL     OW19039   4.209   1.745   5.769 -0.5913 -0.5082 -0.6459
 2526SOL    HW119040   4.141   1.705   5.822 -0.1806 -1.1099 -0.5748
 2526SOL    HW219041   4.224   1.672   5.709  2.8612 -1.2258  1.0639
 2527SOL     OW19042   1.682   1.160  13.563 -0.0612  0.4604  0.3202
 2527SOL    HW119043   1.678   1.090  13.498  0.9526 -1.3232  2.1758
 2527SOL    HW219044   1.773   1.147  13.588  0.3642  0.9286 -0.9609
 2528SOL     OW19045   1.591   4.609   9.937  0.1208 -0.3481  0.3791
 2528SOL    HW119046   1.548   4.676   9.990  2.3672  1.0014  0.5226
 2528SOL    HW219047   1.667   4.581   9.987  0.9783 -1.9870 -1.8160
 2529SOL     OW19048   0.936   0.813   6.909 -0.2564  0.4377  0.0057
 2529SOL    HW119049   0.957   0.885   6.850 -0.5792 -0.5219 -1.2592
 2529SOL    HW219050   0.847   0.839   6.936 -0.8196 -2.2774  0.8217
 2530SOL     OW19051   3.977   4.465   9.370  0.0484 -0.4648  0.1090
 2530SOL    HW119052   3.976   4.539   9.431  0.3261  0.3540 -0.8977
 2530SOL    HW219053   4.062   4.427   9.391  0.5265 -1.0147 -2.9554
 2531SOL     OW19054   1.898   4.129   7.511 -0.2745  0.1553  0.4446
 2531SOL    HW119055   1.824   4.188   7.496 -0.0582 -0.0602 -1.5183
 2531SOL    HW219056   1.976   4.184   7.505 -0.9663  0.9095 -1.8367
 2532SOL     OW19057   0.862   4.313  17.679  0.0129 -0.3204 -0.8729
 2532SOL    HW119058   0.776   4.277  17.656  0.3738 -2.5955  1.2752
 2532SOL    HW219059   0.861   4.293   0.064 -0.7737 -1.0576 -1.0418
 2533SOL     OW19060   1.178   4.484  10.227  0.2059 -0.1036  0.7196
 2533SOL    HW119061   1.187   4.414  10.162 -2.2327  0.4273 -0.2012
 2533SOL    HW219062   1.085   4.481  10.252  0.2982 -2.3613  0.7556
 2534SOL     OW19063   2.534   4.379   1.100  0.1649 -0.1543  0.0958
 2534SOL    HW119064   2.626   4.357   1.089 -0.0694 -0.6460 -0.9481
 2534SOL    HW219065   2.547   4.455   1.156 -0.8212  1.1333 -1.4363
 2535SOL     OW19066   1.399   1.228   3.227  0.1348  0.1785  0.0958
 2535SOL    HW119067   1.448   1.161   3.180  0.8823  2.3542 -2.2412
 2535SOL    HW219068   1.380   1.282   3.150  1.3540  1.0094  0.3650
 2536SOL     OW19069   0.479   0.749   7.225 -0.5084  0.4248 -0.2235
 2536SOL    HW119070   0.383   0.745   7.222 -0.5451  1.5968 -0.6386
 2536SOL    HW219071   0.480   0.811   7.298  2.9514 -0.1076  0.1827
 2537SOL     OW19072   3.575   2.662   3.214  0.1842 -0.4648  0.1731
 2537SOL    HW119073   3.552   2.603   3.142  1.5028 -1.9839  0.9789
 2537SOL    HW219074   3.597   2.740   3.164  0.4541 -2.3326 -2.6569
 2538SOL     OW19075   3.658   2.906   2.560  0.0272  0.3335 -0.4923
 2538SOL    HW119076   3.708   2.963   2.501 -1.5517  1.5688 -0.6156
 2538SOL    HW219077   3.697   2.819   2.570 -0.7984  0.0391  0.1093
 2539SOL     OW19078   3.317   2.797   4.198  0.2569 -0.4367 -0.3723
 2539SOL    HW119079   3.247   2.748   4.154  0.2981 -0.8568  0.0264
 2539SOL    HW219080   3.266   2.815   4.277  1.6188 -1.5725  0.7691
 2540SOL     OW19081   0.500   1.208   0.579 -0.1824  0.4324 -0.2399
 2540SOL    HW119082   0.582   1.253   0.560 -0.5161  0.9805 -0.3696
 2540SOL    HW219083   0.534   1.121   0.603 -0.3114  0.5650  0.4167
 2541SOL     OW19084   4.188   0.340   4.584  0.4218  0.2730  0.0135
 2541SOL    HW119085   4.160   0.360   4.674 -0.9480 -0.0864 -0.3406
 2541SOL    HW219086   4.191   0.430   4.550  1.2458 -0.3608 -1.5667
 2542SOL     OW19087   1.762   4.284  15.605  0.1583  0.1439  0.1674
 2542SOL    HW119088   1.758   4.371  15.564  0.8158 -0.6020 -1.4776
 2542SOL    HW219089   1.673   4.263  15.634  0.5238 -1.5527  0.0381
 2543SOL     OW19090   0.960   2.976   4.700 -0.0651  0.3957 -0.0727
 2543SOL    HW119091   1.039   2.940   4.659 -0.7821  1.1614 -2.1296
 2543SOL    HW219092   0.996   3.009   4.782 -0.7057  0.5691  0.1334
 2544SOL     OW19093   4.386   3.757   0.537 -0.3794 -0.1785 -0.3358
 2544SOL    HW119094   4.399   3.851   0.530  1.7300 -0.4721 -0.2093
 2544SOL    HW219095   4.351   3.739   0.450  0.2006  0.6889 -0.7406
 2545SOL     OW19096   0.814   3.672   9.225 -0.1213 -0.1449 -0.0540
 2545SOL    HW119097   0.746   3.624   9.273  0.4420 -2.1536 -1.2630
 2545SOL    HW219098   0.839   3.734   9.293  0.8709 -0.8489  0.2162
 2546SOL     OW19099   3.458   0.727   8.194  0.4855  0.2174  0.8820
 2546SOL    HW119100   3.377   0.726   8.144  0.6940  0.4796  0.5469
 2546SOL    HW219101   3.507   0.798   8.153  0.8334 -0.1768  0.6113
 2547SOL     OW19102   2.834   3.285   2.525 -0.0119  0.3062  0.3510
 2547SOL    HW119103   2.855   3.300   2.433  0.9530  0.6608  0.6271
 2547SOL    HW219104   2.915   3.307   2.571 -1.4238  2.3238  1.8456
 2548SOL     OW19105   4.178   3.827  15.620 -0.5516 -0.0023  0.3594
 2548SOL    HW119106   4.253   3.840  15.679 -1.4343 -0.2339  1.5393
 2548SOL    HW219107   4.223   3.794  15.543  0.8476  1.0781  0.7174
 2549SOL     OW19108   3.447   2.352   7.238 -0.1893  0.3020  0.3835
 2549SOL    HW119109   3.454   2.272   7.186  0.1033  0.3537  0.3432
 2549SOL    HW219110   3.359   2.370   7.203  0.0869  0.1615 -0.3933
 2550SOL     OW19111   3.639   1.146   6.448 -0.2070 -0.4694  0.1480
 2550SOL    HW119112   3.677   1.087   6.513 -0.6182  0.9064  1.6621
 2550SOL    HW219113   3.684   1.130   6.365 -1.1549 -1.2006 -0.2225
 2551SOL     OW19114   0.631   0.273  10.126 -0.2317  0.0201 -0.3745
 2551SOL    HW119115   0.631   0.331  10.050 -1.7935 -1.2636 -1.3580
 2551SOL    HW219116   0.659   0.345  10.182 -0.5265 -0.8507  0.8856
 2552SOL     OW19117   3.626   0.977  11.235 -0.0795 -0.1353 -0.3359
 2552SOL    HW119118   3.591   0.956  11.149  1.2606 -0.9123 -0.6992
 2552SOL    HW219119   3.550   0.954  11.290  0.6965 -2.0913 -0.0760
 2553SOL     OW19120   3.399   3.008  10.590  0.0525  0.1487  0.4530
 2553SOL    HW119121   3.375   2.933  10.535  0.8157 -0.0604  0.4051
 2553SOL    HW219122   3.491   2.987  10.605  0.2498  3.5116  3.9194
 2554SOL     OW19123   2.695   4.184   3.040 -0.2533 -0.2018 -0.1934
 2554SOL    HW119124   2.763   4.144   2.986 -0.2464  0.7502 -0.9047
 2554SOL    HW219125   2.739   4.186   3.125 -1.3995 -0.9403  0.4081
 2555SOL     OW19126   1.912   1.307  11.718 -0.3993 -0.1982 -0.4549
 2555SOL    HW119127   1.958   1.390  11.729  0.6106 -1.2272  2.9892
 2555SOL    HW219128   1.901   1.289  11.811 -0.0799 -0.8310 -0.5387
 2556SOL     OW19129   0.091   2.915  10.233  0.1638  1.0508  0.6520
 2556SOL    HW119130   0.185   2.920  10.220  0.0473 -0.1780 -0.6206
 2556SOL    HW219131   0.082   2.822  10.256 -0.2968  0.8554 -0.3212
 2557SOL     OW19132   4.379   0.327   1.241  0.0993  0.0628 -0.1606
 2557SOL    HW119133   4.412   0.386   1.309  1.2227 -1.7253  0.8461
 2557SOL    HW219134   4.367   0.246   1.292 -0.1613 -0.6957 -1.4188
 2558SOL     OW19135   2.411   3.190  10.008  0.3975  0.3081  0.0032
 2558SOL    HW119136   2.462   3.252  10.060  0.6646  2.1254 -2.4433
 2558SOL    HW219137   2.466   3.184   9.930 -0.0555  4.5370 -0.6034
 2559SOL     OW19138   1.737   0.837   5.903  1.0513 -0.7684 -0.6773
 2559SOL    HW119139   1.765   0.751   5.932  2.8975  0.3555  0.8610
 2559SOL    HW219140   1.733   0.876   5.990 -0.2792 -0.4554 -0.8812
 2560SOL     OW19141   0.353   4.285  10.307 -0.0008  0.4187  0.6238
 2560SOL    HW119142   0.333   4.365  10.257 -1.8674 -1.3825 -1.5363
 2560SOL    HW219143   0.282   4.300  10.370  0.0765 -0.8587  1.0152
 2561SOL     OW19144   4.625   1.412   9.006 -0.0352 -0.0170 -0.0714
 2561SOL    HW119145   4.576   1.383   8.928  3.8938  0.2706 -2.6281
 2561SOL    HW219146   4.687   1.467   8.957  2.0465 -1.1334  1.3419
 2562SOL     OW19147   3.962   3.022   9.087 -0.2710  0.0737 -0.3980
 2562SOL    HW119148   3.968   3.107   9.043 -1.8750 -0.2432 -1.2478
 2562SOL    HW219149   3.868   3.004   9.078 -0.0368 -1.1662 -0.2772
 2563SOL     OW19150   4.044   2.727  10.238  0.2756  0.4604  0.2489
 2563SOL    HW119151   4.040   2.814  10.198 -4.9960 -1.2230 -2.8334
 2563SOL    HW219152   4.093   2.738  10.319  0.8621  0.3776 -0.0965
 2564SOL     OW19153   0.431   3.439  11.061 -0.3962 -0.1705  0.0942
 2564SOL    HW119154   0.441   3.520  11.111 -0.9211 -0.2298  0.3042
 2564SOL    HW219155   0.500   3.447  10.995 -1.5254 -2.1290 -1.3373
 2565SOL     OW19156   2.026   0.967  11.030 -0.0942  0.1625  0.3463
 2565SOL    HW119157   1.980   0.952  10.947  0.1475 -1.1773  0.4475
 2565SOL    HW219158   2.071   0.883  11.041  0.3716  0.7455  2.8098
 2566SOL     OW19159   4.431   3.169   2.965  0.4930 -0.1825 -0.5018
 2566SOL    HW119160   4.362   3.204   2.909 -1.1041  0.3434  1.7776
 2566SOL    HW219161   4.375   3.139   3.037  2.4255 -1.3915  0.5069
 2567SOL     OW19162   3.210   2.108   3.510 -0.4921 -0.6238 -0.4448
 2567SOL    HW119163   3.122   2.121   3.475 -1.0832  1.1625  1.7617
 2567SOL    HW219164   3.262   2.178   3.470 -0.6939  1.0009  2.1780
 2568SOL     OW19165   2.315   1.053   0.901 -0.0293  0.5040 -0.1723
 2568SOL    HW119166   2.357   0.967   0.901 -0.1297  0.4600 -1.2850
 2568SOL    HW219167   2.319   1.079   0.993  0.9634 -0.0270 -0.0578
 2569SOL     OW19168   1.051   2.385  10.141  0.4196  0.1735  0.4599
 2569SOL    HW119169   1.013   2.345  10.063  1.2791 -1.8390  1.0558
 2569SOL    HW219170   1.035   2.309  10.197  0.2518  0.7540  1.1974
 2570SOL     OW19171   1.971   3.761   6.936  0.2150 -0.3248  0.0795
 2570SOL    HW119172   1.956   3.780   6.844  2.1043 -3.2767 -0.8301
 2570SOL    HW219173   2.001   3.846   6.969  0.0530 -0.0644 -0.4505
 2571SOL     OW19174   2.050   4.664   3.404  0.0202  0.2929  0.7454
 2571SOL    HW119175   1.999   4.726   3.456  1.7046  0.9745  1.5928
 2571SOL    HW219176   2.024   4.580   3.441 -0.7579  0.0071 -0.4404
 2572SOL     OW19177   2.780   3.070   3.930 -0.3555  0.0087 -0.3071
 2572SOL    HW119178   2.717   3.040   3.865  0.9901  2.1225 -2.5928
 2572SOL    HW219179   2.734   3.153   3.938 -0.8636 -0.1751 -1.3104
 2573SOL     OW19180   3.577   1.007   5.805  0.3991 -0.0686  0.0228
 2573SOL    HW119181   3.509   0.997   5.872 -1.0930  0.7378 -1.3821
 2573SOL    HW219182   3.602   0.914   5.802  0.0465 -0.2720  3.1945
 2574SOL     OW19183   0.306   1.142   3.930 -0.3377 -0.2419 -0.3455
 2574SOL    HW119184   0.352   1.090   3.997 -0.8342 -2.4565 -1.7347
 2574SOL    HW219185   0.290   1.073   3.867 -0.3956 -0.3698 -0.1908
 2575SOL     OW19186   4.671   0.269   9.419  0.0290  0.2764  0.2252
 2575SOL    HW119187   4.596   0.321   9.449 -0.3387 -0.0844 -0.0755
 2575SOL    HW219188   4.698   0.240   9.506 -1.1207 -1.2794  0.0557
 2576SOL     OW19189   2.029   0.883   3.007  0.5799  0.1450 -0.2485
 2576SOL    HW119190   1.967   0.952   2.981 -1.1269 -1.3984 -0.2847
 2576SOL    HW219191   1.967   0.817   3.037  3.2898 -1.5891  1.4849
 2577SOL     OW19192   1.965   3.517   3.195 -0.5504  0.9809  0.1179
 2577SOL    HW119193   1.918   3.435   3.213 -3.0043  2.4551  0.4705
 2577SOL    HW219194   2.047   3.469   3.185 -1.3213 -0.8055  2.4244
 2578SOL     OW19195   2.241   3.546   5.995 -0.2906 -0.3774 -0.1225
 2578SOL    HW119196   2.229   3.640   6.001  0.9508 -0.3027  1.3746
 2578SOL    HW219197   2.293   3.524   5.918 -0.0882  1.3308 -0.4662
 2579SOL     OW19198   0.640   4.042   4.072  0.2741  0.3130 -0.2013
 2579SOL    HW119199   0.639   3.964   4.016 -1.2463 -0.4392  0.8680
 2579SOL    HW219200   0.667   4.006   4.156  1.5764  0.3849 -0.5856
 2580SOL     OW19201   3.841   4.235  14.132 -0.5787 -0.2407  0.4663
 2580SOL    HW119202   3.803   4.187  14.206 -3.7557  4.1732  1.6830
 2580SOL    HW219203   3.923   4.260  14.175 -0.6530 -0.8340  0.9537
 2581SOL     OW19204   1.004   3.871   1.746 -0.2852  0.2707  0.2441
 2581SOL    HW119205   0.909   3.879   1.750 -0.3811  0.6381 -3.0667
 2581SOL    HW219206   1.001   3.776   1.738 -0.3319  0.2032  1.0579
 2582SOL     OW19207   3.122   0.109   2.420 -0.2223  0.4531 -0.3147
 2582SOL    HW119208   3.081   0.195   2.407 -0.1386  0.0790 -3.1166
 2582SOL    HW219209   3.071   0.085   2.497  1.8802  3.1610  1.9507
 2583SOL     OW19210   1.146   1.563  12.475  0.1500 -0.1739  0.3067
 2583SOL    HW119211   1.138   1.468  12.474 -0.0018 -0.1633  1.1167
 2583SOL    HW219212   1.214   1.566  12.408  0.2732  1.2607  0.4929
 2584SOL     OW19213   2.576   1.697   7.452  0.9914 -0.4765  0.0591
 2584SOL    HW119214   2.658   1.674   7.408  0.2502 -0.2553 -1.4468
 2584SOL    HW219215   2.578   1.787   7.484  0.6671 -0.0092 -1.2302
 2585SOL     OW19216   2.326   3.688   3.070  0.6893  0.1320  0.3045
 2585SOL    HW119217   2.309   3.775   3.104  0.8624 -0.4634  1.9325
 2585SOL    HW219218   2.356   3.638   3.146 -0.4991 -1.3946 -0.2376
 2586SOL     OW19219   0.241   4.139   3.550  0.2085  0.2650  0.5375
 2586SOL    HW119220   0.155   4.149   3.591  0.1635  1.6529  0.0942
 2586SOL    HW219221   0.254   4.224   3.510 -0.5876  1.2021  2.2727
 2587SOL     OW19222   1.302   2.435   0.770 -0.1892 -0.5515  0.1133
 2587SOL    HW119223   1.285   2.367   0.835  0.4413  1.4754  2.3640
 2587SOL    HW219224   1.221   2.437   0.719 -0.5212 -1.2532  0.6180
 2588SOL     OW19225   3.694   1.384   3.971  0.2882 -0.0054 -0.4601
 2588SOL    HW119226   3.736   1.418   3.891  1.8839 -1.5652 -0.2887
 2588SOL    HW219227   3.653   1.307   3.933  1.0053 -0.8063  0.3714
 2589SOL     OW19228   4.269   3.025   8.199 -0.3823 -0.0906 -0.0281
 2589SOL    HW119229   4.323   3.104   8.187 -1.2421  0.2282 -1.7084
 2589SOL    HW219230   4.189   3.066   8.231 -0.5606 -1.0261  0.7331
 2590SOL     OW19231   2.359   2.666  10.763  0.0203 -0.3782  0.6563
 2590SOL    HW119232   2.293   2.598  10.753 -0.2233 -0.3304  1.9480
 2590SOL    HW219233   2.436   2.609  10.765  1.3461  1.3403 -1.8660
 2591SOL     OW19234   3.195   1.674   2.297  0.4003  0.2106  0.7716
 2591SOL    HW119235   3.162   1.695   2.384  1.1826  0.4298  1.0155
 2591SOL    HW219236   3.229   1.763   2.285 -2.2288  1.2197  0.6672
 2592SOL     OW19237   1.794   1.723   2.641  0.5408  0.0826 -0.3632
 2592SOL    HW119238   1.854   1.661   2.598  0.8148 -0.4920  0.8469
 2592SOL    HW219239   1.816   1.704   2.732 -1.0924  1.8258  0.3957
 2593SOL     OW19240   4.261   4.605   7.376 -0.4920  0.4583 -0.0576
 2593SOL    HW119241   4.215   4.688   7.386 -1.4474 -0.2409  1.2465
 2593SOL    HW219242   4.346   4.626   7.415 -0.8977 -1.4058  1.8274
 2594SOL     OW19243   4.142   2.086  14.487  0.2940  0.1954 -0.3925
 2594SOL    HW119244   4.235   2.076  14.469  0.9264  3.4868  1.0705
 2594SOL    HW219245   4.097   2.044  14.414 -1.3105  0.2411  0.5528
 2595SOL     OW19246   3.896   1.595  11.528 -0.2126 -0.2530 -0.0236
 2595SOL    HW119247   3.936   1.512  11.551  0.1376  0.0414  0.4412
 2595SOL    HW219248   3.957   1.635  11.465 -0.2644 -0.6702 -0.3358
 2596SOL     OW19249   2.535   1.743  14.713 -0.2601 -0.0380 -0.2960
 2596SOL    HW119250   2.508   1.796  14.788 -1.4214 -0.1471 -0.6296
 2596SOL    HW219251   2.474   1.775  14.646 -0.5552 -0.3694 -0.1865
 2597SOL     OW19252   2.654   0.085  14.201  0.0500  0.2675  0.5279
 2597SOL    HW119253   2.647   0.036  14.119  1.1537  1.0711 -0.0582
 2597SOL    HW219254   2.680   0.016  14.262  0.7343 -0.5287 -0.6658
 2598SOL     OW19255   3.646   2.373   6.266 -0.0210 -0.5662 -0.0328
 2598SOL    HW119256   3.739   2.357   6.282  0.1815  0.6734  0.0233
 2598SOL    HW219257   3.628   2.434   6.337  0.6952  0.0105 -0.3517
 2599SOL     OW19258   0.486   4.052   1.484 -0.8860  0.5790  0.3171
 2599SOL    HW119259   0.494   4.140   1.520  1.4051  0.5064 -0.0580
 2599SOL    HW219260   0.397   4.036   1.517 -0.6382 -1.4378  0.0409
 2600SOL     OW19261   2.552   3.771   7.532 -0.1186  0.0431 -0.1288
 2600SOL    HW119262   2.561   3.866   7.539 -2.1867  0.1135  1.7585
 2600SOL    HW219263   2.621   3.745   7.593 -0.6246  1.9244  1.2543
 2601SOL     OW19264   2.599   3.716  12.854  0.3535 -0.1243  0.6559
 2601SOL    HW119265   2.610   3.800  12.898  0.5780 -0.2375  0.8208
 2601SOL    HW219266   2.524   3.682  12.902  1.2355 -1.5357  1.0515
 2602SOL     OW19267   0.818   2.565   2.738 -0.1684  0.2309  0.0372
 2602SOL    HW119268   0.815   2.657   2.762  0.6926 -0.0941  1.4036
 2602SOL    HW219269   0.833   2.563   2.643 -0.4602  0.7634 -0.0158
 2603SOL     OW19270   1.738   3.414   4.280 -0.0685 -0.3364 -0.0948
 2603SOL    HW119271   1.707   3.419   4.370 -1.4265 -1.1338 -0.5156
 2603SOL    HW219272   1.753   3.506   4.256 -2.4172  0.5912  1.9823
 2604SOL     OW19273   2.747   1.627   6.823 -0.5478 -0.4263  0.3425
 2604SOL    HW119274   2.810   1.697   6.804  1.7060 -2.1019  1.5168
 2604SOL    HW219275   2.787   1.579   6.896 -1.4405 -0.0018  1.1000
 2605SOL     OW19276   4.322   0.861   7.307 -0.3913  0.1621 -0.0711
 2605SOL    HW119277   4.270   0.941   7.313  0.0522  0.4767 -0.5079
 2605SOL    HW219278   4.407   0.887   7.341 -0.7878  3.4029 -1.5705
 2606SOL     OW19279   4.699   4.131   6.789 -0.7124 -0.1675  0.2676
 2606SOL    HW119280   4.705   4.209   6.844  2.6279 -1.0545  1.2263
 2606SOL    HW219281   4.667   4.174   6.711 -1.4150 -0.8172  0.1946
 2607SOL     OW19282   0.912   0.102   9.353  0.0077  0.1170 -0.3990
 2607SOL    HW119283   1.004   0.083   9.338 -0.6732 -3.5529  0.0432
 2607SOL    HW219284   0.909   0.197   9.369 -0.5428 -0.0160  0.3054
 2608SOL     OW19285   2.944   2.463   7.837  0.3928 -0.1227 -0.5001
 2608SOL    HW119286   3.015   2.509   7.883  1.2610 -1.7016 -0.2566
 2608SOL    HW219287   2.917   2.536   7.781 -2.8810 -0.9027  0.1104
 2609SOL     OW19288   1.557   2.793  13.211 -0.0749  0.2082  0.0376
 2609SOL    HW119289   1.547   2.701  13.238  1.1738 -0.0171 -0.2899
 2609SOL    HW219290   1.614   2.778  13.136 -0.5431  2.0923 -0.7056
 2610SOL     OW19291   3.787   3.915   7.034  0.4631  0.1703 -0.9646
 2610SOL    HW119292   3.874   3.882   7.013  0.2685 -0.4553 -0.7871
 2610SOL    HW219293   3.764   3.882   7.121 -0.7201  0.5047 -1.1484
 2611SOL     OW19294   1.716   0.921  13.398 -0.3673  0.8977 -0.4505
 2611SOL    HW119295   1.657   0.884  13.332 -2.1108  1.7840  0.6218
 2611SOL    HW219296   1.795   0.925  13.345  0.8685  0.8162  1.3846
 2612SOL     OW19297   3.939   1.634   3.395 -0.0181 -0.1380 -0.2821
 2612SOL    HW119298   3.993   1.556   3.383  1.3591  0.8546 -0.4673
 2612SOL    HW219299   3.960   1.685   3.317  0.9571  1.6850  1.1834
 2613SOL     OW19300   1.183   0.630   3.369  0.1050  0.3584  0.5867
 2613SOL    HW119301   1.183   0.613   3.463  1.0747 -0.7325  0.3950
 2613SOL    HW219302   1.221   0.550   3.331 -1.9080 -1.2215  1.8638
 2614SOL     OW19303   3.260   3.957  17.564  0.3374  0.4145  0.3330
 2614SOL    HW119304   3.260   3.980  17.471 -0.0836  0.8773  0.4489
 2614SOL    HW219305   3.347   3.987  17.588  1.1371 -1.7652  0.1366
 2615SOL     OW19306   0.286   2.158   2.270  0.6341 -0.1576 -0.0688
 2615SOL    HW119307   0.213   2.220   2.275  0.7314  0.1605 -2.5777
 2615SOL    HW219308   0.260   2.090   2.333  0.7261  0.3985  0.5739
 2616SOL     OW19309   2.873   1.824   0.174  0.0223 -0.2583 -0.1679
 2616SOL    HW119310   2.794   1.877   0.187  0.6795  0.0310  2.6799
 2616SOL    HW219311   2.853   1.794   0.085  1.3675  2.1343 -1.2910
 2617SOL     OW19312   3.274   0.502  12.405  0.1727  0.3135  0.0064
 2617SOL    HW119313   3.327   0.522  12.483 -0.2924 -1.5040  0.8068
 2617SOL    HW219314   3.349   0.483  12.349  1.0972 -1.0444  1.6967
 2618SOL     OW19315   3.181   0.505  17.249 -0.0566 -0.6330 -0.1202
 2618SOL    HW119316   3.087   0.524  17.241  0.9916  3.8416 -1.8369
 2618SOL    HW219317   3.180   0.410  17.258  0.9114 -0.6036  0.2205
 2619SOL     OW19318   2.009   0.747   5.321  0.5823 -0.0111 -0.5730
 2619SOL    HW119319   2.055   0.663   5.328  0.8937  0.2123  0.0118
 2619SOL    HW219320   1.922   0.711   5.304  0.1250  0.0336  1.7582
 2620SOL     OW19321   4.157   0.938   7.673 -0.2476 -0.1614 -0.0559
 2620SOL    HW119322   4.111   0.951   7.756  0.1228  0.0041  0.1232
 2620SOL    HW219323   4.200   1.023   7.682 -2.3818  0.8851  0.3334
 2621SOL     OW19324   4.368   1.805   2.841  0.7151  0.4285 -0.0219
 2621SOL    HW119325   4.326   1.872   2.895 -1.4419 -0.7102 -0.2973
 2621SOL    HW219326   4.298   1.783   2.780  2.5159  1.3652 -2.4465
 2622SOL     OW19327   0.739   3.335   4.661 -0.5346  0.1033  0.2291
 2622SOL    HW119328   0.796   3.272   4.618 -0.2692  0.7781 -0.4065
 2622SOL    HW219329   0.668   3.271   4.667  0.6263 -1.3048 -1.2419
 2623SOL     OW19330   0.297   1.729  12.737  0.0697  0.4979  0.2219
 2623SOL    HW119331   0.374   1.773  12.772  0.4300 -1.3367  1.6876
 2623SOL    HW219332   0.273   1.670  12.808  2.6476 -1.5108 -0.6074
 2624SOL     OW19333   4.326   4.410  15.318  0.6325  0.0150 -0.7416
 2624SOL    HW119334   4.358   4.338  15.263  1.3611 -1.4347  1.5578
 2624SOL    HW219335   4.237   4.425  15.285  0.1997 -1.6790 -0.3452
 2625SOL     OW19336   0.920   0.774   0.253  0.2837 -0.2720 -0.1118
 2625SOL    HW119337   0.936   0.819   0.170  2.6893 -0.8599  0.0229
 2625SOL    HW219338   0.972   0.695   0.238 -1.9232 -1.7944  0.3178
 2626SOL     OW19339   1.753   2.855  15.098  0.0092 -0.1672  0.3756
 2626SOL    HW119340   1.792   2.778  15.057 -0.5175 -0.8985  1.2269
 2626SOL    HW219341   1.700   2.877  15.022 -0.6239  2.9869  1.7476
 2627SOL     OW19342   4.591   0.671   2.489  0.3175 -0.2674 -0.0607
 2627SOL    HW119343   4.573   0.586   2.528  1.3890 -0.6799 -0.4645
 2627SOL    HW219344   4.523   0.719   2.537  1.1401 -0.0366  0.8738
 2628SOL     OW19345   2.999   2.804   3.213  0.3671 -0.0315 -0.2051
 2628SOL    HW119346   3.047   2.734   3.258 -0.6207 -0.2695  0.4864
 2628SOL    HW219347   3.020   2.885   3.258  1.0390  0.3840 -1.2483
 2629SOL     OW19348   1.784   0.635   0.715 -0.5610 -0.2845  0.7394
 2629SOL    HW119349   1.792   0.644   0.620 -0.4900 -2.3034  0.5565
 2629SOL    HW219350   1.691   0.658   0.720 -0.2656  1.0680  0.2687
 2630SOL     OW19351   4.338   3.372   5.778  0.1763  0.3093  0.0197
 2630SOL    HW119352   4.340   3.377   5.682 -2.4150  0.0860 -0.0606
 2630SOL    HW219353   4.419   3.416   5.804  1.0615 -1.3356  0.0794
 2631SOL     OW19354   0.909   1.288   7.648  0.2788  0.2625  0.5808
 2631SOL    HW119355   0.816   1.303   7.631  0.3808  0.6628  0.3848
 2631SOL    HW219356   0.957   1.335   7.580 -0.8140  1.1372  0.4131
 2632SOL     OW19357   3.451   3.522  15.046 -0.1667 -0.4644 -0.0778
 2632SOL    HW119358   3.428   3.572  14.969  1.3573 -0.4789 -0.5489
 2632SOL    HW219359   3.376   3.528  15.105  0.2341  0.2592  0.3689
 2633SOL     OW19360   1.741   3.393   7.722 -0.5605  0.2855  0.5152
 2633SOL    HW119361   1.682   3.343   7.778 -1.6648  1.9396  0.8125
 2633SOL    HW219362   1.825   3.349   7.739 -0.4094  0.4554  0.2071
 2634SOL     OW19363   3.024   1.501  14.346  0.2782 -0.3950  0.2018
 2634SOL    HW119364   2.930   1.481  14.354  0.4768 -1.7863 -1.0716
 2634SOL    HW219365   3.037   1.587  14.387  1.7049  0.4674 -2.0767
 2635SOL     OW19366   1.360   1.986   8.161 -0.6397 -0.1744 -0.0963
 2635SOL    HW119367   1.419   2.061   8.163 -2.0317  0.8714  1.7461
 2635SOL    HW219368   1.294   2.012   8.225 -0.2989  0.6327 -0.0797
 2636SOL     OW19369   2.492   0.219   7.000 -0.1269  0.2330  0.1793
 2636SOL    HW119370   2.523   0.188   7.084  0.0796  1.1404  0.4432
 2636SOL    HW219371   2.499   0.139   6.948 -0.9198 -1.4925  2.7677
 2637SOL     OW19372   1.219   2.906   4.624  0.7433  0.2262 -0.3843
 2637SOL    HW119373   1.259   2.979   4.576  0.3875  0.1471 -0.8071
 2637SOL    HW219374   1.187   2.842   4.561 -1.8727  3.1967 -2.0929
 2638SOL     OW19375   3.329   2.052   4.103  0.0573 -0.2493 -0.3372
 2638SOL    HW119376   3.241   2.041   4.137  0.9295 -0.0413  1.9831
 2638SOL    HW219377   3.348   1.966   4.067  1.4122 -0.2485  0.3831
 2639SOL     OW19378   1.385   3.727  11.191 -0.1648  0.6814 -0.6648
 2639SOL    HW119379   1.352   3.667  11.124 -0.5682  0.7393 -0.5222
 2639SOL    HW219380   1.309   3.739  11.248  0.2522 -0.5711  0.1508
 2640SOL     OW19381   1.415   1.311  10.224 -0.2452  0.4312 -0.4998
 2640SOL    HW119382   1.491   1.327  10.280 -0.2820  0.6586 -0.5132
 2640SOL    HW219383   1.345   1.343  10.281 -0.7224 -0.7884 -0.4136
 2641SOL     OW19384   3.627   4.086   0.848 -0.2704 -0.0769 -0.7616
 2641SOL    HW119385   3.723   4.080   0.850 -0.2712  0.4292  0.6512
 2641SOL    HW219386   3.587   4.009   0.806 -1.2887 -0.0528  0.1887
 2642SOL     OW19387   2.281   0.898   8.349  0.5616  0.2019  0.2700
 2642SOL    HW119388   2.311   0.829   8.409 -1.8948 -0.5926  0.5787
 2642SOL    HW219389   2.187   0.886   8.363  0.1128  0.4870 -2.6898
 2643SOL     OW19390   0.069   2.257   7.621  0.0040  0.2019 -0.4900
 2643SOL    HW119391   0.041   2.327   7.680 -0.2211  0.9726 -1.5051
 2643SOL    HW219392   0.091   2.192   7.687  0.5703 -1.7370 -2.5798
 2644SOL     OW19393   0.212   2.158   5.734  0.0237 -0.0145  0.0810
 2644SOL    HW119394   0.184   2.138   5.824  1.7286  2.6396  1.2228
 2644SOL    HW219395   0.172   2.085   5.688  1.9921 -0.2047 -1.3225
 2645SOL     OW19396   1.143   3.925  15.966  0.3677 -0.4391 -0.0553
 2645SOL    HW119397   1.238   3.924  15.950  0.3807  0.8265 -0.0840
 2645SOL    HW219398   1.136   4.015  15.999  0.8471 -0.6236  0.5515
 2646SOL     OW19399   4.572   3.075   7.494 -0.6136  0.1497  0.0822
 2646SOL    HW119400   4.667   3.079   7.492 -0.6904  1.5021 -0.6299
 2646SOL    HW219401   4.554   3.168   7.483 -2.0894 -0.3668 -1.9046
 2647SOL     OW19402   1.340   4.402   2.179  0.0409  0.6056  0.1254
 2647SOL    HW119403   1.283   4.381   2.253 -1.9412 -0.6388 -1.7573
 2647SOL    HW219404   1.415   4.347   2.201 -0.2614  0.4977  0.8738
 2648SOL     OW19405   2.635   0.455   1.147 -0.0434 -0.1078 -0.3370
 2648SOL    HW119406   2.670   0.408   1.072  0.8187  1.0952 -0.6981
 2648SOL    HW219407   2.711   0.508   1.173  0.3077  0.2227 -2.0438
 2649SOL     OW19408   1.752   2.578   4.646  0.1368  0.0668  0.4687
 2649SOL    HW119409   1.841   2.560   4.617 -0.8685 -1.7767 -1.4595
 2649SOL    HW219410   1.778   2.631   4.722 -0.4872  0.6030  0.3110
 2650SOL     OW19411   4.163   2.269   6.933 -0.2167 -0.4092 -0.1180
 2650SOL    HW119412   4.176   2.183   6.893  2.3550 -0.0309 -0.0786
 2650SOL    HW219413   4.132   2.261   7.024 -1.7173 -1.0798 -0.6886
 2651SOL     OW19414   3.809   3.217   5.875  0.0072 -0.3666  0.2532
 2651SOL    HW119415   3.757   3.138   5.894  0.2821  0.4262  4.1768
 2651SOL    HW219416   3.898   3.182   5.874  0.0318 -0.2790 -0.3053
 2652SOL     OW19417   0.473   2.663   6.512  0.1975 -0.4261  0.1833
 2652SOL    HW119418   0.521   2.693   6.589 -0.6751 -0.5491  0.7836
 2652SOL    HW219419   0.541   2.622   6.459 -0.8895 -0.3370 -1.2885
 2653SOL     OW19420   1.302   3.121   4.466 -0.6461  0.6544 -0.2222
 2653SOL    HW119421   1.340   3.142   4.381  1.4874 -0.7517  0.3863
 2653SOL    HW219422   1.336   3.192   4.520  0.5303  0.1018 -0.2269
 2654SOL     OW19423   2.174   3.020   0.876  0.3320  0.1131 -0.0563
 2654SOL    HW119424   2.103   2.956   0.882  1.7961 -1.4215  1.0092
 2654SOL    HW219425   2.138   3.079   0.942  2.0745  0.0631  0.9484
 2655SOL     OW19426   3.208   3.271   8.357 -0.3177  0.5539 -0.5129
 2655SOL    HW119427   3.203   3.361   8.390 -2.8551  0.3423 -0.2911
 2655SOL    HW219428   3.213   3.217   8.436 -0.0140 -0.1432 -1.0131
 2656SOL     OW19429   4.668   3.774   6.337  0.2573 -0.3450 -0.3420
 2656SOL    HW119430   4.587   3.786   6.386  0.9590  1.1686  0.4550
 2656SOL    HW219431   0.003   3.812   6.399 -0.2467  0.4540 -0.3256
 2657SOL     OW19432   1.526   4.646   8.247  0.1732  0.7378  0.5920
 2657SOL    HW119433   1.507   4.555   8.272  2.1894 -1.1268 -4.5630
 2657SOL    HW219434   1.441   4.683   8.270  0.8476  2.2005  0.7258
 2658SOL     OW19435   3.473   4.678  16.818  0.5185  0.8908  0.4668
 2658SOL    HW119436   3.558   4.712  16.789  1.1350 -0.7381  0.3488
 2658SOL    HW219437   3.407   4.724  16.767 -0.9578  0.7687  2.2704
 2659SOL     OW19438   3.870   1.909  17.647  1.2662  0.0668 -0.3554
 2659SOL    HW119439   3.822   1.967  17.706 -0.4264 -1.6844 -0.0178
 2659SOL    HW219440   3.929   1.861  17.705  0.4126 -3.0160 -2.0995
 2660SOL     OW19441   3.916   0.411   2.702  0.0979  0.2135 -0.2344
 2660SOL    HW119442   3.959   0.352   2.640  1.0235  0.7975 -0.1488
 2660SOL    HW219443   3.895   0.354   2.775  0.0679  1.3096  0.6115
 2661SOL     OW19444   1.737   1.674   0.978 -0.4300  0.2540 -0.2180
 2661SOL    HW119445   1.819   1.721   0.959 -0.7227  0.5334 -0.7768
 2661SOL    HW219446   1.736   1.680   1.074 -1.9766  0.3434 -0.2374
 2662SOL     OW19447   4.454   2.097  15.962  0.1670 -0.0628  0.3166
 2662SOL    HW119448   4.383   2.125  16.020  0.1804  0.2261  0.1919
 2662SOL    HW219449   4.508   2.048  16.025 -1.2533 -1.3020  0.5794
 2663SOL     OW19450   1.968   2.832   5.737  0.1559  0.8449  0.7237
 2663SOL    HW119451   1.990   2.865   5.825 -0.8769  0.8696  0.9738
 2663SOL    HW219452   1.935   2.909   5.691 -0.8265  1.0552  1.7663
 2664SOL     OW19453   0.230   0.150   8.213 -0.0835  0.0128  0.2673
 2664SOL    HW119454   0.273   0.072   8.248 -0.8850 -0.5891 -0.0819
 2664SOL    HW219455   0.285   0.160   8.135 -0.8210 -0.1516 -0.2742
 2665SOL     OW19456   1.714   0.150  10.423  0.3196 -0.1168  0.4254
 2665SOL    HW119457   1.703   0.055  10.434  1.8326 -0.4001 -0.4631
 2665SOL    HW219458   1.750   0.151  10.334  3.6529  1.4197  1.7999
 2666SOL     OW19459   3.721   3.579   7.077 -0.4332 -0.1777  0.0788
 2666SOL    HW119460   3.776   3.567   7.000  0.2780 -1.3168  0.7572
 2666SOL    HW219461   3.757   3.506   7.127 -1.4125 -0.1702  0.7869
 2667SOL     OW19462   3.442   3.439  16.864 -0.1619 -0.3984  0.2148
 2667SOL    HW119463   3.350   3.465  16.863 -0.2228 -0.6177 -0.0666
 2667SOL    HW219464   3.430   3.348  16.836 -0.5558  0.0123 -0.9299
 2668SOL     OW19465   4.023   4.020   0.243 -0.4180 -0.0445  0.3647
 2668SOL    HW119466   3.937   3.981   0.226 -0.5315  0.0530  0.7104
 2668SOL    HW219467   4.042   4.072   0.166 -1.6305  3.4110  2.3768
 2669SOL     OW19468   3.275   1.904   4.580 -0.0839  0.5605  0.1652
 2669SOL    HW119469   3.257   1.825   4.528 -0.5444  0.5483  0.3420
 2669SOL    HW219470   3.219   1.966   4.533  0.2717  2.5332  2.3779
 2670SOL     OW19471   1.980   4.257  10.474 -0.7797  0.1596  0.2676
 2670SOL    HW119472   2.040   4.194  10.514  0.8971  1.5194 -0.1177
 2670SOL    HW219473   1.917   4.198  10.431 -1.6745 -0.8424  2.9426
 2671SOL     OW19474   0.053   0.938   8.960  0.3954 -0.0555 -0.2189
 2671SOL    HW119475   0.026   0.984   8.880  0.1619 -1.6534 -1.0504
 2671SOL    HW219476   0.046   1.004   9.029 -4.8081 -0.3359 -0.4736
 2672SOL     OW19477   4.073   2.741   7.567  0.9498 -0.1678 -0.1675
 2672SOL    HW119478   4.150   2.714   7.617  1.1241 -0.7222 -0.7413
 2672SOL    HW219479   4.006   2.702   7.622 -0.3198 -1.4431 -2.6146
 2673SOL     OW19480   4.182   0.554   2.533 -0.3835  0.1949 -0.0405
 2673SOL    HW119481   4.233   0.625   2.494  2.0547 -1.8641 -0.5998
 2673SOL    HW219482   4.141   0.608   2.600  1.4551  1.4228  0.0952
 2674SOL     OW19483   0.144   1.810   2.739  0.0820 -0.3295 -0.3882
 2674SOL    HW119484   0.053   1.788   2.758 -0.4631  1.8662 -0.4937
 2674SOL    HW219485   0.175   1.734   2.688  2.2208  0.2479  0.0638
 2675SOL     OW19486   1.405   3.593  13.792 -0.4673  0.0162  0.3758
 2675SOL    HW119487   1.405   3.563  13.702  1.8147 -1.0995  0.7447
 2675SOL    HW219488   1.326   3.647  13.795 -0.9724 -0.7353  0.8973
 2676SOL     OW19489   0.050   1.100   0.078  0.0671 -0.1044  0.5349
 2676SOL    HW119490   4.719   1.027   0.101 -1.1112  0.2437 -1.3170
 2676SOL    HW219491   4.716   1.174   0.085 -0.2477 -0.1072 -2.0269
 2677SOL     OW19492   2.216   0.478   0.598  0.7099  0.8074 -0.3516
 2677SOL    HW119493   2.244   0.388   0.617 -0.5646  0.5568  0.3699
 2677SOL    HW219494   2.218   0.477   0.502  0.3354 -0.3204 -0.3496
 2678SOL     OW19495   0.384   1.531   0.073  0.6831  0.4930  0.4517
 2678SOL    HW119496   0.342   1.580   0.144  1.3999  0.9355  0.5802
 2678SOL    HW219497   0.302   1.483   0.062 -0.1018  1.8690  0.3428
 2679SOL     OW19498   1.285   2.792   9.544 -0.4144 -0.0569  0.6265
 2679SOL    HW119499   1.305   2.804   9.451  0.0931 -0.4813  0.6829
 2679SOL    HW219500   1.190   2.801   9.532 -0.3673  0.0372  0.3107
 2680SOL     OW19501   1.139   3.660   7.885 -0.0213  0.1154 -0.5171
 2680SOL    HW119502   1.069   3.635   7.945 -1.1959  1.9974 -1.1110
 2680SOL    HW219503   1.095   3.719   7.823 -0.7025 -0.7922 -0.9090
 2681SOL     OW19504   1.164   2.464   6.790  0.0779 -0.3252 -0.3759
 2681SOL    HW119505   1.232   2.433   6.850  1.2020 -0.1929 -1.5687
 2681SOL    HW219506   1.207   2.543   6.755  3.1964 -1.6870  0.3809
 2682SOL     OW19507   1.625   2.989   5.746  0.6226 -0.3959  0.8453
 2682SOL    HW119508   1.712   3.028   5.740  0.0659  0.4664 -1.8139
 2682SOL    HW219509   1.597   2.972   5.656  0.7736 -1.8309  1.0696
 2683SOL     OW19510   3.111   3.736   5.908  0.3367  0.2140  0.2531
 2683SOL    HW119511   3.158   3.812   5.944 -1.1532  1.0256  0.4982
 2683SOL    HW219512   3.179   3.694   5.856 -0.3021 -0.0570 -0.3590
 2684SOL     OW19513   3.614   4.445   7.109 -0.1513  0.9154 -0.3060
 2684SOL    HW119514   3.560   4.524   7.105 -1.9683 -0.3206 -0.0049
 2684SOL    HW219515   3.562   4.383   7.058  1.5018  0.8529 -1.9150
 2685SOL     OW19516   2.577   3.896  13.891  0.2748 -0.3151 -0.5253
 2685SOL    HW119517   2.551   3.877  13.801 -1.2116  0.7539 -0.3159
 2685SOL    HW219518   2.621   3.812  13.905 -0.3049 -0.2958  1.4186
 2686SOL     OW19519   0.486   3.161   3.409 -0.3285  0.6218 -0.7334
 2686SOL    HW119520   0.525   3.213   3.338  0.1384 -1.0988 -1.7323
 2686SOL    HW219521   0.544   3.193   3.478 -0.1219  1.3252 -1.2376
 2687SOL     OW19522   4.560   0.353   0.592  0.1877  0.3546  0.5128
 2687SOL    HW119523   4.643   0.385   0.558  0.7450 -1.7318 -0.1235
 2687SOL    HW219524   4.498   0.384   0.525 -0.7042 -1.2328  0.6004
 2688SOL     OW19525   2.979   4.537   3.614  0.5484  0.3083  0.0212
 2688SOL    HW119526   2.990   4.489   3.697 -0.2132 -0.4591 -0.3203
 2688SOL    HW219527   2.893   4.506   3.585  0.4944  0.2278  0.2664
 2689SOL     OW19528   3.865   2.309   7.598 -0.0812 -0.4284  0.0258
 2689SOL    HW119529   3.850   2.340   7.687  0.5879  0.4775 -0.1762
 2689SOL    HW219530   3.775   2.317   7.564 -0.5578  0.8438  1.5771
 2690SOL     OW19531   2.892   3.446  12.562 -0.8585  0.2707 -0.2326
 2690SOL    HW119532   2.854   3.478  12.644 -0.5685  1.2931 -0.5068
 2690SOL    HW219533   2.953   3.382  12.600  0.5617  0.7615 -1.7185
 2691SOL     OW19534   1.582   3.726   4.611 -0.4888 -0.3414 -0.5979
 2691SOL    HW119535   1.520   3.735   4.539 -3.6805 -2.4544  1.9494
 2691SOL    HW219536   1.537   3.779   4.676 -1.5715  0.2791 -1.8529
 2692SOL     OW19537   1.095   2.327   1.208 -0.2810  0.0756  0.2600
 2692SOL    HW119538   1.148   2.269   1.262 -0.5075 -0.8440 -0.4951
 2692SOL    HW219539   1.027   2.366   1.263 -1.6740  0.6071 -1.8189
 2693SOL     OW19540   4.031   1.646   1.491 -0.6491 -0.3338 -0.2950
 2693SOL    HW119541   4.009   1.643   1.584 -1.4106 -2.1225 -0.5285
 2693SOL    HW219542   4.126   1.655   1.494 -0.6152  0.1616 -3.0274
 2694SOL     OW19543   1.125   2.561  11.385 -0.3832  0.3602 -0.0443
 2694SOL    HW119544   1.060   2.626  11.356  0.1761  0.6483 -0.6437
 2694SOL    HW219545   1.101   2.485  11.332  1.7417  0.6260 -1.3702
 2695SOL     OW19546   2.705   2.339  10.672 -0.4406  0.3528  0.0047
 2695SOL    HW119547   2.656   2.322  10.592 -1.4806  1.0458  0.5027
 2695SOL    HW219548   2.674   2.259  10.716 -1.2664  0.4131 -0.4567
 2696SOL     OW19549   3.919   4.162   5.369  0.1469 -0.1043  0.4410
 2696SOL    HW119550   3.882   4.107   5.438  0.8487 -1.4419 -0.2622
 2696SOL    HW219551   4.000   4.195   5.409  1.7062 -0.5131 -2.4048
 2697SOL     OW19552   0.273   1.286  11.959  0.2687 -0.3859 -0.3033
 2697SOL    HW119553   0.334   1.302  12.031 -0.1413  0.0869 -0.0624
 2697SOL    HW219554   0.258   1.372  11.919 -1.7597 -1.6604 -2.3182
 2698SOL     OW19555   0.404   3.971   4.821 -0.2352  0.2769 -0.0069
 2698SOL    HW119556   0.397   3.948   4.729 -1.9034 -3.3881  1.0392
 2698SOL    HW219557   0.327   4.027   4.822  1.2866  2.3701 -1.4448
 2699SOL     OW19558   1.558   0.260   6.810  0.4421 -0.0750 -0.4810
 2699SOL    HW119559   1.507   0.282   6.731  0.9217  1.0881 -0.4650
 2699SOL    HW219560   1.637   0.224   6.771 -0.4666 -1.7136 -0.8322
 2700SOL     OW19561   3.173   3.725   4.020 -0.2233  0.1502 -0.2096
 2700SOL    HW119562   3.088   3.702   3.983  0.4046 -0.5621 -1.2096
 2700SOL    HW219563   3.214   3.639   4.024  0.1476  0.3246 -0.2809
 2701SOL     OW19564   2.721   1.665   3.304  0.5095  0.2648 -0.3164
 2701SOL    HW119565   2.751   1.597   3.364  1.3339  0.2900 -0.7068
 2701SOL    HW219566   2.635   1.686   3.341  0.4800 -1.3507  0.5205
 2702SOL     OW19567   3.563   3.588  11.625 -0.1479  0.0155  0.2148
 2702SOL    HW119568   3.615   3.586  11.705  0.4848  1.1047 -0.1593
 2702SOL    HW219569   3.616   3.641  11.565  1.3553  0.1753  1.6989
 2703SOL     OW19570   2.097   4.606   5.802 -0.0805  0.6963  0.2174
 2703SOL    HW119571   2.070   4.519   5.830 -0.8170  0.4608 -1.2238
 2703SOL    HW219572   2.135   4.604   5.714  4.3772 -1.0415  2.1512
 2704SOL     OW19573   0.481   2.487  14.631 -1.0018 -0.3715 -0.1653
 2704SOL    HW119574   0.493   2.504  14.725 -1.5888  0.4946 -0.2438
 2704SOL    HW219575   0.400   2.533  14.611 -1.0587 -0.2484  0.3465
 2705SOL     OW19576   2.858   1.372   8.375 -0.1452 -0.3199  0.4432
 2705SOL    HW119577   2.785   1.377   8.436  0.6326  2.8467  1.0901
 2705SOL    HW219578   2.852   1.457   8.331  0.8005 -0.8217 -0.6493
 2706SOL     OW19579   2.879   1.667   8.534  0.3528 -0.4398 -0.0292
 2706SOL    HW119580   2.865   1.760   8.550  1.6649 -0.5235  1.5911
 2706SOL    HW219581   2.862   1.641   8.625 -0.0983  2.2655  0.6559
 2707SOL     OW19582   3.233   1.909  15.796 -0.4740  0.1143  0.1528
 2707SOL    HW119583   3.184   1.890  15.875 -0.1217  1.0312  0.5880
 2707SOL    HW219584   3.261   1.824  15.761 -0.2779  0.3821 -0.3460
 2708SOL     OW19585   2.600   2.008  14.062 -0.4800  0.3638 -0.2336
 2708SOL    HW119586   2.531   2.065  14.096  1.0967  1.7039  0.6763
 2708SOL    HW219587   2.666   2.076  14.049 -0.6177  0.8397  1.5577
 2709SOL     OW19588   2.126   2.878   1.938 -0.6062  0.2592  0.1594
 2709SOL    HW119589   2.117   2.835   1.853 -2.3445  0.2996  0.3327
 2709SOL    HW219590   2.039   2.863   1.973  0.1946 -0.6409  1.7371
 2710SOL     OW19591   4.006   1.202   6.762 -0.0374  0.4490 -0.0642
 2710SOL    HW119592   3.932   1.262   6.775 -1.6401 -1.5418  0.1070
 2710SOL    HW219593   4.076   1.263   6.740  0.7168 -0.2052  0.5523
 2711SOL     OW19594   2.152   3.646   4.041  0.1226  0.0717  0.0533
 2711SOL    HW119595   2.119   3.732   4.069 -1.3927 -0.0174 -1.5094
 2711SOL    HW219596   2.094   3.581   4.080 -2.4143  2.6524  0.5404
 2712SOL     OW19597   3.152   4.209  13.856 -0.4294  0.0434  0.1233
 2712SOL    HW119598   3.244   4.184  13.844 -0.1316  1.0193  0.3934
 2712SOL    HW219599   3.110   4.131  13.818 -1.8294  0.7429  0.2547
 2713SOL     OW19600   2.207   1.404  13.677  0.0574  0.4441 -0.2009
 2713SOL    HW119601   2.237   1.474  13.619  0.0391 -0.0131 -0.7705
 2713SOL    HW219602   2.216   1.444  13.763  1.7871  1.2850 -0.7755
 2714SOL     OW19603   0.033   4.618  10.572 -0.1757 -0.1438  0.0192
 2714SOL    HW119604   0.078   4.577  10.497 -0.6474  1.1853 -0.9971
 2714SOL    HW219605   4.683   4.658  10.531  0.7429  1.6909  0.0799
 2715SOL     OW19606   2.945   4.532   1.198 -0.3379 -0.0878  0.4982
 2715SOL    HW119607   2.852   4.544   1.217 -1.0501 -0.6282 -2.5048
 2715SOL    HW219608   2.964   4.470   1.269 -1.1332  1.5633  2.1414
 2716SOL     OW19609   2.169   4.280   1.549  0.0270 -0.2485  0.0589
 2716SOL    HW119610   2.169   4.214   1.619  1.5520 -0.2318  0.0637
 2716SOL    HW219611   2.086   4.265   1.504  0.5905 -1.5232 -0.5544
 2717SOL     OW19612   1.485   0.860   7.512  0.5239 -0.0568  0.1660
 2717SOL    HW119613   1.479   0.890   7.603  0.0518 -2.0855  0.8091
 2717SOL    HW219614   1.550   0.790   7.511 -0.7879 -1.2562 -1.0195
 2718SOL     OW19615   2.809   0.260   2.684 -0.1929 -0.3864  0.0331
 2718SOL    HW119616   2.726   0.213   2.699  1.5098 -2.7826  2.0451
 2718SOL    HW219617   2.869   0.189   2.708  0.5190  0.1414 -0.1981
 2719SOL     OW19618   1.906   0.509   5.500  0.6537  0.6860 -0.0297
 2719SOL    HW119619   1.940   0.572   5.563 -1.0886  1.5138  0.0814
 2719SOL    HW219620   1.987   0.460   5.485 -0.9542 -1.4417 -1.7966
 2720SOL     OW19621   3.034   1.045   4.339 -0.7515  0.8417  0.2287
 2720SOL    HW119622   3.104   1.100   4.372  0.2308 -0.4391  0.2971
 2720SOL    HW219623   3.022   0.981   4.409 -1.9096  1.1895  0.3481
 2721SOL     OW19624   0.312   4.155   2.781 -0.2616 -1.0297  0.8902
 2721SOL    HW119625   0.241   4.113   2.829 -4.1050  2.4398 -1.7260
 2721SOL    HW219626   0.377   4.153   2.852 -0.7085  0.1128  1.3351
 2722SOL     OW19627   0.394   3.128   1.236 -0.1630 -0.0419 -0.2208
 2722SOL    HW119628   0.466   3.135   1.299  1.0784  1.3186 -1.7665
 2722SOL    HW219629   0.321   3.088   1.282 -1.0849  0.6038 -1.1058
 2723SOL     OW19630   4.402   1.812  10.416 -0.2901  0.0014  0.0805
 2723SOL    HW119631   4.488   1.816  10.373 -0.7637 -0.5175 -0.9345
 2723SOL    HW219632   4.383   1.904  10.431 -1.4823 -0.3830  0.9134
 2724SOL     OW19633   3.225   0.430   2.882  0.3291 -0.3644  0.0675
 2724SOL    HW119634   3.270   0.412   2.800 -0.8028  1.8830 -1.0414
 2724SOL    HW219635   3.173   0.505   2.854 -1.1739 -1.1659  0.7365
 2725SOL     OW19636   1.316   3.010   2.163  0.9723 -0.0383 -0.3746
 2725SOL    HW119637   1.233   3.049   2.137  1.2540  0.1158 -1.0640
 2725SOL    HW219638   1.288   2.918   2.157 -0.2920  0.4256 -1.5665
 2726SOL     OW19639   4.597   0.009   6.492  0.4317  0.0910  0.1357
 2726SOL    HW119640   4.579   0.054   6.410  1.5852 -1.3401 -0.9023
 2726SOL    HW219641   4.563   4.647   6.482  0.5613  0.2196 -1.4276
 2727SOL     OW19642   3.806   3.317   8.050  0.4636 -0.2590 -0.0267
 2727SOL    HW119643   3.728   3.294   8.100  0.0170 -0.2898 -0.7401
 2727SOL    HW219644   3.822   3.406   8.083  1.0967 -0.1993 -0.4838
 2728SOL     OW19645   1.528   0.292   8.737  0.0505  0.4540  0.4442
 2728SOL    HW119646   1.533   0.311   8.830  1.0153 -1.2012  0.7256
 2728SOL    HW219647   1.618   0.272   8.711 -0.5573 -2.3477  0.4817
 2729SOL     OW19648   4.524   0.697   0.794 -0.9900  0.0612 -0.2533
 2729SOL    HW119649   4.455   0.665   0.737  0.0419 -0.4348 -1.2158
 2729SOL    HW219650   4.479   0.771   0.836  0.1723  0.7492 -0.2217
 2730SOL     OW19651   2.498   1.875   1.286 -0.9195 -0.1454  0.2554
 2730SOL    HW119652   2.420   1.916   1.325  0.8844  1.7933  1.8196
 2730SOL    HW219653   2.499   1.918   1.200 -1.0820 -0.3612  0.1452
 2731SOL     OW19654   3.061   1.540   3.867 -0.2941  0.2727  0.2779
 2731SOL    HW119655   3.155   1.552   3.881 -0.2651 -1.3062  1.4991
 2731SOL    HW219656   3.039   1.624   3.827  1.6340  1.8562  2.5052
 2732SOL     OW19657   4.161   4.354   7.474 -0.2116  0.3516 -0.1398
 2732SOL    HW119658   4.095   4.340   7.406  1.0533 -0.2153 -1.2570
 2732SOL    HW219659   4.185   4.441   7.442  1.3529 -0.6323 -1.6613
 2733SOL     OW19660   0.890   2.883   6.767 -0.3793  0.0026  0.0682
 2733SOL    HW119661   0.869   2.852   6.679  0.6955 -0.9596  0.1462
 2733SOL    HW219662   0.827   2.835   6.820 -0.9930  0.6189 -0.1060
 2734SOL     OW19663   1.453   1.196   6.496 -0.1128  0.0503  0.3949
 2734SOL    HW119664   1.468   1.184   6.402 -3.0995  1.5062 -0.2645
 2734SOL    HW219665   1.374   1.144   6.507  0.2810 -0.5997  0.1552
 2735SOL     OW19666   0.236   3.500   8.189 -0.5823  0.1231 -0.6005
 2735SOL    HW119667   0.266   3.570   8.131 -0.3739  1.4038  1.0545
 2735SOL    HW219668   0.184   3.555   8.248  0.2307  0.6715 -0.4011
 2736SOL     OW19669   3.191   4.113  11.913  0.2242 -0.9357  0.2807
 2736SOL    HW119670   3.166   4.173  11.983 -2.9177 -2.5966  0.5828
 2736SOL    HW219671   3.201   4.025  11.951  2.3882 -0.0396  1.7516
 2737SOL     OW19672   4.534   3.572   2.098 -0.4291 -0.2216  0.2943
 2737SOL    HW119673   4.623   3.566   2.132 -0.6683 -0.1092  0.9394
 2737SOL    HW219674   4.524   3.498   2.038  0.9974  0.7125 -1.0849
 2738SOL     OW19675   4.381   1.806   3.556 -0.0916 -0.5183 -0.4802
 2738SOL    HW119676   4.414   1.723   3.522  0.2573 -0.2719 -0.7409
 2738SOL    HW219677   4.409   1.868   3.488  1.1211  0.8271  1.2663
 2739SOL     OW19678   4.538   0.078   8.930 -0.0963 -0.3057 -0.4490
 2739SOL    HW119679   4.614   0.029   8.899 -1.6452 -2.5882 -0.7112
 2739SOL    HW219680   4.590   0.132   8.989 -0.7630  0.3914 -0.5023
 2740SOL     OW19681   0.743   2.730   6.946 -0.0383  0.1551 -0.0144
 2740SOL    HW119682   0.787   2.645   6.951 -1.1078 -0.3238  1.2503
 2740SOL    HW219683   0.650   2.712   6.933 -0.2001 -0.5913  2.2259
 2741SOL     OW19684   2.314   1.415  16.195 -0.7888 -0.2643  0.3540
 2741SOL    HW119685   2.402   1.389  16.223 -0.9491 -0.5005  0.6313
 2741SOL    HW219686   2.324   1.489  16.134  0.0604 -1.6037 -1.1146
 2742SOL     OW19687   1.857   1.402   4.814  0.4265  0.2250  0.4165
 2742SOL    HW119688   1.859   1.420   4.720  1.1378 -3.0321 -0.1878
 2742SOL    HW219689   1.867   1.308   4.830 -0.9791 -0.1199 -0.6914
 2743SOL     OW19690   2.005   4.603   0.781  0.5274 -0.1563 -0.4736
 2743SOL    HW119691   1.964   4.646   0.706 -0.9157 -1.5162 -0.4613
 2743SOL    HW219692   2.066   4.544   0.735  1.2790  0.0995  0.1855
 2744SOL     OW19693   0.780   3.749  10.364  0.3134 -0.1226 -0.3221
 2744SOL    HW119694   0.762   3.787  10.278  0.7892 -0.7480 -0.6949
 2744SOL    HW219695   0.754   3.658  10.354 -0.6880  0.1488 -0.2202
 2745SOL     OW19696   1.308   1.732   3.424  0.0535 -0.0520 -0.2423
 2745SOL    HW119697   1.238   1.681   3.383 -0.8411 -0.7639  2.1724
 2745SOL    HW219698   1.358   1.658   3.459 -0.8820 -0.4524  0.2333
 2746SOL     OW19699   4.406   3.203   3.326 -0.6749  0.1528 -0.3611
 2746SOL    HW119700   4.402   3.245   3.412  2.1362  2.0544 -1.1674
 2746SOL    HW219701   4.314   3.218   3.302 -0.8252  1.6896  1.1671
 2747SOL     OW19702   2.821   1.405  17.201 -0.1630 -0.4747  0.6430
 2747SOL    HW119703   2.873   1.484  17.192 -0.1438 -0.4241  1.2485
 2747SOL    HW219704   2.807   1.395  17.295  0.0012 -2.6328  0.4329
 2748SOL     OW19705   3.408   0.191   1.772 -0.3852  0.0949  0.0379
 2748SOL    HW119706   3.480   0.129   1.757  0.5220  1.4727 -1.3227
 2748SOL    HW219707   3.450   0.276   1.760 -1.1725  0.7157  1.7134
 2749SOL     OW19708   4.588   3.479   5.077  0.1168 -0.0571 -0.2720
 2749SOL    HW119709   4.614   3.397   5.036 -3.0172 -0.8852 -0.6479
 2749SOL    HW219710   4.669   3.529   5.081  0.5079 -0.5226 -2.9221
 2750SOL     OW19711   4.000   3.135   4.135 -0.2168  0.1875 -0.2433
 2750SOL    HW119712   3.962   3.051   4.109  0.9592 -0.1997 -0.7273
 2750SOL    HW219713   3.939   3.149   4.208 -0.3412 -0.0806 -0.2945
 2751SOL     OW19714   3.440   0.281  12.658  0.3609  0.1073 -0.1464
 2751SOL    HW119715   3.415   0.227  12.583  1.1691 -1.6156  0.8097
 2751SOL    HW219716   3.420   0.370  12.630 -3.0884  0.0323  1.9688
 2752SOL     OW19717   3.830   3.048   8.788  0.0026  0.1873  0.2520
 2752SOL    HW119718   3.793   3.041   8.699  0.9283 -0.6160 -0.0707
 2752SOL    HW219719   3.750   3.041   8.840 -0.5175  1.6884 -0.3444
 2753SOL     OW19720   0.459   4.174   7.035  0.0507  0.3918  0.2344
 2753SOL    HW119721   0.367   4.155   7.057  0.2523 -2.1353 -1.0643
 2753SOL    HW219722   0.477   4.141   6.947  0.0435 -0.3083  0.4973
 2754SOL     OW19723   1.738   4.029   4.683 -0.2205  0.5486  0.6089
 2754SOL    HW119724   1.823   4.062   4.711  0.6264 -0.7648 -0.4203
 2754SOL    HW219725   1.770   3.946   4.648  2.0774  1.2217  1.1329
 2755SOL     OW19726   0.032   3.969   5.181  0.8531 -0.6300  0.4678
 2755SOL    HW119727   0.001   3.962   5.272  0.3904 -0.4016  0.3258
 2755SOL    HW219728   4.699   3.911   5.134  1.8981 -2.1032  0.9750
 2756SOL     OW19729   4.364   4.316   3.935  0.2271 -0.0305  0.0106
 2756SOL    HW119730   4.455   4.340   3.952 -0.1273 -0.8802  3.1903
 2756SOL    HW219731   4.327   4.403   3.921  1.9905  0.5701 -0.8754
 2757SOL     OW19732   2.681   3.746   6.052  0.0103  0.0911 -0.1166
 2757SOL    HW119733   2.623   3.775   6.122  1.1390 -1.3459  1.3926
 2757SOL    HW219734   2.665   3.813   5.985 -0.6191  2.2610  2.2187
 2758SOL     OW19735   1.985   1.499   4.249  0.6774 -0.1716  0.1917
 2758SOL    HW119736   2.020   1.449   4.175  1.1119  1.1526 -0.4906
 2758SOL    HW219737   1.983   1.428   4.314 -2.4338 -0.3024 -0.0625
 2759SOL     OW19738   4.175   1.750   8.137  0.0660 -0.2455 -0.3234
 2759SOL    HW119739   4.183   1.774   8.230 -1.7266 -1.5939  0.1742
 2759SOL    HW219740   4.080   1.755   8.126 -0.0219  2.7515  1.5761
 2760SOL     OW19741   0.162   3.565   5.722 -0.5192 -0.1988 -0.3214
 2760SOL    HW119742   0.254   3.591   5.708 -0.3958  0.2211  1.2598
 2760SOL    HW219743   0.162   3.594   5.813 -0.4718 -0.0247 -0.3767
 2761SOL     OW19744   0.282   1.427   3.234  0.5053  0.0532  0.1328
 2761SOL    HW119745   0.191   1.440   3.262  0.7155  1.7121  0.0270
 2761SOL    HW219746   0.270   1.353   3.174 -0.0440  1.0054 -0.9320
 2762SOL     OW19747   2.275   0.063  15.328 -0.3998  0.4580 -0.3243
 2762SOL    HW119748   2.272   0.036  15.236 -1.0650 -0.0779 -0.1440
 2762SOL    HW219749   2.268   0.159  15.326 -0.8039  0.4304 -0.1435
 2763SOL     OW19750   1.357   4.046   4.543 -0.2558  0.0046 -0.3913
 2763SOL    HW119751   1.321   4.059   4.631  0.2251  0.8628 -0.3263
 2763SOL    HW219752   1.342   4.133   4.507 -1.7887  0.3027  0.9209
 2764SOL     OW19753   0.551   4.455   3.241  0.2187  0.1414  0.0801
 2764SOL    HW119754   0.643   4.443   3.217 -0.0575 -2.9061  0.6307
 2764SOL    HW219755   0.516   4.476   3.154  2.6911  0.8302 -0.7658
 2765SOL     OW19756   1.483   1.654   6.458  0.0246 -0.1424 -0.1034
 2765SOL    HW119757   1.389   1.667   6.445 -0.4029 -0.7484  2.2619
 2765SOL    HW219758   1.488   1.559   6.444  0.6102 -0.2769  0.9778
 2766SOL     OW19759   1.017   2.159  10.270 -0.3640  0.1329  0.6856
 2766SOL    HW119760   0.972   2.076  10.254  1.5129 -0.5786 -0.9309
 2766SOL    HW219761   1.091   2.129  10.322  1.0354 -0.9111 -1.9062
 2767SOL     OW19762   1.982   4.115   5.914  0.0117 -0.4701 -0.0585
 2767SOL    HW119763   2.006   4.022   5.911 -1.6339 -0.9926  2.6949
 2767SOL    HW219764   1.992   4.137   6.007 -0.5201 -0.1843 -0.0731
 2768SOL     OW19765   1.808   0.180   5.925  0.2066  0.0408 -0.1334
 2768SOL    HW119766   1.718   0.170   5.896  1.2395 -3.7472 -2.0079
 2768SOL    HW219767   1.848   0.231   5.855  0.1069 -1.6241 -1.3864
 2769SOL     OW19768   0.597   3.351   3.810  0.1890 -1.0238 -0.0742
 2769SOL    HW119769   0.683   3.321   3.840  0.4464 -0.8059 -0.5998
 2769SOL    HW219770   0.586   3.431   3.861 -0.9837 -0.5614 -1.0364
 2770SOL     OW19771   3.860   1.699  16.176 -0.6369 -0.6711 -0.4836
 2770SOL    HW119772   3.859   1.750  16.095 -1.2017  1.3165  0.7571
 2770SOL    HW219773   3.927   1.634  16.160 -1.0201 -1.5305  1.3823
 2771SOL     OW19774   0.950   3.191  15.110  0.7394  0.2855 -0.4468
 2771SOL    HW119775   0.892   3.119  15.083  2.7409 -1.2687 -0.6171
 2771SOL    HW219776   1.024   3.168  15.053  0.7690  1.0886 -0.7278
 2772SOL     OW19777   4.274   0.835   3.265  0.4766 -0.2566 -0.0862
 2772SOL    HW119778   4.261   0.787   3.182 -0.9737  0.0928 -0.0604
 2772SOL    HW219779   4.185   0.834   3.300 -0.0824 -1.6025 -1.4989
 2773SOL     OW19780   3.946   3.174   4.577 -0.3441  0.0556 -0.3457
 2773SOL    HW119781   4.029   3.222   4.574  0.4545 -1.2502  1.0278
 2773SOL    HW219782   3.892   3.239   4.533 -0.4287 -1.1479 -2.0083
 2774SOL     OW19783   3.659   0.893  12.019  0.6087  0.4298 -0.1229
 2774SOL    HW119784   3.606   0.849  11.952  0.8886  0.8864 -0.6434
 2774SOL    HW219785   3.596   0.921  12.085 -1.2111 -1.7959 -0.9125
 2775SOL     OW19786   3.721   4.095   6.568  0.1370  0.3641  0.4459
 2775SOL    HW119787   3.681   4.066   6.486 -2.1242  1.4345  1.1893
 2775SOL    HW219788   3.684   4.032   6.630 -2.3644 -0.1356 -1.5983
 2776SOL     OW19789   3.088   4.696   9.136 -0.4045 -0.2478 -0.2268
 2776SOL    HW119790   3.113   0.013   9.054  1.1596 -0.8717 -0.0770
 2776SOL    HW219791   2.993   4.699   9.121 -0.8266 -0.2217  2.5634
 2777SOL     OW19792   2.626   0.250   1.907 -0.3523  0.5809 -0.3969
 2777SOL    HW119793   2.704   0.295   1.876  0.5628 -0.8513 -0.1305
 2777SOL    HW219794   2.662   0.162   1.910 -0.7569  0.4352  0.1102
 2778SOL     OW19795   4.278   1.679  15.933  0.3212  0.2293  0.4898
 2778SOL    HW119796   4.369   1.672  15.962  1.2443  2.5550 -1.8948
 2778SOL    HW219797   4.274   1.769  15.903  1.8777  0.2408  0.3450
 2779SOL     OW19798   3.084   2.802  16.826  0.7637 -0.5987 -0.1773
 2779SOL    HW119799   3.029   2.749  16.769 -0.5463 -0.3174  0.8248
 2779SOL    HW219800   3.050   2.889  16.805  1.6358 -0.1342  0.3303
 2780SOL     OW19801   3.574   2.502  16.214 -0.1454 -0.1940  0.1052
 2780SOL    HW119802   3.555   2.560  16.140 -0.3125  0.3207  0.5524
 2780SOL    HW219803   3.620   2.560  16.275  1.0306 -0.4867 -0.4823
 2781SOL     OW19804   3.494   0.451  11.990  0.0668  0.3362 -0.3692
 2781SOL    HW119805   3.535   0.438  12.076 -1.3906 -0.3291  0.2197
 2781SOL    HW219806   3.408   0.417  12.016  0.2182 -0.9180 -1.5083
 2782SOL     OW19807   0.798   0.803   9.546 -0.3326  0.6778 -0.3831
 2782SOL    HW119808   0.806   0.842   9.459  1.0405 -0.0184 -0.5834
 2782SOL    HW219809   0.847   0.860   9.606 -1.0040  1.7029 -0.8184
 2783SOL     OW19810   0.919   1.223   4.677 -0.2779 -0.3329  0.0950
 2783SOL    HW119811   0.983   1.222   4.606  0.4411  1.0609  0.7320
 2783SOL    HW219812   0.955   1.156   4.735  1.9030 -2.1965 -3.4605
 2784SOL     OW19813   0.780   1.034   9.341 -0.0122 -0.1798 -0.0188
 2784SOL    HW119814   0.747   1.113   9.298  1.0917 -0.0651 -0.6546
 2784SOL    HW219815   0.808   0.993   9.259 -1.0684  0.9552 -0.9489
 2785SOL     OW19816   4.292   2.711   9.612 -0.0626  0.0365 -0.2942
 2785SOL    HW119817   4.301   2.768   9.536 -0.0498 -1.6284 -1.5570
 2785SOL    HW219818   4.242   2.771   9.668 -2.3124 -2.2172  0.1409
 2786SOL     OW19819   4.344   2.350   2.895 -0.0193  0.9742 -0.0219
 2786SOL    HW119820   4.340   2.308   2.981 -1.3459  0.3437 -0.3948
 2786SOL    HW219821   4.437   2.335   2.883 -0.1385  1.0944 -1.1564
 2787SOL     OW19822   3.097   0.503  17.635  0.1265  0.5893 -0.4475
 2787SOL    HW119823   3.043   0.555  17.576  0.1242 -0.2158 -1.1622
 2787SOL    HW219824   3.178   0.554  17.640 -0.0318  0.5358  2.5945
 2788SOL     OW19825   2.534   2.147   5.289 -0.2613 -0.4487 -0.0488
 2788SOL    HW119826   2.535   2.159   5.384  3.0043 -1.4806  0.0422
 2788SOL    HW219827   2.625   2.140   5.259 -0.0232  0.3315  0.4880
 2789SOL     OW19828   3.967   4.137  12.484 -0.3338  0.0568  0.5878
 2789SOL    HW119829   4.007   4.217  12.448 -1.5036  0.4908  0.2350
 2789SOL    HW219830   4.028   4.100  12.548  0.4130  0.4918  0.1273
 2790SOL     OW19831   4.188   0.993  11.809  0.4756  0.3494  0.2444
 2790SOL    HW119832   4.223   1.071  11.852 -0.7339  0.3688  1.1807
 2790SOL    HW219833   4.225   0.923  11.862 -0.6785 -0.5898 -0.1936
 2791SOL     OW19834   2.058   2.325  16.261  0.0584  0.1008 -0.8102
 2791SOL    HW119835   2.132   2.379  16.287  0.2126 -0.8648  0.7477
 2791SOL    HW219836   2.061   2.257  16.328 -3.2706  0.0986 -0.6256
 2792SOL     OW19837   1.111   0.561   5.202 -0.2185  0.2295 -0.1472
 2792SOL    HW119838   1.070   0.529   5.282  0.4283 -2.4422 -0.8999
 2792SOL    HW219839   1.037   0.547   5.142 -2.6972  2.9409  2.2487
 2793SOL     OW19840   3.826   3.626   9.723 -0.5933  0.1311  0.0065
 2793SOL    HW119841   3.817   3.577   9.805  1.1751  1.1633  0.8182
 2793SOL    HW219842   3.914   3.616   9.686 -0.5500 -0.6624  0.3294
 2794SOL     OW19843   0.095   3.999   4.772 -0.1465 -0.5237 -0.0044
 2794SOL    HW119844   0.095   3.909   4.741 -0.5262 -0.4404 -0.2448
 2794SOL    HW219845   0.004   4.008   4.800 -0.0442 -2.6620  1.0374
 2795SOL     OW19846   0.464   2.998   3.094 -0.0529  0.2317 -0.4065
 2795SOL    HW119847   0.476   3.072   3.036 -1.9378 -0.6377 -1.9123
 2795SOL    HW219848   0.370   2.976   3.088  0.0289 -0.4369  0.5954
 2796SOL     OW19849   3.983   1.081   6.477 -0.9592 -0.2096  0.5498
 2796SOL    HW119850   3.988   1.099   6.571 -0.1302  0.4756  0.3667
 2796SOL    HW219851   4.005   1.161   6.430  1.6453 -1.0060  0.4381
 2797SOL     OW19852   2.946   0.787   6.138  0.0910  0.2882 -0.0191
 2797SOL    HW119853   2.955   0.883   6.135 -1.4238  0.4316  0.4217
 2797SOL    HW219854   3.007   0.758   6.070 -0.6920 -0.0344 -0.5692
 2798SOL     OW19855   3.186   2.611   2.749  0.0716 -0.3305  0.1538
 2798SOL    HW119856   3.175   2.559   2.670  0.5230 -1.0922  0.5872
 2798SOL    HW219857   3.219   2.541   2.805  1.1196 -0.5135 -0.7141
 2799SOL     OW19858   4.349   3.056   8.478  0.1043  0.3528 -0.1218
 2799SOL    HW119859   4.331   3.018   8.392 -2.0831 -2.4364  1.5567
 2799SOL    HW219860   4.288   3.009   8.536 -1.1145  1.5269 -0.4448
 2800SOL     OW19861   1.734   3.897   2.234  0.0834  0.0091 -0.9396
 2800SOL    HW119862   1.674   3.823   2.248 -1.4644  1.5758  0.7057
 2800SOL    HW219863   1.685   3.951   2.172  0.5748  1.9654  0.3855
 2801SOL     OW19864   1.595   3.044  11.018 -0.5182 -0.2391 -0.4287
 2801SOL    HW119865   1.622   2.953  11.006  0.0526  0.0697 -1.4771
 2801SOL    HW219866   1.671   3.090  10.983 -1.9151 -0.2284 -3.4120
 2802SOL     OW19867   1.498   3.840   0.871  0.2019 -0.1265 -0.0648
 2802SOL    HW119868   1.556   3.764   0.881 -0.8164 -0.8023  0.6942
 2802SOL    HW219869   1.539   3.872   0.790  0.9952  1.1359  0.8446
 2803SOL     OW19870   2.105   1.471  16.777  0.0551  0.5289  0.4132
 2803SOL    HW119871   2.020   1.515  16.779 -1.8784 -3.1439  0.2475
 2803SOL    HW219872   2.171   1.539  16.763 -0.9646  1.6744  1.1741
 2804SOL     OW19873   2.985   2.294   2.598 -0.8159  0.3190 -0.2551
 2804SOL    HW119874   2.986   2.339   2.683  0.3482  2.9680 -1.6672
 2804SOL    HW219875   2.892   2.301   2.579 -0.4612  0.3779 -1.9396
 2805SOL     OW19876   0.754   4.152   5.096 -0.8750  0.7672 -0.0754
 2805SOL    HW119877   0.731   4.244   5.097 -0.5276  0.8686 -1.6286
 2805SOL    HW219878   0.788   4.152   5.186  1.2261  0.7399 -0.8690
 2806SOL     OW19879   2.736   0.678  12.732 -0.0491 -0.4566  0.2580
 2806SOL    HW119880   2.737   0.674  12.828  0.6432 -0.6239  0.2420
 2806SOL    HW219881   2.665   0.741  12.721 -1.1406 -1.5779  0.8920
 2807SOL     OW19882   1.321   3.773   1.856  0.1542  0.2789 -0.6478
 2807SOL    HW119883   1.287   3.849   1.808  1.4668  1.3562  0.1287
 2807SOL    HW219884   1.350   3.721   1.780  1.2610  0.2651 -0.2173
 2808SOL     OW19885   4.550   2.643   9.197  0.4897  0.8806  0.2817
 2808SOL    HW119886   4.618   2.592   9.241  1.0556  1.3811 -0.0085
 2808SOL    HW219887   4.559   2.612   9.106  1.9665  1.0206  0.3719
 2809SOL     OW19888   2.460   0.549   7.473 -0.0480 -0.0891 -0.1752
 2809SOL    HW119889   2.371   0.580   7.491  1.2290  1.4176  3.6368
 2809SOL    HW219890   2.495   0.625   7.427  3.0359  0.0211  2.3705
 2810SOL     OW19891   3.958   4.210   6.689  0.1119 -0.1044 -0.1390
 2810SOL    HW119892   4.005   4.136   6.729 -1.1888 -1.5092 -1.1752
 2810SOL    HW219893   3.888   4.156   6.653 -0.6134  0.9523 -0.2884
 2811SOL     OW19894   2.397   3.182  13.858  0.4846  0.2353 -0.1836
 2811SOL    HW119895   2.396   3.135  13.775  2.5586 -0.1450  0.0192
 2811SOL    HW219896   2.302   3.184  13.874  0.5185 -1.4181  0.2215
 2812SOL     OW19897   0.142   0.250   7.730  0.0479  0.5433  0.0408
 2812SOL    HW119898   0.231   0.287   7.733 -0.1508  0.9405  1.0998
 2812SOL    HW219899   0.093   0.327   7.758  1.3700  0.9499  1.2895
 2813SOL     OW19900   2.712   2.460   2.389 -0.3525 -0.7179  0.8556
 2813SOL    HW119901   2.700   2.441   2.296  1.8487  1.2975  0.1590
 2813SOL    HW219902   2.773   2.533   2.380 -2.5437  1.2483  1.9820
 2814SOL     OW19903   0.059   1.706   8.644 -0.2356  0.3710 -0.3893
 2814SOL    HW119904   0.074   1.800   8.643  0.3023  0.3050  2.3127
 2814SOL    HW219905   0.106   1.682   8.564 -1.1773  1.1014 -1.1522
 2815SOL     OW19906   2.541   0.524  16.183  0.1108  0.3098 -0.0555
 2815SOL    HW119907   2.578   0.463  16.119 -1.8364 -0.8675 -0.0502
 2815SOL    HW219908   2.447   0.509  16.173  0.5245 -0.4722 -2.5664
 2816SOL     OW19909   1.903   0.986   2.561  0.2085  0.2289  0.0755
 2816SOL    HW119910   1.948   0.923   2.618  0.1552 -0.6580 -0.8528
 2816SOL    HW219911   1.832   0.930   2.529 -0.5215  2.1181 -1.5672
 2817SOL     OW19912   1.330   2.880  12.359  0.2029  0.4174 -0.1455
 2817SOL    HW119913   1.318   2.886  12.265  0.2205 -0.6617 -0.2155
 2817SOL    HW219914   1.311   2.965  12.400  1.8538  1.0692 -0.7326
 2818SOL     OW19915   2.279   1.248   8.450 -0.1630  0.1375  0.2025
 2818SOL    HW119916   2.191   1.215   8.468 -0.7791  1.8365  0.2148
 2818SOL    HW219917   2.280   1.263   8.356  2.0469 -0.9842  0.0244
 2819SOL     OW19918   1.830   3.522  10.951  0.1935 -0.2650  0.2202
 2819SOL    HW119919   1.754   3.527  10.894 -0.1918  0.3114  0.7824
 2819SOL    HW219920   1.793   3.488  11.033  0.9385  1.7322  1.3864
 2820SOL     OW19921   3.415   3.056   7.674 -0.1284  0.4578  0.0310
 2820SOL    HW119922   3.372   3.125   7.724  0.9162  0.1525  1.3355
 2820SOL    HW219923   3.337   3.020   7.632  0.7518 -3.8812  2.1164
 2821SOL     OW19924   4.630   3.304  11.086 -0.1135  0.4119 -0.0233
 2821SOL    HW119925   4.689   3.240  11.046 -1.2977  0.1807 -1.4124
 2821SOL    HW219926   4.546   3.260  11.071  0.4744 -1.5442  2.4989
 2822SOL     OW19927   1.504   4.237   3.077  0.2735  0.0417  0.2405
 2822SOL    HW119928   1.535   4.207   3.163 -2.6124  1.8986  1.9123
 2822SOL    HW219929   1.546   4.323   3.074  0.0263  0.1369 -0.5608
 2823SOL     OW19930   0.949   0.618   7.722 -0.5113  0.1009 -0.0524
 2823SOL    HW119931   0.971   0.562   7.796  1.3145  0.5950 -0.2255
 2823SOL    HW219932   0.882   0.677   7.757  0.5872  0.6476  1.1338
 2824SOL     OW19933   0.988   4.055   3.540  0.2740  0.2057 -0.1744
 2824SOL    HW119934   1.082   4.076   3.540  0.3666 -0.2037  0.1513
 2824SOL    HW219935   0.993   3.962   3.520  0.1658 -0.4610  2.9098
 2825SOL     OW19936   2.516   1.006   1.263  0.0353 -0.2851 -0.4745
 2825SOL    HW119937   2.515   0.976   1.172 -1.1904  0.3885 -0.6907
 2825SOL    HW219938   2.451   0.948   1.303 -0.2426 -0.2123 -0.8205
 2826SOL     OW19939   0.317   4.239   1.826  0.5780 -0.2941  0.6284
 2826SOL    HW119940   0.310   4.287   1.908  1.3433 -0.2003  0.6433
 2826SOL    HW219941   0.312   4.147   1.851  0.8809 -0.5631 -0.3181
 2827SOL     OW19942   4.414   1.870   7.000 -0.2486  0.3678  1.0401
 2827SOL    HW119943   4.459   1.815   6.936 -1.6391  1.6878 -1.0355
 2827SOL    HW219944   4.350   1.812   7.041 -0.8396 -0.4218 -0.9941
 2828SOL     OW19945   1.518   3.398   3.258  0.0062  0.4973  0.5341
 2828SOL    HW119946   1.474   3.470   3.214 -0.4312 -0.9649 -1.4450
 2828SOL    HW219947   1.531   3.335   3.187  3.1372  0.0569  1.5025
 2829SOL     OW19948   3.465   0.986   2.251 -0.1853 -0.2316  0.1735
 2829SOL    HW119949   3.400   0.916   2.247  0.5174 -0.8541 -0.4069
 2829SOL    HW219950   3.478   0.988   2.346  0.9312  1.0070 -0.0128
 2830SOL     OW19951   2.217   0.225   6.882  0.3806  0.0605 -0.4818
 2830SOL    HW119952   2.257   0.165   6.819  1.7096  0.3890  0.0444
 2830SOL    HW219953   2.262   0.306   6.857 -0.0133 -0.1127 -1.7694
 2831SOL     OW19954   0.802   1.392   5.075 -0.3779 -0.3971 -0.1062
 2831SOL    HW119955   0.756   1.367   5.156 -0.1620  2.9515  1.0435
 2831SOL    HW219956   0.730   1.437   5.030  0.9098  1.3982 -0.3332
 2832SOL     OW19957   0.324   0.880   2.577  0.2587 -0.2813  0.0201
 2832SOL    HW119958   0.365   0.907   2.495 -2.1629 -1.0354 -1.4022
 2832SOL    HW219959   0.341   0.786   2.576 -4.3392 -1.1047 -0.0286
 2833SOL     OW19960   2.321   2.477   5.386  0.0767 -0.0263 -1.1058
 2833SOL    HW119961   2.273   2.535   5.444 -0.7188 -0.0035 -1.7808
 2833SOL    HW219962   2.375   2.438   5.455 -0.5202 -0.4366 -0.8731
 2834SOL     OW19963   0.864   3.664  13.213 -0.1798  0.0821  0.0039
 2834SOL    HW119964   0.941   3.608  13.200 -0.0953  0.3722 -0.7353
 2834SOL    HW219965   0.797   3.601  13.237  0.2101 -0.7378 -1.0684
 2835SOL     OW19966   0.366   3.821   7.706  0.9256  0.0444  0.7004
 2835SOL    HW119967   0.452   3.850   7.675  1.5149 -0.8290  1.5348
 2835SOL    HW219968   0.343   3.911   7.730 -1.3099 -0.7341  1.4616
 2836SOL     OW19969   3.969   2.702   4.670 -0.2366  0.3255 -1.0169
 2836SOL    HW119970   3.926   2.632   4.621 -1.5733  0.5578 -0.1683
 2836SOL    HW219971   4.007   2.751   4.598  1.3917 -0.5641 -0.7605
 2837SOL     OW19972   2.683   2.743   1.935  0.6479 -0.2433  0.2770
 2837SOL    HW119973   2.757   2.801   1.953 -1.0050  1.8652  0.2490
 2837SOL    HW219974   2.605   2.774   1.980  1.0307 -0.6003  1.1824
 2838SOL     OW19975   2.044   1.169   8.612 -0.1067 -0.3736  0.1493
 2838SOL    HW119976   1.968   1.111   8.609  0.6800 -1.4082  0.4503
 2838SOL    HW219977   2.022   1.252   8.655  0.9835  0.9077 -1.7490
 2839SOL     OW19978   2.080   0.477   2.129 -0.7201 -0.0363  0.3284
 2839SOL    HW119979   1.995   0.438   2.107 -0.6668 -1.0352  1.9058
 2839SOL    HW219980   2.074   0.564   2.089  0.4317  0.0189  0.2856
 2840SOL     OW19981   4.315   3.984   4.068  0.5822  0.1667 -0.1238
 2840SOL    HW119982   4.396   4.008   4.024  0.6787 -0.5696 -0.3461
 2840SOL    HW219983   4.296   3.892   4.050 -1.9913 -0.2673  4.8301
 2841SOL     OW19984   1.845   3.039   3.604 -0.2108 -0.1487  0.3929
 2841SOL    HW119985   1.905   2.967   3.583 -0.2539 -0.1969  0.4351
 2841SOL    HW219986   1.902   3.116   3.595  0.0790 -0.0685  2.7724
 2842SOL     OW19987   0.296   2.861   9.160  0.3766 -0.1412 -0.5556
 2842SOL    HW119988   0.236   2.917   9.209 -0.6056 -0.0893 -1.8178
 2842SOL    HW219989   0.362   2.926   9.135  0.9037 -1.5553 -2.8904
 2843SOL     OW19990   0.763   3.909  13.853 -0.6736  0.1120 -0.4078
 2843SOL    HW119991   0.839   3.894  13.910  0.0125  2.7062 -0.6412
 2843SOL    HW219992   0.695   3.929  13.918  0.3247 -2.7011  1.5245
 2844SOL     OW19993   3.299   0.403   2.616 -0.0552 -0.6357  0.1641
 2844SOL    HW119994   3.338   0.478   2.572 -4.9301  2.3473  0.8603
 2844SOL    HW219995   3.326   0.333   2.556 -2.3934 -1.4122  0.0028
 2845SOL     OW19996   3.727   0.458  15.856  0.3239  0.2894  0.1724
 2845SOL    HW119997   3.743   0.507  15.937 -0.0577  1.5235 -0.5035
 2845SOL    HW219998   3.696   0.371  15.883  1.4868 -0.4861 -0.9677
 2846SOL     OW19999   0.456   3.189   1.976  0.1970  0.1912 -0.1003
 2846SOL    HW120000   0.491   3.112   2.020 -0.6085  0.5598  1.1940
 2846SOL    HW220001   0.370   3.158   1.949  0.3239 -0.2544  0.0174
 2847SOL     OW20002   1.971   4.343   1.291 -0.2019  0.6192  0.1086
 2847SOL    HW120003   2.034   4.407   1.323 -0.8642  0.0697  2.5012
 2847SOL    HW220004   2.028   4.289   1.236  2.7299  2.1381  1.6705
 2848SOL     OW20005   2.617   1.802  12.635 -0.4803 -0.3912 -0.1184
 2848SOL    HW120006   2.691   1.744  12.652  0.8697  1.0408 -1.1062
 2848SOL    HW220007   2.658   1.861  12.572  0.2789 -0.0263  0.7185
 2849SOL     OW20008   2.410   3.191   4.885 -0.1767  0.1105  0.1018
 2849SOL    HW120009   2.360   3.202   4.966  0.9465 -2.7730  1.1771
 2849SOL    HW220010   2.371   3.111   4.848  1.4571 -0.1050 -1.1425
 2850SOL     OW20011   0.310   2.519  13.686 -0.5059 -0.3780  0.1730
 2850SOL    HW120012   0.404   2.506  13.699 -0.5622 -1.2075 -0.2518
 2850SOL    HW220013   0.295   2.612  13.703  0.1850 -0.2282 -0.0438
 2851SOL     OW20014   3.638   2.892   4.751  0.1276 -0.1095  0.4564
 2851SOL    HW120015   3.693   2.952   4.802  1.0723  2.3499 -3.4209
 2851SOL    HW220016   3.556   2.902   4.800  0.0753 -0.1870  0.3837
 2852SOL     OW20017   1.612   0.589  16.530  0.3031 -0.4381 -0.6039
 2852SOL    HW120018   1.647   0.658  16.474  0.2257  0.9216  0.9960
 2852SOL    HW220019   1.582   0.646  16.601  0.9388  0.3813 -0.9933
 2853SOL     OW20020   4.360   0.636   0.205  0.5216 -0.4112  0.1098
 2853SOL    HW120021   4.293   0.650   0.138 -0.7542  0.1712  1.4959
 2853SOL    HW220022   4.326   0.684   0.281  2.0150  0.3743  0.2979
 2854SOL     OW20023   0.739   2.789  14.308  0.0453  0.0475 -0.6612
 2854SOL    HW120024   0.678   2.716  14.319 -1.6804  1.8928  2.1318
 2854SOL    HW220025   0.696   2.857  14.360  0.2570 -0.4757  0.1962
 2855SOL     OW20026   0.274   4.643  11.665  0.3796  0.6636 -0.1127
 2855SOL    HW120027   0.296   4.606  11.580  0.0467  2.3132 -0.9302
 2855SOL    HW220028   0.343   4.596  11.712  0.8686  1.8626  0.3707
 2856SOL     OW20029   2.934   2.540   9.841 -0.1211  0.3716  0.1477
 2856SOL    HW120030   2.856   2.592   9.858 -0.2673  0.8644 -1.9419
 2856SOL    HW220031   2.910   2.459   9.886 -0.1917  0.0683 -0.4222
 2857SOL     OW20032   0.151   2.190   6.388 -0.4910  0.3490 -0.5841
 2857SOL    HW120033   0.117   2.162   6.473  0.6159  0.9214  0.0432
 2857SOL    HW220034   0.228   2.134   6.375 -0.1690  0.6905 -0.1564
 2858SOL     OW20035   4.358   1.150   7.720  0.3002  0.1582  0.6094
 2858SOL    HW120036   4.391   1.194   7.642  1.0796  1.5118  1.6958
 2858SOL    HW220037   4.366   1.220   7.785 -0.2577  1.4348 -0.7070
 2859SOL     OW20038   4.633   0.380  15.339 -0.0802  0.3238  0.0889
 2859SOL    HW120039   4.620   0.334  15.422  3.5278 -0.2759  0.2969
 2859SOL    HW220040   4.605   0.468  15.365 -0.6370  0.2917 -0.4004
 2860SOL     OW20041   4.630   3.778  15.279 -0.1633 -0.4211 -0.4040
 2860SOL    HW120042   4.558   3.822  15.233 -1.7277 -0.6664  1.7780
 2860SOL    HW220043   4.698   3.763  15.213  0.9793  0.0944  0.6525
 2861SOL     OW20044   4.330   0.312  14.843  0.4099 -0.2164 -0.8724
 2861SOL    HW120045   4.359   0.231  14.885 -0.8765 -0.6133 -0.7488
 2861SOL    HW220046   4.241   0.311  14.878  0.7375 -0.1765 -0.0470
 2862SOL     OW20047   3.177   1.644   2.031  0.4312 -0.0352 -0.2463
 2862SOL    HW120048   3.084   1.619   2.029  1.0363 -2.1413 -3.3091
 2862SOL    HW220049   3.188   1.656   2.125  3.2795 -1.0063 -0.4449
 2863SOL     OW20050   1.634   1.145   7.007  0.1287  0.5277  0.0715
 2863SOL    HW120051   1.540   1.143   7.024  0.2814  1.6475  1.0407
 2863SOL    HW220052   1.661   1.229   7.046  3.3880 -0.2417 -0.4841
 2864SOL     OW20053   2.955   1.514  12.915  0.0311 -0.1330  0.1841
 2864SOL    HW120054   3.042   1.525  12.955 -0.1044 -1.3900  0.8123
 2864SOL    HW220055   2.930   1.435  12.963  0.8858 -0.5963 -0.1285
 2865SOL     OW20056   2.346   3.053   7.514 -0.8210  0.6332 -0.0389
 2865SOL    HW120057   2.339   3.127   7.453  1.8865  0.5683 -0.4704
 2865SOL    HW220058   2.264   3.056   7.563 -1.1406 -0.9727 -0.4955
 2866SOL     OW20059   3.142   3.629   2.534  0.3641  0.1931  0.3926
 2866SOL    HW120060   3.234   3.628   2.558  1.0173  0.2459 -2.1279
 2866SOL    HW220061   3.144   3.641   2.439  0.5637  0.9464  0.4996
 2867SOL     OW20062   0.632   0.836   8.290  0.4167 -0.1128 -0.0269
 2867SOL    HW120063   0.659   0.749   8.259  2.6144  0.5790 -0.0434
 2867SOL    HW220064   0.698   0.849   8.358 -0.0912  1.8778  0.0869
 2868SOL     OW20065   3.589   3.641   9.059 -0.0664  0.0707  0.5202
 2868SOL    HW120066   3.551   3.692   9.131 -0.8879  1.5976 -1.0034
 2868SOL    HW220067   3.517   3.589   9.022  1.4445 -2.2665  0.8850
 2869SOL     OW20068   4.227   2.125   5.597  0.2178  0.3264  0.2488
 2869SOL    HW120069   4.232   2.077   5.515 -0.6356  0.6120  0.0291
 2869SOL    HW220070   4.165   2.194   5.573  0.0872 -0.0610 -0.4959
 2870SOL     OW20071   1.960   2.352   9.730  0.0996  0.2935 -0.2630
 2870SOL    HW120072   1.984   2.445   9.739  0.2322  0.3630 -1.4584
 2870SOL    HW220073   2.046   2.322   9.759  0.2111  0.5457 -0.3321
 2871SOL     OW20074   4.556   4.394   8.221  0.1815  0.1726  0.0794
 2871SOL    HW120075   4.535   4.319   8.164 -0.2929 -0.4759  1.1030
 2871SOL    HW220076   4.513   4.374   8.304  0.3830  2.1305  0.6511
 2872SOL     OW20077   0.342   3.333   1.044 -0.2281  0.3487 -0.0291
 2872SOL    HW120078   0.367   3.267   1.109  1.1125  0.2158 -0.6871
 2872SOL    HW220079   0.394   3.413   1.052 -1.9045  1.2288  2.0562
 2873SOL     OW20080   0.396   4.569   4.083 -0.2890 -0.2288  0.2499
 2873SOL    HW120081   0.428   4.656   4.106 -0.3406  0.0876 -0.8585
 2873SOL    HW220082   0.443   4.559   4.001  2.2801  1.4873  1.5208
 2874SOL     OW20083   0.250   1.652   0.276  0.1639  0.0727  0.6798
 2874SOL    HW120084   0.158   1.632   0.258  0.4636 -1.2779  0.6162
 2874SOL    HW220085   0.230   1.717   0.344 -0.0312  0.9521 -0.2213
 2875SOL     OW20086   0.911   3.447   6.400  0.4200  0.3663  0.6451
 2875SOL    HW120087   0.980   3.500   6.440  0.0519 -0.6729  2.6113
 2875SOL    HW220088   0.951   3.360   6.399 -1.2743 -0.3963  0.3504
 2876SOL     OW20089   0.845   2.127   8.510 -0.5221 -0.0664 -0.6519
 2876SOL    HW120090   0.766   2.178   8.493 -0.3154  0.2433 -0.6817
 2876SOL    HW220091   0.900   2.188   8.560 -1.6763  0.9384 -0.6270
 2877SOL     OW20092   0.706   2.235   8.799 -0.3485 -0.3617 -0.2942
 2877SOL    HW120093   0.635   2.300   8.798 -0.5288 -0.5137  2.1688
 2877SOL    HW220094   0.762   2.281   8.737  1.1400 -0.2794  1.1101
 2878SOL     OW20095   2.993   3.057   7.241  0.5713  0.5091 -0.1649
 2878SOL    HW120096   3.013   3.099   7.325  0.4465 -1.2704  0.7472
 2878SOL    HW220097   2.899   3.050   7.259  0.4072  0.6539 -0.9550
 2879SOL     OW20098   2.658   0.155   2.282  0.5422 -0.3738  0.5771
 2879SOL    HW120099   2.607   0.083   2.245  1.0082 -0.2363 -0.3390
 2879SOL    HW220100   2.741   0.115   2.307  0.6142 -0.9107 -0.5419
 2880SOL     OW20101   3.209   3.280   7.341 -0.2864 -0.3876 -0.0995
 2880SOL    HW120102   3.166   3.345   7.397 -0.0593  0.5793 -1.0576
 2880SOL    HW220103   3.281   3.263   7.401  0.3994 -1.5845 -1.2637
 2881SOL     OW20104   2.848   2.573   4.137  0.7853  0.2823  0.4439
 2881SOL    HW120105   2.811   2.613   4.216  0.4007 -0.6867  0.7489
 2881SOL    HW220106   2.806   2.630   4.073 -0.5604 -0.3032  0.8034
 2882SOL     OW20107   2.085   2.007   4.196  0.3399 -0.1828  0.2278
 2882SOL    HW120108   2.013   1.985   4.254  0.0990 -2.3610 -0.9117
 2882SOL    HW220109   2.123   1.920   4.185 -0.4961 -0.1938 -2.7206
 2883SOL     OW20110   1.480   4.006   7.194 -0.2657  0.0496 -0.2206
 2883SOL    HW120111   1.574   4.014   7.205  0.1110 -0.3315 -3.1438
 2883SOL    HW220112   1.449   3.947   7.262  1.3827 -0.6168 -0.0542
 2884SOL     OW20113   1.765   4.594   4.334 -0.0309 -0.4629  0.4479
 2884SOL    HW120114   1.718   4.594   4.417 -2.1115  1.4437 -0.7102
 2884SOL    HW220115   1.850   4.575   4.372 -1.5789  1.0342  4.7044
 2885SOL     OW20116   2.014   1.383  12.960  0.1759 -0.3400 -0.2346
 2885SOL    HW120117   2.049   1.384  12.871  0.8064 -0.4279  0.0130
 2885SOL    HW220118   1.951   1.454  12.961  0.2342 -0.2880 -0.2678
 2886SOL     OW20119   2.157   2.646   4.979  0.0703 -0.1280 -0.3735
 2886SOL    HW120120   2.182   2.651   4.887 -2.6461  0.4733 -1.0714
 2886SOL    HW220121   2.130   2.555   4.993  0.4019  0.3102  3.2228
 2887SOL     OW20122   2.655   2.113   8.270  0.1047  0.3761  0.3962
 2887SOL    HW120123   2.617   2.048   8.329 -0.8036  0.2157 -0.3603
 2887SOL    HW220124   2.676   2.185   8.328  0.0797 -0.2841  1.2249
 2888SOL     OW20125   2.899   0.831  10.697 -0.0379 -0.6326  0.5769
 2888SOL    HW120126   2.874   0.862  10.610  0.0688  0.9798  1.1255
 2888SOL    HW220127   2.962   0.763  10.675  0.1353 -0.7598  1.4427
 2889SOL     OW20128   0.986   0.961   4.793  0.5188  0.0656 -0.0097
 2889SOL    HW120129   0.932   0.883   4.776  2.7895 -1.4433 -0.2365
 2889SOL    HW220130   0.998   0.960   4.888  0.3772 -0.6687  0.0036
 2890SOL     OW20131   1.163   4.031   8.598  0.1412  0.3600 -0.2672
 2890SOL    HW120132   1.217   4.075   8.532 -1.9490  0.8079 -1.6578
 2890SOL    HW220133   1.120   4.108   8.634  0.3363  1.4271 -2.3301
 2891SOL     OW20134   0.692   1.388   4.287 -0.2221 -0.0365  0.5641
 2891SOL    HW120135   0.768   1.376   4.230 -1.1151  1.9521 -1.0427
 2891SOL    HW220136   0.651   1.302   4.288  2.4100 -1.3129  0.5433
 2892SOL     OW20137   4.435   3.919   5.456  0.2454  0.1457 -0.2233
 2892SOL    HW120138   4.529   3.908   5.442  0.6884  2.0072  1.3457
 2892SOL    HW220139   4.406   3.836   5.493 -0.0944  0.8769  1.1270
 2893SOL     OW20140   2.397   2.602  15.444  0.2796 -0.4322 -0.8357
 2893SOL    HW120141   2.333   2.673  15.447  0.5469 -0.1771 -1.2639
 2893SOL    HW220142   2.433   2.613  15.532 -0.0034 -1.2768 -0.6078
 2894SOL     OW20143   4.301   4.043   3.395  0.4016 -0.0433  0.0267
 2894SOL    HW120144   4.350   4.120   3.366 -0.1574  0.2755 -0.0739
 2894SOL    HW220145   4.211   4.075   3.401  1.0167  1.8914 -1.2552
 2895SOL     OW20146   1.767   4.244   1.507 -0.3009  0.0914  0.9185
 2895SOL    HW120147   1.747   4.329   1.544  1.6389  0.8170  0.2853
 2895SOL    HW220148   1.835   4.266   1.443 -0.2848 -0.7134  0.6471
 2896SOL     OW20149   2.748   3.030   1.790  0.9048  0.3680  0.3977
 2896SOL    HW120150   2.749   2.983   1.707  2.3619 -1.4535  1.4512
 2896SOL    HW220151   2.660   3.008   1.821  0.8781 -1.9991 -1.4129
 2897SOL     OW20152   3.305   1.244   7.360 -0.0600 -0.7526  0.2215
 2897SOL    HW120153   3.361   1.182   7.408  0.2509 -0.0830  0.7205
 2897SOL    HW220154   3.359   1.322   7.370 -1.0269  0.0755 -1.0903
 2898SOL     OW20155   3.614   4.197   5.210  0.2345  0.0111 -0.0603
 2898SOL    HW120156   3.654   4.123   5.164  0.0476  0.5943 -1.1575
 2898SOL    HW220157   3.586   4.151   5.290  1.1696 -1.8955 -0.8355
 2899SOL     OW20158   3.967   4.641   9.941  0.0718  0.2900 -0.1751
 2899SOL    HW120159   3.894   4.578   9.941  1.3172 -1.1325  0.3362
 2899SOL    HW220160   3.933   0.001   9.963  0.4342  1.4614 -4.2588
 2900SOL     OW20161   0.717   2.090   3.397 -0.0815 -0.0816  0.1680
 2900SOL    HW120162   0.688   2.019   3.339 -0.6498 -1.1599  1.7605
 2900SOL    HW220163   0.695   2.170   3.349 -1.9832 -0.7682 -0.1133
 2901SOL     OW20164   3.051   1.307   6.100 -0.0388 -0.5425 -0.2355
 2901SOL    HW120165   3.062   1.384   6.156 -1.4510 -1.2487  1.0252
 2901SOL    HW220166   3.025   1.344   6.016  0.0288  1.8889  0.8233
 2902SOL     OW20167   0.817   1.692   5.783  0.0958 -0.2135  0.1310
 2902SOL    HW120168   0.777   1.726   5.703 -0.2375  2.2910  1.3623
 2902SOL    HW220169   0.876   1.759   5.817 -0.3494 -0.4408  1.3525
 2903SOL     OW20170   4.426   2.419   0.808 -0.5101 -0.3584  0.7313
 2903SOL    HW120171   4.349   2.461   0.770 -1.2126 -1.9457  0.4098
 2903SOL    HW220172   4.403   2.326   0.797 -2.2314  0.1955 -0.3981
 2904SOL     OW20173   2.217   2.474  15.663  0.1300 -0.4493 -0.3309
 2904SOL    HW120174   2.283   2.534  15.698  0.8845 -1.6535  0.3183
 2904SOL    HW220175   2.254   2.386  15.667  0.3590 -0.4171 -1.8973
 2905SOL     OW20176   4.467   1.379   3.114  0.1432 -0.2286  0.1380
 2905SOL    HW120177   4.552   1.418   3.136 -0.3873  0.8146  0.2911
 2905SOL    HW220178   4.458   1.432   3.035 -0.8956 -0.8050 -0.1312
 2906SOL     OW20179   1.864   2.659   9.144 -0.4600 -0.0772  0.2271
 2906SOL    HW120180   1.938   2.672   9.086  0.0816  1.7158  1.3185
 2906SOL    HW220181   1.896   2.711   9.218 -3.0172 -0.0863  1.3609
 2907SOL     OW20182   2.862   2.669   2.276  0.1558  0.2587  0.6021
 2907SOL    HW120183   2.917   2.668   2.197 -0.7834 -1.2920 -0.0372
 2907SOL    HW220184   2.853   2.764   2.274  1.3284  0.3489 -1.1481
 2908SOL     OW20185   0.209   3.847   4.042 -0.1411  0.3103 -0.0754
 2908SOL    HW120186   0.238   3.912   4.106 -0.7881 -2.0816  2.6568
 2908SOL    HW220187   0.259   3.774   4.078  0.2717  0.3082 -0.6507
 2909SOL     OW20188   2.873   3.164   7.776 -0.0843  0.1372  0.4571
 2909SOL    HW120189   2.928   3.207   7.841  1.4902 -0.5755 -0.3990
 2909SOL    HW220190   2.802   3.135   7.834 -0.5770  1.0908  0.3295
 2910SOL     OW20191   3.087   2.445   6.041  0.7857  0.2519  0.4190
 2910SOL    HW120192   3.167   2.490   6.016 -0.7268  3.0178  0.6060
 2910SOL    HW220193   3.025   2.516   6.056  0.5817  0.2861 -0.6035
 2911SOL     OW20194   4.320   2.445   7.565 -0.1707 -0.3629  0.2984
 2911SOL    HW120195   4.230   2.428   7.538 -0.3694 -0.2229  0.8786
 2911SOL    HW220196   4.353   2.506   7.500 -1.0931 -0.6569 -0.4499
 2912SOL     OW20197   3.153   4.477   7.092  0.0658 -0.2802 -0.2649
 2912SOL    HW120198   3.062   4.446   7.098  0.1460 -0.6117 -0.7030
 2912SOL    HW220199   3.209   4.413   7.135 -0.5507 -0.3487  0.4343
 2913SOL     OW20200   2.149   3.361  15.996  0.5849 -0.0658  0.1450
 2913SOL    HW120201   2.123   3.401  16.079 -2.0127 -0.5890 -0.4334
 2913SOL    HW220202   2.239   3.337  16.017  0.6565  1.5382  1.7202
 2914SOL     OW20203   4.425   1.930  11.900  0.5676  0.1890 -0.7986
 2914SOL    HW120204   4.357   1.992  11.928  0.0200 -0.8349  0.1308
 2914SOL    HW220205   4.407   1.846  11.942  0.6122  0.7634  0.3526
 2915SOL     OW20206   1.124   1.094  14.061  0.2749 -0.1243 -0.1270
 2915SOL    HW120207   1.161   1.035  13.996 -0.1390 -1.1255  0.5471
 2915SOL    HW220208   1.030   1.073  14.067  0.2959 -0.4005 -0.7935
 2916SOL     OW20209   3.220   3.958   6.099 -0.4890  0.2596 -0.0285
 2916SOL    HW120210   3.234   4.047   6.130 -0.7246  0.3298 -0.1234
 2916SOL    HW220211   3.139   3.930   6.142  0.1828 -0.5823  0.6950
 2917SOL     OW20212   3.059   0.438   1.999  0.2352 -0.2510 -0.5775
 2917SOL    HW120213   3.119   0.463   1.929 -0.2533 -1.2653 -1.3590
 2917SOL    HW220214   3.128   0.417   2.061  0.6570 -0.1415 -1.0118
 2918SOL     OW20215   0.811   1.820   4.494 -0.0905  0.5042  0.2982
 2918SOL    HW120216   0.870   1.844   4.565  0.4277 -0.3366  0.1423
 2918SOL    HW220217   0.825   1.726   4.490 -0.1622  0.4445  1.4176
 2919SOL     OW20218   4.689   3.946   5.434 -0.3720  0.4766  0.0599
 2919SOL    HW120219   0.018   3.870   5.452 -0.4605  0.6926  1.2137
 2919SOL    HW220220   4.711   4.013   5.498 -1.3648  1.8917 -1.0854
 2920SOL     OW20221   2.319   0.008   5.099  0.1771  0.5429 -0.1925
 2920SOL    HW120222   2.362   4.654   5.127  2.2323  0.9970 -2.0209
 2920SOL    HW220223   2.357   0.008   5.011 -1.2187  0.2094 -0.7851
 2921SOL     OW20224   3.582   3.870   8.629  0.3994  0.4042  0.4449
 2921SOL    HW120225   3.677   3.881   8.640  0.6367 -0.8174 -0.3614
 2921SOL    HW220226   3.550   3.943   8.681 -1.5127 -0.2168  0.1240
 2922SOL     OW20227   3.116   3.166  16.883  0.2781  0.2795  0.3674
 2922SOL    HW120228   3.123   3.119  16.966  2.9292 -2.2682 -1.2671
 2922SOL    HW220229   3.063   3.243  16.904 -0.7199 -0.8430  1.9676
 2923SOL     OW20230   3.968   4.517  12.125 -0.0021 -0.4918  0.0479
 2923SOL    HW120231   3.876   4.500  12.106  0.4531 -0.0887 -2.5310
 2923SOL    HW220232   3.960   4.605  12.161 -0.3732 -0.0247 -1.1576
 2924SOL     OW20233   3.755   2.033   4.426 -0.3276  0.0183  0.3195
 2924SOL    HW120234   3.669   2.040   4.466 -1.0042  1.0287 -1.3028
 2924SOL    HW220235   3.811   2.009   4.500 -2.0469 -1.1483  1.2465
 2925SOL     OW20236   3.425   4.623   3.839  0.2030  0.3319 -0.2123
 2925SOL    HW120237   3.427   4.617   3.743  0.1194  1.8586 -0.3133
 2925SOL    HW220238   3.345   4.575   3.860  0.7405 -0.2686  0.4360
 2926SOL     OW20239   1.928   3.252   3.995 -0.0990  0.6567  0.2488
 2926SOL    HW120240   1.955   3.319   4.058  2.3740  0.3749 -0.5269
 2926SOL    HW220241   1.836   3.277   3.985 -0.1079  1.3311  2.0415
 2927SOL     OW20242   0.414   4.373   6.504 -0.3209 -0.2270 -0.1764
 2927SOL    HW120243   0.360   4.306   6.547  0.5769 -0.4221  0.6476
 2927SOL    HW220244   0.388   4.444   6.562 -0.0986  0.0317 -0.3930
 2928SOL     OW20245   1.955   3.762   6.428  0.1309  0.3551  0.6018
 2928SOL    HW120246   1.947   3.667   6.415  1.1900  0.1213  1.6554
 2928SOL    HW220247   1.989   3.772   6.339  0.2045  1.8397  0.8009
 2929SOL     OW20248   4.290   3.634  10.751  0.5287 -0.3130  0.1783
 2929SOL    HW120249   4.217   3.573  10.741  1.1756 -0.5981 -2.8013
 2929SOL    HW220250   4.343   3.605  10.677  1.0718  2.8769 -0.6463
 2930SOL     OW20251   2.445   4.560   1.833 -0.4473 -0.1056  0.3956
 2930SOL    HW120252   2.456   4.528   1.923 -0.6366 -1.6726 -0.1386
 2930SOL    HW220253   2.515   4.515   1.786 -1.9799 -1.9412 -0.1377
 2931SOL     OW20254   2.951   2.365  13.692 -0.5057  0.4902  0.6212
 2931SOL    HW120255   2.938   2.316  13.611  2.0985  2.5781 -1.0607
 2931SOL    HW220256   2.899   2.316  13.756 -1.0406 -1.0115 -0.9788
 2932SOL     OW20257   0.528   3.014  16.598 -0.0267  0.0378  0.2015
 2932SOL    HW120258   0.592   2.974  16.656 -0.7278  0.5908  1.3595
 2932SOL    HW220259   0.587   3.062  16.540 -0.0195 -0.9072 -0.5625
 2933SOL     OW20260   0.532   2.653   3.663  0.2468  0.4882  0.0466
 2933SOL    HW120261   0.482   2.573   3.649 -2.1411  1.8347  0.8824
 2933SOL    HW220262   0.609   2.607   3.694  0.7537  0.0257 -1.8736
 2934SOL     OW20263   0.743   2.066   5.031  0.1650  0.2281 -0.1280
 2934SOL    HW120264   0.833   2.089   5.055 -0.3163 -0.1313  2.0168
 2934SOL    HW220265   0.707   2.033   5.113 -0.6094 -0.8367 -0.8928
 2935SOL     OW20266   1.345   4.449   7.401  0.3130  0.1765 -0.1056
 2935SOL    HW120267   1.341   4.438   7.496 -0.4938 -2.1283 -0.3986
 2935SOL    HW220268   1.274   4.512   7.388  1.6945  1.8624  0.5074
 2936SOL     OW20269   1.510   0.546   9.386  0.3866 -0.1584  0.2779
 2936SOL    HW120270   1.462   0.513   9.462  1.5236 -0.8109  0.7029
 2936SOL    HW220271   1.544   0.466   9.346 -2.3277 -0.6848 -0.9921
 2937SOL     OW20272   2.680   1.125  12.684  0.0067 -0.3841 -0.3822
 2937SOL    HW120273   2.598   1.174  12.678  0.5284  0.5331 -0.1912
 2937SOL    HW220274   2.746   1.195  12.683 -1.3207  0.8789 -0.0043
 2938SOL     OW20275   3.403   1.239  11.394 -0.1628  0.1984  0.0158
 2938SOL    HW120276   3.400   1.145  11.414  0.0732  0.0545 -0.6022
 2938SOL    HW220277   3.403   1.277  11.481  0.9922  0.3194 -0.0399
 2939SOL     OW20278   3.752   4.080   9.179  0.0273 -0.0551  0.5235
 2939SOL    HW120279   3.662   4.073   9.146  1.1419  0.2969 -2.5052
 2939SOL    HW220280   3.741   4.026   9.258  2.0183 -0.5259  0.4825
 2940SOL     OW20281   1.871   0.918   0.775  0.1080 -0.6433 -0.5228
 2940SOL    HW120282   1.886   1.009   0.800 -1.9670 -0.5802  0.5306
 2940SOL    HW220283   1.916   0.877   0.850 -0.7278  0.7191  0.7239
 2941SOL     OW20284   0.023   1.292   5.716  0.5781  0.1767 -0.3031
 2941SOL    HW120285   0.069   1.214   5.747  0.7196 -1.6543 -5.1061
 2941SOL    HW220286   4.682   1.295   5.784  0.0299 -0.9914 -0.7810
 2942SOL     OW20287   2.554   4.651   7.644 -0.2586 -0.1667 -0.3389
 2942SOL    HW120288   2.603   4.626   7.722 -5.2604  1.9870  3.5531
 2942SOL    HW220289   2.564   0.020   7.645  0.7037 -0.2689 -0.8943
 2943SOL     OW20290   2.685   1.445   3.027 -0.2605  0.0286  0.5606
 2943SOL    HW120291   2.715   1.526   2.987 -1.1884  0.5835  0.9993
 2943SOL    HW220292   2.599   1.468   3.062  0.2105  2.9594 -0.1886
 2944SOL     OW20293   4.220   0.135   8.506 -0.7511  0.6893 -0.4503
 2944SOL    HW120294   4.202   0.228   8.521 -0.1365  0.3506  2.3184
 2944SOL    HW220295   4.217   0.105   8.597 -1.3410 -0.8095 -0.9762
 2945SOL     OW20296   2.057   3.899  13.464  0.1872  0.0678  0.0273
 2945SOL    HW120297   2.000   3.921  13.390 -0.7503  0.6712  0.9430
 2945SOL    HW220298   2.084   3.808  13.446 -1.1700 -0.1411 -0.9237
 2946SOL     OW20299   1.706   2.312   5.457 -0.1969  0.3647  0.0645
 2946SOL    HW120300   1.773   2.276   5.399 -0.2298  1.9810 -0.9703
 2946SOL    HW220301   1.633   2.304   5.396 -0.7911 -1.6044  1.0416
 2947SOL     OW20302   0.609   4.617   9.760  0.9225 -0.1478  0.2499
 2947SOL    HW120303   0.668   4.579   9.826  1.3500  0.2561  0.1046
 2947SOL    HW220304   0.670   4.649   9.694 -0.5860  2.1799 -0.0046
 2948SOL     OW20305   2.470   0.027   6.217  0.0947  0.6916  0.0914
 2948SOL    HW120306   2.375   0.037   6.224  0.1126  1.4743 -0.8807
 2948SOL    HW220307   2.492   0.114   6.184  1.9084  0.3332  0.3526
 2949SOL     OW20308   0.303   2.541   8.539 -0.5909  0.7585  0.0342
 2949SOL    HW120309   0.343   2.576   8.460  0.5071 -3.2566 -1.1854
 2949SOL    HW220310   0.338   2.607   8.599 -2.0363  1.2412  0.3431
 2950SOL     OW20311   1.398   3.320   4.585 -0.0733 -0.4035 -0.3671
 2950SOL    HW120312   1.355   3.401   4.559  1.3441  0.3479 -0.3253
 2950SOL    HW220313   1.484   3.334   4.546  0.9908  0.6683  2.3649
 2951SOL     OW20314   3.749   4.136  10.843 -0.1006 -0.3056  0.4035
 2951SOL    HW120315   3.658   4.165  10.844  0.6335  2.0338  0.7453
 2951SOL    HW220316   3.760   4.098  10.756  1.4172  1.8792 -0.3797
 2952SOL     OW20317   0.794   2.363   4.044 -0.1733 -0.0499 -0.2921
 2952SOL    HW120318   0.833   2.420   3.978 -2.9582  1.7184 -0.4158
 2952SOL    HW220319   0.787   2.282   3.995  0.7073 -0.4202  0.1928
 2953SOL     OW20320   1.488   3.809   6.433  0.1795  0.3661 -0.1957
 2953SOL    HW120321   1.523   3.892   6.400  0.5941  1.2556  2.4883
 2953SOL    HW220322   1.503   3.822   6.527 -0.1283  0.7288 -0.1965
 2954SOL     OW20323   1.168   1.306   5.543 -0.0617  0.3870  0.6419
 2954SOL    HW120324   1.195   1.394   5.570  0.6478  1.3176 -3.1980
 2954SOL    HW220325   1.220   1.254   5.604  1.8185 -0.2991 -1.5922
 2955SOL     OW20326   2.053   2.405  14.959  0.4340  0.0757 -0.3792
 2955SOL    HW120327   2.020   2.318  14.938 -2.6248  0.9695  0.8301
 2955SOL    HW220328   2.056   2.445  14.872 -0.4228  0.0795 -0.4071
 2956SOL     OW20329   4.265   4.557   4.640  0.1606  0.3275  0.1130
 2956SOL    HW120330   4.357   4.565   4.665  0.5904 -1.7878 -0.7703
 2956SOL    HW220331   4.229   4.626   4.696  0.4928  0.5926  0.0057
 2957SOL     OW20332   3.034   4.071   7.050  0.0595  0.3719 -0.2817
 2957SOL    HW120333   2.983   4.072   7.131  0.9428  0.8682  0.2719
 2957SOL    HW220334   2.962   4.035   7.000 -0.0310 -1.8223  1.4386
 2958SOL     OW20335   3.537   1.479   2.702  0.1712 -0.2508  0.6045
 2958SOL    HW120336   3.534   1.436   2.617 -0.3710  2.1465 -0.5966
 2958SOL    HW220337   3.620   1.452   2.741  0.6671 -0.0826 -0.3272
 2959SOL     OW20338   0.146   3.540  11.039 -0.2698  0.0302 -0.3826
 2959SOL    HW120339   0.229   3.540  11.085  0.0607 -0.2978 -0.9789
 2959SOL    HW220340   0.170   3.597  10.965 -0.5732 -0.7090 -1.0556
 2960SOL     OW20341   0.880   1.603   6.428 -0.1236 -0.1550  0.4671
 2960SOL    HW120342   0.866   1.567   6.516  0.3046 -3.3321 -0.7530
 2960SOL    HW220343   0.847   1.536   6.369  1.4308 -0.4625 -0.0508
 2961SOL     OW20344   4.549   2.744   5.735  0.2835 -0.2977  0.5624
 2961SOL    HW120345   4.560   2.650   5.745  1.9669 -0.0069  1.3891
 2961SOL    HW220346   4.639   2.775   5.726 -0.1238  0.1825 -1.7817
 2962SOL     OW20347   4.469   4.584   4.876 -0.0477  0.3113  0.4711
 2962SOL    HW120348   4.403   4.531   4.921  0.0584 -0.9669 -0.8761
 2962SOL    HW220349   4.531   4.585   4.949  0.1556  2.7807  0.2498
 2963SOL     OW20350   4.592   3.666  14.989  0.2301 -0.0867  0.4434
 2963SOL    HW120351   4.630   3.741  14.944  0.1362  0.2890  0.9827
 2963SOL    HW220352   4.528   3.716  15.039  1.1372  1.6204 -0.1311
 2964SOL     OW20353   3.028   3.439   6.334  0.3539  0.5047 -0.0856
 2964SOL    HW120354   2.969   3.446   6.409 -0.8309 -0.7731 -0.9028
 2964SOL    HW220355   3.014   3.527   6.297  0.3152  0.7384  0.4725
 2965SOL     OW20356   2.553   3.506   4.590  0.1924  0.3408  0.3075
 2965SOL    HW120357   2.587   3.467   4.509 -0.0087 -1.5713  1.1395
 2965SOL    HW220358   2.634   3.536   4.630  0.0998 -0.0989  0.8152
 2966SOL     OW20359   1.940   3.705   7.917  0.3831  0.0880 -0.1761
 2966SOL    HW120360   2.027   3.729   7.948  0.0999 -1.6540  2.0096
 2966SOL    HW220361   1.960   3.688   7.825 -1.4138  0.8540 -0.7078
 2967SOL     OW20362   2.554   2.912  16.573 -0.2827 -0.0998 -0.6364
 2967SOL    HW120363   2.493   2.969  16.526 -0.5094 -0.1949 -0.4521
 2967SOL    HW220364   2.611   2.976  16.615 -0.8014  0.3829 -0.6654
 2968SOL     OW20365   2.661   0.843   4.870  0.3545  0.2634 -0.0412
 2968SOL    HW120366   2.750   0.876   4.859  0.9033 -0.4116  2.3277
 2968SOL    HW220367   2.618   0.861   4.787  1.3827 -1.0625 -0.8610
 2969SOL     OW20368   3.660   2.808   2.249  0.2948 -0.4301 -0.0759
 2969SOL    HW120369   3.736   2.813   2.192 -0.7222  1.3684 -1.2784
 2969SOL    HW220370   3.650   2.889   2.299 -2.1083 -0.3219 -0.7135
 2970SOL     OW20371   3.681   3.544   4.632 -0.5442  0.2641  0.1119
 2970SOL    HW120372   3.604   3.496   4.662 -0.4674 -0.7259 -1.2675
 2970SOL    HW220373   3.654   3.565   4.543 -1.1166 -0.4481  0.1117
 2971SOL     OW20374   2.624   2.446   3.485  0.4838  0.2548 -0.0839
 2971SOL    HW120375   2.649   2.527   3.530 -0.3525  1.6063 -2.0845
 2971SOL    HW220376   2.549   2.478   3.436 -0.1496  1.5893  1.7421
 2972SOL     OW20377   4.677   0.596   3.100 -0.4611  0.0421 -0.0124
 2972SOL    HW120378   4.598   0.648   3.117 -1.1227 -1.1313  0.5032
 2972SOL    HW220379   4.706   0.649   3.026 -1.4141  0.9553  0.2597
 2973SOL     OW20380   4.570   0.426   2.635 -0.0715 -0.6954 -0.3211
 2973SOL    HW120381   4.626   0.369   2.688 -0.3370  1.5422  2.3375
 2973SOL    HW220382   4.528   0.362   2.577 -1.2032 -1.3077  1.1625
 2974SOL     OW20383   0.721   2.317   3.240  0.0034  0.0908 -0.3630
 2974SOL    HW120384   0.793   2.354   3.189  0.8095 -1.7772 -0.5970
 2974SOL    HW220385   0.679   2.398   3.268 -1.3495 -0.5329 -0.5578
 2975SOL     OW20386   4.223   4.370  16.813  0.1792  0.6153  0.1649
 2975SOL    HW120387   4.273   4.303  16.767 -3.3587  0.0886 -2.9131
 2975SOL    HW220388   4.271   4.449  16.786  1.1151  0.5013  1.5007
 2976SOL     OW20389   1.159   3.849   4.070  0.1729  0.3135 -0.2205
 2976SOL    HW120390   1.070   3.874   4.044 -0.3768 -2.7098 -1.1975
 2976SOL    HW220391   1.158   3.768   4.120  0.6305 -0.3211 -1.2525
 2977SOL     OW20392   4.148   2.046   0.206 -0.0478 -0.8035 -0.1571
 2977SOL    HW120393   4.066   2.074   0.247 -0.0584  1.9361 -2.0196
 2977SOL    HW220394   4.211   2.028   0.276  0.5517  2.5368  0.1520
 2978SOL     OW20395   3.796   3.370   3.569  0.2472  0.0577 -0.4494
 2978SOL    HW120396   3.830   3.408   3.487 -0.6955  0.8671 -0.4697
 2978SOL    HW220397   3.778   3.279   3.547 -2.0209  0.7929 -1.6664
 2979SOL     OW20398   1.240   4.083   2.363 -0.2880  0.3755  0.2291
 2979SOL    HW120399   1.325   4.120   2.341 -1.0577  0.5170 -2.4826
 2979SOL    HW220400   1.270   3.995   2.384 -0.4128  0.8007  2.1564
 2980SOL     OW20401   2.310   0.092   2.508  0.5057  0.6544 -0.1350
 2980SOL    HW120402   2.385   0.047   2.547  1.0700  0.3720 -1.5435
 2980SOL    HW220403   2.308   0.179   2.547 -0.2509  1.2733 -1.5687
 2981SOL     OW20404   1.027   0.185   4.678  0.4967 -0.0100 -0.2047
 2981SOL    HW120405   0.953   0.149   4.727  1.7058 -2.3193 -0.0826
 2981SOL    HW220406   0.983   0.218   4.600 -0.7480  0.2797  0.6230
 2982SOL     OW20407   3.836   4.351   8.657  0.0895  0.7006 -0.5341
 2982SOL    HW120408   3.867   4.421   8.600 -3.4337  0.9334 -2.1756
 2982SOL    HW220409   3.746   4.382   8.670  0.5737  1.8401  0.1206
 2983SOL     OW20410   2.155   3.707   3.400  0.0990 -0.0505 -0.4234
 2983SOL    HW120411   2.110   3.684   3.318 -0.9327 -1.1203  0.4363
 2983SOL    HW220412   2.148   3.627   3.452 -2.5557 -1.6246 -3.1651
 2984SOL     OW20413   1.916   0.240   4.555 -0.2906  0.9169  0.5224
 2984SOL    HW120414   1.831   0.253   4.513  0.7089 -0.2932 -1.8958
 2984SOL    HW220415   1.908   0.159   4.606 -2.4953 -1.5537 -3.7754
 2985SOL     OW20416   3.648   0.302   7.222 -0.3193  0.3872  0.1907
 2985SOL    HW120417   3.599   0.378   7.250 -0.5303  0.7716 -1.2205
 2985SOL    HW220418   3.580   0.255   7.173 -1.3955  1.4185  0.7072
 2986SOL     OW20419   3.179   4.051   2.978  0.1640 -0.3303 -0.0388
 2986SOL    HW120420   3.233   3.976   2.953  0.9592 -0.0180  0.7321
 2986SOL    HW220421   3.236   4.081   3.049  1.6769 -0.9885 -0.9589
 2987SOL     OW20422   2.093   2.372   0.093  0.6093 -0.1687 -0.4292
 2987SOL    HW120423   2.134   2.422   0.022  2.1557 -0.5343  0.2026
 2987SOL    HW220424   2.165   2.313   0.115  0.3483 -0.0795  0.6498
 2988SOL     OW20425   4.066   3.407  10.211 -0.2730 -0.2486 -0.0546
 2988SOL    HW120426   4.044   3.495  10.180 -1.7827 -1.0332 -1.1407
 2988SOL    HW220427   4.016   3.353  10.150 -0.0537 -1.2082  0.6112
 2989SOL     OW20428   3.686   0.556   8.522 -0.4035  0.0002 -0.2989
 2989SOL    HW120429   3.612   0.613   8.546 -1.3205 -1.3301  0.0443
 2989SOL    HW220430   3.757   0.590   8.576  0.0151 -2.4608  0.7188
 2990SOL     OW20431   3.653   2.882   7.916  0.4858 -0.7800 -0.2073
 2990SOL    HW120432   3.608   2.799   7.905  0.1743 -0.7911  1.0497
 2990SOL    HW220433   3.666   2.904   7.824 -1.7805  0.6654 -0.1693
 2991SOL     OW20434   0.841   3.847   0.506  0.2921 -0.4476  0.6742
 2991SOL    HW120435   0.846   3.916   0.571 -1.5972 -1.1887  1.6111
 2991SOL    HW220436   0.803   3.893   0.431 -0.8905 -1.2364  0.7854
 2992SOL     OW20437   1.814   2.332   3.001  0.5675  0.4399 -0.2409
 2992SOL    HW120438   1.725   2.364   2.985 -0.5014 -2.6571 -0.6557
 2992SOL    HW220439   1.816   2.316   3.096 -2.0835 -1.5879 -0.5070
 2993SOL     OW20440   4.499   0.127  13.084 -0.5127  0.5592  0.2035
 2993SOL    HW120441   4.550   0.116  13.164  0.4961 -0.9647 -0.6510
 2993SOL    HW220442   4.478   0.037  13.062 -1.1548  0.4364  1.3083
 2994SOL     OW20443   2.951   4.003   2.163  0.0695  0.2757 -0.5672
 2994SOL    HW120444   2.999   3.921   2.152  2.3062  1.5989 -0.6369
 2994SOL    HW220445   2.891   4.005   2.089 -0.8867 -2.2195  0.1156
 2995SOL     OW20446   2.944   4.303   7.931  0.3057  0.4930  0.4033
 2995SOL    HW120447   3.037   4.303   7.952  0.8070  0.3775 -1.7991
 2995SOL    HW220448   2.926   4.397   7.920 -2.5219 -0.1298 -0.2182
 2996SOL     OW20449   4.199   0.439  17.402  0.0670 -0.5147 -0.4060
 2996SOL    HW120450   4.119   0.428  17.453  0.4022  0.1028  0.2582
 2996SOL    HW220451   4.241   0.521  17.428 -0.1569 -0.4378 -0.2816
 2997SOL     OW20452   2.462   1.373   1.219 -0.0210 -0.1605  0.3345
 2997SOL    HW120453   2.453   1.468   1.223 -2.7849 -0.4145  0.5450
 2997SOL    HW220454   2.489   1.360   1.128 -0.9758  1.5403 -0.2009
 2998SOL     OW20455   2.627   0.853  12.434  0.0749 -0.4468  0.1301
 2998SOL    HW120456   2.641   0.935  12.388  0.2677 -0.6209 -0.1227
 2998SOL    HW220457   2.718   0.824  12.429 -0.3518 -1.6162 -0.9226
 2999SOL     OW20458   0.369   4.369   6.221 -0.0531  0.5257 -0.6314
 2999SOL    HW120459   0.416   4.446   6.255  0.3209  0.6885 -1.5246
 2999SOL    HW220460   0.354   4.325   6.305  2.8577  0.5398 -0.0853
 3000SOL     OW20461   3.409   3.123   5.542  0.6930  0.5239  0.0617
 3000SOL    HW120462   3.438   3.045   5.495 -0.3844 -0.1061  0.4193
 3000SOL    HW220463   3.323   3.087   5.564  1.9740 -2.1345  0.7238
 3001SOL     OW20464   0.007   4.357   6.318  0.1860  0.4950 -0.6710
 3001SOL    HW120465   4.693   4.443   6.313 -1.7567 -0.3928 -0.1321
 3001SOL    HW220466   0.096   4.372   6.287 -0.0626  1.3512 -0.9495
 3002SOL     OW20467   0.822   4.588   4.198 -0.5663 -0.4053 -0.1851
 3002SOL    HW120468   0.806   4.536   4.119  0.1506 -0.3285 -0.3756
 3002SOL    HW220469   0.761   4.550   4.261  0.6421 -0.4905  0.9227
 3003SOL     OW20470   0.127   2.904   4.418 -0.0028 -0.3053 -0.0830
 3003SOL    HW120471   0.207   2.928   4.465 -0.6061  1.6950 -0.0468
 3003SOL    HW220472   0.150   2.814   4.396  1.9532  0.0228  0.5690
 3004SOL     OW20473   1.946   2.742   3.145  0.4909 -0.3933 -0.5435
 3004SOL    HW120474   1.893   2.752   3.224  1.3026 -0.2619 -0.0170
 3004SOL    HW220475   1.997   2.823   3.145 -0.6852  0.3255  2.3990
 3005SOL     OW20476   4.500   0.550   8.436 -0.2236 -0.0221 -0.6148
 3005SOL    HW120477   4.522   0.465   8.398 -0.6649 -0.6167  0.4400
 3005SOL    HW220478   4.467   0.527   8.524 -2.1003  2.2488 -0.7182
 3006SOL     OW20479   3.694   4.392  17.582 -0.4777  0.3108 -0.1171
 3006SOL    HW120480   3.666   4.473  17.626 -1.8568 -2.1883  3.5805
 3006SOL    HW220481   3.729   4.333  17.649 -0.1037 -0.6184 -1.1334
 3007SOL     OW20482   2.517   0.150  15.525 -0.0874  0.0804 -0.2467
 3007SOL    HW120483   2.459   0.077  15.546  0.0157  0.5996  1.8601
 3007SOL    HW220484   2.469   0.194  15.456  1.2573  2.6248  0.4478
 3008SOL     OW20485   2.553   3.905  10.225 -0.4649  0.7956 -0.0382
 3008SOL    HW120486   2.623   3.888  10.288  0.1562  0.7449 -0.7378
 3008SOL    HW220487   2.501   3.825  10.229 -0.1088  0.7235  3.2384
 3009SOL     OW20488   2.017   2.909   0.060 -0.3158 -0.2643 -0.0608
 3009SOL    HW120489   2.009   2.891  17.674 -0.4993 -1.8653  0.2654
 3009SOL    HW220490   2.112   2.899   0.067 -0.1829  0.8522 -0.2811
 3010SOL     OW20491   0.402   0.364   4.439  0.1693  0.3164  0.1888
 3010SOL    HW120492   0.409   0.459   4.433 -0.7925  0.2704 -1.8816
 3010SOL    HW220493   0.396   0.335   4.347  2.0240 -1.5192  0.6513
 3011SOL     OW20494   1.474   1.997   5.981  0.8107 -0.2006  0.3274
 3011SOL    HW120495   1.450   1.920   6.033 -0.7205 -0.5732 -0.9028
 3011SOL    HW220496   1.468   1.961   5.892 -3.3980 -0.3040  0.6549
 3012SOL     OW20497   2.123   2.801  13.821  0.1011  0.1728 -0.2539
 3012SOL    HW120498   2.098   2.711  13.800 -1.4042  0.5135  0.0220
 3012SOL    HW220499   2.218   2.791  13.824 -0.0506 -0.3833  2.7796
 3013SOL     OW20500   0.535   4.454   2.946  0.2108 -0.4424 -0.3903
 3013SOL    HW120501   0.476   4.434   2.873 -1.9906 -1.2620  1.6009
 3013SOL    HW220502   0.621   4.466   2.907  0.6326 -0.6715  0.4778
 3014SOL     OW20503   1.600   3.695   5.257 -0.1935  0.6912  0.5654
 3014SOL    HW120504   1.510   3.673   5.233  0.5151 -3.1597  1.3546
 3014SOL    HW220505   1.608   3.770   5.197  0.7498  0.4531  0.3927
 3015SOL     OW20506   4.209   1.939   4.078 -1.0101  0.1982 -0.1165
 3015SOL    HW120507   4.155   1.934   3.999  1.0247  1.5881 -1.6140
 3015SOL    HW220508   4.204   2.032   4.098 -2.3671 -0.0406  0.6241
 3016SOL     OW20509   0.025   3.522   9.671  0.2883  0.6251  0.0628
 3016SOL    HW120510   4.697   3.533   9.748  3.5333 -0.8747  2.5701
 3016SOL    HW220511   4.689   3.487   9.607  1.0447 -1.0379  0.2320
 3017SOL     OW20512   3.632   3.090   5.332 -0.3122  0.0476  0.4918
 3017SOL    HW120513   3.680   3.107   5.413  3.8335 -2.4220 -1.4174
 3017SOL    HW220514   3.697   3.114   5.266  1.0454  1.9361  2.5189
 3018SOL     OW20515   1.317   3.098   8.476  0.1934 -0.5832  0.5859
 3018SOL    HW120516   1.258   3.143   8.415 -0.4558  0.4820  2.0101
 3018SOL    HW220517   1.360   3.032   8.421 -0.7222 -0.2648 -0.5194
 3019SOL     OW20518   0.550   0.116  13.961 -0.2233 -0.0747 -0.1022
 3019SOL    HW120519   0.490   0.148  14.028 -1.5659  1.3655 -1.9908
 3019SOL    HW220520   0.578   0.200  13.922 -1.1146 -0.0378 -0.6587
 3020SOL     OW20521   1.374   4.377   5.867 -0.4240 -0.3319  0.3383
 3020SOL    HW120522   1.436   4.346   5.933  0.1509 -0.4489 -0.2590
 3020SOL    HW220523   1.437   4.420   5.809  2.7045 -2.7737  1.9015
 3021SOL     OW20524   3.676   1.105   7.241  0.2952  0.5466 -0.6304
 3021SOL    HW120525   3.667   1.184   7.295 -1.4685  1.4351 -2.2156
 3021SOL    HW220526   3.739   1.045   7.282 -1.7997 -0.9134  0.4459
 3022SOL     OW20527   4.463   3.136   1.714 -0.7845  0.3121  0.3012
 3022SOL    HW120528   4.386   3.084   1.696  1.0954 -1.9612 -1.1191
 3022SOL    HW220529   4.478   3.186   1.634 -2.0704 -0.5436 -0.4611
 3023SOL     OW20530   0.344   1.844  12.506  0.4780  0.2161  0.1747
 3023SOL    HW120531   0.435   1.872  12.523  0.3545  0.6027  0.2117
 3023SOL    HW220532   0.332   1.803  12.592 -1.9567 -0.9814 -0.7620
 3024SOL     OW20533   2.277   0.914   6.906  0.0592  0.0099  0.2538
 3024SOL    HW120534   2.239   0.932   6.992  2.1542  0.8939  1.0029
 3024SOL    HW220535   2.316   0.828   6.922 -1.9922 -0.5256  2.4146
 3025SOL     OW20536   2.172   3.523  15.775 -0.0948  0.0002 -0.3231
 3025SOL    HW120537   2.086   3.565  15.778  0.3573  0.7247  2.1761
 3025SOL    HW220538   2.161   3.450  15.835  1.1197 -0.9359 -1.2319
 3026SOL     OW20539   0.636   2.558   3.302 -0.2881  0.0123 -0.2724
 3026SOL    HW120540   0.553   2.540   3.347  0.1990  0.1075  0.6706
 3026SOL    HW220541   0.635   2.650   3.275 -1.9438 -0.1918 -0.9197
 3027SOL     OW20542   3.418   3.125   2.353  0.4253  0.2571  0.3175
 3027SOL    HW120543   3.328   3.104   2.380  0.4674 -0.1577  0.1396
 3027SOL    HW220544   3.451   3.176   2.426 -0.5260  1.1706  0.1088
 3028SOL     OW20545   1.805   4.527   4.823 -0.0927  0.5448 -0.0687
 3028SOL    HW120546   1.772   4.477   4.748  0.0209  0.4870 -0.0808
 3028SOL    HW220547   1.735   4.523   4.888 -0.3620 -0.6664 -0.4270
 3029SOL     OW20548   0.109   4.634  11.304  0.8532  0.2067 -0.1791
 3029SOL    HW120549   0.032   4.583  11.279  1.9115 -0.9447 -1.0288
 3029SOL    HW220550   0.171   4.573  11.342  0.6949  0.7694  0.9962
 3030SOL     OW20551   3.271   0.942   7.615  0.1737  0.0839  0.0198
 3030SOL    HW120552   3.190   0.896   7.637  1.7905 -2.4994  0.5925
 3030SOL    HW220553   3.301   0.942   7.706 -0.7211 -0.9153  0.3185
 3031SOL     OW20554   1.839   1.006   3.618  0.0578  0.6918  0.4938
 3031SOL    HW120555   1.915   1.036   3.668  0.3339  0.7087  0.0690
 3031SOL    HW220556   1.819   1.076   3.556 -3.3594 -0.4053  0.3374
 3032SOL     OW20557   0.625   3.927  13.624 -0.1116 -0.6492  0.4455
 3032SOL    HW120558   0.580   3.993  13.677  3.1620  1.7916  0.1204
 3032SOL    HW220559   0.684   3.903  13.695 -1.1274  0.7756  1.7853
 3033SOL     OW20560   0.064   2.657   0.041  0.0209  0.6436 -0.4328
 3033SOL    HW120561   0.007   2.585   0.014 -0.7268  1.1101 -0.1089
 3033SOL    HW220562   0.068   2.716  17.674  0.1038  1.2715  0.0569
 3034SOL     OW20563   1.312   3.803   8.595  0.4631 -0.4563 -0.6063
 3034SOL    HW120564   1.224   3.765   8.604  0.1036  0.7751  1.0507
 3034SOL    HW220565   1.293   3.887   8.636 -0.8730 -0.5986 -0.9224
 3035SOL     OW20566   2.834   1.210  11.312 -0.5610  0.8387 -0.5045
 3035SOL    HW120567   2.922   1.234  11.339 -0.1885  0.1571 -1.1072
 3035SOL    HW220568   2.789   1.290  11.341 -0.0155  0.6387  0.9095
 3036SOL     OW20569   2.837   4.372   6.752 -0.5184 -0.2005 -0.0000
 3036SOL    HW120570   2.895   4.297   6.735 -0.7789 -0.0242 -1.7247
 3036SOL    HW220571   2.892   4.443   6.719 -0.4700 -0.5175 -0.6133
 3037SOL     OW20572   2.740   3.455  13.713 -0.4903  0.4531 -0.1974
 3037SOL    HW120573   2.795   3.425  13.640  0.3224 -0.2975  0.7192
 3037SOL    HW220574   2.774   3.401  13.785 -0.8657  0.0504 -0.3197
 3038SOL     OW20575   1.465   4.142  15.364 -0.3776  0.1577 -0.1810
 3038SOL    HW120576   1.389   4.193  15.337 -1.5729 -0.4411  2.0330
 3038SOL    HW220577   1.490   4.193  15.441 -0.3538  0.4627 -0.3918
 3039SOL     OW20578   2.918   4.292   4.689  0.2958  0.1737 -0.0638
 3039SOL    HW120579   2.996   4.238   4.673  2.1974  2.2187  2.3665
 3039SOL    HW220580   2.913   4.330   4.601  0.1359 -2.9763 -1.4029
 3040SOL     OW20581   2.982   0.205  15.242  0.1503 -0.1366 -0.5351
 3040SOL    HW120582   3.075   0.226  15.251 -0.1401  1.2027 -0.6553
 3040SOL    HW220583   2.985   0.156  15.160 -2.4611 -0.6922 -0.2875
 3041SOL     OW20584   3.229   4.013   1.944 -0.1061  0.1793 -0.1367
 3041SOL    HW120585   3.162   3.950   1.967 -1.4830  2.0516  1.0080
 3041SOL    HW220586   3.182   4.057   1.873  0.6870  0.8268 -0.2725
 3042SOL     OW20587   3.367   4.542  11.506  0.8221 -0.2586  0.5661
 3042SOL    HW120588   3.293   4.490  11.474  0.3494  2.1370 -2.3224
 3042SOL    HW220589   3.429   4.528  11.434  0.7395  1.9458  0.0562
 3043SOL     OW20590   1.055   3.901  14.654  0.3184  0.1354 -0.0577
 3043SOL    HW120591   1.098   3.880  14.737 -0.6411  0.1479  0.4338
 3043SOL    HW220592   0.973   3.935  14.689  1.0450  0.2236  1.5618
 3044SOL     OW20593   4.074   3.107  12.767 -0.9485  0.1777 -0.4717
 3044SOL    HW120594   4.106   3.173  12.706  0.8354  1.1849  1.5341
 3044SOL    HW220595   4.003   3.157  12.809 -0.8085  1.2402 -1.5288
 3045SOL     OW20596   1.593   0.650   4.980 -0.9631  0.0634 -0.0783
 3045SOL    HW120597   1.573   0.742   4.964  3.1418  1.0517  0.3783
 3045SOL    HW220598   1.502   0.623   4.971 -0.0644 -2.6298 -1.1492
 3046SOL     OW20599   1.657   4.028   1.963 -0.2087 -0.1863 -0.4635
 3046SOL    HW120600   1.637   3.935   1.979 -0.6079  0.3874  2.4426
 3046SOL    HW220601   1.580   4.062   1.917 -1.0046  2.4762  2.8461
 3047SOL     OW20602   4.469   3.479   7.980 -0.2437 -0.2378 -0.1754
 3047SOL    HW120603   4.510   3.458   8.064 -0.4489  0.0817  0.0069
 3047SOL    HW220604   4.543   3.533   7.952  0.9209 -0.3161  2.7525
 3048SOL     OW20605   2.936   3.405   5.089  0.2089 -0.5241 -0.1070
 3048SOL    HW120606   2.872   3.474   5.071  0.0788 -1.0830 -1.8022
 3048SOL    HW220607   3.017   3.451   5.065  0.8810 -1.2216  0.8426
 3049SOL     OW20608   1.573   4.432   2.901 -0.1352 -0.7036  0.3791
 3049SOL    HW120609   1.482   4.446   2.876 -0.4347 -1.4841  1.0617
 3049SOL    HW220610   1.615   4.426   2.815  3.2579 -2.1989  2.1125
 3050SOL     OW20611   3.495   1.805   2.469  0.3557  0.3995 -0.0568
 3050SOL    HW120612   3.535   1.873   2.414 -2.9886  0.8874 -1.8976
 3050SOL    HW220613   3.405   1.835   2.465  0.4386  0.6673  0.1039
 3051SOL     OW20614   4.438   4.163   5.102  0.4545 -0.0325 -0.3560
 3051SOL    HW120615   4.434   4.202   5.189 -1.2875  1.9453 -1.3496
 3051SOL    HW220616   4.403   4.076   5.124 -0.0526  0.3401  0.3014
 3052SOL     OW20617   3.967   0.110  14.136 -0.0620 -0.2844  0.0367
 3052SOL    HW120618   3.882   0.155  14.135 -1.1128 -2.2468  0.1721
 3052SOL    HW220619   3.939   0.024  14.104 -1.8196 -0.7325  2.7054
 3053SOL     OW20620   0.734   4.604   7.576  0.6715  0.6957 -0.2429
 3053SOL    HW120621   0.645   4.627   7.603  1.1762 -0.2471  2.2535
 3053SOL    HW220622   0.791   4.613   7.653  2.9354 -0.7731 -1.7594
 3054SOL     OW20623   1.506   2.845   4.164 -0.0592  0.5515 -0.3083
 3054SOL    HW120624   1.552   2.767   4.134 -0.9817  0.3638 -1.2372
 3054SOL    HW220625   1.421   2.812   4.194 -0.7636  0.4287 -2.4384
 3055SOL     OW20626   0.632   1.419   8.745  0.2750 -0.4300 -0.4991
 3055SOL    HW120627   0.582   1.494   8.711  0.7013 -0.7107 -1.7203
 3055SOL    HW220628   0.718   1.457   8.758  0.5206 -1.1830  0.0904
 3056SOL     OW20629   2.315   2.571   6.270  0.1219 -0.4858 -0.1939
 3056SOL    HW120630   2.323   2.499   6.332  0.2882  1.5807  2.1829
 3056SOL    HW220631   2.226   2.560   6.236  0.6464 -1.0441 -1.3894
 3057SOL     OW20632   2.279   4.261   3.015 -0.0880  0.7417  0.2285
 3057SOL    HW120633   2.354   4.204   2.994  0.7017  1.2384  1.6569
 3057SOL    HW220634   2.242   4.248   2.928 -2.2473  0.6271  1.1765
 3058SOL     OW20635   0.121   1.635  13.590  0.3125 -0.1435  0.3932
 3058SOL    HW120636   0.129   1.540  13.578 -1.2734 -0.2609  0.3516
 3058SOL    HW220637   0.148   1.636  13.682  1.6965  0.5907 -0.0182
 3059SOL     OW20638   1.437   2.808   4.924 -0.1751 -0.5624 -0.1044
 3059SOL    HW120639   1.473   2.733   4.972 -0.9383  0.0308  1.3996
 3059SOL    HW220640   1.479   2.804   4.838  1.8569  1.9375  0.7842
 3060SOL     OW20641   4.506   0.950  12.736 -0.4975 -0.1806  0.0951
 3060SOL    HW120642   4.418   0.947  12.700 -1.0872  3.1278  1.2893
 3060SOL    HW220643   4.492   0.998  12.817 -0.9922 -0.2357  0.0418
 3061SOL     OW20644   3.922   4.222   6.035  0.2803  0.5080  0.5372
 3061SOL    HW120645   3.916   4.221   5.939  0.7891 -0.3656  0.5179
 3061SOL    HW220646   4.008   4.253   6.061  0.2123  1.1643 -0.0274
 3062SOL     OW20647   4.414   3.630   3.788  0.4526  0.3901  0.1591
 3062SOL    HW120648   4.369   3.546   3.800  0.8862 -0.0117 -1.0269
 3062SOL    HW220649   4.357   3.684   3.733  0.7473  0.3571 -0.1741
 3063SOL     OW20650   3.916   3.489  13.097 -0.2244  0.6173 -0.3373
 3063SOL    HW120651   3.878   3.566  13.140 -1.6055  0.5155 -1.3809
 3063SOL    HW220652   3.887   3.415  13.149  2.0718 -0.5214 -0.7068
 3064SOL     OW20653   0.304   0.647   9.582 -0.2227 -0.0833  0.2620
 3064SOL    HW120654   0.353   0.727   9.598  0.3364 -0.4975  0.5916
 3064SOL    HW220655   0.307   0.614   9.671 -1.4054  2.0145  1.0820
 3065SOL     OW20656   3.552   2.168  15.333 -0.7861  0.6930  0.0907
 3065SOL    HW120657   3.531   2.224  15.408  2.1302  1.1574  0.5562
 3065SOL    HW220658   3.464   2.151  15.298 -0.6607  0.3297 -0.0475
 3066SOL     OW20659   2.371   1.322   7.806 -0.4509 -0.2043 -0.1626
 3066SOL    HW120660   2.318   1.389   7.848 -0.8115 -0.9906  0.6339
 3066SOL    HW220661   2.413   1.296   7.888 -0.1839  0.3099 -0.1309
 3067SOL     OW20662   3.463   4.024   5.783 -0.2334 -0.0103  0.5268
 3067SOL    HW120663   3.472   4.001   5.875  0.1414 -0.5936  0.3431
 3067SOL    HW220664   3.452   4.118   5.789  0.9191  0.0972  0.8206
 3068SOL     OW20665   0.662   4.575  11.532 -0.5173  0.6741 -0.2712
 3068SOL    HW120666   0.710   4.511  11.480 -2.4360 -1.2074  0.2888
 3068SOL    HW220667   0.740   4.618  11.568 -1.7568  2.4400  0.3085
 3069SOL     OW20668   2.318   2.104   4.666 -0.2446  0.5077  0.0693
 3069SOL    HW120669   2.230   2.072   4.645 -1.0154  3.5689 -1.3112
 3069SOL    HW220670   2.308   2.107   4.761 -1.0797 -1.2279  0.0385
 3070SOL     OW20671   2.670   3.514   9.089  0.2113  0.2309  0.4343
 3070SOL    HW120672   2.582   3.529   9.124 -0.2926 -0.2824 -0.5888
 3070SOL    HW220673   2.665   3.422   9.062  3.1916  0.5352 -1.1260
 3071SOL     OW20674   2.935   2.560   4.658  0.0980 -0.4873 -0.4741
 3071SOL    HW120675   2.946   2.623   4.729 -0.8004 -0.6442 -0.1899
 3071SOL    HW220676   2.914   2.622   4.588 -1.2391 -1.5226 -0.9896
 3072SOL     OW20677   3.885   3.966   4.707  0.2784  0.0537 -0.5170
 3072SOL    HW120678   3.835   3.951   4.788  1.3482  0.3803  0.2014
 3072SOL    HW220679   3.883   3.874   4.680  2.5265  0.1317 -0.9135
 3073SOL     OW20680   0.694   2.909   4.585 -0.1909 -0.0284  0.1558
 3073SOL    HW120681   0.624   2.974   4.581 -0.3095  0.0688  3.3990
 3073SOL    HW220682   0.765   2.959   4.624  0.3700  0.9368 -2.1487
 3074SOL     OW20683   0.347   2.015   6.946  0.2890  0.0226  0.3783
 3074SOL    HW120684   0.351   2.068   6.866 -1.4529  0.2027  0.4154
 3074SOL    HW220685   0.257   1.982   6.944  0.0530  0.4410  3.9421
 3075SOL     OW20686   4.121   1.747   9.448 -0.3848 -0.2200  0.1605
 3075SOL    HW120687   4.111   1.653   9.456 -1.5384  0.0809  2.1658
 3075SOL    HW220688   4.150   1.784   9.531 -0.8867 -0.3239  0.3831
 3076SOL     OW20689   0.222   4.640  15.841 -0.5903 -0.2700  0.3238
 3076SOL    HW120690   0.269   4.562  15.870  1.3880  0.5575 -0.6542
 3076SOL    HW220691   0.140   4.623  15.888 -0.9143  2.1869  0.6234
 3077SOL     OW20692   4.441   0.952   4.066 -0.1194  0.5238  0.0094
 3077SOL    HW120693   4.376   1.010   4.027  0.2640  2.0490  1.5968
 3077SOL    HW220694   4.492   0.927   3.989  1.1180 -1.4577  1.4689
 3078SOL     OW20695   0.084   2.554  12.495  0.0921  0.4634 -0.8245
 3078SOL    HW120696   0.099   2.643  12.464  3.9830  0.4303  0.9370
 3078SOL    HW220697   0.149   2.552  12.565 -0.2662 -0.5187 -0.5190
 3079SOL     OW20698   2.751   2.000   2.771 -0.2695 -0.4466 -0.5050
 3079SOL    HW120699   2.669   1.977   2.815 -0.7458  0.9497 -0.6821
 3079SOL    HW220700   2.782   2.079   2.816  0.6645 -0.8029 -0.5102
 3080SOL     OW20701   0.052   3.379   2.745  0.2250 -0.0874  0.7609
 3080SOL    HW120702   0.064   3.284   2.755 -1.2035  0.0262  3.6701
 3080SOL    HW220703   4.696   3.381   2.696  0.7106 -0.2842 -0.0598
 3081SOL     OW20704   3.219   2.560   9.949 -0.5714  0.1093  0.1157
 3081SOL    HW120705   3.216   2.465   9.937 -1.1040  0.2179 -0.6355
 3081SOL    HW220706   3.142   2.591   9.902  0.0499  1.8893  0.2650
 3082SOL     OW20707   1.471   2.098   6.774 -0.3440  0.2145  0.1324
 3082SOL    HW120708   1.439   2.008   6.771  0.0198  0.1204 -0.7782
 3082SOL    HW220709   1.436   2.128   6.858  0.3435 -3.3285  1.6844
 3083SOL     OW20710   0.616   3.513   7.691  0.5500 -0.4571  0.3324
 3083SOL    HW120711   0.620   3.440   7.630 -2.4228  0.4605 -0.9620
 3083SOL    HW220712   0.564   3.576   7.641 -0.8379 -1.1199  0.9311
 3084SOL     OW20713   1.596   2.603   1.874  0.0071 -0.7361 -0.2829
 3084SOL    HW120714   1.520   2.644   1.832 -1.7098 -0.7732  2.8475
 3084SOL    HW220715   1.648   2.564   1.803  1.1347  1.1030 -0.4736
 3085SOL     OW20716   0.362   0.368  17.415 -0.0800 -0.0589 -0.0773
 3085SOL    HW120717   0.413   0.341  17.339 -0.1293  0.5121 -0.3157
 3085SOL    HW220718   0.288   0.307  17.419 -0.0753 -0.1378 -1.1618
 3086SOL     OW20719   3.277   1.157  10.042 -0.2305 -0.1440 -0.1726
 3086SOL    HW120720   3.278   1.226  10.109  1.4642 -0.3488  0.0143
 3086SOL    HW220721   3.369   1.132  10.035  0.5021  2.1453  1.1624
 3087SOL     OW20722   2.699   1.862   5.198  0.0502 -0.2296 -0.0954
 3087SOL    HW120723   2.719   1.878   5.105  3.2600  0.7150  0.7408
 3087SOL    HW220724   2.627   1.800   5.198  0.5789 -0.8528  2.0804
 3088SOL     OW20725   2.512   2.119   5.579 -0.2708 -0.1182 -0.4553
 3088SOL    HW120726   2.586   2.066   5.549  0.2664 -0.7711  2.0041
 3088SOL    HW220727   2.494   2.065   5.656 -1.5429 -0.1307 -0.7671
 3089SOL     OW20728   0.898   2.717   8.291  0.0126  0.6343 -0.0246
 3089SOL    HW120729   0.873   2.691   8.379 -3.7945  2.2566 -0.5831
 3089SOL    HW220730   0.830   2.670   8.242  0.0713  0.6408 -0.1134
 3090SOL     OW20731   3.803   2.391   2.613  0.9951  0.6745 -0.1896
 3090SOL    HW120732   3.793   2.347   2.528 -1.1309 -0.3588  0.5988
 3090SOL    HW220733   3.728   2.343   2.649  1.2899 -1.6217 -2.6076
 3091SOL     OW20734   4.058   4.596  13.344 -0.0141 -0.0666  0.1339
 3091SOL    HW120735   4.136   4.647  13.319  1.6664 -2.3038  0.8743
 3091SOL    HW220736   4.002   4.661  13.386  0.5673 -1.1079  2.5215
 3092SOL     OW20737   3.364   1.519  14.396  0.1469 -0.2144 -0.4723
 3092SOL    HW120738   3.381   1.444  14.452  2.5204  0.4950 -0.2233
 3092SOL    HW220739   3.284   1.558  14.429  0.2465 -1.9416  1.7400
 3093SOL     OW20740   3.194   1.112   2.883 -0.3431  0.4776  0.3966
 3093SOL    HW120741   3.215   1.162   2.962  0.3174  1.4069 -0.3528
 3093SOL    HW220742   3.275   1.063   2.872 -0.1637  0.8381  0.1046
 3094SOL     OW20743   3.939   1.856   5.004  0.0621  0.0524  0.4470
 3094SOL    HW120744   3.977   1.939   4.974 -0.5136 -0.6681 -2.2599
 3094SOL    HW220745   3.847   1.881   5.007 -0.3826 -1.0326 -4.5549
 3095SOL     OW20746   0.070   2.466  13.408 -0.0792  0.0285  0.3313
 3095SOL    HW120747   0.024   2.550  13.404  0.0663  0.0813 -0.2554
 3095SOL    HW220748   0.102   2.453  13.319  1.0382  0.7490  0.6298
 3096SOL     OW20749   0.052   1.554   0.959 -0.1451  0.0943 -0.0825
 3096SOL    HW120750   0.107   1.625   0.993 -0.3512  0.2270 -0.0291
 3096SOL    HW220751   4.713   1.549   1.029 -0.0706 -2.2555 -0.2027
 3097SOL     OW20752   3.617   2.015  17.006  0.1738  0.7101 -0.2872
 3097SOL    HW120753   3.688   1.956  16.980  0.0433  0.4660 -0.0787
 3097SOL    HW220754   3.610   2.073  16.930 -0.5186  0.4054 -0.4542
 3098SOL     OW20755   3.315   0.480   3.913  0.4620  0.1093  0.0752
 3098SOL    HW120756   3.257   0.555   3.916  1.2397  0.7595 -1.1066
 3098SOL    HW220757   3.272   0.419   3.973 -0.4474  1.4196  0.7377
 3099SOL     OW20758   1.741   3.021   9.008  0.2032  0.0487 -0.0482
 3099SOL    HW120759   1.829   3.000   9.040 -0.4448 -1.5888  0.6385
 3099SOL    HW220760   1.763   3.053   8.920  1.9592  0.5633  0.5763
 3100SOL     OW20761   3.116   0.104   4.257  0.7648  0.3425 -0.5142
 3100SOL    HW120762   3.118   0.039   4.328 -2.7929  1.2476  0.4374
 3100SOL    HW220763   3.159   0.062   4.183 -1.5110 -2.7519 -0.0983
 3101SOL     OW20764   4.148   2.291  10.500 -0.3744  0.1543 -0.6506
 3101SOL    HW120765   4.240   2.314  10.489  0.1807 -2.2626 -1.0057
 3101SOL    HW220766   4.098   2.372  10.490 -2.0983 -0.7714  0.5745
 3102SOL     OW20767   4.175   3.724   5.336 -0.4320  0.4198 -0.7843
 3102SOL    HW120768   4.218   3.640   5.355 -0.9291 -0.1373 -2.1113
 3102SOL    HW220769   4.150   3.761   5.420  0.8494 -0.2530 -0.1101
 3103SOL     OW20770   1.527   1.736   9.270  0.5154 -0.0512  0.0956
 3103SOL    HW120771   1.569   1.650   9.265 -1.7151 -1.1465  0.3401
 3103SOL    HW220772   1.596   1.796   9.242 -1.7074  1.6036 -1.8368
 3104SOL     OW20773   3.366   3.269   1.993  0.6343 -0.2444  0.3328
 3104SOL    HW120774   3.422   3.288   1.918 -0.0817  2.4528  0.4685
 3104SOL    HW220775   3.421   3.209   2.044  0.4223 -1.0985 -0.4434
 3105SOL     OW20776   0.644   1.374   7.740  0.5169 -0.0628  0.4521
 3105SOL    HW120777   0.659   1.316   7.814 -0.2150  1.2722  1.6292
 3105SOL    HW220778   0.670   1.463   7.763 -0.1978  0.6118 -1.3569
 3106SOL     OW20779   3.261   2.249   6.664 -0.1759 -0.3043  0.0153
 3106SOL    HW120780   3.307   2.189   6.724  0.7415  1.3428  0.9512
 3106SOL    HW220781   3.282   2.204   6.582 -0.0755  1.0628 -0.7086
 3107SOL     OW20782   0.873   2.185   9.098 -0.1661 -0.1720  0.5415
 3107SOL    HW120783   0.794   2.139   9.068  0.8749 -1.7857  0.2843
 3107SOL    HW220784   0.897   2.119   9.164  1.1481  1.1885  1.4142
 3108SOL     OW20785   0.399   1.284   9.394 -0.4280  0.5024  0.8368
 3108SOL    HW120786   0.385   1.344   9.468  2.8415  1.5762  0.5564
 3108SOL    HW220787   0.454   1.214   9.430  0.9968  0.4365 -1.5286
 3109SOL     OW20788   0.328   1.381   8.554  0.3987  0.5303 -0.4911
 3109SOL    HW120789   0.304   1.342   8.638  2.7586  0.8914  0.3486
 3109SOL    HW220790   0.412   1.334   8.551 -0.3295 -0.7519 -1.1049
 3110SOL     OW20791   3.717   2.064   8.338  0.3009  0.1725 -0.1406
 3110SOL    HW120792   3.783   2.060   8.408 -1.6326  0.4418  1.6852
 3110SOL    HW220793   3.642   2.048   8.394  0.6482  0.8373  0.5196
 3111SOL     OW20794   4.684   0.256   8.172 -0.1051 -0.6416  0.0431
 3111SOL    HW120795   4.706   0.305   8.092 -1.4562 -1.6927 -0.9587
 3111SOL    HW220796   0.041   0.212   8.188 -0.9259 -1.9801  0.5906
 3112SOL     OW20797   4.502   3.096  15.738  0.0172 -0.0395  0.6613
 3112SOL    HW120798   4.445   3.023  15.713  2.4739 -0.8477 -2.6056
 3112SOL    HW220799   4.586   3.055  15.716  0.3700 -0.2600  2.3867
 3113SOL     OW20800   1.149   0.688   7.553 -0.7464 -0.3833 -0.5918
 3113SOL    HW120801   1.217   0.664   7.617  0.1270  1.6151 -0.7644
 3113SOL    HW220802   1.069   0.657   7.595 -0.2119  1.6751  1.9632
 3114SOL     OW20803   0.321   4.528   4.925 -0.0563  0.4643  0.8608
 3114SOL    HW120804   0.264   4.467   4.972  0.4004 -1.1202 -0.6602
 3114SOL    HW220805   0.355   4.472   4.855  0.7208  1.4492  0.4471
 3115SOL     OW20806   0.299   2.193   2.688  0.4757  0.2660 -0.0668
 3115SOL    HW120807   0.228   2.218   2.629  0.9226  0.4862 -0.5260
 3115SOL    HW220808   0.327   2.279   2.719 -0.6477 -0.1621  2.0834
 3116SOL     OW20809   2.013   0.658   9.098  0.1876 -0.2518  0.2811
 3116SOL    HW120810   1.930   0.644   9.144  0.3753 -0.5989  0.5169
 3116SOL    HW220811   2.054   0.574   9.116  0.6025 -0.4409 -1.5775
 3117SOL     OW20812   3.975   4.243   1.219 -0.4449  0.6553  0.4784
 3117SOL    HW120813   3.915   4.317   1.208 -0.8528  0.0454 -1.4080
 3117SOL    HW220814   3.975   4.214   1.128  0.6674  3.4823 -0.4036
 3118SOL     OW20815   2.059   0.360   2.476 -0.6581 -0.0041  0.0758
 3118SOL    HW120816   2.071   0.409   2.394 -0.3415  0.3171  0.3170
 3118SOL    HW220817   2.143   0.365   2.520 -0.6312  0.1288  0.0090
 3119SOL     OW20818   2.594   1.186   6.524 -0.0232 -0.2081 -0.6389
 3119SOL    HW120819   2.611   1.192   6.618 -1.8470 -1.4984 -0.2174
 3119SOL    HW220820   2.560   1.096   6.528  0.1386 -0.2733 -0.7575
 3120SOL     OW20821   2.710   4.586   6.316  0.0862  0.2125  0.4994
 3120SOL    HW120822   2.632   4.569   6.263  1.4767 -0.2153 -1.4155
 3120SOL    HW220823   2.701   4.526   6.390 -0.8229 -1.4744 -1.0078
 3121SOL     OW20824   3.368   1.516  15.505  0.7556  0.0775  0.0159
 3121SOL    HW120825   3.329   1.594  15.465 -0.0739  0.4641  1.5765
 3121SOL    HW220826   3.451   1.551  15.536 -0.3094  2.2070  0.4668
 3122SOL     OW20827   1.050   0.546  13.863 -0.0547 -0.3615 -0.3425
 3122SOL    HW120828   1.098   0.465  13.878  1.2990  0.8931  2.0454
 3122SOL    HW220829   1.080   0.558  13.773  1.7441  0.7576  0.4135
 3123SOL     OW20830   1.963   2.849   5.399 -0.1133  0.0850  0.0017
 3123SOL    HW120831   1.979   2.794   5.475  1.0621 -0.5478 -0.7057
 3123SOL    HW220832   2.036   2.821   5.344 -0.6750  0.0051 -0.7054
 3124SOL     OW20833   3.345   2.048  12.266  0.5291  0.2891 -0.1361
 3124SOL    HW120834   3.339   1.955  12.243 -3.6103  0.7033 -0.5533
 3124SOL    HW220835   3.435   2.074  12.243 -0.0329  2.3548  0.0255
 3125SOL     OW20836   1.142   2.404  12.210 -0.0029 -0.5337 -0.4392
 3125SOL    HW120837   1.132   2.365  12.123 -0.2623  1.2142 -1.1922
 3125SOL    HW220838   1.058   2.449  12.211 -0.6830 -1.8298  0.0275
 3126SOL     OW20839   2.002   4.436  10.245 -0.3956 -0.1890  0.5868
 3126SOL    HW120840   1.985   4.376  10.318 -2.8998 -2.0973 -1.5533
 3126SOL    HW220841   2.085   4.398  10.215 -0.5168 -0.8493  1.0856
 3127SOL     OW20842   1.501   2.572  11.854 -0.1713 -0.6288  0.7584
 3127SOL    HW120843   1.593   2.561  11.878  0.2207 -1.8753 -1.3508
 3127SOL    HW220844   1.460   2.556  11.939 -2.3742  0.1805 -0.1726
 3128SOL     OW20845   1.615   0.521   6.898  0.4353 -0.1110 -0.2310
 3128SOL    HW120846   1.616   0.431   6.866  2.0728  0.4262 -1.6656
 3128SOL    HW220847   1.690   0.523   6.958 -0.8883  0.0774  1.4155
 3129SOL     OW20848   3.657   2.955  10.488  0.1860  0.7594  0.4313
 3129SOL    HW120849   3.696   2.874  10.454 -1.8448  1.1972 -2.8618
 3129SOL    HW220850   3.703   2.954  10.572 -1.4118  0.7218  1.3055
 3130SOL     OW20851   3.172   2.371   7.175 -0.4369  0.1837  1.3250
 3130SOL    HW120852   3.113   2.297   7.160 -0.0591  0.1551 -0.1089
 3130SOL    HW220853   3.112   2.443   7.158 -1.9645 -0.9933  1.8180
 3131SOL     OW20854   2.728   0.059   6.953 -0.2933 -0.3019  0.3110
 3131SOL    HW120855   2.814   0.079   6.916  0.4164 -0.7525  1.6864
 3131SOL    HW220856   2.745   4.716   7.016  0.1527  0.0532  0.5892
 3132SOL     OW20857   0.767   3.566   1.477 -0.1050  0.4617 -0.4243
 3132SOL    HW120858   0.695   3.629   1.483  0.2170  0.6118  1.9767
 3132SOL    HW220859   0.717   3.485   1.468  0.2949  0.3520 -1.5738
 3133SOL     OW20860   4.480   4.454   4.256  0.3439  0.3491 -0.4178
 3133SOL    HW120861   4.393   4.430   4.222 -0.4767  1.8051  0.6805
 3133SOL    HW220862   4.475   4.549   4.259  1.7206  0.4938 -3.1685
 3134SOL     OW20863   4.518   3.338   1.905 -0.0470  0.4215 -0.2038
 3134SOL    HW120864   4.505   3.287   1.985 -0.6861  0.7978 -0.0631
 3134SOL    HW220865   4.498   3.263   1.849  0.3530  0.6820 -0.6959
 3135SOL     OW20866   3.782   2.758   5.198 -0.2053  0.4062 -0.0506
 3135SOL    HW120867   3.836   2.689   5.160  0.6233  1.4923 -0.8400
 3135SOL    HW220868   3.845   2.802   5.254 -0.1950  1.2610 -0.7360
 3136SOL     OW20869   1.900   3.834   9.165 -0.2194  0.0616  0.4974
 3136SOL    HW120870   1.826   3.866   9.216 -1.3914  1.4071 -2.0710
 3136SOL    HW220871   1.919   3.764   9.227  0.7489 -2.3129 -2.4360
 3137SOL     OW20872   0.993   2.728   1.415 -0.3317 -0.3644  0.3104
 3137SOL    HW120873   1.061   2.793   1.399 -1.8526  1.3855  0.9580
 3137SOL    HW220874   1.034   2.642   1.405  2.3666  0.9657 -0.1286
 3138SOL     OW20875   0.194   1.681  13.854  0.0527  0.0572  0.0187
 3138SOL    HW120876   0.203   1.774  13.829  1.4121 -0.2739 -0.7238
 3138SOL    HW220877   0.287   1.659  13.857  0.1702  0.2897 -1.7706
 3139SOL     OW20878   4.561   3.341   3.154  0.0461  0.1489 -0.1226
 3139SOL    HW120879   4.553   3.279   3.082  3.9333 -1.1308  0.5678
 3139SOL    HW220880   4.500   3.312   3.221  0.0531  0.0208 -0.1709
 3140SOL     OW20881   3.028   4.319   8.648  0.2654 -0.2998  0.2695
 3140SOL    HW120882   3.014   4.258   8.720 -1.6329  0.7500  0.7859
 3140SOL    HW220883   3.074   4.388   8.696 -1.7570  1.1719  0.0650
 3141SOL     OW20884   4.069   0.025   8.135 -0.3627  0.1107 -0.3503
 3141SOL    HW120885   4.024   0.067   8.209 -0.6850 -2.1629  0.7675
 3141SOL    HW220886   4.144   4.719   8.185  0.1003  0.0982 -1.0662
 3142SOL     OW20887   0.651   3.168   8.038 -0.3454  0.2197  0.3401
 3142SOL    HW120888   0.646   3.176   8.134  0.2512  0.1699  0.3769
 3142SOL    HW220889   0.647   3.260   8.013  0.6445  0.2511  0.2653
 3143SOL     OW20890   0.120   1.055   5.090  0.0342 -0.2498 -0.2109
 3143SOL    HW120891   0.073   1.106   5.024  0.3073  0.9089  0.5054
 3143SOL    HW220892   0.124   0.975   5.037 -0.5662 -1.2802  1.3031
 3144SOL     OW20893   1.887   2.178  16.007  0.6440 -0.6494  0.5574
 3144SOL    HW120894   1.944   2.182  16.084  0.5889  0.9613  0.5127
 3144SOL    HW220895   1.948   2.154  15.938  0.8496  2.4110 -0.2930
 3145SOL     OW20896   4.559   3.552  12.760 -0.1326 -0.2180  0.6968
 3145SOL    HW120897   4.642   3.511  12.739 -0.1326  0.0955  0.0786
 3145SOL    HW220898   4.585   3.624  12.819 -0.6676 -1.1463  2.0719
 3146SOL     OW20899   2.676   0.466   6.653 -0.2091  0.1318 -0.4850
 3146SOL    HW120900   2.634   0.465   6.738 -1.8626  3.9502 -1.2641
 3146SOL    HW220901   2.770   0.473   6.670 -0.4143 -0.7759  0.9513
 3147SOL     OW20902   1.794   2.369   4.976  0.6944  0.7396  0.7901
 3147SOL    HW120903   1.715   2.346   4.927  1.9812  2.4933 -2.0977
 3147SOL    HW220904   1.767   2.445   5.027  0.2190  0.5368  0.8434
 3148SOL     OW20905   3.019   1.209  13.523 -0.4313 -0.3501 -0.2969
 3148SOL    HW120906   3.022   1.198  13.618  1.8615 -3.9822 -0.8175
 3148SOL    HW220907   3.106   1.175  13.504 -0.0086 -0.5941  2.1593
 3149SOL     OW20908   1.732   0.192   6.207 -0.5494 -0.2589 -0.0447
 3149SOL    HW120909   1.733   0.284   6.233  1.1794 -0.4440  0.5392
 3149SOL    HW220910   1.750   0.196   6.113  3.3539 -1.0367  0.6847
 3150SOL     OW20911   4.357   3.311   4.534 -0.2028  0.0719 -0.5643
 3150SOL    HW120912   4.362   3.355   4.450  2.5942  0.6414 -0.0981
 3150SOL    HW220913   4.279   3.356   4.568  0.1812  0.0299  0.3632
 3151SOL     OW20914   1.380   2.031   1.807 -0.0412  0.2803  0.2830
 3151SOL    HW120915   1.462   2.080   1.809 -2.4038  4.2807 -1.9483
 3151SOL    HW220916   1.396   1.958   1.868  2.3388  0.8054  0.2972
 3152SOL     OW20917   3.685   1.089   6.978 -0.5236  0.3643  0.1535
 3152SOL    HW120918   3.689   1.100   7.073 -2.7252  4.4235 -0.1910
 3152SOL    HW220919   3.768   1.046   6.961 -0.7273 -0.3571  0.9587
 3153SOL     OW20920   1.719   4.230  12.185 -0.0512  0.0622  0.0770
 3153SOL    HW120921   1.705   4.174  12.109  2.7113  0.2783 -0.5704
 3153SOL    HW220922   1.637   4.279  12.192  0.8432  1.3113  1.7675
 3154SOL     OW20923   0.250   1.541   8.142 -0.2452 -0.7156  0.0538
 3154SOL    HW120924   0.195   1.548   8.063 -0.1711 -0.0038  0.0653
 3154SOL    HW220925   0.330   1.528   8.090 -1.0324 -1.9685 -0.8470
 3155SOL     OW20926   0.283   0.338  14.949  0.2338  0.2984  0.4896
 3155SOL    HW120927   0.316   0.428  14.949 -1.3211  0.8814 -2.3716
 3155SOL    HW220928   0.231   0.331  15.028 -0.5485  0.3423 -0.0212
 3156SOL     OW20929   0.180   1.978   2.499 -0.7165 -0.1664 -0.0696
 3156SOL    HW120930   0.208   1.894   2.463  0.1473 -0.3762  1.1002
 3156SOL    HW220931   0.228   1.972   2.582 -1.3778  0.3828  0.3545
 3157SOL     OW20932   2.821   3.938   0.348  0.2268 -0.4398 -0.0922
 3157SOL    HW120933   2.886   3.897   0.404 -0.9203 -0.8611  0.9405
 3157SOL    HW220934   2.783   4.005   0.405 -3.1575 -1.5381 -1.0052
 3158SOL     OW20935   4.606   2.134   8.111  0.1335  0.0501  0.1152
 3158SOL    HW120936   4.570   2.201   8.169 -1.0744 -0.5596  0.0772
 3158SOL    HW220937   4.699   2.157   8.113  0.1873 -0.2396  1.4095
 3159SOL     OW20938   0.615   0.438   9.704  0.3830 -0.2331  0.0018
 3159SOL    HW120939   0.582   0.467   9.789  0.6505  0.1640 -0.0299
 3159SOL    HW220940   0.666   0.359   9.722 -0.6853 -1.1059 -0.7676
 3160SOL     OW20941   3.562   0.897   5.388  0.6489 -0.0088  0.6933
 3160SOL    HW120942   3.539   0.954   5.462  0.4388  1.1136 -0.2438
 3160SOL    HW220943   3.530   0.813   5.420  0.5381  0.8300  2.8365
 3161SOL     OW20944   3.124   2.881   2.806 -0.0274 -0.6447  0.0788
 3161SOL    HW120945   3.155   2.790   2.808  0.5013 -0.4565  0.2312
 3161SOL    HW220946   3.072   2.882   2.725  0.7785 -0.8606 -0.4430
 3162SOL     OW20947   4.614   0.570   5.717  0.0560 -0.1679  0.6475
 3162SOL    HW120948   4.548   0.638   5.705 -0.2333 -0.1773  2.1436
 3162SOL    HW220949   4.678   0.608   5.777  1.1587 -1.5902  0.3677
 3163SOL     OW20950   1.532   3.838   3.454  0.5787 -0.1962 -0.2151
 3163SOL    HW120951   1.508   3.890   3.531 -2.1060 -1.5485 -0.1073
 3163SOL    HW220952   1.603   3.784   3.487 -1.1125 -1.2685  1.6974
 3164SOL     OW20953   3.321   3.078  17.684  0.2375 -0.1748  0.1895
 3164SOL    HW120954   3.332   3.001  17.629  0.8765 -1.7945  2.5858
 3164SOL    HW220955   3.387   3.140  17.653 -0.5681  1.0225  0.8546
 3165SOL     OW20956   0.043   3.267   4.353 -0.0716 -0.0941  0.1863
 3165SOL    HW120957   4.689   3.285   4.306 -0.0502 -1.5214 -0.3777
 3165SOL    HW220958   0.086   3.217   4.284 -0.2795  0.6406 -0.4737
 3166SOL     OW20959   2.886   4.394   6.110 -0.1700  0.1908  0.0903
 3166SOL    HW120960   2.816   4.353   6.161  0.9725 -0.8631  0.8129
 3166SOL    HW220961   2.855   4.483   6.126 -1.8025 -0.4382  0.3816
 3167SOL     OW20962   2.332   3.092  16.099  0.0500  0.1433 -0.5376
 3167SOL    HW120963   2.382   3.013  16.082  0.8533  0.2548  1.3087
 3167SOL    HW220964   2.389   3.166  16.077  0.9420  0.1552  1.8136
 3168SOL     OW20965   0.713   1.203  16.152  0.3214 -0.3516  0.5477
 3168SOL    HW120966   0.719   1.109  16.168  1.4342 -0.9456 -3.3109
 3168SOL    HW220967   0.774   1.216  16.080  0.4685 -0.1341  0.7098
 3169SOL     OW20968   0.591   1.875  12.593 -0.4867  0.0419  0.2369
 3169SOL    HW120969   0.685   1.866  12.581 -0.4580 -1.1195  1.3300
 3169SOL    HW220970   0.567   1.861  12.685 -0.4563  2.5608  0.6294
 3170SOL     OW20971   0.109   4.704   2.928  0.0534  0.0251 -0.3656
 3170SOL    HW120972   0.036   4.695   2.989  0.6088  1.7261  0.5293
 3170SOL    HW220973   0.098   4.630   2.867 -0.6522 -1.1805  1.2301
 3171SOL     OW20974   1.944   4.107   3.623 -0.0035  0.1172  0.1389
 3171SOL    HW120975   1.884   4.176   3.652  1.4986  2.2052 -1.7852
 3171SOL    HW220976   2.008   4.168   3.588 -1.1612  1.0495 -0.3590
 3172SOL     OW20977   1.942   2.436   5.579 -0.3562  0.2054 -0.3015
 3172SOL    HW120978   1.847   2.437   5.568 -0.3639 -0.9017 -0.3592
 3172SOL    HW220979   1.948   2.431   5.674  0.8511  0.5125 -0.3623
 3173SOL     OW20980   2.577   2.642   3.837  0.0007 -0.3416 -0.1262
 3173SOL    HW120981   2.513   2.657   3.768  3.1017 -0.1902 -3.0060
 3173SOL    HW220982   2.565   2.716   3.896  0.1916  1.8398 -2.8128
 3174SOL     OW20983   0.625   2.864   6.338 -0.0406  0.9725  0.3690
 3174SOL    HW120984   0.593   2.792   6.392 -0.5246 -0.2884 -1.5869
 3174SOL    HW220985   0.555   2.930   6.344 -2.0954 -1.1653  0.1147
 3175SOL     OW20986   3.803   4.037  10.583 -0.2796  0.0752 -0.2411
 3175SOL    HW120987   3.855   3.957  10.577 -1.1156 -0.5534  0.7480
 3175SOL    HW220988   3.738   4.017  10.516 -1.4428  0.7252  0.6938
 3176SOL     OW20989   0.534   0.298  17.208 -0.1529  0.1193  0.3278
 3176SOL    HW120990   0.621   0.322  17.241  0.0697 -1.2638  0.7214
 3176SOL    HW220991   0.541   0.322  17.116  0.3490 -0.4774  0.2150
 3177SOL     OW20992   3.457   0.358  14.287 -0.3381  0.3065 -0.0874
 3177SOL    HW120993   3.434   0.422  14.220  0.7137  0.3432 -0.4218
 3177SOL    HW220994   3.445   0.275  14.242 -0.5195  0.6286 -0.6369
 3178SOL     OW20995   1.986   2.815   0.882 -0.2201 -0.9342 -0.2966
 3178SOL    HW120996   1.913   2.786   0.937 -0.2314  0.0104  0.2056
 3178SOL    HW220997   2.048   2.752   0.917 -1.3954 -2.3377 -0.7534
 3179SOL     OW20998   2.657   1.571  10.770  0.1404  0.2692  0.2598
 3179SOL    HW120999   2.569   1.582  10.736  0.3837  1.6114  0.0624
 3179SOL    HW221000   2.639   1.620  10.850  0.4304  0.4829  0.1949
 3180SOL     OW21001   2.308   1.100  14.592 -0.1319 -0.2738  0.2185
 3180SOL    HW121002   2.255   1.053  14.657 -2.7266 -0.7838 -2.2647
 3180SOL    HW221003   2.370   1.135  14.655 -1.1496  0.4332  0.8247
 3181SOL     OW21004   0.674   0.242  16.744  0.0364 -0.4182 -0.2014
 3181SOL    HW121005   0.634   0.296  16.813  1.0656  1.5073 -1.0996
 3181SOL    HW221006   0.713   0.314  16.694  0.2597 -0.3609  0.0558
 3182SOL     OW21007   0.117   2.732   9.518  0.2939 -0.9757  0.0479
 3182SOL    HW121008   0.033   2.700   9.550  0.0992 -0.1862  0.3369
 3182SOL    HW221009   0.077   2.797   9.461  1.2050  0.3658  0.9260
 3183SOL     OW21010   2.936   3.475   1.486 -0.1462 -0.4291 -0.1549
 3183SOL    HW121011   2.922   3.410   1.418 -1.1663  1.4721 -1.7757
 3183SOL    HW221012   3.003   3.537   1.459  0.8361 -0.6436  1.8350
 3184SOL     OW21013   4.516   2.591  11.502  0.3901  0.0243 -0.1189
 3184SOL    HW121014   4.448   2.539  11.544 -0.2376  1.7363  0.9469
 3184SOL    HW221015   4.548   2.524  11.441 -1.0491  0.3828 -1.2515
 3185SOL     OW21016   2.071   4.372   5.447  0.0850  0.8658 -0.7928
 3185SOL    HW121017   2.011   4.401   5.379 -1.7193 -1.9014 -0.3624
 3185SOL    HW221018   2.065   4.278   5.429 -0.8418  0.7037  0.3838
 3186SOL     OW21019   0.627   0.572   4.240 -0.3000  0.3023  0.1907
 3186SOL    HW121020   0.560   0.640   4.250 -0.0174  0.9154 -1.9872
 3186SOL    HW221021   0.704   0.614   4.201 -0.2002 -0.3213 -0.2794
 3187SOL     OW21022   1.709   0.671   1.175 -0.1196 -0.2059  0.3001
 3187SOL    HW121023   1.734   0.692   1.085 -1.2703 -0.6531 -0.1337
 3187SOL    HW221024   1.791   0.630   1.202  0.2811  0.0076 -0.6158
 3188SOL     OW21025   1.809   0.833  14.136 -0.1723 -0.2049 -0.8340
 3188SOL    HW121026   1.834   0.891  14.064  2.9048  0.5215  0.8105
 3188SOL    HW221027   1.744   0.882  14.186 -1.2143 -1.3172 -1.0953
 3189SOL     OW21028   1.722   4.582   1.067 -0.3391  0.0488 -0.2737
 3189SOL    HW121029   1.725   4.528   0.988 -1.2661 -0.6270  0.1442
 3189SOL    HW221030   1.659   4.541   1.126 -1.1072  3.1341  1.0631
 3190SOL     OW21031   2.402   0.597   2.589 -0.2865 -0.0202 -0.1717
 3190SOL    HW121032   2.363   0.643   2.516  2.2391 -1.0046 -2.1556
 3190SOL    HW221033   2.417   0.667   2.652 -1.3083 -1.2322  1.4346
 3191SOL     OW21034   0.684   3.284   6.441 -0.1312  0.2830  0.0003
 3191SOL    HW121035   0.765   3.323   6.408  0.5782 -1.4999 -0.3279
 3191SOL    HW221036   0.706   3.264   6.532  0.5311 -1.5983 -0.5843
 3192SOL     OW21037   1.841   4.024  11.251  0.1797  0.6892 -0.5021
 3192SOL    HW121038   1.846   3.950  11.190  1.3729 -0.3270  0.8255
 3192SOL    HW221039   1.787   3.984  11.319  1.0586  2.3004  1.1395
 3193SOL     OW21040   4.293   1.136  12.052 -0.2788 -0.2393  0.1867
 3193SOL    HW121041   4.362   1.083  12.091 -1.7261 -1.8811  0.5212
 3193SOL    HW221042   4.311   1.223  12.088 -2.2150  0.4715 -0.5665
 3194SOL     OW21043   2.921   0.508   8.332 -0.3561 -0.1238  0.6177
 3194SOL    HW121044   2.861   0.435   8.324 -1.4048  1.0258 -2.1872
 3194SOL    HW221045   2.882   0.568   8.268  1.0831 -0.6686 -0.7851
 3195SOL     OW21046   3.201   3.554  10.649  0.3564  0.0651  0.8858
 3195SOL    HW121047   3.211   3.523  10.559  1.6082  1.1645  0.6350
 3195SOL    HW221048   3.106   3.565  10.653  0.4065 -0.4860  3.5494
 3196SOL     OW21049   1.260   4.690   5.653 -0.1091 -0.2456 -0.0113
 3196SOL    HW121050   1.351   4.663   5.641  0.8861  2.3654  1.5703
 3196SOL    HW221051   1.260   0.001   5.741  0.9802  0.0894 -0.1519
 3197SOL     OW21052   0.219   2.863   3.660 -0.3267 -0.2533  0.2875
 3197SOL    HW121053   0.275   2.901   3.592  0.5742 -2.2816 -0.1223
 3197SOL    HW221054   0.207   2.938   3.717  0.7877 -0.0555  0.2579
 3198SOL     OW21055   0.368   1.377   7.705 -0.3393 -0.4071  0.5951
 3198SOL    HW121056   0.384   1.414   7.617 -4.8812 -2.1770 -0.9803
 3198SOL    HW221057   0.462   1.373   7.723  0.1096  1.9516 -1.0921
 3199SOL     OW21058   0.336   2.028   6.161 -0.6269  0.5764  0.1159
 3199SOL    HW121059   0.405   1.978   6.204 -0.6917 -0.9495 -1.5504
 3199SOL    HW221060   0.271   1.961   6.140  2.1204 -0.8800 -3.6173
 3200SOL     OW21061   0.662   2.661   7.593 -0.2523  0.6721 -0.0804
 3200SOL    HW121062   0.591   2.708   7.637  0.4492  0.7801  0.9375
 3200SOL    HW221063   0.731   2.694   7.650 -1.4575  0.4599  1.4849
 3201SOL     OW21064   0.080   3.638  11.317  0.5051 -0.2115 -0.5233
 3201SOL    HW121065   0.076   3.711  11.256 -0.7370  1.4187  1.5302
 3201SOL    HW221066   0.152   3.679  11.365 -0.0433  0.8486 -0.6075
 3202SOL     OW21067   1.462   2.291   0.544 -0.0132  0.0646  0.2530
 3202SOL    HW121068   1.412   2.335   0.612 -3.0584  0.4363 -2.2347
 3202SOL    HW221069   1.422   2.204   0.542  0.9152 -0.3736  0.4992
 3203SOL     OW21070   3.629   4.492   6.016 -0.3663 -0.0747  0.6688
 3203SOL    HW121071   3.664   4.555   6.079 -1.6864  0.2705  1.0638
 3203SOL    HW221072   3.706   4.447   5.981 -1.2145  0.4986 -1.8813
 3204SOL     OW21073   0.261   3.972   9.376  0.1522  0.0716  0.0990
 3204SOL    HW121074   0.206   3.962   9.454  2.0388  0.6926  1.5086
 3204SOL    HW221075   0.287   4.063   9.382 -1.1579  0.3742  1.0803
 3205SOL     OW21076   3.312   0.447   6.224 -0.2409  0.1080  0.4728
 3205SOL    HW121077   3.284   0.486   6.306 -1.0824  1.4281 -0.4481
 3205SOL    HW221078   3.362   0.523   6.194 -0.8125  1.3085  2.6405
 3206SOL     OW21079   2.048   3.241  10.802 -0.5837  0.1758 -0.0017
 3206SOL    HW121080   2.131   3.193  10.805 -1.0775 -0.4627  2.6976
 3206SOL    HW221081   2.094   3.321  10.774  0.4550 -1.1114 -1.9969
 3207SOL     OW21082   3.091   0.459  16.051 -0.5288 -0.2694  0.3317
 3207SOL    HW121083   3.179   0.498  16.047 -0.3344 -0.9383 -1.9159
 3207SOL    HW221084   3.050   0.524  16.108 -2.2672 -1.4458  0.4055
 3208SOL     OW21085   3.872   3.718   6.473 -0.1866 -0.1027 -0.1724
 3208SOL    HW121086   3.844   3.631   6.445  0.5610 -1.1074  2.2377
 3208SOL    HW221087   3.820   3.729   6.552 -0.3952 -2.2681 -0.0102
 3209SOL     OW21088   2.642   3.424   8.288  0.0437  0.1813 -0.2746
 3209SOL    HW121089   2.667   3.511   8.258  1.7066 -1.3070 -3.1868
 3209SOL    HW221090   2.720   3.410   8.342  0.1713 -2.5308 -1.1479
 3210SOL     OW21091   2.752   3.971   9.208 -0.4693  0.1793 -0.2089
 3210SOL    HW121092   2.797   4.025   9.273  2.7756 -0.2802 -2.1168
 3210SOL    HW221093   2.715   4.038   9.151 -1.0703 -1.5214 -1.8259
 3211SOL     OW21094   3.110   3.285   9.638  0.7058  0.4104  0.6927
 3211SOL    HW121095   3.059   3.205   9.622 -0.0785  0.9981  0.2648
 3211SOL    HW221096   3.183   3.278   9.576 -0.2446 -3.6745  0.0152
 3212SOL     OW21097   4.610   2.681   2.911  0.0103 -0.1922  0.1025
 3212SOL    HW121098   4.567   2.641   2.986  0.1254 -0.8038 -0.1582
 3212SOL    HW221099   4.669   2.610   2.886  1.6404  1.0573  0.3898
 3213SOL     OW21100   1.067   1.075  17.305 -0.2725 -0.0806  0.2472
 3213SOL    HW121101   1.033   1.020  17.376 -0.5416 -0.9458 -0.5483
 3213SOL    HW221102   1.029   1.037  17.225  1.0578 -0.2842 -0.2817
 3214SOL     OW21103   2.129   1.001   3.299  0.5731 -0.5008  0.2752
 3214SOL    HW121104   2.188   0.957   3.238  1.3893 -0.7978  1.2807
 3214SOL    HW221105   2.184   1.001   3.377  0.5884  2.0428  0.2448
 3215SOL     OW21106   2.171   1.473   7.924 -0.2152 -0.1637  0.1239
 3215SOL    HW121107   2.082   1.458   7.891  0.4387 -1.0608 -1.2638
 3215SOL    HW221108   2.191   1.560   7.890 -1.2679  1.0410  2.6224
 3216SOL     OW21109   4.608   2.241   2.105 -0.3603 -0.0157  0.3150
 3216SOL    HW121110   4.562   2.166   2.068 -1.5894  1.1938 -0.6017
 3216SOL    HW221111   4.575   2.293   2.031 -1.0772 -0.9708 -0.0345
 3217SOL     OW21112   0.386   3.157  11.076  0.7178  0.2885  0.1544
 3217SOL    HW121113   0.304   3.184  11.035  1.7354  1.9596 -0.7748
 3217SOL    HW221114   0.437   3.236  11.056 -1.0016  0.9696 -1.5524
 3218SOL     OW21115   3.393   0.167   2.463  0.0687  0.0160  0.2543
 3218SOL    HW121116   3.302   0.157   2.435  0.1095 -0.3003  0.2360
 3218SOL    HW221117   3.418   0.076   2.449  0.8506  0.7064 -2.8173
 3219SOL     OW21118   4.699   1.170   6.210  0.2952 -0.7151  0.7078
 3219SOL    HW121119   0.065   1.147   6.213  0.3883 -0.7537 -2.9084
 3219SOL    HW221120   4.665   1.144   6.295  0.9345  0.8754  1.4493
 3220SOL     OW21121   2.124   3.097   2.870 -0.3981  0.1502 -0.3905
 3220SOL    HW121122   2.077   3.044   2.805 -1.0819  1.5406 -1.0336
 3220SOL    HW221123   2.082   3.183   2.858  0.5479  0.6341 -0.2400
 3221SOL     OW21124   2.383   1.142   6.744 -0.1732  0.3162  0.3899
 3221SOL    HW121125   2.415   1.185   6.823 -1.9826 -0.0543  1.3250
 3221SOL    HW221126   2.361   1.057   6.783 -0.9731  0.1007 -0.5235
 3222SOL     OW21127   1.459   3.302   9.704 -0.1795  0.0552  0.5399
 3222SOL    HW121128   1.466   3.397   9.697  0.9192 -0.0438  0.2172
 3222SOL    HW221129   1.457   3.288   9.798 -0.3791  2.1303  0.8357
 3223SOL     OW21130   4.286   3.959   5.224 -0.6423 -0.4512 -0.4985
 3223SOL    HW121131   4.315   3.979   5.313 -0.3755  0.9621 -0.8894
 3223SOL    HW221132   4.245   3.874   5.240 -0.7264 -0.2431  0.4274
 3224SOL     OW21133   4.352   3.300   9.524  0.2679 -0.2189  0.5403
 3224SOL    HW121134   4.286   3.319   9.591  0.3547  0.3943  0.4494
 3224SOL    HW221135   4.292   3.302   9.449 -0.5465  2.7783  1.2749
 3225SOL     OW21136   1.461   3.292   9.421  0.1390  0.1776 -0.2438
 3225SOL    HW121137   1.409   3.286   9.502 -0.8842  0.6826 -0.8673
 3225SOL    HW221138   1.394   3.262   9.361  0.4787 -0.8220 -0.1194
 3226SOL     OW21139   3.983   0.081   8.378 -0.0397  0.4913 -0.0310
 3226SOL    HW121140   4.075   0.085   8.405 -0.9348  0.0580  2.9961
 3226SOL    HW221141   3.946   0.139   8.444  0.8268  0.6609  0.2998
 3227SOL     OW21142   2.050   4.144   9.168 -0.0668  0.3941  0.1197
 3227SOL    HW121143   1.974   4.148   9.111  1.6263  3.2949 -1.9443
 3227SOL    HW221144   2.016   4.169   9.254 -0.6772  1.2588 -0.3686
 3228SOL     OW21145   0.449   3.219   5.792 -0.3545  0.2599 -0.0140
 3228SOL    HW121146   0.512   3.167   5.742  1.3690  1.3295  1.0351
 3228SOL    HW221147   0.504   3.296   5.799  0.8939 -0.5869 -0.5123
 3229SOL     OW21148   0.809   2.640  10.642  0.0671  0.1037 -0.4772
 3229SOL    HW121149   0.846   2.551  10.639  2.0819  0.8808  1.1334
 3229SOL    HW221150   0.748   2.643  10.568 -0.3739  0.9588 -0.0692
 3230SOL     OW21151   1.734   4.495  16.319  0.1946  0.1847 -0.3111
 3230SOL    HW121152   1.639   4.481  16.316  0.3714 -0.7993 -1.4456
 3230SOL    HW221153   1.751   4.564  16.254 -1.6190  0.2958 -0.6803
 3231SOL     OW21154   1.346   2.609   3.430 -0.2663 -0.5062  0.3341
 3231SOL    HW121155   1.268   2.631   3.482  1.1214  4.4296  0.3846
 3231SOL    HW221156   1.345   2.689   3.377  0.2144 -0.7636 -0.0592
 3232SOL     OW21157   1.003   2.171   4.429  0.1305 -0.3243 -0.0229
 3232SOL    HW121158   0.970   2.196   4.515 -0.7365  0.2571 -0.5205
 3232SOL    HW221159   0.942   2.212   4.367 -0.5562 -0.5751  0.4937
 3233SOL     OW21160   1.775   3.824  10.067 -0.1819  0.1059 -0.6283
 3233SOL    HW121161   1.798   3.916  10.056 -2.0053  0.7965  1.4121
 3233SOL    HW221162   1.860   3.785  10.046 -0.2597 -1.2431  1.5825
 3234SOL     OW21163   4.253   0.880  15.248  0.1938  0.1913  0.2689
 3234SOL    HW121164   4.289   0.962  15.282 -4.4505  1.9138  1.0327
 3234SOL    HW221165   4.223   0.909  15.162  1.1860 -0.5530 -0.3309
 3235SOL     OW21166   0.076   0.689   9.424  0.0369 -0.1729  0.8681
 3235SOL    HW121167   0.127   0.769   9.411  2.1876 -2.0787 -2.2502
 3235SOL    HW221168   0.134   0.644   9.485 -1.5778 -1.4187  1.5036
 3236SOL     OW21169   0.480   2.872   4.914 -0.0226 -0.9020 -0.2932
 3236SOL    HW121170   0.549   2.810   4.939 -1.6811 -2.1047  1.3283
 3236SOL    HW221171   0.498   2.951   4.965  0.6034 -2.5839  2.1167
 3237SOL     OW21172   4.098   1.357  15.058 -0.0956  0.6740  0.0147
 3237SOL    HW121173   4.120   1.365  14.965  0.9441 -3.6636 -0.1127
 3237SOL    HW221174   4.005   1.380  15.062 -0.7875 -1.8112 -1.6534
 3238SOL     OW21175   3.107   4.277   6.598  0.1249  0.4740 -0.4222
 3238SOL    HW121176   3.200   4.263   6.616  0.6296  1.3848 -2.2970
 3238SOL    HW221177   3.109   4.344   6.530  0.1036  0.7594 -0.1400
 3239SOL     OW21178   2.271   0.927   3.891 -0.1098  0.7318 -0.3769
 3239SOL    HW121179   2.196   0.986   3.886 -0.2706  0.2889 -3.2763
 3239SOL    HW221180   2.224   0.854   3.851  1.6965 -0.2074 -0.7857
 3240SOL     OW21181   4.523   2.246   4.205 -0.0907 -0.1013  0.0512
 3240SOL    HW121182   4.578   2.291   4.269 -1.3563  1.4523  0.0444
 3240SOL    HW221183   4.449   2.215   4.257 -1.3821  1.3396 -0.9276
 3241SOL     OW21184   4.566   0.021   2.678 -0.5287 -0.2780  0.5914
 3241SOL    HW121185   4.537   4.715   2.763 -0.2866 -1.2791  0.2874
 3241SOL    HW221186   4.486   0.049   2.634 -0.7898  0.5453  1.5695
 3242SOL     OW21187   2.372   0.132  13.244  0.6948 -0.4452  0.2481
 3242SOL    HW121188   2.447   0.121  13.301  0.8881  0.1082  0.0932
 3242SOL    HW221189   2.319   0.056  13.272 -1.4183  1.0076  0.2193
 3243SOL     OW21190   0.715   3.062   7.356  0.1347  0.2121  0.2140
 3243SOL    HW121191   0.783   3.129   7.356 -1.0612  1.4626 -0.8421
 3243SOL    HW221192   0.742   3.001   7.287 -2.6426 -1.0895  0.2400
 3244SOL     OW21193   3.636   1.149   5.584  0.0030 -0.3054 -0.4211
 3244SOL    HW121194   3.607   1.119   5.670  2.2494  0.0731  0.4732
 3244SOL    HW221195   3.655   1.240   5.605 -1.1885 -0.0205 -0.5445
 3245SOL     OW21196   2.347   3.609  14.878 -0.0316 -0.3763 -0.2223
 3245SOL    HW121197   2.264   3.613  14.829 -0.2045 -0.4332  0.0698
 3245SOL    HW221198   2.411   3.576  14.815 -0.2704  0.5297 -0.9522
 3246SOL     OW21199   0.088   3.135   5.887  0.5974  0.5201  0.1149
 3246SOL    HW121200   0.009   3.174   5.926  2.7337  3.3298  1.5732
 3246SOL    HW221201   0.160   3.161   5.944  0.0931  0.4217  0.7894
 3247SOL     OW21202   1.034   3.203   8.076 -0.7490  0.0998 -0.2757
 3247SOL    HW121203   0.985   3.279   8.046  1.0965  1.7656  0.8719
 3247SOL    HW221204   0.966   3.137   8.086 -1.1917  0.9238  2.1261
 3248SOL     OW21205   0.620   3.410   5.665 -0.0028  0.3416 -0.1066
 3248SOL    HW121206   0.692   3.361   5.625 -0.2431 -1.0647  1.1850
 3248SOL    HW221207   0.666   3.485   5.702  1.5790  0.0411 -1.4483
 3249SOL     OW21208   0.834   4.363   3.185 -0.3959  0.3540  0.4803
 3249SOL    HW121209   0.883   4.433   3.228  1.1446 -0.6319  0.3030
 3249SOL    HW221210   0.900   4.294   3.186  1.0050  1.6756 -1.4473
 3250SOL     OW21211   4.267   0.979   4.865  0.1092  0.0112 -0.4088
 3250SOL    HW121212   4.337   1.015   4.920 -0.7548  1.3878 -0.2167
 3250SOL    HW221213   4.285   0.885   4.871 -0.2975 -0.1475 -1.6911
 3251SOL     OW21214   3.927   1.381   7.782  0.0278  0.2307  0.1611
 3251SOL    HW121215   3.916   1.343   7.695 -0.6539  2.5605 -0.7792
 3251SOL    HW221216   3.837   1.373   7.812  0.1752  0.1926  0.5934
 3252SOL     OW21217   2.863   3.564   4.651 -0.2526  0.2155  0.5550
 3252SOL    HW121218   2.956   3.578   4.672  0.0317 -0.2957 -0.3924
 3252SOL    HW221219   2.845   3.483   4.699 -1.8648  0.3045  0.0750
 3253SOL     OW21220   2.011   2.268  11.874 -0.1781 -0.3375 -0.7506
 3253SOL    HW121221   2.035   2.360  11.882  0.0186 -0.2761 -1.9819
 3253SOL    HW221222   2.072   2.231  11.938 -0.5585 -1.8072 -1.2358
 3254SOL     OW21223   4.011   3.896   3.930 -0.4308 -0.4296  0.3713
 3254SOL    HW121224   3.923   3.908   3.966 -0.7798 -0.5117 -0.4564
 3254SOL    HW221225   4.060   3.880   4.010  1.9846  1.0369 -0.8123
 3255SOL     OW21226   2.750   1.595   6.247 -0.5101 -0.2098 -0.6931
 3255SOL    HW121227   2.815   1.619   6.314  0.9059  0.9063 -2.4688
 3255SOL    HW221228   2.701   1.525   6.290  1.5296 -1.2235 -0.0064
 3256SOL     OW21229   3.815   0.796   2.965 -0.1344  0.0518 -0.4506
 3256SOL    HW121230   3.874   0.870   2.975  0.6825 -0.9137  1.9337
 3256SOL    HW221231   3.868   0.720   2.989 -0.0093  0.9552  2.1314
 3257SOL     OW21232   4.164   4.343   6.061 -0.3228  0.2482  0.0621
 3257SOL    HW121233   4.242   4.397   6.077 -0.2951 -0.2765  1.7794
 3257SOL    HW221234   4.199   4.257   6.088 -0.4288  0.2678  0.2660
 3258SOL     OW21235   2.008   0.599  10.370  0.0313  0.1380  0.3737
 3258SOL    HW121236   1.942   0.587  10.438  0.4005 -1.4800  0.4565
 3258SOL    HW221237   2.090   0.573  10.413  0.0088 -1.8584 -0.7445
 3259SOL     OW21238   2.996   4.406   3.247 -0.0537 -0.2675  0.1527
 3259SOL    HW121239   2.975   4.493   3.280  0.7982  0.2697 -0.7276
 3259SOL    HW221240   3.090   4.417   3.240 -0.4400  1.7082 -1.9162
 3260SOL     OW21241   2.142   3.534   9.110 -0.2778 -0.1079  0.1541
 3260SOL    HW121242   2.083   3.520   9.185  0.1164  1.0635  0.6866
 3260SOL    HW221243   2.145   3.450   9.066 -1.1868  1.4014 -2.7544
 3261SOL     OW21244   2.099   0.415   3.575 -0.0038 -0.7965  0.3480
 3261SOL    HW121245   2.115   0.400   3.668  0.8486  1.5205  0.5650
 3261SOL    HW221246   2.164   0.357   3.535  0.4288  0.1860 -0.3764
 3262SOL     OW21247   3.973   2.122   0.897  0.0010  0.3038 -0.0955
 3262SOL    HW121248   4.019   2.139   0.979 -2.1913  0.3488  1.1211
 3262SOL    HW221249   3.946   2.213   0.882 -2.4343 -0.0905  1.8971
 3263SOL     OW21250   3.168   2.216   8.683 -0.6885  0.3367  0.0221
 3263SOL    HW121251   3.133   2.127   8.687  0.4628 -0.1652 -0.9585
 3263SOL    HW221252   3.264   2.212   8.685 -0.6355  0.7086 -1.6046
 3264SOL     OW21253   1.855   4.435   5.277  0.1499 -0.0917 -0.8498
 3264SOL    HW121254   1.920   4.446   5.208  2.2702  0.4844  1.2499
 3264SOL    HW221255   1.777   4.478   5.241  0.3383  0.9198 -0.0143
 3265SOL     OW21256   2.714   0.893   1.670 -0.3971  0.7842  0.1517
 3265SOL    HW121257   2.720   0.941   1.588 -0.2249  1.5580  0.6204
 3265SOL    HW221258   2.626   0.917   1.701  0.1932  1.6808  1.1192
 3266SOL     OW21259   4.354   1.055   6.445 -0.0819  0.0276  0.5424
 3266SOL    HW121260   4.390   1.037   6.358  1.0309  1.5179  0.6976
 3266SOL    HW221261   4.413   1.020   6.512  0.6782 -2.5762 -1.4998
 3267SOL     OW21262   1.655   3.707  13.936 -0.3111 -0.5843  0.4198
 3267SOL    HW121263   1.673   3.792  13.895 -0.4645 -0.1052  1.3627
 3267SOL    HW221264   1.568   3.689  13.900  0.5647  1.0279 -2.5653
 3268SOL     OW21265   3.945   3.225   2.088  0.1662  0.3009 -0.4194
 3268SOL    HW121266   3.980   3.136   2.096 -0.3737 -0.0071 -1.5544
 3268SOL    HW221267   3.909   3.215   2.000  0.2106 -0.6225 -0.3367
 3269SOL     OW21268   3.597   3.528   8.374 -0.9318  0.5872  0.1920
 3269SOL    HW121269   3.651   3.606   8.387 -1.4735  0.6197  2.1612
 3269SOL    HW221270   3.579   3.527   8.280 -0.4676  1.8435  0.0902
 3270SOL     OW21271   1.995   2.600   4.466  0.3046  0.2466 -0.0709
 3270SOL    HW121272   2.068   2.566   4.414  0.0918  0.1111 -0.2863
 3270SOL    HW221273   1.937   2.611   4.390 -0.7305  0.6298  0.7847
 3271SOL     OW21274   2.757   3.657  11.490  0.0917  0.4238  0.2216
 3271SOL    HW121275   2.782   3.748  11.470  0.0139  0.1169 -1.2731
 3271SOL    HW221276   2.724   3.636  11.402  0.2910  0.4331  0.1446
 3272SOL     OW21277   2.875   0.463  11.625  0.7528 -0.1593  0.3318
 3272SOL    HW121278   2.946   0.430  11.680 -1.2980 -1.2668  2.3364
 3272SOL    HW221279   2.813   0.459  11.698  0.6838  0.1507  0.2907
 3273SOL     OW21280   0.430   0.685   4.545  0.0462  0.6086  0.2260
 3273SOL    HW121281   0.438   0.747   4.617 -3.2447  1.4483 -0.1478
 3273SOL    HW221282   0.337   0.696   4.530 -0.3192 -1.4754  0.9372
 3274SOL     OW21283   1.693   2.620   3.170 -0.4413 -0.3970  0.2391
 3274SOL    HW121284   1.754   2.625   3.096 -2.3392 -0.3336 -1.3220
 3274SOL    HW221285   1.714   2.542   3.221  0.8642 -1.1473 -1.4389
 3275SOL     OW21286   1.666   1.976   3.537  0.2559  0.1008 -0.2950
 3275SOL    HW121287   1.623   1.897   3.505  1.9862 -1.7450  1.9731
 3275SOL    HW221288   1.662   2.029   3.458 -0.7044 -2.4291 -1.9308
 3276SOL     OW21289   1.205   0.498   2.775  0.4836 -0.4193  0.2370
 3276SOL    HW121290   1.231   0.532   2.689 -0.6753 -1.1225 -0.3816
 3276SOL    HW221291   1.151   0.562   2.821 -1.7273 -2.5524  0.6227
 3277SOL     OW21292   1.627   4.640   4.588  0.1485 -0.1794  0.1347
 3277SOL    HW121293   1.594   4.717   4.634 -0.0572 -0.6398  0.7524
 3277SOL    HW221294   1.581   4.561   4.618 -2.7383  1.3053 -0.3687
 3278SOL     OW21295   4.431   0.709   2.237 -0.2132 -0.4622  0.9280
 3278SOL    HW121296   4.487   0.689   2.312 -0.0690 -0.8244  0.7233
 3278SOL    HW221297   4.495   0.730   2.168  0.5647 -0.4322  1.6566
 3279SOL     OW21298   0.448   0.942   4.713  0.3392 -0.4521  0.3743
 3279SOL    HW121299   0.457   1.036   4.729  0.5580  0.1616 -3.4593
 3279SOL    HW221300   0.540   0.920   4.725  0.4707  1.3584  2.6423
 3280SOL     OW21301   2.536   0.875   1.952 -0.4009 -0.1943 -0.1369
 3280SOL    HW121302   2.499   0.963   1.961 -1.0932 -0.6241  1.3237
 3280SOL    HW221303   2.629   0.879   1.976 -0.0609  1.9256 -1.8345
 3281SOL     OW21304   1.233   3.567   1.411 -0.1490 -0.0795 -0.2476
 3281SOL    HW121305   1.160   3.611   1.368 -1.0568  1.1192  2.5181
 3281SOL    HW221306   1.296   3.562   1.339  2.1210 -2.0974  1.8644
 3282SOL     OW21307   3.890   1.037   2.508 -0.3979  0.4477 -0.7268
 3282SOL    HW121308   3.931   0.952   2.490  0.8360  0.9919 -0.4892
 3282SOL    HW221309   3.857   1.063   2.422  0.2789 -0.1334 -1.1722
 3283SOL     OW21310   1.410   3.462   8.336 -0.6849 -0.4943 -0.2479
 3283SOL    HW121311   1.475   3.402   8.300 -1.3883 -1.9826  0.9464
 3283SOL    HW221312   1.438   3.464   8.428 -2.3532 -0.5238  0.2569
 3284SOL     OW21313   3.731   4.716   8.260  0.2978 -0.1824  0.1785
 3284SOL    HW121314   3.807   4.715   8.318  0.0860  1.3714  0.4789
 3284SOL    HW221315   3.662   4.685   8.318  1.9678  1.2731  2.9123
 3285SOL     OW21316   3.438   3.415   4.743 -0.3339 -0.6090 -0.4114
 3285SOL    HW121317   3.438   3.470   4.822 -0.2279 -0.3586 -0.5863
 3285SOL    HW221318   3.444   3.326   4.777 -1.4158 -0.7866 -0.6816
 3286SOL     OW21319   4.013   1.075   4.051  0.0387 -0.1727 -0.5492
 3286SOL    HW121320   3.959   1.040   3.981 -0.8289 -0.1615  0.1216
 3286SOL    HW221321   4.089   1.099   3.997  0.2829  0.5893  0.1154
 3287SOL     OW21322   0.634   0.248   7.016  0.8453  0.1661  0.5314
 3287SOL    HW121323   0.711   0.213   6.970  0.8458  3.0049 -1.5986
 3287SOL    HW221324   0.562   0.238   6.954  0.7752  1.1764  0.4529
 3288SOL     OW21325   0.767   3.200   6.707  0.7427 -0.6747 -0.0572
 3288SOL    HW121326   0.856   3.177   6.733  0.9076 -0.9358 -0.8326
 3288SOL    HW221327   0.738   3.221   6.795 -1.4144  1.7643 -1.3301
 3289SOL     OW21328   2.149   3.437   1.558 -0.5509 -0.2748 -0.3105
 3289SOL    HW121329   2.171   3.451   1.650 -0.7053  1.8976 -0.6121
 3289SOL    HW221330   2.225   3.389   1.524 -0.0191  1.5581 -1.6738
 3290SOL     OW21331   1.210   1.639   3.713 -0.1216  0.0268 -0.0248
 3290SOL    HW121332   1.279   1.695   3.747  0.4352 -0.1495 -0.8545
 3290SOL    HW221333   1.267   1.590   3.653 -0.7357  0.6501 -1.1112
 3291SOL     OW21334   3.827   3.538  12.233 -0.3573 -0.3750 -0.0510
 3291SOL    HW121335   3.747   3.488  12.252 -0.9542  0.1394 -1.1803
 3291SOL    HW221336   3.896   3.472  12.221 -0.5552 -0.9070  1.7139
 3292SOL     OW21337   2.753   0.144   6.357 -0.1519 -0.3246 -0.0103
 3292SOL    HW121338   2.730   0.052   6.347  0.0842 -0.2515 -1.3176
 3292SOL    HW221339   2.779   0.150   6.449  1.8819  2.1788 -0.7446
 3293SOL     OW21340   1.104   0.263   1.672  0.1964 -0.2871 -0.0493
 3293SOL    HW121341   1.017   0.294   1.697 -0.8740 -0.5098 -3.4519
 3293SOL    HW221342   1.083   0.173   1.697 -2.0022  0.6238  1.4642
 3294SOL     OW21343   3.113   4.394  11.413  0.0508 -0.3724 -0.3189
 3294SOL    HW121344   3.114   4.304  11.381 -0.9987 -0.8394  0.9314
 3294SOL    HW221345   3.055   4.428  11.345  0.6905  0.2184 -0.5649
 3295SOL     OW21346   0.794   0.130   4.138  0.4655  0.2800 -0.0633
 3295SOL    HW121347   0.817   0.042   4.169  1.4186  0.4189 -0.3668
 3295SOL    HW221348   0.699   0.128   4.136  0.4500 -0.8032  1.3338
 3296SOL     OW21349   1.175   1.788   7.292 -0.4560 -0.5258 -0.5213
 3296SOL    HW121350   1.163   1.725   7.363 -1.2509 -0.2157 -0.3811
 3296SOL    HW221351   1.212   1.732   7.224 -2.1576 -2.1271 -0.1135
 3297SOL     OW21352   3.096   3.818  14.907  1.0956  0.0866  0.2105
 3297SOL    HW121353   3.096   3.881  14.835 -1.9380 -0.3457 -0.1495
 3297SOL    HW221354   3.006   3.826  14.937  1.3559  1.4171  0.6318
 3298SOL     OW21355   2.356   2.562   8.532 -0.0534 -0.5991 -0.3061
 3298SOL    HW121356   2.438   2.521   8.505 -0.5394 -1.6759 -0.1710
 3298SOL    HW221357   2.382   2.654   8.530  0.7693 -0.8483 -0.7224
 3299SOL     OW21358   2.352   0.187   8.507  0.6620  0.6767 -0.2718
 3299SOL    HW121359   2.427   0.205   8.564  0.3015  1.2970  0.0020
 3299SOL    HW221360   2.397   0.141   8.435 -0.8925 -1.8106  0.3575
 3300SOL     OW21361   3.924   3.174  10.689 -0.4882  0.3298  0.1780
 3300SOL    HW121362   3.877   3.096  10.720  1.1032 -0.2827  1.1053
 3300SOL    HW221363   3.860   3.238  10.720 -0.8630  0.3265 -0.5821
 3301SOL     OW21364   3.913   3.558  17.108 -0.4129 -0.2548 -0.5701
 3301SOL    HW121365   3.871   3.521  17.186 -0.4770 -1.5691 -1.2164
 3301SOL    HW221366   3.992   3.505  17.104  1.0317  1.8639  0.4902
 3302SOL     OW21367   3.242   2.048  11.738 -0.8354 -0.5190 -0.5817
 3302SOL    HW121368   3.147   2.060  11.733 -0.8553 -0.0811  0.8450
 3302SOL    HW221369   3.260   2.120  11.798  4.1456 -1.8136 -0.5582
 3303SOL     OW21370   0.421   0.257   2.711  0.0546  0.1525  0.3253
 3303SOL    HW121371   0.403   0.208   2.630  2.0677 -1.2382  0.7215
 3303SOL    HW221372   0.342   0.310   2.715  0.0480  0.1507  0.2107
 3304SOL     OW21373   0.609   3.507   4.041 -0.0108 -0.4736  0.3044
 3304SOL    HW121374   0.632   3.437   4.102 -1.5518 -0.1807  1.2368
 3304SOL    HW221375   0.692   3.555   4.046 -0.5615  0.5456 -0.2805
 3305SOL     OW21376   1.435   2.534  17.235 -0.3632 -0.1366  0.6878
 3305SOL    HW121377   1.364   2.476  17.263  0.7497 -0.8447  2.0386
 3305SOL    HW221378   1.402   2.618  17.266  0.9895  0.4949  0.4444
 3306SOL     OW21379   0.953   0.186   2.717  0.1850 -0.1434  0.3551
 3306SOL    HW121380   0.937   0.180   2.811 -0.7158  1.4068  0.3061
 3306SOL    HW221381   1.032   0.240   2.718 -0.4277  0.7395  0.7904
 3307SOL     OW21382   3.546   3.554   6.826 -0.1777 -0.0190 -0.8608
 3307SOL    HW121383   3.588   3.524   6.907 -2.1063  1.2272  0.6227
 3307SOL    HW221384   3.488   3.478   6.814 -0.5903 -0.0896  1.5240
 3308SOL     OW21385   4.494   0.776   1.334  0.1719 -0.1653 -0.3720
 3308SOL    HW121386   4.464   0.852   1.284 -0.1473 -0.3476 -0.4515
 3308SOL    HW221387   4.587   0.793   1.348 -0.1560  0.9944  0.4644
 3309SOL     OW21388   3.950   1.753   2.033 -0.6713 -0.3183  0.0112
 3309SOL    HW121389   3.936   1.659   2.045 -1.2314  0.3570  4.7493
 3309SOL    HW221390   4.035   1.752   1.989 -1.4367  0.5385 -1.4864
 3310SOL     OW21391   4.304   2.793  12.711 -0.2167 -0.1007  0.2816
 3310SOL    HW121392   4.309   2.845  12.791 -0.3752  0.3862 -0.0256
 3310SOL    HW221393   4.395   2.763  12.706 -0.1742  0.2460 -1.1449
 3311SOL     OW21394   3.596   1.912   6.742 -0.4486  0.7578 -0.1086
 3311SOL    HW121395   3.685   1.912   6.706 -1.0173  1.5631 -1.5375
 3311SOL    HW221396   3.595   1.828   6.787 -0.7022  0.2505 -1.0631
 3312SOL     OW21397   1.544   3.502  11.322  0.2186  0.1616 -0.1360
 3312SOL    HW121398   1.628   3.496  11.276  0.0636 -2.9309  0.0001
 3312SOL    HW221399   1.490   3.559  11.267 -0.3645 -2.2195 -1.9781
 3313SOL     OW21400   1.919   3.625   1.954  0.5859 -0.8127 -0.0079
 3313SOL    HW121401   1.885   3.702   1.910  1.3753 -1.0158 -0.9852
 3313SOL    HW221402   2.003   3.668   1.972  0.2444  0.1222 -0.6681
 3314SOL     OW21403   2.716   2.726   9.921  0.0726  0.0198  0.3222
 3314SOL    HW121404   2.639   2.782   9.925 -0.6200 -0.7555 -2.1703
 3314SOL    HW221405   2.739   2.712  10.013 -2.3152 -1.3309  0.7052
 3315SOL     OW21406   1.105   0.464   7.938 -0.7218  0.6197 -0.5657
 3315SOL    HW121407   1.169   0.530   7.915  1.1958 -0.5387  1.4608
 3315SOL    HW221408   1.160   0.438   8.012 -2.3417  1.2811  0.8917
 3316SOL     OW21409   0.114   1.124   8.671 -0.2765  0.4523  0.2230
 3316SOL    HW121410   0.174   1.182   8.716  0.1624 -0.0457  0.2717
 3316SOL    HW221411   0.172   1.068   8.620  0.2947  0.9558  0.3210
 3317SOL     OW21412   2.044   2.112   2.894 -0.1462  0.0531 -0.1431
 3317SOL    HW121413   1.987   2.074   2.961 -0.0340  0.7054  0.3329
 3317SOL    HW221414   1.998   2.142   2.815  0.3096 -0.2553 -0.5218
 3318SOL     OW21415   3.338   2.741   0.776  0.1733  0.4749 -0.4544
 3318SOL    HW121416   3.244   2.747   0.792  0.3511  1.2512  0.2788
 3318SOL    HW221417   3.375   2.822   0.811 -3.6829  2.6406 -1.4792
 3319SOL     OW21418   3.688   2.053   3.071 -0.1340  0.0427  0.7077
 3319SOL    HW121419   3.633   2.130   3.087 -1.2884 -0.9489  1.4804
 3319SOL    HW221420   3.755   2.064   3.138 -0.0416  0.7400  0.5048
 3320SOL     OW21421   2.905   1.474  14.824  0.3630  0.5975  1.2216
 3320SOL    HW121422   2.976   1.526  14.788  0.3984  1.1439  2.0876
 3320SOL    HW221423   2.831   1.522  14.787  0.4075  0.5321  1.0425
 3321SOL     OW21424   4.574   0.188   6.724 -0.3284  0.5353 -0.1196
 3321SOL    HW121425   4.573   0.113   6.665 -0.2081  0.9352 -0.6249
 3321SOL    HW221426   4.613   0.144   6.799 -0.8885  0.8640  0.3610
 3322SOL     OW21427   1.905   3.048   6.806  0.4888  0.5163 -0.1153
 3322SOL    HW121428   1.966   3.119   6.829  1.1759 -0.5626  1.3657
 3322SOL    HW221429   1.953   2.972   6.838 -0.9938  0.2786  1.5420
 3323SOL     OW21430   2.179   4.239   3.506  0.0630 -0.0111 -0.3490
 3323SOL    HW121431   2.158   4.287   3.426  1.0910  1.5027  0.2817
 3323SOL    HW221432   2.226   4.164   3.469 -0.6360 -0.4233 -0.4051
 3324SOL     OW21433   3.453   2.793   8.899 -0.9024  0.4314  0.1281
 3324SOL    HW121434   3.483   2.865   8.845 -1.7405  0.3611 -0.4364
 3324SOL    HW221435   3.420   2.737   8.828  0.5004  1.4251 -1.2999
 3325SOL     OW21436   4.057   3.579   9.240 -0.0310  0.1199 -0.0078
 3325SOL    HW121437   3.964   3.570   9.223 -0.1413  1.7357 -0.3073
 3325SOL    HW221438   4.048   3.637   9.315 -0.4747 -0.3257  0.2816
 3326SOL     OW21439   2.447   2.760   6.073  0.1338  0.2716 -0.9112
 3326SOL    HW121440   2.361   2.794   6.045  0.3916  1.5811 -0.1266
 3326SOL    HW221441   2.423   2.692   6.135 -0.7253  0.6221 -0.8573
 3327SOL     OW21442   0.650   0.509   6.117  0.3277  0.2609 -0.0600
 3327SOL    HW121443   0.685   0.525   6.205 -0.8831 -0.3946  0.5340
 3327SOL    HW221444   0.718   0.549   6.064 -1.1126 -0.5700 -2.5037
 3328SOL     OW21445   0.504   4.718  17.208 -0.0953 -0.6815 -0.3845
 3328SOL    HW121446   0.534   4.694  17.121 -0.9290 -1.0890 -0.5520
 3328SOL    HW221447   0.519   0.086  17.206  1.0925 -0.8641 -0.1833
 3329SOL     OW21448   3.803   0.135   1.074 -0.2186  0.4182  0.1939
 3329SOL    HW121449   3.830   0.181   1.154 -0.8303  0.4626  0.3805
 3329SOL    HW221450   3.885   0.095   1.047  0.3534  0.3059  2.0635
 3330SOL     OW21451   3.366   0.473  14.976 -0.0107  0.2840 -0.2211
 3330SOL    HW121452   3.285   0.522  14.959  0.9636  0.9218 -2.9589
 3330SOL    HW221453   3.338   0.421  15.052  1.3424  1.2173  0.9094
 3331SOL     OW21454   3.824   2.812  12.373  0.0039  0.5015  0.0400
 3331SOL    HW121455   3.816   2.901  12.407 -0.2020  0.0926  1.0485
 3331SOL    HW221456   3.809   2.835  12.281 -1.5041 -0.9293 -0.0655
 3332SOL     OW21457   2.381   4.328  16.103  0.3843  0.4347 -0.4584
 3332SOL    HW121458   2.387   4.345  16.197 -2.0792  1.3683 -0.4658
 3332SOL    HW221459   2.449   4.389  16.075  1.8703  0.2271  2.7084
 3333SOL     OW21460   1.079   1.156   1.353 -0.4404 -0.2422 -0.3574
 3333SOL    HW121461   1.009   1.115   1.302 -0.6857 -1.2392  0.8066
 3333SOL    HW221462   1.018   1.190   1.418 -0.8337  0.2402 -0.9803
 3334SOL     OW21463   1.999   2.845  16.145 -0.2720  0.4037  0.1601
 3334SOL    HW121464   2.018   2.926  16.098  0.1078  2.2137  3.4284
 3334SOL    HW221465   1.928   2.814  16.087 -1.2455  2.8483  0.0466
 3335SOL     OW21466   0.045   0.671   4.296  0.3284  0.4081 -0.1308
 3335SOL    HW121467   0.050   0.764   4.274  0.7826  0.6231  0.8539
 3335SOL    HW221468   0.137   0.654   4.319 -0.3736  0.2067  2.4715
 3336SOL     OW21469   1.829   0.513   3.767  0.4649  0.5367 -0.5643
 3336SOL    HW121470   1.803   0.605   3.776  1.3928  0.8272 -0.8269
 3336SOL    HW221471   1.865   0.516   3.678  0.5196  0.3467 -0.5473
 3337SOL     OW21472   0.846   2.709   4.422 -0.6437  0.1951 -0.5537
 3337SOL    HW121473   0.796   2.779   4.465  0.2340  0.7180 -0.3920
 3337SOL    HW221474   0.778   2.647   4.394 -0.1566 -0.9246  0.7299
 3338SOL     OW21475   2.543   1.225   3.232 -0.1515  0.5918  0.3921
 3338SOL    HW121476   2.548   1.224   3.137  0.7606 -0.0631  0.4430
 3338SOL    HW221477   2.631   1.204   3.263  0.1678 -0.3139 -1.1724
 3339SOL     OW21478   2.919   4.615   4.004 -0.2533  0.0346 -0.1934
 3339SOL    HW121479   2.893   4.690   4.058  1.4275 -0.6243  1.5179
 3339SOL    HW221480   2.859   4.622   3.930  0.6250  0.2700 -0.8794
 3340SOL     OW21481   3.771   4.649   6.199 -0.1131 -0.1468 -0.1007
 3340SOL    HW121482   3.805   0.011   6.185  1.1557 -0.6272 -0.0334
 3340SOL    HW221483   3.824   4.627   6.276 -0.2862 -1.6825 -0.4270
 3341SOL     OW21484   2.587   3.582   1.116  0.3923  0.1266 -0.2503
 3341SOL    HW121485   2.506   3.625   1.090 -1.1952 -1.2538  2.3420
 3341SOL    HW221486   2.548   3.507   1.161 -2.8361  1.9746  0.0203
 3342SOL     OW21487   4.268   0.791   5.506 -0.1115  0.2898 -0.0525
 3342SOL    HW121488   4.199   0.764   5.566  0.6378 -0.1733  0.5954
 3342SOL    HW221489   4.228   0.790   5.419  2.7247  1.8549 -1.3751
 3343SOL     OW21490   0.366   1.633   8.374 -0.2856  0.1659  0.2050
 3343SOL    HW121491   0.326   1.631   8.288  0.0458 -2.5573  0.1182
 3343SOL    HW221492   0.327   1.549   8.400  3.2037 -0.8870  2.2166
 3344SOL     OW21493   2.938   0.447  12.970  0.5790  0.0984  0.2451
 3344SOL    HW121494   2.863   0.394  12.943  0.0435  0.7022  0.5555
 3344SOL    HW221495   2.972   0.469  12.883  2.8012 -0.0607  1.0886
 3345SOL     OW21496   2.285   2.737   1.244  0.4276  0.1344 -0.3896
 3345SOL    HW121497   2.225   2.810   1.226 -0.5354 -1.3118 -3.1611
 3345SOL    HW221498   2.321   2.756   1.330  0.6146  0.2504 -0.4950
 3346SOL     OW21499   2.267   0.515   1.085 -0.3198 -0.0342 -0.4720
 3346SOL    HW121500   2.257   0.446   1.020  1.3778  0.5871 -1.4003
 3346SOL    HW221501   2.324   0.576   1.038 -0.9128  0.7455 -0.1910
 3347SOL     OW21502   1.757   3.140   6.469  0.1030 -0.2626 -0.2835
 3347SOL    HW121503   1.841   3.097   6.452  0.6632 -0.3751  2.6998
 3347SOL    HW221504   1.783   3.208   6.532  0.2744  0.3844 -1.0515
 3348SOL     OW21505   2.644   4.290   3.963 -0.2073  0.1928  0.1266
 3348SOL    HW121506   2.706   4.226   3.997  0.1296 -0.2353 -1.2739
 3348SOL    HW221507   2.581   4.241   3.910 -1.2029  1.2977  0.2785
 3349SOL     OW21508   2.192   1.602  17.151  0.1790  0.4238  0.5272
 3349SOL    HW121509   2.143   1.658  17.090  1.3426 -0.9699 -1.7073
 3349SOL    HW221510   2.187   1.516  17.108 -1.2123  0.7451  0.0197
 3350SOL     OW21511   1.448   0.360   7.436  0.4533  0.0815 -0.0605
 3350SOL    HW121512   1.377   0.419   7.411 -1.9771 -1.7788  2.4150
 3350SOL    HW221513   1.495   0.336   7.356  0.5047  0.8742 -0.2607
 3351SOL     OW21514   0.429   1.612   9.282  0.2193 -0.2561  0.1064
 3351SOL    HW121515   0.462   1.524   9.299 -0.9964 -0.6001  0.6546
 3351SOL    HW221516   0.505   1.661   9.315  1.2144 -1.1833 -0.8145
 3352SOL     OW21517   2.906   3.877   9.773 -0.6806  0.7636 -0.2071
 3352SOL    HW121518   2.910   3.801   9.715 -0.6581  1.2912 -0.8954
 3352SOL    HW221519   2.903   3.949   9.709  0.3619  0.7787 -0.2340
 3353SOL     OW21520   3.894   4.091  16.125  0.3406 -0.0396 -0.5117
 3353SOL    HW121521   3.807   4.084  16.085 -0.1380  1.0239  0.3756
 3353SOL    HW221522   3.890   4.011  16.177  1.3473  1.5692  2.0146
 3354SOL     OW21523   1.813   0.171  15.029  0.2210  0.0641 -0.3831
 3354SOL    HW121524   1.728   0.136  15.005 -0.1903  0.4032  0.5787
 3354SOL    HW221525   1.862   0.158  14.947  0.1812 -1.0258 -0.2326
 3355SOL     OW21526   2.141   1.482   4.837 -0.1463  0.1971  0.2104
 3355SOL    HW121527   2.048   1.472   4.820  0.4435 -0.2280 -2.8337
 3355SOL    HW221528   2.164   1.393   4.865 -0.2933 -0.1928 -0.9310
 3356SOL     OW21529   0.555   0.278   5.345  0.1415 -0.0100  0.0298
 3356SOL    HW121530   0.463   0.255   5.356  0.8156 -3.9309 -2.7603
 3356SOL    HW221531   0.598   0.202   5.307  0.3141  0.5905 -0.9705
 3357SOL     OW21532   1.373   4.415   6.314 -0.3181  0.3313 -0.4881
 3357SOL    HW121533   1.287   4.452   6.333 -1.2540 -0.3769 -3.1959
 3357SOL    HW221534   1.414   4.491   6.272  0.1644  0.3720  0.0712
 3358SOL     OW21535   4.249   3.278  10.375 -0.1261 -0.2774 -0.2514
 3358SOL    HW121536   4.185   3.338  10.335 -1.2041 -0.8693  0.5937
 3358SOL    HW221537   4.261   3.222  10.299  1.5539  0.9366 -0.8911
 3359SOL     OW21538   3.203   0.369   0.395  0.0523 -0.3018 -0.2066
 3359SOL    HW121539   3.217   0.286   0.350  2.5787  0.2494 -0.3866
 3359SOL    HW221540   3.168   0.422   0.323  3.0582 -0.2183 -1.5709
 3360SOL     OW21541   3.243   3.781   6.936  0.1165 -0.1878 -0.0915
 3360SOL    HW121542   3.205   3.805   7.020 -0.7463 -1.2079 -0.1945
 3360SOL    HW221543   3.335   3.783   6.960  0.3130  0.6058 -0.8820
 3361SOL     OW21544   3.579   0.461  11.531 -0.0122 -0.1952 -0.0264
 3361SOL    HW121545   3.605   0.399  11.463 -0.5064  0.6691 -1.0104
 3361SOL    HW221546   3.589   0.410  11.611  0.2416 -0.1552 -0.0309
 3362SOL     OW21547   1.228   1.176   6.125 -0.0509  0.0968  0.0794
 3362SOL    HW121548   1.161   1.112   6.146 -1.4781  2.1162  1.7872
 3362SOL    HW221549   1.223   1.171   6.030 -3.2887  2.3677  0.1289
 3363SOL     OW21550   2.928   0.076  15.810 -0.0546  0.0765  0.4293
 3363SOL    HW121551   2.838   0.106  15.802 -0.2935 -0.5504  0.8257
 3363SOL    HW221552   2.982   0.155  15.822 -1.5466  0.8288  2.0568
 3364SOL     OW21553   0.458   3.232   7.807 -0.2230  0.1887 -0.1522
 3364SOL    HW121554   0.493   3.198   7.725 -0.2215 -1.5715  0.5810
 3364SOL    HW221555   0.515   3.193   7.872  1.0250  0.1002 -1.2977
 3365SOL     OW21556   2.778   3.415   2.794 -0.7528 -0.4012  0.4164
 3365SOL    HW121557   2.691   3.428   2.755 -0.6638 -0.4448  0.2014
 3365SOL    HW221558   2.818   3.366   2.722  1.2293  1.1163  0.5013
 3366SOL     OW21559   3.724   2.908   5.602  0.1114 -0.1384  0.1971
 3366SOL    HW121560   3.711   2.853   5.679  2.7056  2.0006  2.1681
 3366SOL    HW221561   3.816   2.894   5.582 -0.0314 -2.1050  0.9586
 3367SOL     OW21562   1.961   2.770  12.265 -0.1024  0.4060 -0.0263
 3367SOL    HW121563   1.919   2.846  12.304 -1.3523  0.2957 -1.1560
 3367SOL    HW221564   2.052   2.801  12.270 -0.1389  0.1656  2.0016
 3368SOL     OW21565   1.872   1.591  16.865  0.1722 -0.1610  0.2943
 3368SOL    HW121566   1.786   1.622  16.839 -0.6360 -1.2413  1.6958
 3368SOL    HW221567   1.911   1.665  16.912 -1.4905  0.2082  1.0872
 3369SOL     OW21568   4.412   3.741   5.668 -0.5729 -0.0176  0.0840
 3369SOL    HW121569   4.425   3.799   5.743  0.5052 -0.2239  0.0493
 3369SOL    HW221570   4.502   3.712   5.651 -0.1299  1.7099 -0.5532
 3370SOL     OW21571   3.583   1.872  11.875 -0.4445  0.0741 -0.2100
 3370SOL    HW121572   3.528   1.890  11.799  0.5519 -0.1872 -0.9735
 3370SOL    HW221573   3.666   1.835  11.846  0.8994  3.2466 -0.4370
 3371SOL     OW21574   2.255   3.941   3.131  0.3830 -0.3729 -0.3446
 3371SOL    HW121575   2.330   3.983   3.088  0.1145 -0.9618 -1.3858
 3371SOL    HW221576   2.182   3.959   3.071  0.3303 -0.7116 -0.3814
 3372SOL     OW21577   2.474   4.585   9.564 -0.0846  0.2362 -0.2251
 3372SOL    HW121578   2.418   4.660   9.582  0.3107 -0.2375  2.9949
 3372SOL    HW221579   2.535   4.590   9.638  0.0414  0.8654 -0.3744
 3373SOL     OW21580   3.066   0.293   3.679 -0.2462 -0.4077  0.6651
 3373SOL    HW121581   3.057   0.222   3.743 -0.9337 -0.1528  0.8535
 3373SOL    HW221582   2.973   0.297   3.657 -0.0447 -0.0978 -0.1330
 3374SOL     OW21583   3.883   2.905   6.388 -0.5155  0.1156 -0.5570
 3374SOL    HW121584   3.882   2.819   6.430 -0.9532  0.4064  0.0400
 3374SOL    HW221585   3.820   2.904   6.317 -0.7028  1.5648 -0.4024
 3375SOL     OW21586   3.084   3.792  14.287  0.1430 -0.3060 -0.4665
 3375SOL    HW121587   3.016   3.810  14.222 -0.5990 -1.3640  0.0254
 3375SOL    HW221588   3.070   3.701  14.312 -0.5863  0.1360  0.7483
 3376SOL     OW21589   0.108   0.893   4.880  0.6822 -0.0779  0.3479
 3376SOL    HW121590   0.083   0.807   4.914 -0.2357 -0.2793 -0.8621
 3376SOL    HW221591   0.055   0.889   4.801  0.6358  1.4497  0.2941
 3377SOL     OW21592   3.351   0.948  10.665  0.1161 -0.1819 -0.2814
 3377SOL    HW121593   3.295   0.954  10.742  2.0082 -2.5691  1.2459
 3377SOL    HW221594   3.397   0.868  10.688  2.7734  0.4927 -3.1396
 3378SOL     OW21595   1.059   3.733   4.463 -0.1924 -0.4851 -0.4162
 3378SOL    HW121596   1.108   3.815   4.457  1.5963 -1.5488 -0.4958
 3378SOL    HW221597   1.066   3.724   4.558 -0.2821 -0.1703 -0.3782
 3379SOL     OW21598   2.279   0.225   0.690 -0.4150  0.4282 -0.0889
 3379SOL    HW121599   2.286   0.130   0.697  0.9422  0.4247 -1.5075
 3379SOL    HW221600   2.269   0.253   0.781 -1.4245  1.0024 -0.3730
 3380SOL     OW21601   1.506   1.815   4.848  0.9851 -0.7328  0.9282
 3380SOL    HW121602   1.567   1.760   4.798 -0.3047 -1.4063  0.1199
 3380SOL    HW221603   1.423   1.778   4.819 -0.1044  3.2576 -0.9221
 3381SOL     OW21604   1.775   3.579   6.752 -0.0137 -0.1684  0.1118
 3381SOL    HW121605   1.746   3.589   6.843 -1.1133  0.4940 -0.3106
 3381SOL    HW221606   1.814   3.666   6.743 -1.6424  0.6032  0.3985
 3382SOL     OW21607   3.283   3.295   2.891 -0.2755  0.6414  0.1297
 3382SOL    HW121608   3.190   3.282   2.908 -0.5129  2.3810  0.2429
 3382SOL    HW221609   3.316   3.206   2.888  1.5724  1.2943  0.8514
 3383SOL     OW21610   3.673   0.217   3.164 -0.3473  0.0976  0.0205
 3383SOL    HW121611   3.591   0.235   3.211 -0.9215 -1.5246 -0.3589
 3383SOL    HW221612   3.661   0.123   3.154 -2.4514  0.5747 -2.0379
 3384SOL     OW21613   4.301   1.516   4.848  0.1833  0.0614 -0.0951
 3384SOL    HW121614   4.304   1.523   4.752 -1.9282  0.7611 -0.1059
 3384SOL    HW221615   4.207   1.503   4.860  0.1153 -0.5425 -1.3092
 3385SOL     OW21616   1.495   4.181  10.297 -0.2111  0.0443  0.0395
 3385SOL    HW121617   1.532   4.269  10.289  0.0775  0.0066  0.9465
 3385SOL    HW221618   1.425   4.199  10.360 -0.3137 -2.1447  0.5553
 3386SOL     OW21619   0.068   4.198   5.502  0.6157 -0.3178 -0.0939
 3386SOL    HW121620   0.119   4.268   5.543 -0.7122  0.7286 -0.2671
 3386SOL    HW221621   0.099   4.220   5.414  3.2149  0.1478  0.9380
 3387SOL     OW21622   0.137   0.848   8.482 -0.4088 -0.0348 -0.2268
 3387SOL    HW121623   0.176   0.918   8.429  1.8405 -0.7246  0.5175
 3387SOL    HW221624   0.049   0.837   8.448  0.2537  0.0542 -1.9981
 3388SOL     OW21625   0.045   1.635  12.415  0.6310 -0.0292 -0.0747
 3388SOL    HW121626   4.719   1.616  12.492  0.1231 -0.0052 -0.4164
 3388SOL    HW221627   0.122   1.577  12.410  0.6568  0.1239 -1.5902
 3389SOL     OW21628   2.240   3.997   3.426  0.6277  0.1599 -0.4962
 3389SOL    HW121629   2.173   3.929   3.433 -2.9307  3.9608  2.8348
 3389SOL    HW221630   2.284   3.986   3.342 -0.2860 -2.2637 -0.6509
 3390SOL     OW21631   4.654   2.875   9.317 -0.2940 -0.6501 -0.1610
 3390SOL    HW121632   4.613   2.810   9.260  1.6594 -1.8765 -0.1327
 3390SOL    HW221633   4.695   2.936   9.256  1.4475 -1.8192 -0.1541
 3391SOL     OW21634   2.093   0.518   5.180 -0.1887  0.4076 -0.0479
 3391SOL    HW121635   2.120   0.470   5.101 -1.3853  0.3898 -0.4529
 3391SOL    HW221636   1.997   0.524   5.177 -0.2999 -1.4572 -0.1165
 3392SOL     OW21637   1.710   1.208   5.203 -0.7105 -0.5133  0.3712
 3392SOL    HW121638   1.727   1.265   5.278 -0.6288  0.1108 -0.1188
 3392SOL    HW221639   1.710   1.126   5.253  2.7839 -1.2623 -0.8613
 3393SOL     OW21640   4.122   0.539   5.307 -0.2618 -0.6471 -0.1786
 3393SOL    HW121641   4.113   0.500   5.393 -0.9123  0.5110  0.2708
 3393SOL    HW221642   4.072   0.480   5.251 -1.5084 -0.2062  0.4773
 3394SOL     OW21643   2.399   2.391  12.777  0.1091  0.1209  0.6307
 3394SOL    HW121644   2.318   2.359  12.817  0.5803 -0.5533  1.0376
 3394SOL    HW221645   2.419   2.306  12.737  0.3895  0.7778 -0.6217
 3395SOL     OW21646   0.393   2.719   8.747  0.0564 -0.4084 -0.3807
 3395SOL    HW121647   0.475   2.769   8.745 -0.3336  0.3526  2.4523
 3395SOL    HW221648   0.340   2.755   8.819 -0.4395 -0.6440 -0.6300
 3396SOL     OW21649   4.529   3.592  11.136 -0.0283  0.1259 -0.0857
 3396SOL    HW121650   4.470   3.643  11.192 -0.7702  0.1413 -0.8779
 3396SOL    HW221651   4.468   3.569  11.066  0.7227 -0.3473 -0.5743
 3397SOL     OW21652   0.508   0.243   8.591  0.3642 -0.8765 -0.7334
 3397SOL    HW121653   0.549   0.262   8.675  0.2506 -0.4709 -0.7676
 3397SOL    HW221654   0.525   0.321   8.537 -0.3223 -0.4390 -0.3101
 3398SOL     OW21655   4.666   4.007  15.591  0.6331 -0.0215 -0.3837
 3398SOL    HW121656   0.013   3.947  15.590  1.0631  0.4904  1.4687
 3398SOL    HW221657   4.604   3.939  15.564  0.3213 -0.0002  0.2902
 3399SOL     OW21658   4.020   2.839   8.800  0.1063  0.4637  0.0431
 3399SOL    HW121659   3.938   2.872   8.764  1.0965  0.7985 -1.9054
 3399SOL    HW221660   3.983   2.796   8.877  1.5865 -2.8766 -1.1478
 3400SOL     OW21661   4.156   3.333   9.311  0.1344 -0.4384  0.0590
 3400SOL    HW121662   4.063   3.319   9.328 -0.6901  2.6498 -1.8375
 3400SOL    HW221663   4.152   3.425   9.282  2.8290 -0.2427  0.3453
 3401SOL     OW21664   3.036   1.378   5.229  0.6487 -0.0930 -0.4565
 3401SOL    HW121665   3.086   1.397   5.149 -0.9618 -1.6107 -1.8183
 3401SOL    HW221666   3.105   1.392   5.294  1.2536  1.0167 -1.3344
 3402SOL     OW21667   1.713   3.514   2.079  0.1752  0.2065  0.3707
 3402SOL    HW121668   1.712   3.418   2.071  1.2521  0.2443 -0.2148
 3402SOL    HW221669   1.798   3.535   2.040 -0.3158  1.5451  0.0265
 3403SOL     OW21670   1.458   4.512  17.376  0.1825 -0.2901 -0.3719
 3403SOL    HW121671   1.475   4.519  17.470 -1.9286  0.3561 -0.0329
 3403SOL    HW221672   1.543   4.510  17.333 -0.2403 -1.9644 -1.1329
 3404SOL     OW21673   0.053   0.927   3.478 -0.4648 -0.0140 -0.1546
 3404SOL    HW121674   0.049   0.836   3.448 -1.4338  0.3983 -1.2581
 3404SOL    HW221675   4.700   0.944   3.528 -0.9343 -1.5970 -0.3591
 3405SOL     OW21676   2.277   2.015   6.477  0.5176 -0.1323  0.1126
 3405SOL    HW121677   2.184   2.007   6.497  0.7881  0.8598  1.8494
 3405SOL    HW221678   2.320   1.947   6.529 -1.1304  1.2132  3.2537
 3406SOL     OW21679   4.212   4.606   4.371  0.0407 -0.0543  0.4973
 3406SOL    HW121680   4.198   4.583   4.463 -0.0131 -0.3095  0.4246
 3406SOL    HW221681   4.183   4.525   4.328 -1.2335  0.2956  0.7049
 3407SOL     OW21682   2.887   0.920  12.639  0.1191  0.0369  0.3707
 3407SOL    HW121683   2.936   0.902  12.719 -0.1980  1.7395  0.9361
 3407SOL    HW221684   2.813   0.976  12.662  0.3439 -0.1068  1.4251
 3408SOL     OW21685   0.065   4.368   5.018 -0.3825  0.3478  0.2184
 3408SOL    HW121686   4.721   4.420   5.057 -1.2147  1.5835 -2.9976
 3408SOL    HW221687   0.048   4.371   4.924  0.3923  0.3755  0.0826
 3409SOL     OW21688   3.328   4.717  15.438 -0.1991 -0.6552  0.8175
 3409SOL    HW121689   3.240   0.015  15.468 -0.4340 -0.4960 -0.0063
 3409SOL    HW221690   3.302   4.640  15.387  1.3568  0.5672 -1.7949
 3410SOL     OW21691   2.236   1.691  10.177  0.4340  0.0414  0.0902
 3410SOL    HW121692   2.158   1.746  10.191  0.1965 -0.2567 -0.0695
 3410SOL    HW221693   2.239   1.689  10.082 -0.3548  2.1152  0.0045
 3411SOL     OW21694   4.047   0.818   7.453 -0.4099  0.2889 -0.3392
 3411SOL    HW121695   4.101   0.753   7.406 -0.4847 -0.1655  0.1960
 3411SOL    HW221696   4.103   0.862   7.516  0.9356 -1.0923 -0.5518
 3412SOL     OW21697   3.166   0.338  14.218  0.0084  0.0595 -0.0523
 3412SOL    HW121698   3.150   0.432  14.224 -1.5004 -0.2892  1.3428
 3412SOL    HW221699   3.182   0.316  14.310  1.3898 -0.5162 -0.4297
 3413SOL     OW21700   1.959   3.693  10.780 -0.6795 -0.3444 -0.0759
 3413SOL    HW121701   1.929   3.621  10.836 -0.6945 -0.4193 -0.1788
 3413SOL    HW221702   2.054   3.686  10.772 -0.7665  0.9653 -2.2825
 3414SOL     OW21703   4.548   0.656   4.433 -0.4203 -0.7193  0.5933
 3414SOL    HW121704   4.633   0.640   4.391 -0.8929 -1.7119  0.0189
 3414SOL    HW221705   4.539   0.747   4.406 -0.8952 -1.5752 -2.1484
 3415SOL     OW21706   4.084   3.258  15.602  0.5460 -0.7097 -0.4630
 3415SOL    HW121707   4.126   3.210  15.673  0.4949 -1.1600 -0.7313
 3415SOL    HW221708   4.166   3.261  15.553 -0.3930  0.0057 -1.9787
 3416SOL     OW21709   0.973   1.781   7.082 -0.8251  0.1500 -0.1380
 3416SOL    HW121710   0.982   1.832   7.002  1.0040  1.0386  0.6284
 3416SOL    HW221711   1.061   1.754   7.110 -1.7968 -2.3190  0.5129
 3417SOL     OW21712   2.575   2.398   5.534 -0.3424 -0.0250  0.3006
 3417SOL    HW121713   2.575   2.303   5.551 -0.6224 -0.0227  0.3078
 3417SOL    HW221714   2.636   2.423   5.604 -0.6782 -1.9737  1.3141
 3418SOL     OW21715   1.622   2.864   7.469  0.2473  0.4234  0.6258
 3418SOL    HW121716   1.701   2.915   7.453 -0.5983  0.5865 -2.8918
 3418SOL    HW221717   1.621   2.843   7.563  0.9772 -0.8726  0.3536
 3419SOL     OW21718   0.536   0.169  12.194 -0.2496  0.0717 -0.5999
 3419SOL    HW121719   0.443   0.173  12.218 -0.2774  0.4492 -0.7868
 3419SOL    HW221720   0.547   0.251  12.146 -0.5836 -0.0144 -0.8241
 3420SOL     OW21721   4.699   3.971   2.539 -0.5239  0.0557 -0.5824
 3420SOL    HW121722   4.660   3.926   2.464 -0.9054  1.5466 -1.2811
 3420SOL    HW221723   0.059   3.931   2.545 -1.0336 -1.0587 -0.6168
 3421SOL     OW21724   1.109   3.071  14.133 -0.2822  0.0784 -0.6331
 3421SOL    HW121725   1.105   2.996  14.073 -0.4819  1.0141 -1.8006
 3421SOL    HW221726   1.143   3.142  14.080 -1.4242  0.6118 -0.6567
 3422SOL     OW21727   1.208   4.287   1.938 -0.5595  0.2220 -0.4867
 3422SOL    HW121728   1.134   4.249   1.984 -0.7202  0.8268 -0.2480
 3422SOL    HW221729   1.260   4.319   2.012 -1.3756 -1.0181  0.6298
 3423SOL     OW21730   4.632   1.187   8.236  0.1465 -0.0634  0.0458
 3423SOL    HW121731   4.579   1.177   8.315 -0.9591 -0.0368 -0.6885
 3423SOL    HW221732   4.584   1.259   8.196  1.3346 -0.0019 -1.2521
 3424SOL     OW21733   1.135   0.560   2.499  0.3118 -0.6579 -0.0623
 3424SOL    HW121734   1.090   0.477   2.480  1.7286 -1.1744 -1.1880
 3424SOL    HW221735   1.086   0.620   2.443  0.1992 -1.4624 -0.8437
 3425SOL     OW21736   3.020   1.354   3.681 -0.6331 -0.0896 -0.4681
 3425SOL    HW121737   3.016   1.427   3.742 -1.2989 -0.1478 -0.4381
 3425SOL    HW221738   2.927   1.339   3.663 -0.6369  0.8238 -1.1682
 3426SOL     OW21739   2.684   1.421   2.030 -0.0355 -0.3543 -0.0039
 3426SOL    HW121740   2.719   1.347   2.081 -1.2024 -0.8879  0.0069
 3426SOL    HW221741   2.596   1.388   2.016  0.2823 -0.2191 -2.2710
 3427SOL     OW21742   4.182   2.313   6.005 -0.2259  0.1853  0.2300
 3427SOL    HW121743   4.188   2.225   5.968 -0.1106 -0.6524  2.2478
 3427SOL    HW221744   4.247   2.310   6.075 -1.8697 -1.0217  1.7261
 3428SOL     OW21745   4.711   2.446   0.345  0.3479 -0.0164  0.3418
 3428SOL    HW121746   4.680   2.521   0.293 -1.6896 -0.6182  0.6839
 3428SOL    HW221747   4.627   2.431   0.388 -0.4995 -1.5097 -1.8411
 3429SOL     OW21748   2.210   3.147   3.737  1.0042  0.5851  0.1571
 3429SOL    HW121749   2.207   3.177   3.646 -1.2128 -1.2541 -0.3672
 3429SOL    HW221750   2.126   3.102   3.749  0.8897  0.8488  0.3491
 3430SOL     OW21751   1.525   0.077   4.075  0.3917  0.1037  0.2094
 3430SOL    HW121752   1.529   0.063   4.169  0.1941  3.1452  0.6858
 3430SOL    HW221753   1.447   0.132   4.072  0.0457 -0.1684  4.2474
 3431SOL     OW21754   3.692   4.663   7.821 -0.2387  0.0352 -0.0989
 3431SOL    HW121755   3.609   4.643   7.777  0.0724 -0.4815 -0.4458
 3431SOL    HW221756   3.700   4.601   7.893  0.8839  1.6186  1.1538
 3432SOL     OW21757   3.996   0.565   8.721  0.5303  0.0480  0.2910
 3432SOL    HW121758   4.027   0.537   8.808 -0.6614 -1.8035  0.1304
 3432SOL    HW221759   3.962   0.653   8.734 -1.1927 -0.6036  0.2069
 3433SOL     OW21760   0.196   1.754   9.002 -0.5003  0.1936  0.5798
 3433SOL    HW121761   0.240   1.780   8.921  0.0575 -1.9251  0.2087
 3433SOL    HW221762   0.260   1.777   9.069  0.3676  0.2729 -0.2843
 3434SOL     OW21763   4.377   3.945   7.851 -0.0057 -0.2216 -0.0482
 3434SOL    HW121764   4.393   3.960   7.758  1.6281  0.2637  0.3106
 3434SOL    HW221765   4.330   3.862   7.846  3.2673 -2.1285  0.4589
 3435SOL     OW21766   2.477   1.413   3.477  0.0629  0.3903 -0.3807
 3435SOL    HW121767   2.462   1.488   3.420 -1.4659  1.0617  0.9058
 3435SOL    HW221768   2.523   1.360   3.411  1.6512  1.6249 -0.2802
 3436SOL     OW21769   4.541   2.529   8.767  0.2253  0.1921 -0.1751
 3436SOL    HW121770   4.566   2.488   8.850 -1.7599  2.0066  1.3348
 3436SOL    HW221771   4.612   2.589   8.745  0.9903 -0.9036 -0.6811
 3437SOL     OW21772   1.559   2.079   3.764 -0.4166  0.1599  0.3411
 3437SOL    HW121773   1.470   2.054   3.785 -0.1675 -1.7864 -0.9369
 3437SOL    HW221774   1.574   2.035   3.680  0.9369  0.8507  0.2113
 3438SOL     OW21775   2.032   3.972   5.617 -0.9352 -0.4053  0.3597
 3438SOL    HW121776   1.964   4.036   5.636 -0.6106  1.2615 -3.9758
 3438SOL    HW221777   2.066   3.991   5.529 -0.7328  0.4666  0.6232
 3439SOL     OW21778   2.365   3.177   6.027 -0.1581  0.3378 -0.2158
 3439SOL    HW121779   2.316   3.150   6.105 -0.8629 -2.0194 -1.4710
 3439SOL    HW221780   2.290   3.170   5.968 -0.2138  0.4155 -0.1533
 3440SOL     OW21781   0.518   0.202   2.301 -0.1099 -0.8452  0.6966
 3440SOL    HW121782   0.564   0.270   2.351  0.8483  1.0071 -2.6466
 3440SOL    HW221783   0.559   0.217   2.215 -2.0460 -0.0183 -0.0688
 3441SOL     OW21784   4.162   2.138   5.211 -0.1504  0.0556 -0.4011
 3441SOL    HW121785   4.171   2.055   5.256 -2.4597  0.4264  0.7627
 3441SOL    HW221786   4.105   2.185   5.272 -0.2343  1.9867 -1.9363
 3442SOL     OW21787   3.490   2.506   2.558  0.2684 -0.6096 -0.0073
 3442SOL    HW121788   3.430   2.572   2.593 -0.7816 -0.8591 -1.3316
 3442SOL    HW221789   3.557   2.556   2.512 -0.8226 -0.5221 -1.5115
 3443SOL     OW21790   2.258   0.617   4.080  0.3813  0.0393  0.0084
 3443SOL    HW121791   2.197   0.550   4.111 -1.4744  1.5849 -0.2720
 3443SOL    HW221792   2.226   0.653   3.997  0.4360  0.3256  0.1093
 3444SOL     OW21793   0.633   4.624   3.446  0.4196  0.1434  0.5722
 3444SOL    HW121794   0.605   4.580   3.366  0.8278 -0.4209  0.7370
 3444SOL    HW221795   0.550   4.661   3.475 -0.9858 -0.9480 -2.1028
 3445SOL     OW21796   0.566   3.146   8.303 -0.2714  0.5043  0.2245
 3445SOL    HW121797   0.496   3.094   8.343 -0.6360  0.6572 -0.2221
 3445SOL    HW221798   0.526   3.232   8.316 -1.3994 -0.1780  1.2752
 3446SOL     OW21799   4.499   1.775   3.144 -0.3523  0.2332 -0.4422
 3446SOL    HW121800   4.446   1.808   3.217 -2.2503 -0.9588 -1.2814
 3446SOL    HW221801   4.444   1.795   3.069 -0.5262  0.9836 -0.1172
 3447SOL     OW21802   0.134   1.252   4.729  0.5607  0.1497 -0.1735
 3447SOL    HW121803   0.207   1.217   4.780  0.4807  1.8459  1.0956
 3447SOL    HW221804   0.142   1.208   4.644  0.6783 -0.7167  0.2918
 3448SOL     OW21805   3.082   0.489  16.781 -0.0283 -0.5710  0.3248
 3448SOL    HW121806   3.083   0.579  16.747 -1.2662 -0.6009  0.2032
 3448SOL    HW221807   3.047   0.434  16.712  0.3401  1.2456 -1.3156
 3449SOL     OW21808   3.752   3.210   7.042 -0.0080 -0.1326  0.1047
 3449SOL    HW121809   3.801   3.235   6.963 -1.4235  1.1283 -0.3644
 3449SOL    HW221810   3.708   3.134   7.005 -0.3761 -0.1604  0.6118
 3450SOL     OW21811   2.947   1.364   1.209  0.0845 -0.1187 -0.2941
 3450SOL    HW121812   2.875   1.418   1.176  0.8398  1.1036  0.0362
 3450SOL    HW221813   2.934   1.293   1.146 -1.7018 -1.6507  1.8061
 3451SOL     OW21814   1.065   0.835   4.440  0.3412  0.5270 -0.4759
 3451SOL    HW121815   1.117   0.870   4.512  2.7617  0.4696 -2.2032
 3451SOL    HW221816   1.135   0.845   4.377  1.9721 -0.7420  1.1251
 3452SOL     OW21817   4.705   0.960   4.525  0.3069  0.1995  0.5746
 3452SOL    HW121818   4.649   0.962   4.448  0.2308 -2.4603  0.5837
 3452SOL    HW221819   4.648   0.934   4.598  0.7262 -0.9002  0.5088
 3453SOL     OW21820   4.090   3.597  16.833 -0.3217  0.0982 -0.1392
 3453SOL    HW121821   4.098   3.510  16.794  0.7132  0.2459 -0.2794
 3453SOL    HW221822   4.176   3.637  16.816  0.8386 -1.9812  0.7838
 3454SOL     OW21823   0.157   2.062   1.309  0.1954  0.3221 -0.0042
 3454SOL    HW121824   0.208   1.985   1.335 -1.4464  0.0085  2.2983
 3454SOL    HW221825   0.067   2.051   1.340 -0.7224  0.6819 -2.5602
 3455SOL     OW21826   1.238   2.620   6.116  0.3762  0.3373  0.4462
 3455SOL    HW121827   1.230   2.667   6.199 -1.6615  0.1090  0.3999
 3455SOL    HW221828   1.170   2.661   6.062  0.4109  0.1766  0.2783
 3456SOL     OW21829   1.769   2.960  13.346 -0.2154  0.4008 -0.1093
 3456SOL    HW121830   1.712   2.888  13.320  1.0021 -0.1035 -1.3538
 3456SOL    HW221831   1.794   2.995  13.261  1.5382  0.1119  0.2850
 3457SOL     OW21832   1.466   3.012   7.238  0.6992  0.0598  0.4640
 3457SOL    HW121833   1.483   2.967   7.321  1.0313 -2.1462 -0.8032
 3457SOL    HW221834   1.503   3.099   7.255  0.0643  0.2220  1.0172
 3458SOL     OW21835   3.404   3.657   6.627 -0.1859  0.1809  0.0336
 3458SOL    HW121836   3.349   3.721   6.672  0.1975  1.8009 -1.8249
 3458SOL    HW221837   3.465   3.639   6.699 -0.0607  0.6423  0.0403
 3459SOL     OW21838   3.144   2.997   7.647 -0.1227 -0.0721  0.2089
 3459SOL    HW121839   3.178   2.916   7.686 -0.2904 -0.8695 -1.3286
 3459SOL    HW221840   3.110   2.958   7.567 -1.4738 -1.8676  1.6300
 3460SOL     OW21841   3.420   0.223   8.405 -0.2096 -0.0469 -0.1663
 3460SOL    HW121842   3.514   0.208   8.417 -0.3824 -0.5565  0.5652
 3460SOL    HW221843   3.404   0.262   8.491 -2.2381 -3.9322  1.2096
 3461SOL     OW21844   2.210   1.322   1.360  0.3040  0.2455 -0.1502
 3461SOL    HW121845   2.304   1.343   1.356  0.5627 -0.6589  1.0692
 3461SOL    HW221846   2.173   1.395   1.310  0.5846 -0.4579 -1.3738
 3462SOL     OW21847   1.289   3.302   3.401  0.1414  0.4563  0.0460
 3462SOL    HW121848   1.367   3.336   3.356 -0.0475  2.7727  1.5129
 3462SOL    HW221849   1.319   3.294   3.491  3.7569 -1.6462 -1.3401
 3463SOL     OW21850   1.480   3.211   1.354  0.4832 -0.2493 -0.1090
 3463SOL    HW121851   1.442   3.182   1.437 -0.3291 -0.7473 -0.6541
 3463SOL    HW221852   1.563   3.165   1.343 -1.0340 -2.6771 -1.4510
 3464SOL     OW21853   3.664   3.630   2.207 -0.3856  0.3980  0.1771
 3464SOL    HW121854   3.656   3.535   2.206  2.0519  0.1976  0.8599
 3464SOL    HW221855   3.724   3.660   2.276 -0.5705 -0.9146  0.9093
 3465SOL     OW21856   2.903   2.162  11.448 -0.4197  0.0360  0.1733
 3465SOL    HW121857   2.995   2.152  11.425  0.1366 -0.1420  2.5232
 3465SOL    HW221858   2.909   2.096  11.517 -2.1775  0.3406  0.6195
 3466SOL     OW21859   0.977   3.871  10.467 -0.0129  0.1004  0.0734
 3466SOL    HW121860   0.896   3.831  10.433 -0.5349 -0.4819  1.9919
 3466SOL    HW221861   1.036   3.842  10.398 -1.5580 -2.5252 -0.1450
 3467SOL     OW21862   3.660   3.220   9.714  0.2050 -0.9228 -0.1646
 3467SOL    HW121863   3.608   3.299   9.700 -0.5568 -1.0238  2.0111
 3467SOL    HW221864   3.628   3.192   9.800  0.0815 -2.0316 -0.5812
 3468SOL     OW21865   3.443   3.058  12.178  0.3257 -0.7017 -0.0976
 3468SOL    HW121866   3.409   3.146  12.162  0.2772 -1.0989 -2.1623
 3468SOL    HW221867   3.535   3.073  12.201 -0.0434  0.4856  0.5626
 3469SOL     OW21868   0.298   3.978   9.071  0.2294 -0.4915  0.2578
 3469SOL    HW121869   0.267   3.888   9.083  0.8283 -0.6311  0.7561
 3469SOL    HW221870   0.331   3.997   9.159 -0.0134  2.0746 -0.2073
 3470SOL     OW21871   2.768   3.790   9.431  0.1775  0.4298  0.3347
 3470SOL    HW121872   2.705   3.829   9.491 -2.0414 -2.3557 -0.1972
 3470SOL    HW221873   2.776   3.844   9.352 -1.7347  0.1796 -0.0219
 3471SOL     OW21874   0.897   4.536   6.143  0.4924 -0.1145 -0.7276
 3471SOL    HW121875   0.878   4.443   6.144 -0.9444  0.1687 -1.1714
 3471SOL    HW221876   0.990   4.544   6.122  0.3828  0.7985 -0.8700
 3472SOL     OW21877   1.596   0.785   9.183  0.6686 -0.5530  0.2333
 3472SOL    HW121878   1.638   0.870   9.169  2.6370 -0.8956  3.8089
 3472SOL    HW221879   1.504   0.809   9.187  1.7292  4.0553 -2.4538
 3473SOL     OW21880   2.513   1.336  14.486  0.0068  0.7667 -0.7167
 3473SOL    HW121881   2.429   1.292  14.477  1.0789 -1.2366 -0.9979
 3473SOL    HW221882   2.486   1.428  14.496  1.5087  1.2607 -1.0504
 3474SOL     OW21883   0.478   0.724   1.540 -0.0856 -0.1934  0.3387
 3474SOL    HW121884   0.460   0.725   1.447  0.8410 -1.7250  0.1437
 3474SOL    HW221885   0.424   0.649   1.565  1.6972 -1.6035  0.0129
 3475SOL     OW21886   1.182   2.202   6.068  0.0679  0.1484 -0.2937
 3475SOL    HW121887   1.090   2.220   6.050  1.3553  2.3503 -4.8106
 3475SOL    HW221888   1.170   2.111   6.094  0.9534 -0.6466 -2.6744
 3476SOL     OW21889   2.112   0.493  11.961  0.6865  0.1808  0.2396
 3476SOL    HW121890   2.075   0.422  12.014  2.6542 -0.4695  0.7662
 3476SOL    HW221891   2.031   0.542  11.958  2.0372  2.4748  0.9801
 3477SOL     OW21892   0.184   0.603   3.495 -0.5248 -0.1873 -0.1621
 3477SOL    HW121893   0.240   0.582   3.570  0.2495  0.5877 -0.5286
 3477SOL    HW221894   0.123   0.529   3.494  1.4163 -1.7777 -0.9105
 3478SOL     OW21895   2.288   1.503   6.148  0.2841 -0.0229 -0.3406
 3478SOL    HW121896   2.326   1.508   6.060  0.5749  1.2473 -0.1525
 3478SOL    HW221897   2.202   1.470   6.123 -0.7783  1.6053  1.1521
 3479SOL     OW21898   2.393   1.614  16.386 -0.2028  0.0714  0.2221
 3479SOL    HW121899   2.337   1.552  16.339  1.2431 -0.7745 -0.3836
 3479SOL    HW221900   2.374   1.701  16.354  1.4949  0.6085  0.6547
 3480SOL     OW21901   3.988   4.301  17.680  0.0268 -0.3455  0.1961
 3480SOL    HW121902   4.071   4.261  17.707  0.2981 -0.2797 -0.5333
 3480SOL    HW221903   3.942   4.227  17.642  0.2195 -0.5985  0.4464
 3481SOL     OW21904   3.567   1.159   8.347 -0.4949 -0.3481 -1.0580
 3481SOL    HW121905   3.533   1.070   8.353 -0.2156 -0.3917 -0.0842
 3481SOL    HW221906   3.638   1.148   8.283 -0.6305 -0.9161 -1.1115
 3482SOL     OW21907   1.454   0.567   7.185 -0.1140  0.3339 -0.0344
 3482SOL    HW121908   1.453   0.597   7.094 -1.2259  1.8659  0.4837
 3482SOL    HW221909   1.386   0.620   7.226  0.0419  1.4719 -1.2285
 3483SOL     OW21910   0.336   3.502   2.926 -0.3517  0.3122 -0.0657
 3483SOL    HW121911   0.247   3.513   2.958 -0.5665 -1.7848  0.0444
 3483SOL    HW221912   0.382   3.506   3.009  0.2563  0.4298 -0.4086
 3484SOL     OW21913   4.576   3.111   8.605 -0.3445 -0.6341 -0.3311
 3484SOL    HW121914   4.499   3.097   8.550 -0.4173 -0.8127 -0.1861
 3484SOL    HW221915   4.590   3.021   8.635  1.1748  0.1362  1.2984
 3485SOL     OW21916   1.310   4.263  10.520 -0.2170  0.4260 -0.1634
 3485SOL    HW121917   1.232   4.223  10.558 -0.9774  0.9379 -1.1602
 3485SOL    HW221918   1.359   4.274  10.601 -0.0592  1.3978 -0.3929
 3486SOL     OW21919   0.066   3.274   6.769  0.2158 -0.0155  0.2357
 3486SOL    HW121920   0.127   3.311   6.705  0.3761  0.2337  0.5336
 3486SOL    HW221921   0.037   3.353   6.814 -1.0034  0.3497 -1.1889
 3487SOL     OW21922   1.823   0.412  11.826 -0.2069 -0.0295 -0.5187
 3487SOL    HW121923   1.858   0.328  11.855 -1.0740  0.0012  0.6000
 3487SOL    HW221924   1.807   0.393  11.733 -1.8668  1.5124 -0.5629
 3488SOL     OW21925   1.036   0.807   8.699  0.0908  0.4756  0.0205
 3488SOL    HW121926   1.128   0.781   8.689 -0.2750  0.7118 -3.5953
 3488SOL    HW221927   0.993   0.732   8.742  1.1600 -0.4280 -0.4794
 3489SOL     OW21928   3.988   3.140  15.363 -0.7559 -0.4386  0.0862
 3489SOL    HW121929   4.017   3.175  15.447  0.2657  3.7513 -2.0402
 3489SOL    HW221930   3.968   3.221  15.316 -0.2762 -0.6479 -0.4853
 3490SOL     OW21931   4.073   4.592   3.383 -0.2343  0.2735 -0.2989
 3490SOL    HW121932   4.056   4.601   3.289  1.9635 -1.3050 -0.8518
 3490SOL    HW221933   3.997   4.554   3.426 -0.6814  0.2570 -1.1089
 3491SOL     OW21934   4.658   3.768   2.369  0.4301  0.3934  0.3107
 3491SOL    HW121935   4.699   3.729   2.446 -0.0216 -0.1590  0.2703
 3491SOL    HW221936   0.003   3.789   2.310 -0.5943 -1.5344 -1.6532
 3492SOL     OW21937   2.312   1.049   9.077 -0.3937 -0.2788  0.2141
 3492SOL    HW121938   2.260   0.986   9.028  1.1962 -0.5788 -1.0473
 3492SOL    HW221939   2.325   1.117   9.011  0.4874  0.0404  0.7120
 3493SOL     OW21940   0.954   1.997   7.852 -0.1288 -0.4800  0.6082
 3493SOL    HW121941   0.960   2.035   7.765  0.6243  0.4207  1.0508
 3493SOL    HW221942   1.047   2.007   7.876 -0.5640  0.3080  1.9561
 3494SOL     OW21943   3.606   0.313   2.801  0.0399  0.2646 -0.1644
 3494SOL    HW121944   3.675   0.254   2.773 -0.1369 -0.7591  1.5059
 3494SOL    HW221945   3.524   0.266   2.786 -0.9237  1.4865  1.2320
 3495SOL     OW21946   2.619   0.172  10.912 -0.0938  0.3435 -0.1996
 3495SOL    HW121947   2.592   0.236  10.978 -1.2883  1.6795 -2.0043
 3495SOL    HW221948   2.580   0.203  10.830 -0.8755  3.4366  1.3201
 3496SOL     OW21949   2.909   1.865   9.384  0.3240  0.2324  0.1052
 3496SOL    HW121950   2.899   1.863   9.479 -2.1688  0.3412 -0.1676
 3496SOL    HW221951   2.919   1.772   9.365 -0.6729 -0.1900  1.7220
 3497SOL     OW21952   2.005   3.045   4.837 -0.0830 -0.5993 -0.2516
 3497SOL    HW121953   1.989   3.039   4.743  0.3347  2.7334 -0.5004
 3497SOL    HW221954   2.095   3.011   4.840  0.4175  0.5784 -1.8282
 3498SOL     OW21955   3.758   3.902   4.051 -0.0435 -0.1836  0.0357
 3498SOL    HW121956   3.770   3.923   4.144  2.0376  0.4140 -0.3540
 3498SOL    HW221957   3.697   3.969   4.020  1.3327  0.2035 -1.8272
 3499SOL     OW21958   0.207   3.011   6.186 -0.1470  0.0080  0.1249
 3499SOL    HW121959   0.257   3.033   6.265  1.0997  0.7704 -0.8750
 3499SOL    HW221960   0.240   3.084   6.134 -2.6245  0.7010 -0.4675
 3500SOL     OW21961   4.012   2.454   5.334 -0.4251  0.0456  0.3297
 3500SOL    HW121962   4.059   2.472   5.415  0.0431 -0.7931  0.2437
 3500SOL    HW221963   4.004   2.359   5.348  1.0132 -0.5138 -2.5829
 3501SOL     OW21964   3.392   1.597   6.644 -0.4369  0.1150 -0.0704
 3501SOL    HW121965   3.386   1.669   6.581 -0.5168 -0.9305 -1.2568
 3501SOL    HW221966   3.404   1.524   6.584  1.1346  1.1661 -1.0327
 3502SOL     OW21967   0.938   1.205   8.978  0.0023 -0.5791  0.5079
 3502SOL    HW121968   1.021   1.159   8.986 -0.8902 -1.8819  2.2082
 3502SOL    HW221969   0.935   1.248   8.892 -1.9340  0.8975  1.2999
 3503SOL     OW21970   3.278   3.654  17.029  0.4502 -0.4422  0.1429
 3503SOL    HW121971   3.265   3.569  17.070  2.6783 -0.6680  0.3796
 3503SOL    HW221972   3.238   3.632  16.945 -1.3287 -0.5865  1.0276
 3504SOL     OW21973   3.823   0.908   7.333 -0.2595 -0.1409  0.5500
 3504SOL    HW121974   3.912   0.891   7.366 -1.0824 -0.3203  2.6544
 3504SOL    HW221975   3.802   0.825   7.290  1.1067  0.5293 -1.4193
 3505SOL     OW21976   2.435   1.948   7.002  0.1618 -0.4291  0.4880
 3505SOL    HW121977   2.512   1.892   7.003  0.4692 -0.0009  0.6673
 3505SOL    HW221978   2.412   1.944   7.095  0.2699 -1.2651  0.4841
 3506SOL     OW21979   2.633   4.292   1.409  0.1448 -0.1674 -0.0880
 3506SOL    HW121980   2.603   4.208   1.445 -0.6300  0.6606  1.2120
 3506SOL    HW221981   2.688   4.255   1.341 -1.1164 -1.2888 -0.4975
 3507SOL     OW21982   1.881   1.499   7.499  0.1123 -0.1004 -0.3302
 3507SOL    HW121983   1.945   1.555   7.544  0.0019 -0.1823 -0.0709
 3507SOL    HW221984   1.811   1.563   7.491  0.2566  0.0883 -0.0812
 3508SOL     OW21985   2.213   0.988   7.891  0.4849 -0.1806 -0.1721
 3508SOL    HW121986   2.142   0.956   7.948  1.0177  0.6098  0.9356
 3508SOL    HW221987   2.272   0.992   7.966 -0.7807  0.1417  0.8169
 3509SOL     OW21988   1.287   3.670   5.717 -0.6183  0.6057 -0.5068
 3509SOL    HW121989   1.221   3.738   5.731  0.0616  0.7686  1.9219
 3509SOL    HW221990   1.368   3.715   5.742 -1.4605  1.7066  0.2655
 3510SOL     OW21991   0.139   2.239   8.002  0.4344  0.1975  0.1733
 3510SOL    HW121992   0.121   2.161   7.949  1.2435 -0.7809  1.3437
 3510SOL    HW221993   0.101   2.313   7.954  2.1587  1.6479  1.0295
 3511SOL     OW21994   0.492   0.804   4.286  0.1987  0.1320 -0.2893
 3511SOL    HW121995   0.448   0.812   4.371  1.1609  0.4903  0.1788
 3511SOL    HW221996   0.420   0.765   4.237  1.0101  1.3861 -2.4591
 3512SOL     OW21997   4.562   2.186   4.981  0.7166 -0.1237  0.2057
 3512SOL    HW121998   4.476   2.145   4.986 -0.0759  1.3600 -1.1288
 3512SOL    HW221999   4.546   2.279   5.001  0.2518  0.0197 -0.8361
 3513SOL     OW22000   1.242   2.028   9.733 -0.2673  0.3560  0.1096
 3513SOL    HW122001   1.286   2.073   9.805  1.3711 -2.0407  0.6017
 3513SOL    HW222002   1.315   2.023   9.671 -0.4315 -1.2866  0.0610
 3514SOL     OW22003   4.693   4.539   9.795  0.3116  0.6440 -0.2587
 3514SOL    HW122004   0.038   4.570   9.851 -0.7294  1.0506  0.8647
 3514SOL    HW222005   4.613   4.536   9.848 -0.5786  0.9489 -1.5729
 3515SOL     OW22006   3.271   1.919   2.270 -0.2955 -0.5953  0.3820
 3515SOL    HW122007   3.224   1.995   2.235  2.3872  1.3140  0.8956
 3515SOL    HW222008   3.352   1.917   2.219 -0.6962  4.1700 -0.4595
 3516SOL     OW22009   3.243   4.053   8.248  0.2192 -0.1250  0.1380
 3516SOL    HW122010   3.288   4.134   8.270  1.7301 -1.2945  1.3051
 3516SOL    HW222011   3.287   3.987   8.301 -2.1159 -0.8122  1.2310
 3517SOL     OW22012   1.675   3.335   4.034  0.2425  0.0127 -0.1855
 3517SOL    HW122013   1.600   3.392   4.022  1.6646  2.1232  1.1136
 3517SOL    HW222014   1.688   3.361   4.125  2.3430 -1.0006 -0.1879
 3518SOL     OW22015   1.382   2.227   5.877  0.6057  0.0985 -0.2548
 3518SOL    HW122016   1.310   2.243   5.938 -0.9902 -2.3186 -1.4843
 3518SOL    HW222017   1.406   2.138   5.901 -0.6894  0.6678  3.1974
 3519SOL     OW22018   4.247   3.222   4.986  0.2089 -0.0421 -0.4947
 3519SOL    HW122019   4.310   3.154   5.012 -0.5027 -0.8871 -1.0038
 3519SOL    HW222020   4.291   3.267   4.914 -2.3293 -0.7529 -2.4512
 3520SOL     OW22021   2.365   2.567   5.748  0.3064 -0.3876  0.3563
 3520SOL    HW122022   2.326   2.604   5.828 -2.5560 -0.9217 -0.7939
 3520SOL    HW222023   2.324   2.618   5.678  0.1363 -0.9070  0.0790
 3521SOL     OW22024   0.684   2.138  10.095  0.1818 -0.6235 -0.1367
 3521SOL    HW122025   0.650   2.205  10.035 -0.4463 -0.5781  0.2636
 3521SOL    HW222026   0.666   2.060  10.044  1.1242 -0.8573 -0.1087
 3522SOL     OW22027   4.458   0.601   3.431 -0.2023  0.0161 -0.5809
 3522SOL    HW122028   4.448   0.577   3.339 -1.0721 -2.2628  0.1177
 3522SOL    HW222029   4.501   0.686   3.419 -2.2953  0.8373 -2.2003
 3523SOL     OW22030   3.825   2.637  12.569 -0.2065 -0.3326  0.0767
 3523SOL    HW122031   3.821   2.698  12.643  0.3808 -1.2435  0.8593
 3523SOL    HW222032   3.836   2.704  12.502 -1.5210  0.0580  0.2549
 3524SOL     OW22033   3.881   1.815   2.688 -0.4597 -0.2582 -0.2026
 3524SOL    HW122034   3.816   1.884   2.706  1.7178  1.9101 -0.6338
 3524SOL    HW222035   3.912   1.853   2.606  1.1667 -0.0417  0.5170
 3525SOL     OW22036   0.840   0.931   3.087 -0.1766  0.1311 -0.2774
 3525SOL    HW122037   0.899   0.856   3.091  1.8258  1.6923 -0.5642
 3525SOL    HW222038   0.779   0.901   3.019 -1.5536  1.0137  0.5674
 3526SOL     OW22039   1.625   2.614   3.998 -0.3295 -0.0662  0.2150
 3526SOL    HW122040   1.713   2.576   4.000  0.9086  2.7454 -0.7662
 3526SOL    HW222041   1.563   2.543   4.016  0.2811 -1.0052 -1.4083
 3527SOL     OW22042   2.698   4.438   2.444  0.3917  0.2942  0.0717
 3527SOL    HW122043   2.733   4.478   2.364 -3.5475  1.4993 -1.0406
 3527SOL    HW222044   2.730   4.504   2.507 -0.5864 -1.8941  2.8550
 3528SOL     OW22045   4.380   3.578  13.027  0.1187 -0.3467  0.3027
 3528SOL    HW122046   4.324   3.642  12.984  0.4801  0.0263  0.3881
 3528SOL    HW222047   4.459   3.631  13.033 -1.1149  1.9190 -3.7465
 3529SOL     OW22048   1.688   3.045   1.535 -0.2017 -0.1799  0.5684
 3529SOL    HW122049   1.644   3.066   1.617 -1.1349 -0.0925  0.0483
 3529SOL    HW222050   1.649   2.960   1.516 -0.8727  0.1858  0.3162
 3530SOL     OW22051   0.341   1.799   8.779  0.2834  0.6422  0.0423
 3530SOL    HW122052   0.352   1.886   8.817 -1.0346  0.0552  1.7720
 3530SOL    HW222053   0.294   1.825   8.699 -0.0070 -0.6727 -0.2189
 3531SOL     OW22054   2.686   0.454   3.364  0.6809  0.1435  0.2336
 3531SOL    HW122055   2.687   0.548   3.381  1.1876 -0.1234  1.6460
 3531SOL    HW222056   2.612   0.449   3.304 -0.5173 -1.9446  1.9187
 3532SOL     OW22057   4.596   1.226   7.103  0.3364  0.2341 -0.2985
 3532SOL    HW122058   4.641   1.152   7.143 -0.4664  0.4815  1.0176
 3532SOL    HW222059   4.602   1.203   7.010  2.3649 -0.2897 -0.0585
 3533SOL     OW22060   1.386   1.656   8.887 -0.0482  0.0697 -0.2482
 3533SOL    HW122061   1.348   1.620   8.807 -1.0304  1.3890 -0.3822
 3533SOL    HW222062   1.414   1.574   8.927 -1.9531 -0.3967  0.1455
 3534SOL     OW22063   2.552   0.478  12.704 -0.5902  0.3219  0.0398
 3534SOL    HW122064   2.590   0.425  12.775 -1.2283  1.2699  1.0836
 3534SOL    HW222065   2.609   0.554  12.696 -0.6240  0.4228  0.7668
 3535SOL     OW22066   2.818   4.087   8.120  0.5555 -0.2997  0.5098
 3535SOL    HW122067   2.854   4.162   8.072  0.0565 -0.7925 -0.6334
 3535SOL    HW222068   2.803   4.134   8.202 -0.0143  0.7697 -0.2019
 3536SOL     OW22069   1.290   0.407   0.321 -0.0869 -0.4212 -0.7228
 3536SOL    HW122070   1.282   0.332   0.263 -3.5546  0.6655 -1.6497
 3536SOL    HW222071   1.228   0.469   0.283 -0.3854 -0.8374 -0.9069
 3537SOL     OW22072   3.929   2.360   6.117  0.0290  0.2607 -0.5918
 3537SOL    HW122073   3.947   2.436   6.172  1.5020 -0.7076  0.2763
 3537SOL    HW222074   4.017   2.336   6.088  1.3053  1.6689  2.1740
 3538SOL     OW22075   0.234   0.285   9.404 -0.3414  0.0505  0.6159
 3538SOL    HW122076   0.139   0.278   9.399 -0.3162 -0.3823  0.7629
 3538SOL    HW222077   0.245   0.271   9.498  0.7531  2.2893  0.8287
 3539SOL     OW22078   1.997   2.993   6.483 -0.5019 -0.2051  0.0411
 3539SOL    HW122079   1.990   2.939   6.561 -1.5060  1.7531  1.3073
 3539SOL    HW222080   2.074   2.958   6.438  0.4810 -0.2804  1.7621
 3540SOL     OW22081   0.440   3.795  15.025  0.5131  0.0755  0.1112
 3540SOL    HW122082   0.399   3.754  15.102 -0.0669 -0.8995 -0.7146
 3540SOL    HW222083   0.392   3.734  14.969 -0.8671 -0.5764  1.9725
 3541SOL     OW22084   2.806   3.246   1.947  0.9351 -0.0114  0.5642
 3541SOL    HW122085   2.772   3.165   1.910 -0.0991  0.4619  0.4512
 3541SOL    HW222086   2.897   3.240   1.920  0.5518 -2.6330 -0.0787
 3542SOL     OW22087   0.369   0.736   4.896  0.2663 -0.0145 -0.4873
 3542SOL    HW122088   0.395   0.828   4.883  1.3625 -0.3164 -0.4022
 3542SOL    HW222089   0.279   0.746   4.863  0.1488 -2.8366 -1.0098
 3543SOL     OW22090   0.806   3.846  11.771  0.2020 -0.5121 -0.0213
 3543SOL    HW122091   0.741   3.776  11.772 -1.3644  0.9929  1.4722
 3543SOL    HW222092   0.842   3.828  11.858 -1.7839 -0.2582  0.8451
 3544SOL     OW22093   1.322   2.044   2.092  0.1000 -0.0441  0.3173
 3544SOL    HW122094   1.227   2.035   2.085  0.3686  0.3259 -3.9481
 3544SOL    HW222095   1.348   1.959   2.056 -0.7153 -0.5774  0.9722
 3545SOL     OW22096   3.861   3.328   0.166 -0.0803 -0.0497  0.7323
 3545SOL    HW122097   3.819   3.325   0.252 -1.5261 -0.0543  0.0302
 3545SOL    HW222098   3.950   3.317   0.199  0.0640 -0.7575  0.1065
 3546SOL     OW22099   2.840   1.412  15.609 -0.3810 -0.1280  0.6038
 3546SOL    HW122100   2.836   1.472  15.535  0.3100  0.9177  1.4134
 3546SOL    HW222101   2.933   1.389  15.612 -0.2325  0.3561 -0.2862
 3547SOL     OW22102   0.162   3.527   8.588  0.5740 -1.1021  0.0206
 3547SOL    HW122103   0.099   3.585   8.545  4.1316  0.8161 -2.6064
 3547SOL    HW222104   0.144   3.442   8.547  2.6334 -1.8583  0.7117
 3548SOL     OW22105   4.528   3.256  15.272  0.2256  0.3517  0.1174
 3548SOL    HW122106   4.598   3.192  15.286  0.1355  0.1400 -0.4050
 3548SOL    HW222107   4.570   3.342  15.261  0.1208  0.4955  0.8766
 3549SOL     OW22108   0.263   2.112   4.596 -0.3573 -0.4018  0.1512
 3549SOL    HW122109   0.291   2.055   4.524  0.1762  0.7505 -0.5604
 3549SOL    HW222110   0.228   2.187   4.547 -1.2161 -1.3677 -0.7224
 3550SOL     OW22111   2.558   3.115   5.846  0.5818 -0.3236 -0.0252
 3550SOL    HW122112   2.566   3.020   5.843  0.6652 -0.2936 -0.7842
 3550SOL    HW222113   2.489   3.126   5.912  0.7324  1.5427 -0.1588
 3551SOL     OW22114   0.047   2.011   9.002  0.3533 -0.4460  0.0847
 3551SOL    HW122115   4.684   1.984   8.985  1.1228 -2.1045 -1.3325
 3551SOL    HW222116   0.095   1.928   9.003 -2.4066 -2.0262  1.0662
 3552SOL     OW22117   0.103   3.739   8.232  0.4410 -0.2079 -0.0934
 3552SOL    HW122118   0.156   3.819   8.228  3.5899 -2.2331  1.2123
 3552SOL    HW222119   0.028   3.777   8.278 -0.6475 -0.9430 -1.2453
 3553SOL     OW22120   0.662   1.003   8.602 -0.0516  0.4459  0.2374
 3553SOL    HW122121   0.721   0.930   8.588  0.4554  1.0397 -0.6758
 3553SOL    HW222122   0.712   1.076   8.566 -1.0865  2.4001  2.7645
 3554SOL     OW22123   3.359   1.226  15.854  0.0057  0.3070 -0.5370
 3554SOL    HW122124   3.446   1.188  15.842 -0.5228 -0.5897 -1.4427
 3554SOL    HW222125   3.311   1.153  15.815 -1.5636  0.2002  1.6037
 3555SOL     OW22126   2.962   0.551   0.849 -0.3747  0.1783  0.4519
 3555SOL    HW122127   2.980   0.486   0.917  0.8226 -2.2009 -2.1550
 3555SOL    HW222128   2.876   0.588   0.873 -0.1979 -0.3395  1.8783
 3556SOL     OW22129   1.791   2.763  17.063  0.0969 -0.4468 -0.3577
 3556SOL    HW122130   1.884   2.740  17.059  0.1373 -0.7699  2.5663
 3556SOL    HW222131   1.750   2.686  17.103 -1.8489  0.2324 -1.0671
 3557SOL     OW22132   4.140   2.160  10.750 -0.3224  0.3022  0.0678
 3557SOL    HW122133   4.169   2.188  10.663  0.9639 -3.2383 -0.6311
 3557SOL    HW222134   4.051   2.130  10.733 -0.2693  0.5712 -0.6495
 3558SOL     OW22135   1.498   0.589   5.760  0.4487 -0.3176 -0.2509
 3558SOL    HW122136   1.569   0.636   5.717  0.5079 -1.6130 -1.5632
 3558SOL    HW222137   1.439   0.559   5.691  2.2837  1.4078 -2.5195
 3559SOL     OW22138   2.851   1.888   2.551 -0.0392 -0.1226 -0.0834
 3559SOL    HW122139   2.811   1.929   2.474 -0.4124  0.1083  0.2322
 3559SOL    HW222140   2.795   1.927   2.619  1.1410  2.2938 -0.5198
 3560SOL     OW22141   4.413   4.443   6.743 -0.0351  0.0416 -0.5801
 3560SOL    HW122142   4.327   4.426   6.705 -0.7092 -0.0670  1.0002
 3560SOL    HW222143   4.468   4.485   6.677 -1.2353 -0.9522 -2.1992
 3561SOL     OW22144   1.861   2.287   7.331 -0.1461  0.7329 -0.1408
 3561SOL    HW122145   1.931   2.252   7.277 -0.1508 -0.5872  0.6991
 3561SOL    HW222146   1.784   2.241   7.295 -0.1016 -0.3541  1.1635
 3562SOL     OW22147   2.596   0.151   2.806  0.2823 -0.0366 -0.3541
 3562SOL    HW122148   2.607   0.220   2.872  0.2311  0.2516 -0.6486
 3562SOL    HW222149   2.618   0.080   2.866 -0.5220 -2.1213 -2.5332
 3563SOL     OW22150   1.470   0.384   8.483  0.1626 -0.3574  0.0765
 3563SOL    HW122151   1.505   0.377   8.572 -1.6585  0.9326  0.9025
 3563SOL    HW222152   1.375   0.394   8.491  0.3043  1.4067 -0.5793
 3564SOL     OW22153   4.671   2.478   3.168 -0.2209  0.2676  0.4748
 3564SOL    HW122154   4.653   2.551   3.227 -1.0110  2.2229 -2.1379
 3564SOL    HW222155   4.697   2.405   3.224  0.8246  0.8770  0.7734
 3565SOL     OW22156   0.997   0.923   2.534 -0.4924 -0.4397  0.0495
 3565SOL    HW122157   1.004   0.899   2.441  1.0404 -0.4225  0.1513
 3565SOL    HW222158   0.976   1.015   2.522  0.9439 -0.0260  0.6582
 3566SOL     OW22159   4.551   1.843   9.019 -0.2234 -0.5417  0.9111
 3566SOL    HW122160   4.484   1.811   9.080 -0.9091 -2.2792 -0.7609
 3566SOL    HW222161   4.558   1.779   8.948  2.7815  0.6794  0.0973
 3567SOL     OW22162   1.561   3.661  10.781  0.8033  0.7064  0.2763
 3567SOL    HW122163   1.472   3.692  10.763  0.9395  0.9033 -0.0519
 3567SOL    HW222164   1.572   3.672  10.876  1.6217  0.2733  0.2315
 3568SOL     OW22165   0.404   4.078   6.775 -0.3182  0.0972 -0.2933
 3568SOL    HW122166   0.352   4.156   6.791  1.9127  1.4173  0.5326
 3568SOL    HW222167   0.391   4.072   6.680  0.6247  0.0477 -0.4181
 3569SOL     OW22168   3.878   0.449   9.931  0.7824  0.0347 -0.5849
 3569SOL    HW122169   3.935   0.384   9.890 -0.1006  0.2390 -2.1194
 3569SOL    HW222170   3.913   0.525   9.884  0.7680 -0.4843 -1.4325
 3570SOL     OW22171   0.128   3.772  15.706  0.0326  0.2225  0.1818
 3570SOL    HW122172   0.095   3.699  15.654  1.1302 -1.9665  2.5298
 3570SOL    HW222173   0.096   3.751  15.793  0.5080  1.1068  0.5667
 3571SOL     OW22174   0.824   2.990   8.935 -0.1746 -0.2397 -0.6150
 3571SOL    HW122175   0.885   2.955   8.999 -2.1297 -0.8375  0.9117
 3571SOL    HW222176   0.790   3.069   8.977  0.6271  0.3212 -1.0127
 3572SOL     OW22177   1.537   4.401   8.358 -0.2238  0.5597 -0.3252
 3572SOL    HW122178   1.453   4.404   8.404 -0.2728  1.7394 -0.4811
 3572SOL    HW222179   1.589   4.436   8.430  2.4361 -1.1021 -1.4423
 3573SOL     OW22180   2.320   2.369   7.396  0.2907  0.1017  0.1902
 3573SOL    HW122181   2.408   2.334   7.404 -0.0486 -0.8971 -0.3591
 3573SOL    HW222182   2.314   2.361   7.301  1.1395  2.1418 -0.0212
 3574SOL     OW22183   1.778   1.016   3.212  0.1357 -0.6801  0.0465
 3574SOL    HW122184   1.838   1.074   3.259  0.3824  0.1755 -1.3224
 3574SOL    HW222185   1.809   1.027   3.122  1.7819 -0.2797  0.6720
 3575SOL     OW22186   3.090   4.459   2.573  0.2822 -0.5359  0.0519
 3575SOL    HW122187   3.117   4.417   2.491 -1.4920 -1.6589  0.0402
 3575SOL    HW222188   3.072   4.380   2.624 -0.6806 -1.2090 -1.3351
 3576SOL     OW22189   1.095   0.321   5.002 -0.2224 -0.1200  0.1311
 3576SOL    HW122190   1.093   0.354   4.912  2.2384  0.3447  0.2561
 3576SOL    HW222191   1.009   0.358   5.022  0.9562  2.1136  1.0386
 3577SOL     OW22192   3.397   0.822  15.804 -0.3074  0.3870 -0.5202
 3577SOL    HW122193   3.423   0.825  15.712  0.7165  2.6531 -0.1345
 3577SOL    HW222194   3.452   0.889  15.843 -1.9084  0.5104  1.5471
 3578SOL     OW22195   1.534   0.034  10.154 -0.9195  0.1889 -0.0802
 3578SOL    HW122196   1.550   0.127  10.174  0.1933  0.1437 -0.8096
 3578SOL    HW222197   1.557   4.713  10.234 -0.3058  0.6710  0.0374
 3579SOL     OW22198   1.461   3.613  10.006 -0.0993  0.3794  0.6549
 3579SOL    HW122199   1.459   3.522  10.037 -1.8008 -0.5013 -2.0265
 3579SOL    HW222200   1.380   3.650  10.042 -0.7005  0.4823 -0.7783
 3580SOL     OW22201   3.388   0.382   2.090  0.1815  0.3626  0.2684
 3580SOL    HW122202   3.409   0.435   2.014  1.4175 -1.3369 -0.5734
 3580SOL    HW222203   3.448   0.308   2.087  2.5323  2.2582  0.7212
 3581SOL     OW22204   3.399   1.555   7.703  0.0031 -0.0198  0.1472
 3581SOL    HW122205   3.336   1.605   7.755  0.0658 -0.2795  0.4754
 3581SOL    HW222206   3.381   1.469   7.740 -0.6706 -0.1782 -0.5684
 3582SOL     OW22207   1.344   4.406   2.557 -0.0011 -0.0312  0.0546
 3582SOL    HW122208   1.276   4.428   2.493  1.8379 -0.0441 -1.8934
 3582SOL    HW222209   1.296   4.364   2.628  1.4209  2.0069  2.1980
 3583SOL     OW22210   0.100   3.748  12.720 -0.4627 -0.1068 -0.0545
 3583SOL    HW122211   0.039   3.742  12.793 -0.0363 -0.6519  0.2601
 3583SOL    HW222212   0.088   3.838  12.690  0.2179  0.4353  1.3161
 3584SOL     OW22213   1.009   1.266   3.922  0.1013  0.1123  0.2305
 3584SOL    HW122214   0.979   1.227   3.839 -1.0331 -1.2339  1.2555
 3584SOL    HW222215   1.009   1.358   3.898 -0.6138 -0.4785 -2.0853
 3585SOL     OW22216   1.781   3.227  16.147  0.1006  0.2192 -0.1207
 3585SOL    HW122217   1.708   3.178  16.108 -0.9105  1.4607  0.2243
 3585SOL    HW222218   1.768   3.210  16.240  0.6266  1.2474  0.1386
 3586SOL     OW22219   2.286   2.779   2.935 -0.1346 -0.2805 -0.3927
 3586SOL    HW122220   2.295   2.684   2.930 -1.9012 -0.5892  2.3102
 3586SOL    HW222221   2.218   2.792   2.869 -2.5907  1.1508  2.4006
 3587SOL     OW22222   1.529   2.810   4.675 -0.4375 -0.0710 -0.3090
 3587SOL    HW122223   1.536   2.843   4.585  1.3809  0.5726  0.0653
 3587SOL    HW222224   1.613   2.764   4.671 -0.9007 -1.1260  2.5457
 3588SOL     OW22225   0.611   0.170   8.918  0.0825 -0.0409  0.3933
 3588SOL    HW122226   0.577   0.245   8.966  0.0269 -0.1559  0.5375
 3588SOL    HW222227   0.686   0.145   8.972 -0.2345  1.7424  1.6649
 3589SOL     OW22228   1.512   2.739   2.577 -0.0109  0.0868  0.1376
 3589SOL    HW122229   1.529   2.649   2.605 -0.0303  0.2156  0.5662
 3589SOL    HW222230   1.469   2.779   2.652 -1.8472  0.9110 -1.3538
 3590SOL     OW22231   0.642   4.566   9.234  0.1447 -0.1862  0.8996
 3590SOL    HW122232   0.587   4.541   9.160 -0.8453 -2.3258  2.3567
 3590SOL    HW222233   0.576   4.553   9.303 -0.6643 -0.2673  0.1076
 3591SOL     OW22234   2.939   1.479   1.925  0.7153 -0.1809  0.0548
 3591SOL    HW122235   2.961   1.408   1.985 -1.2657 -1.2794 -0.5235
 3591SOL    HW222236   2.846   1.459   1.919  0.7945 -0.4626 -0.1831
 3592SOL     OW22237   4.092   2.304  16.456 -0.2167 -0.5571  0.5510
 3592SOL    HW122238   4.006   2.342  16.439  1.4486  3.3437  0.8226
 3592SOL    HW222239   4.065   2.245  16.527  2.7287 -2.3929  0.1569
 3593SOL     OW22240   0.707   0.799   1.620  0.6660  0.0243 -0.9682
 3593SOL    HW122241   0.618   0.770   1.601  0.4664  0.4711 -0.7046
 3593SOL    HW222242   0.748   0.713   1.626 -0.5826 -0.5728 -1.0350
 3594SOL     OW22243   2.847   1.798   0.569  0.1983  0.5654  0.3303
 3594SOL    HW122244   2.858   1.857   0.644  1.4705  0.6598  0.0694
 3594SOL    HW222245   2.925   1.815   0.517 -1.7938 -0.9973 -3.1484
 3595SOL     OW22246   3.807   3.587   7.866 -0.1253 -0.2543  0.2608
 3595SOL    HW122247   3.824   3.494   7.849  0.5301  0.0649 -0.8843
 3595SOL    HW222248   3.765   3.618   7.786 -1.8832  0.0359  1.3193
 3596SOL     OW22249   4.396   4.305   3.293 -0.0248 -0.3791  0.6035
 3596SOL    HW122250   4.435   4.338   3.374  0.6831 -0.2631  0.2136
 3596SOL    HW222251   4.366   4.384   3.248  2.5748  1.3219  1.9375
 3597SOL     OW22252   0.258   1.032   3.281  0.0497 -0.0806 -0.2373
 3597SOL    HW122253   0.279   0.939   3.278  0.2117 -0.0843  1.1776
 3597SOL    HW222254   0.179   1.021   3.334  0.1350 -1.9600 -0.5007
 3598SOL     OW22255   3.759   3.626   2.858 -0.3622  0.8068 -0.3377
 3598SOL    HW122256   3.787   3.550   2.809 -1.7527 -0.1407  0.3159
 3598SOL    HW222257   3.831   3.687   2.844 -0.6628  1.3884  0.5818
 3599SOL     OW22258   3.230   3.511  12.004 -0.1459 -0.0525 -0.4002
 3599SOL    HW122259   3.242   3.595  11.959  2.2611 -0.0762  0.2133
 3599SOL    HW222260   3.152   3.523  12.057 -0.1382  1.4812 -0.7288
 3600SOL     OW22261   0.810   4.305   9.396  0.3788  0.2479  0.4924
 3600SOL    HW122262   0.741   4.349   9.446  1.0262 -0.2468  1.8196
 3600SOL    HW222263   0.759   4.232   9.360  1.3499 -0.4026  0.4278
 3601SOL     OW22264   3.090   3.129  14.392 -0.1423 -0.3881 -0.5352
 3601SOL    HW122265   3.034   3.055  14.371 -0.0165  0.0492 -2.3926
 3601SOL    HW222266   3.158   3.097  14.451  0.3450 -0.9351 -1.3994
 3602SOL     OW22267   3.295   1.623   6.893 -0.2858 -0.1097 -0.0752
 3602SOL    HW122268   3.305   1.528   6.901  0.1234 -0.4311 -4.2869
 3602SOL    HW222269   3.329   1.637   6.804 -3.4549  1.0498 -1.1084
 3603SOL     OW22270   3.501   1.244   6.055 -0.9497 -0.3933 -0.1617
 3603SOL    HW122271   3.585   1.251   6.100 -1.6042  0.4183  0.9115
 3603SOL    HW222272   3.442   1.188   6.106 -0.9447 -1.4551 -1.3049
 3604SOL     OW22273   3.333   4.195   3.176  0.0336  0.0053 -0.4282
 3604SOL    HW122274   3.366   4.285   3.174  0.9960 -0.3401 -0.5073
 3604SOL    HW222275   3.400   4.148   3.226  0.3568 -0.1554 -1.0105
 3605SOL     OW22276   1.749   2.752   3.396 -0.2447  0.0438 -0.2043
 3605SOL    HW122277   1.693   2.829   3.406  1.3000  1.2453 -0.7826
 3605SOL    HW222278   1.718   2.708   3.317 -2.7107  1.4618 -0.0119
 3606SOL     OW22279   3.537   0.856   1.798  0.2800 -0.4971 -0.4020
 3606SOL    HW122280   3.571   0.886   1.882  0.0457 -0.3691 -0.3536
 3606SOL    HW222281   3.532   0.940   1.753 -3.0003 -1.4749 -1.8413
 3607SOL     OW22282   4.159   2.835   6.701 -0.2143 -1.1224 -0.7175
 3607SOL    HW122283   4.176   2.766   6.638 -0.3197 -0.3637 -1.5783
 3607SOL    HW222284   4.070   2.811   6.725  0.1421  0.8172  2.6573
 3608SOL     OW22285   2.241   0.827   7.611 -0.1477  0.5299  0.1762
 3608SOL    HW122286   2.209   0.772   7.683  0.2897  0.1375  0.0670
 3608SOL    HW222287   2.289   0.895   7.659 -0.7801  1.7089 -0.8638
 3609SOL     OW22288   1.084   3.819   4.761  0.4062 -0.3736 -0.0683
 3609SOL    HW122289   1.029   3.760   4.812 -0.2387 -1.2457 -1.7752
 3609SOL    HW222290   1.168   3.810   4.805 -0.1284 -0.3306  0.9505
 3610SOL     OW22291   1.064   0.892   7.790 -0.8034  0.8747  0.1653
 3610SOL    HW122292   1.127   0.823   7.770 -0.0726  0.9028  2.3656
 3610SOL    HW222293   1.107   0.977   7.801  0.8467 -0.0191  0.5730
 3611SOL     OW22294   0.911   0.970   0.080  0.2116 -0.0754  0.0612
 3611SOL    HW122295   0.970   1.029   0.127  1.5301 -2.5282  1.4356
 3611SOL    HW222296   0.832   1.024   0.089 -1.3592 -2.1610 -1.3459
 3612SOL     OW22297   1.730   4.334   5.496 -0.1247 -0.0476  0.0858
 3612SOL    HW122298   1.772   4.364   5.416 -1.2445 -1.5053 -1.0400
 3612SOL    HW222299   1.773   4.402   5.547 -0.4179  0.2970 -0.1247
 3613SOL     OW22300   4.578   1.120   0.584 -0.2433  0.1271 -0.3839
 3613SOL    HW122301   4.603   1.210   0.563 -1.6328  0.8925  1.1784
 3613SOL    HW222302   4.628   1.103   0.664 -2.6324 -1.7079  0.7140
 3614SOL     OW22303   0.216   3.684  10.386 -0.2639 -0.0845 -0.5877
 3614SOL    HW122304   0.171   3.600  10.384 -2.3159  1.0399 -1.2358
 3614SOL    HW222305   0.307   3.668  10.413 -0.2634 -0.6434 -0.9102
 3615SOL     OW22306   3.334   0.819   5.723 -0.5898 -0.0954 -0.1681
 3615SOL    HW122307   3.411   0.809   5.779 -1.0300 -1.0010  0.2794
 3615SOL    HW222308   3.347   0.904   5.681 -2.4742  1.0973  1.6924
 3616SOL     OW22309   0.301   1.374  13.690  0.0127  0.0814  0.1934
 3616SOL    HW122310   0.367   1.424  13.738  0.2130 -1.3221  1.3870
 3616SOL    HW222311   0.364   1.331  13.633  1.4273  2.7181 -0.2131
 3617SOL     OW22312   4.164   0.947   8.263 -0.6077  0.0822 -0.4862
 3617SOL    HW122313   4.249   0.931   8.304 -0.0939  3.1112 -0.3229
 3617SOL    HW222314   4.156   0.871   8.206  2.2220  1.4613 -2.7339
 3618SOL     OW22315   1.454   1.581   7.828 -0.2280  0.3606  0.6298
 3618SOL    HW122316   1.526   1.622   7.782  0.7567 -0.2164  1.6563
 3618SOL    HW222317   1.381   1.593   7.768 -3.0387  1.2236  4.2129
 3619SOL     OW22318   2.991   4.395   1.434 -0.1948 -0.2207 -0.5395
 3619SOL    HW122319   2.920   4.393   1.499  0.4928  0.7966  0.2367
 3619SOL    HW222320   3.012   4.302   1.426 -0.1006 -0.1661 -0.9011
 3620SOL     OW22321   3.272   0.546   6.517  0.8112 -0.3206 -0.0002
 3620SOL    HW122322   3.282   0.633   6.556  1.2458  0.3545 -1.5911
 3620SOL    HW222323   3.195   0.510   6.561  0.5896  0.7571  0.5063
 3621SOL     OW22324   2.870   1.976   0.772  0.3212  0.2644 -0.0145
 3621SOL    HW122325   2.812   2.018   0.835 -0.9220 -0.1765 -0.8663
 3621SOL    HW222326   2.927   1.920   0.825 -1.1992 -0.1067  1.2196
 3622SOL     OW22327   1.259   3.277   0.522  0.2167 -0.4327  0.2529
 3622SOL    HW122328   1.250   3.239   0.609  2.0786  0.5349  0.8630
 3622SOL    HW222329   1.170   3.309   0.506  0.1315 -1.9165 -2.1631
 3623SOL     OW22330   0.642   4.591   5.864  0.3370 -0.6861  0.0419
 3623SOL    HW122331   0.659   4.664   5.924 -0.9958 -0.4891  0.1718
 3623SOL    HW222332   0.602   4.530   5.926  0.1921  1.4901  2.0788
 3624SOL     OW22333   1.384   4.005   8.839 -0.2638  0.2943 -0.1008
 3624SOL    HW122334   1.297   3.998   8.878 -0.4410 -0.7290 -0.6849
 3624SOL    HW222335   1.419   3.921   8.868 -1.3403 -0.0473  0.1942
 3625SOL     OW22336   0.042   3.370   1.807  0.4429  0.1116 -0.1757
 3625SOL    HW122337   0.053   3.465   1.814 -1.1854  0.2131  1.0305
 3625SOL    HW222338   4.684   3.361   1.849  0.1288 -1.4601 -1.1393
 3626SOL     OW22339   1.600   3.462   2.723 -0.2986 -0.3839  0.2323
 3626SOL    HW122340   1.509   3.492   2.724 -0.0443  0.4169 -0.4951
 3626SOL    HW222341   1.599   3.402   2.649  0.8192 -0.0114 -0.0747
 3627SOL     OW22342   2.148   1.285   2.615 -0.2638 -0.0127 -0.5258
 3627SOL    HW122343   2.109   1.232   2.685  1.0423  0.2782  0.4212
 3627SOL    HW222344   2.112   1.238   2.540  1.5459 -0.0915 -1.3371
 3628SOL     OW22345   1.759   2.350   7.664 -0.3614  0.2647  0.1873
 3628SOL    HW122346   1.832   2.348   7.727 -0.9744  0.7242  0.9124
 3628SOL    HW222347   1.687   2.387   7.715  0.6592 -0.1062  1.9173
 3629SOL     OW22348   0.083   0.089   4.091  0.6991  0.1225  0.5935
 3629SOL    HW122349   0.106   0.071   4.000  0.2400 -1.3730  0.7682
 3629SOL    HW222350   0.080   4.725   4.123  2.3836  0.0325  0.5044
 3630SOL     OW22351   0.668   2.486   7.147 -0.2557 -0.0683 -0.3377
 3630SOL    HW122352   0.641   2.439   7.226 -1.4887 -1.7451 -1.7443
 3630SOL    HW222353   0.763   2.478   7.151 -0.2355  0.6516  0.6213
 3631SOL     OW22354   2.483   1.299   6.987  0.1874 -0.6214  0.2562
 3631SOL    HW122355   2.513   1.380   7.029 -0.1753 -0.7611  0.7815
 3631SOL    HW222356   2.438   1.263   7.063  1.6396 -1.7249  0.5971
 3632SOL     OW22357   2.958   0.092   0.996 -0.5254  0.3041 -0.1537
 3632SOL    HW122358   2.979   4.727   0.983 -0.3599  0.2282  0.6274
 3632SOL    HW222359   2.979   0.135   0.914  1.6754 -0.7766 -0.1498
 3633SOL     OW22360   0.363   0.082   3.297  0.0227 -0.0198  0.2135
 3633SOL    HW122361   0.372   0.033   3.215  1.4269  2.3624 -1.0512
 3633SOL    HW222362   0.288   0.139   3.279 -0.2614 -0.3042  0.4883
 3634SOL     OW22363   3.343   3.832   2.905 -0.0186 -0.2072 -0.0617
 3634SOL    HW122364   3.296   3.754   2.935 -1.6812  0.0542 -1.9863
 3634SOL    HW222365   3.405   3.795   2.842 -0.7402 -1.8926  0.2290
 3635SOL     OW22366   3.399   2.836  15.244  0.0017 -0.1313 -0.0348
 3635SOL    HW122367   3.347   2.807  15.319  0.1384  2.3821  1.0575
 3635SOL    HW222368   3.462   2.883  15.298 -0.6653  0.9019 -0.1533
 3636SOL     OW22369   2.830   3.381   6.536  0.5973  0.2630  0.1333
 3636SOL    HW122370   2.857   3.439   6.607 -1.7992  0.5215  0.8145
 3636SOL    HW222371   2.883   3.303   6.551  0.3864  0.1565  0.3202
 3637SOL     OW22372   2.984   4.064   7.774  0.2918  0.1910  0.2426
 3637SOL    HW122373   2.955   4.123   7.844  1.4632  1.3064 -0.2327
 3637SOL    HW222374   2.931   4.109   7.708  1.2652  0.6865 -0.2043
 3638SOL     OW22375   0.578   3.840   3.887  0.5475  0.1032 -1.0607
 3638SOL    HW122376   0.614   3.781   3.821  0.1604  1.2864 -2.3359
 3638SOL    HW222377   0.487   3.847   3.856  0.8080  1.5937 -1.4944
 3639SOL     OW22378   2.192   0.218   8.287  0.2285  0.2796 -0.1196
 3639SOL    HW122379   2.151   0.291   8.332 -0.7804 -1.0349  1.0754
 3639SOL    HW222380   2.270   0.215   8.343  0.4097  3.3912 -0.2195
 3640SOL     OW22381   1.113   1.233  11.341  0.0296  0.1022 -0.2667
 3640SOL    HW122382   1.025   1.211  11.372 -1.3952  1.7631 -3.2111
 3640SOL    HW222383   1.160   1.188  11.412 -1.9816 -1.2747  0.2060
 3641SOL     OW22384   1.179   0.630   2.177  0.4175  0.0288 -0.0778
 3641SOL    HW122385   1.213   0.543   2.159 -0.6558 -0.8308  2.0427
 3641SOL    HW222386   1.246   0.683   2.134  1.4430  0.5318  2.1226
 3642SOL     OW22387   3.782   3.292   6.724  0.0942 -0.4789  0.1414
 3642SOL    HW122388   3.699   3.260   6.688  0.1734  0.2464 -0.6720
 3642SOL    HW222389   3.832   3.226   6.676 -0.7970 -1.9817  1.2937
 3643SOL     OW22390   2.463   0.565  10.330  0.3251  0.3445  0.0917
 3643SOL    HW122391   2.521   0.523  10.265 -0.0824  1.7614 -1.1873
 3643SOL    HW222392   2.516   0.645  10.335 -0.0978  0.6226  0.0561
 3644SOL     OW22393   1.257   1.534   4.053  0.3536  0.3004 -0.3383
 3644SOL    HW122394   1.184   1.541   3.992  2.8162  2.6656 -2.9810
 3644SOL    HW222395   1.294   1.622   4.054  2.4997 -0.6149  0.1686
 3645SOL     OW22396   2.963   2.285   1.567 -0.1791  0.2919  0.2626
 3645SOL    HW122397   3.026   2.251   1.503 -0.8153 -0.0007 -0.2128
 3645SOL    HW222398   3.001   2.372   1.575  1.3915 -0.1870 -1.8984
 3646SOL     OW22399   2.771   3.489   3.544 -0.2086  0.0488  0.8595
 3646SOL    HW122400   2.854   3.536   3.539 -0.7921  0.9790 -0.1067
 3646SOL    HW222401   2.713   3.547   3.494  0.3670  1.5793  1.9447
 3647SOL     OW22402   0.891   4.583   5.014 -0.2364 -0.0246  0.0780
 3647SOL    HW122403   0.843   4.650   4.966 -0.2295  1.5885  2.3279
 3647SOL    HW222404   0.823   4.516   5.003 -1.5001  1.3808 -0.7050
 3648SOL     OW22405   4.658   4.608   6.195  0.5707 -0.1265  0.1687
 3648SOL    HW122406   4.622   4.697   6.192 -1.1835 -0.8619 -0.9298
 3648SOL    HW222407   0.024   4.631   6.188  0.5347  0.0579  0.3107
 3649SOL     OW22408   1.391   2.747   6.328  0.2125  0.4705  0.1641
 3649SOL    HW122409   1.459   2.687   6.296  0.2400  0.6586 -0.1349
 3649SOL    HW222410   1.393   2.812   6.257  3.6474 -1.9136 -1.9368
 3650SOL     OW22411   4.454   4.657   4.021  0.2127 -0.1026  0.2401
 3650SOL    HW122412   4.358   4.663   4.020  0.1218 -1.8367 -0.3017
 3650SOL    HW222413   4.475   4.678   4.112 -2.2829  0.3311  0.7302
 3651SOL     OW22414   2.187   2.306  10.627  0.3180 -0.0691 -0.7806
 3651SOL    HW122415   2.174   2.212  10.639  0.4931  0.1475  1.0563
 3651SOL    HW222416   2.271   2.315  10.672  0.8949 -1.3639 -1.6202
 3652SOL     OW22417   2.914   0.947   3.731 -0.2116  0.0368  0.4591
 3652SOL    HW122418   2.995   0.912   3.767 -0.7519 -1.4006  0.2427
 3652SOL    HW222419   2.935   0.961   3.639 -1.4182  0.7451  0.2800
 3653SOL     OW22420   3.035   4.408  16.074 -0.4397 -0.0248  0.0939
 3653SOL    HW122421   3.121   4.421  16.034 -0.8081  2.0341  0.0162
 3653SOL    HW222422   3.004   4.497  16.062 -2.0031 -0.5683  0.0825
 3654SOL     OW22423   4.595   3.929  11.744 -0.2894  0.1376  0.3283
 3654SOL    HW122424   4.641   3.855  11.784  0.3057 -0.8331 -2.0866
 3654SOL    HW222425   4.635   4.004  11.788 -1.6260  1.2461 -0.3413
 3655SOL     OW22426   2.399   1.950   0.149 -0.1353 -0.1225  0.7713
 3655SOL    HW122427   2.409   1.885   0.219 -2.3449 -0.3967  0.8217
 3655SOL    HW222428   2.411   1.895   0.072 -0.1364 -1.3777  1.6790
 3656SOL     OW22429   0.259   2.643  14.048 -0.9366 -0.0674 -0.2714
 3656SOL    HW122430   0.189   2.590  14.010  1.1313 -3.7691  1.0176
 3656SOL    HW222431   0.222   2.660  14.135 -0.7586 -1.9271  0.1888
 3657SOL     OW22432   0.362   4.682   1.849  0.1069 -0.9106 -0.1768
 3657SOL    HW122433   0.361   4.715   1.759  2.0218 -0.7867 -0.1487
 3657SOL    HW222434   0.306   4.605   1.854 -0.9296 -0.2805 -2.0934
 3658SOL     OW22435   0.454   3.426  14.117 -0.1332 -0.4350 -0.1404
 3658SOL    HW122436   0.504   3.453  14.195  0.2813 -1.5042 -0.0298
 3658SOL    HW222437   0.528   3.371  14.090 -0.6933 -0.0989 -2.3636
 3659SOL     OW22438   3.088   1.040   5.816 -0.1354  0.3700  0.5771
 3659SOL    HW122439   3.161   1.091   5.853  0.5691 -1.0454  1.1255
 3659SOL    HW222440   3.103   1.061   5.724  0.4321 -0.2779  0.5224
 3660SOL     OW22441   0.884   3.684  15.627  0.7220 -0.0538  0.2519
 3660SOL    HW122442   0.925   3.598  15.629 -2.0929 -1.4110  0.4803
 3660SOL    HW222443   0.910   3.716  15.713  2.4493 -0.1633 -0.2411
 3661SOL     OW22444   1.956   0.723  12.836  0.1532 -0.0885  0.0170
 3661SOL    HW122445   1.902   0.755  12.909 -1.3971 -0.7408 -0.8509
 3661SOL    HW222446   2.000   0.804  12.810 -0.1525  0.2000  0.4015
 3662SOL     OW22447   0.634   2.409   5.544  0.1788  0.2751 -0.4447
 3662SOL    HW122448   0.570   2.458   5.596  1.7626  1.7209  0.1724
 3662SOL    HW222449   0.571   2.342   5.519 -1.0387  0.9247  0.8502
 3663SOL     OW22450   4.407   0.784   8.945  0.5213  0.7615 -0.2997
 3663SOL    HW122451   4.416   0.740   9.030  0.9705 -0.0716 -0.7866
 3663SOL    HW222452   4.420   0.875   8.972  0.9710  0.0223  1.9916
 3664SOL     OW22453   3.038   1.967  15.199 -0.0501 -0.6991 -0.1764
 3664SOL    HW122454   3.086   1.977  15.117 -1.1196 -0.9624 -0.8193
 3664SOL    HW222455   3.039   1.873  15.215 -1.2666 -0.5975  0.4699
 3665SOL     OW22456   3.978   2.160  16.652 -0.1478 -0.0315 -0.3263
 3665SOL    HW122457   3.889   2.189  16.636 -0.2070 -1.3798 -2.4751
 3665SOL    HW222458   3.958   2.074  16.688  1.0672 -0.8626 -1.6024
 3666SOL     OW22459   0.539   1.713   2.626 -0.0158 -0.3604 -0.1578
 3666SOL    HW122460   0.495   1.665   2.697  4.8794 -3.8019  0.5780
 3666SOL    HW222461   0.610   1.766   2.662  1.6636 -0.7036 -2.9908
 3667SOL     OW22462   2.040   1.155   2.418 -0.1299 -0.2484  0.3517
 3667SOL    HW122463   1.990   1.159   2.337  0.1219 -0.7833  0.1694
 3667SOL    HW222464   1.987   1.093   2.468  0.3285 -0.2408  0.8495
 3668SOL     OW22465   0.649   2.125   3.689 -0.5494  0.0600  1.0869
 3668SOL    HW122466   0.692   2.098   3.608 -2.9207  3.0669 -1.1866
 3668SOL    HW222467   0.721   2.150   3.747  1.4993 -0.9328 -1.0267
 3669SOL     OW22468   1.216   1.516   8.048  0.0775 -0.0248 -0.2918
 3669SOL    HW122469   1.297   1.487   8.090 -0.6010  0.7135  1.5631
 3669SOL    HW222470   1.238   1.506   7.956  2.8261  0.6159  0.3111
 3670SOL     OW22471   1.460   4.641   6.108 -0.2618  0.6428  0.1586
 3670SOL    HW122472   1.553   4.625   6.092 -0.2535 -0.1153  0.9291
 3670SOL    HW222473   1.455   0.009   6.115 -2.0478  0.4017  2.0418
 3671SOL     OW22474   1.530   2.307   4.922  0.3262 -0.4279 -0.3693
 3671SOL    HW122475   1.509   2.214   4.930 -3.7045  0.5769  0.8185
 3671SOL    HW222476   1.441   2.340   4.933 -0.5905 -1.7512 -3.6804
 3672SOL     OW22477   2.504   4.311   5.577  0.4220 -0.3938 -0.1678
 3672SOL    HW122478   2.479   4.391   5.622 -3.0050 -1.4496 -0.1940
 3672SOL    HW222479   2.596   4.299   5.601  0.2631 -0.6541  0.3112
 3673SOL     OW22480   3.665   4.602   8.682 -0.6041 -0.1798  0.0059
 3673SOL    HW122481   3.734   4.641   8.736 -0.0158  0.5817 -1.2922
 3673SOL    HW222482   3.589   4.619   8.738 -0.0532  1.0035  0.4135
 3674SOL     OW22483   2.777   0.388   9.225  0.1377 -0.5505  0.4023
 3674SOL    HW122484   2.747   0.402   9.135  2.5610 -0.9472 -0.4545
 3674SOL    HW222485   2.799   0.479   9.246  0.2988 -0.0938 -1.7757
 3675SOL     OW22486   1.693   0.130   7.771 -0.3697 -0.1040 -0.3380
 3675SOL    HW122487   1.759   0.074   7.730 -0.9837  0.3976 -2.0086
 3675SOL    HW222488   1.750   0.180   7.829 -0.0589  0.0849 -0.8132
 3676SOL     OW22489   0.009   3.083  11.621 -0.2389  0.2803  0.0450
 3676SOL    HW122490   4.672   3.136  11.670  1.6990  0.4629  2.3479
 3676SOL    HW222491   4.694   2.998  11.627  1.0472 -0.3078  0.5647
 3677SOL     OW22492   1.825   4.432   4.099  0.3692  0.3950  0.0633
 3677SOL    HW122493   1.794   4.454   4.186 -2.0410 -0.6963 -0.5322
 3677SOL    HW222494   1.920   4.424   4.109  0.0068 -1.7999  1.6151
 3678SOL     OW22495   0.368   1.078  13.736  0.0877  0.0080 -0.4075
 3678SOL    HW122496   0.404   1.131  13.665  0.4342 -0.1081 -0.3198
 3678SOL    HW222497   0.351   1.144  13.803  0.2290  0.1547 -0.5167
 3679SOL     OW22498   3.566   4.375   2.841 -0.0976  0.6679  0.0632
 3679SOL    HW122499   3.521   4.371   2.756 -0.0281  0.5768  0.0313
 3679SOL    HW222500   3.492   4.357   2.899  1.3547  1.0967  2.0656
 3680SOL     OW22501   2.660   0.460   0.659 -0.0064  0.1559  0.4098
 3680SOL    HW122502   2.657   0.416   0.575 -1.5345  0.2111  0.4376
 3680SOL    HW222503   2.687   0.547   0.628 -1.3577  0.2123 -0.6001
 3681SOL     OW22504   0.033   1.312  14.047  0.0855  0.0698  0.1118
 3681SOL    HW122505   4.720   1.368  13.981  1.4899 -0.0656 -0.8646
 3681SOL    HW222506   4.684   1.278  14.095  0.8953 -1.9207 -0.0016
 3682SOL     OW22507   1.068   3.266   2.333  0.2962 -0.2254  0.0736
 3682SOL    HW122508   1.071   3.249   2.239 -0.0375  0.3611 -0.0431
 3682SOL    HW222509   1.093   3.358   2.333 -2.2316  0.4745 -0.0146
 3683SOL     OW22510   1.198   1.159   2.441 -0.4359 -0.4847 -0.3089
 3683SOL    HW122511   1.279   1.109   2.455 -0.2322  0.5120  2.1812
 3683SOL    HW222512   1.219   1.203   2.359 -0.4741 -0.6085 -0.3857
 3684SOL     OW22513   3.409   2.771   2.596 -0.0423  0.0276 -0.4980
 3684SOL    HW122514   3.468   2.830   2.550  1.4534 -1.5998 -0.6888
 3684SOL    HW222515   3.456   2.771   2.680  1.4282 -1.9507 -1.3049
 3685SOL     OW22516   2.844   0.389   6.946  0.1613 -0.2152 -0.2273
 3685SOL    HW122517   2.776   0.323   6.959 -1.1924  1.7771  3.0067
 3685SOL    HW222518   2.836   0.447   7.022  3.2905 -0.8773  0.6054
 3686SOL     OW22519   1.046   0.781   8.320 -0.5070 -0.5026 -0.3307
 3686SOL    HW122520   1.139   0.799   8.335 -0.8348  2.0299 -1.3779
 3686SOL    HW222521   1.050   0.774   8.225 -2.0934 -0.9765 -0.3637
 3687SOL     OW22522   1.477   2.652   8.959 -0.5814  0.1804 -0.3119
 3687SOL    HW122523   1.500   2.562   8.982  0.0998  0.5855  0.5988
 3687SOL    HW222524   1.537   2.675   8.888  1.3441 -0.9688  0.9319
 3688SOL     OW22525   1.226   0.392   2.033 -0.3803  0.0539 -0.4508
 3688SOL    HW122526   1.276   0.327   2.083 -0.4054  2.1982  2.3901
 3688SOL    HW222527   1.143   0.343   2.035 -0.2143 -0.0731  3.3315
 3689SOL     OW22528   2.625   3.666   6.702 -0.3685  0.5168 -0.1196
 3689SOL    HW122529   2.714   3.653   6.734 -0.2440  0.2298 -0.5882
 3689SOL    HW222530   2.623   3.623   6.617 -2.1975 -0.2788  0.3278
 3690SOL     OW22531   0.587   3.598  13.288 -0.0626  0.7313  0.5637
 3690SOL    HW122532   0.500   3.586  13.326  0.4557  0.2846  1.6038
 3690SOL    HW222533   0.576   3.688  13.257 -1.9186  0.6106  0.8514
 3691SOL     OW22534   2.548   4.111  17.658 -0.4908 -0.5014 -0.4273
 3691SOL    HW122535   2.566   4.204  17.674 -1.9080 -0.3479  0.3204
 3691SOL    HW222536   2.461   4.106  17.619 -0.7413 -0.6127  0.1530
 3692SOL     OW22537   0.052   3.449   5.500  0.8023  0.0663  0.5523
 3692SOL    HW122538   0.029   3.359   5.523 -0.1217  0.1851  0.0929
 3692SOL    HW222539   0.129   3.458   5.557  1.3354  1.2764 -0.3619
 3693SOL     OW22540   3.453   4.399   4.534 -0.2350 -0.1997  0.2479
 3693SOL    HW122541   3.504   4.318   4.543  0.2600  0.0987  0.0916
 3693SOL    HW222542   3.514   4.452   4.585  1.6991 -0.2108 -2.0762
 3694SOL     OW22543   1.703   3.521   5.470 -0.0391  0.7552 -0.3082
 3694SOL    HW122544   1.694   3.577   5.393 -0.6062  0.2179 -0.6392
 3694SOL    HW222545   1.615   3.482   5.470  0.8363 -1.2286 -2.6683
 3695SOL     OW22546   0.766   1.218   2.707  0.9300  0.0232 -0.2953
 3695SOL    HW122547   0.701   1.156   2.673 -0.7624  1.2523  0.6562
 3695SOL    HW222548   0.834   1.221   2.640  0.1671  2.0217 -0.9758
 3696SOL     OW22549   0.659   0.801   2.919  0.1284 -0.4961  0.2433
 3696SOL    HW122550   0.575   0.767   2.949  0.2252  1.3984  2.6373
 3696SOL    HW222551   0.651   0.781   2.826  1.6415 -2.1879  0.4812
 3697SOL     OW22552   0.942   4.571   9.270  0.2169 -0.2547  0.1119
 3697SOL    HW122553   0.896   4.651   9.245  0.1873 -0.4903 -0.5936
 3697SOL    HW222554   0.870   4.512   9.288  0.6982 -1.4298 -1.8292
 3698SOL     OW22555   2.447   1.639   6.833 -0.7266  0.2714 -0.1265
 3698SOL    HW122556   2.541   1.637   6.815 -0.7148 -1.8444  0.2360
 3698SOL    HW222557   2.448   1.638   6.928  0.6503  0.3715 -0.1377
 3699SOL     OW22558   4.362   4.556  16.698 -0.1094 -0.3972 -0.0240
 3699SOL    HW122559   4.457   4.567  16.700 -0.1152 -0.2484 -0.7057
 3699SOL    HW222560   4.334   4.641  16.732  0.0449 -0.5926  0.6048
 3700SOL     OW22561   4.637   0.826   7.559  0.2569  0.1316  0.2926
 3700SOL    HW122562   4.611   0.890   7.493  2.7456  0.7135 -0.1223
 3700SOL    HW222563   4.564   0.834   7.620  0.0876  1.1314 -0.0348
 3701SOL     OW22564   3.104   3.882  12.969 -0.3106  0.2176 -0.3550
 3701SOL    HW122565   3.077   3.959  12.919  1.7809 -0.2050 -2.0994
 3701SOL    HW222566   3.102   3.819  12.897 -1.7840  2.3396 -2.1609
 3702SOL     OW22567   3.010   3.614  12.140 -0.2607 -0.2615 -0.4353
 3702SOL    HW122568   2.955   3.616  12.061  1.4781 -1.4002 -1.6590
 3702SOL    HW222569   2.943   3.584  12.202  1.9774  1.0909  2.6153
 3703SOL     OW22570   1.056   2.823  10.451 -0.2087  0.8336  0.0432
 3703SOL    HW122571   1.057   2.736  10.411  1.0414  1.4420 -1.2878
 3703SOL    HW222572   1.141   2.855  10.418 -0.4154  0.4665 -0.8518
 3704SOL     OW22573   3.235   4.257   4.448  0.0624  0.4604  0.2273
 3704SOL    HW122574   3.169   4.314   4.409  0.2925  2.1108  2.2496
 3704SOL    HW222575   3.314   4.311   4.457  0.9098 -0.2818 -2.8884
 3705SOL     OW22576   3.134   2.658  14.507 -0.3156 -0.2516  0.4637
 3705SOL    HW122577   3.041   2.678  14.519 -0.0154  0.8077  1.1228
 3705SOL    HW222578   3.177   2.693  14.585 -1.5758  1.4907  0.3868
 3706SOL     OW22579   2.189   1.772   4.101 -0.3420  0.3046 -0.1905
 3706SOL    HW122580   2.131   1.697   4.090  2.4140 -1.9876  1.0164
 3706SOL    HW222581   2.265   1.731   4.140  0.5792  2.7051  0.5592
 3707SOL     OW22582   0.320   4.164   2.500  0.4854  0.0331  0.0535
 3707SOL    HW122583   0.336   4.150   2.593  1.2574 -0.6909 -0.1908
 3707SOL    HW222584   0.239   4.215   2.500  0.8825  0.6733 -1.6425
 3708SOL     OW22585   4.150   2.277  13.913  0.2763 -0.1713  0.0551
 3708SOL    HW122586   4.148   2.360  13.962  1.4799 -1.5856  2.4569
 3708SOL    HW222587   4.213   2.307  13.847 -1.6480  2.3104 -0.6840
 3709SOL     OW22588   0.497   2.646   2.291 -0.3166 -0.4537  0.2739
 3709SOL    HW122589   0.546   2.701   2.352 -0.5077 -0.0418  0.0494
 3709SOL    HW222590   0.430   2.609   2.350 -0.0352  0.8352  1.3998
 3710SOL     OW22591   1.418   2.639   6.726 -0.2377 -0.0259 -0.1950
 3710SOL    HW122592   1.449   2.618   6.638  0.6090 -2.2286  0.6307
 3710SOL    HW222593   1.480   2.609   6.792  2.1365  1.1112 -1.8684
 3711SOL     OW22594   1.364   3.608   9.251  0.1666  0.3531  0.1894
 3711SOL    HW122595   1.371   3.513   9.239  2.2333  0.6140 -0.7373
 3711SOL    HW222596   1.269   3.615   9.250  0.1373  0.4691  3.3927
 3712SOL     OW22597   1.233   1.334   3.428 -0.1339  0.3061  0.2655
 3712SOL    HW122598   1.190   1.401   3.374 -0.7833 -0.6599 -0.4213
 3712SOL    HW222599   1.293   1.300   3.362  0.4441 -0.4231  1.1735
 3713SOL     OW22600   0.930   4.179   1.919  0.4850  0.9134 -0.5813
 3713SOL    HW122601   0.860   4.126   1.882 -2.1144  3.6644  0.3756
 3713SOL    HW222602   0.944   4.136   2.004  0.5486  1.8935 -0.0985
 3714SOL     OW22603   3.583   3.700  11.959  0.0677  0.4651 -0.4328
 3714SOL    HW122604   3.541   3.760  11.898  0.6363  1.8739  0.5613
 3714SOL    HW222605   3.524   3.629  11.985 -0.3748  0.9511 -0.1139
 3715SOL     OW22606   0.790   3.461   2.907 -0.5113 -0.9508 -0.1915
 3715SOL    HW122607   0.805   3.369   2.930  2.7732 -0.9168 -2.1061
 3715SOL    HW222608   0.857   3.489   2.969  0.8467 -4.7634  0.1089
 3716SOL     OW22609   2.625   4.094   5.360  0.1204 -0.1676 -0.2596
 3716SOL    HW122610   2.635   4.061   5.271 -1.7511 -2.6667  0.4468
 3716SOL    HW222611   2.710   4.074   5.401 -0.1900 -0.8840  0.0437
 3717SOL     OW22612   0.229   3.383   9.753  0.1740  0.2610 -0.1196
 3717SOL    HW122613   0.205   3.298   9.788  0.9188  1.0900  2.4099
 3717SOL    HW222614   0.152   3.430   9.721  0.1730  2.0272  2.4246
 3718SOL     OW22615   1.162   1.717   2.188  0.6826 -0.4490  0.1814
 3718SOL    HW122616   1.228   1.733   2.256 -0.4736 -1.5069  1.5495
 3718SOL    HW222617   1.200   1.642   2.142 -0.2538 -1.6279  1.3351
 3719SOL     OW22618   1.165   0.703  17.678 -0.3494  0.0874  0.2239
 3719SOL    HW122619   1.216   0.762   0.024 -1.6722  0.3208  1.2163
 3719SOL    HW222620   1.222   0.700  17.601 -0.4205 -1.3499  0.2121
 3720SOL     OW22621   0.905   2.770  10.067 -0.3612 -0.2678  0.5041
 3720SOL    HW122622   0.917   2.861  10.095 -3.4893  0.3967 -0.3297
 3720SOL    HW222623   0.817   2.767  10.028  0.6619  1.6051 -1.9466
 3721SOL     OW22624   0.793   4.353   7.933  0.2771  0.1067 -0.2954
 3721SOL    HW122625   0.728   4.320   7.872  1.8901 -0.9686 -1.4548
 3721SOL    HW222626   0.808   4.277   7.989  1.4794  0.5652  0.0204
 3722SOL     OW22627   4.509   1.995   5.280  0.4335  0.0422  0.3805
 3722SOL    HW122628   4.569   2.065   5.256  0.5583  0.2265  1.2319
 3722SOL    HW222629   4.533   1.930   5.214 -0.3187 -0.5477  0.6832
 3723SOL     OW22630   1.247   2.581   3.854  0.2730 -0.5391  0.3148
 3723SOL    HW122631   1.333   2.621   3.860 -0.7143  1.5576  0.4891
 3723SOL    HW222632   1.225   2.609   3.765  1.5320  0.8107  0.4329
 3724SOL     OW22633   2.567   0.447   1.663  0.0293  0.0353  0.2861
 3724SOL    HW122634   2.510   0.512   1.705  1.7370  1.6918  0.0572
 3724SOL    HW222635   2.606   0.408   1.741  0.7946 -0.1420 -0.1876
 3725SOL     OW22636   3.619   0.094  17.046  0.2816  0.5505 -0.6489
 3725SOL    HW122637   3.534   0.051  17.059  2.2361 -2.6434  1.5262
 3725SOL    HW222638   3.603   0.129  16.958  1.1643  0.4513 -0.8490
 3726SOL     OW22639   3.156   3.823   1.669 -0.1756  0.0464 -0.0345
 3726SOL    HW122640   3.161   3.751   1.732  0.5681  1.6335  1.6878
 3726SOL    HW222641   3.148   3.765   1.593  1.6444  0.8046 -0.8158
 3727SOL     OW22642   2.187   0.970   4.738 -0.0945 -0.1325  0.1150
 3727SOL    HW122643   2.164   1.011   4.821  2.7467 -0.4161  1.0549
 3727SOL    HW222644   2.283   0.976   4.732 -0.2402  0.3563 -1.7194
 3728SOL     OW22645   0.772   2.038  10.592 -0.9370 -0.0570  0.0451
 3728SOL    HW122646   0.785   1.955  10.547  3.1007 -0.3015  1.6487
 3728SOL    HW222647   0.728   2.086  10.522  1.2406  1.2166 -0.4367
 3729SOL     OW22648   3.398   0.566  12.656  0.1899  0.0756  0.0454
 3729SOL    HW122649   3.487   0.584  12.685  0.8082 -1.4182 -0.9011
 3729SOL    HW222650   3.361   0.590  12.741  1.2915  0.0526  0.5238
 3730SOL     OW22651   0.052   2.635   4.146 -0.2049  0.0815 -0.2810
 3730SOL    HW122652   0.016   2.559   4.101 -0.0110  0.0361 -0.3562
 3730SOL    HW222653   0.111   2.655   4.073  1.3418 -0.1371  0.9030
 3731SOL     OW22654   1.037   1.720  13.639  0.0506 -0.2792  0.5063
 3731SOL    HW122655   1.051   1.775  13.716  1.5622  0.3573 -0.2197
 3731SOL    HW222656   0.963   1.771  13.607  1.0277  1.3094  0.7697
 3732SOL     OW22657   1.169   2.266   8.736 -0.2202  0.1406 -0.4896
 3732SOL    HW122658   1.160   2.218   8.819  1.8210 -1.2183 -1.0482
 3732SOL    HW222659   1.237   2.331   8.756  0.2387 -0.5796  0.3173
 3733SOL     OW22660   2.019   1.989   3.334  0.2578  0.2846 -0.1941
 3733SOL    HW122661   2.095   1.999   3.278 -0.2847  1.5090 -0.7068
 3733SOL    HW222662   2.066   1.930   3.393  1.5280 -0.7414 -2.2419
 3734SOL     OW22663   3.919   1.812   2.376 -0.5567  0.5420  0.2561
 3734SOL    HW122664   4.003   1.772   2.350 -0.9246  0.3400 -0.6105
 3734SOL    HW222665   3.859   1.738   2.384 -0.2521  0.2119 -0.4954
 3735SOL     OW22666   4.580   3.334  15.852  0.1693 -0.9688 -0.2746
 3735SOL    HW122667   4.507   3.337  15.914  0.1792  0.1680 -0.3159
 3735SOL    HW222668   4.571   3.250  15.807 -0.9696 -0.4522 -1.0205
 3736SOL     OW22669   0.511   0.188  16.550  0.1307 -0.0275  0.1961
 3736SOL    HW122670   0.571   0.227  16.613 -1.3076  0.6836  1.1257
 3736SOL    HW222671   0.427   0.232  16.561 -0.2582 -0.4109 -1.1434
 3737SOL     OW22672   0.052   1.451   9.300  0.0760  0.3095  0.0217
 3737SOL    HW122673   0.115   1.384   9.272 -2.1577 -2.3693  1.3536
 3737SOL    HW222674   4.721   1.460   9.224 -0.7884  1.1175  0.7714
 3738SOL     OW22675   1.196   1.460  14.085  0.7632  0.4107  0.5988
 3738SOL    HW122676   1.234   1.519  14.021  0.0676  0.3770  0.1469
 3738SOL    HW222677   1.225   1.375  14.052 -1.5221 -0.2418  0.2028
 3739SOL     OW22678   1.137   0.436   4.768  0.0181  0.1464  0.4851
 3739SOL    HW122679   1.088   0.484   4.700  1.9249  0.6145 -0.5485
 3739SOL    HW222680   1.120   0.343   4.759  0.4917 -0.2443  3.4562
 3740SOL     OW22681   4.212   2.204  12.333 -0.1971 -0.0301  0.4597
 3740SOL    HW122682   4.252   2.157  12.405 -0.5610  0.0526  0.7121
 3740SOL    HW222683   4.169   2.135  12.282 -0.4012 -0.3812  1.1201
 3741SOL     OW22684   1.834   0.130  12.249 -0.0701  0.3145 -0.0814
 3741SOL    HW122685   1.886   0.115  12.327  1.3953 -0.6631 -1.2421
 3741SOL    HW222686   1.793   0.044  12.241  0.9191  0.0495 -2.3657
 3742SOL     OW22687   2.689   0.683   0.333 -0.1912  0.0125  0.8166
 3742SOL    HW122688   2.707   0.717   0.421 -1.6483  2.4246  0.1844
 3742SOL    HW222689   2.747   0.607   0.340  0.8090  0.7772  0.8613
 3743SOL     OW22690   0.457   2.701   5.213  0.4367 -0.1017  0.6874
 3743SOL    HW122691   0.528   2.638   5.226 -0.7880 -1.8639 -1.2349
 3743SOL    HW222692   0.387   2.649   5.174 -0.7344  1.0939  1.1863
 3744SOL     OW22693   2.347   2.272   6.408 -0.8461 -0.2012  0.0481
 3744SOL    HW122694   2.324   2.181   6.424 -0.1063 -0.5198 -0.6837
 3744SOL    HW222695   2.295   2.315   6.475 -0.6378  0.3859 -0.1598
 3745SOL     OW22696   0.469   0.840   6.035 -0.0483  0.4726  0.2254
 3745SOL    HW122697   0.385   0.861   5.995 -0.0418  0.8951  0.4398
 3745SOL    HW222698   0.526   0.887   5.973  0.5247  0.1964  0.5433
 3746SOL     OW22699   4.579   4.199   0.319  0.3471  0.0845  0.4799
 3746SOL    HW122700   4.623   4.230   0.240  1.3104 -1.3634  0.4439
 3746SOL    HW222701   4.622   4.252   0.386  1.1216 -1.5343  1.2624
 3747SOL     OW22702   3.876   0.183   8.624  0.4377 -0.5868  0.0097
 3747SOL    HW122703   3.865   0.132   8.704 -0.5995  1.6908  1.3086
 3747SOL    HW222704   3.792   0.229   8.615  0.6572 -0.0179  0.9822
 3748SOL     OW22705   2.944   1.732  11.187 -0.3144 -0.5143  0.1811
 3748SOL    HW122706   2.918   1.776  11.268 -2.5405  1.7316 -1.7412
 3748SOL    HW222707   3.022   1.690  11.222 -1.2387 -1.0800  1.5578
 3749SOL     OW22708   3.868   3.350   1.390  0.8783  0.5238  0.5117
 3749SOL    HW122709   3.937   3.298   1.349  0.0859  1.1106 -1.5434
 3749SOL    HW222710   3.888   3.439   1.360 -2.0596  0.9601 -0.1055
 3750SOL     OW22711   3.678   4.273   5.585  0.1762 -0.4037 -0.6570
 3750SOL    HW122712   3.613   4.218   5.540 -2.0877  1.5106  0.2682
 3750SOL    HW222713   3.741   4.206   5.613  0.4682 -0.2426 -0.9362
 3751SOL     OW22714   3.773   3.955   4.345 -0.3787 -0.7618  0.1853
 3751SOL    HW122715   3.809   4.033   4.304 -0.3324 -1.3575 -0.9190
 3751SOL    HW222716   3.848   3.928   4.398  0.2629 -1.7763 -1.2328
 3752SOL     OW22717   1.584   1.296  13.857  0.0244 -0.5336  0.1504
 3752SOL    HW122718   1.560   1.373  13.908  0.7034 -0.5442  0.4860
 3752SOL    HW222719   1.591   1.225  13.921  0.5530 -2.1854 -1.7341
 3753SOL     OW22720   3.608   0.815   2.800 -0.2443  0.4645 -0.6683
 3753SOL    HW122721   3.627   0.740   2.743  1.4970  1.5746 -1.5673
 3753SOL    HW222722   3.677   0.796   2.864  1.0468 -0.4576 -2.3262
 3754SOL     OW22723   3.779   1.161   6.139 -0.1019  0.1898 -0.5436
 3754SOL    HW122724   3.756   1.253   6.148  3.6681  0.9844  0.9317
 3754SOL    HW222725   3.790   1.149   6.045 -2.9383  0.2062 -0.8773
 3755SOL     OW22726   4.383   4.251  12.370 -0.1227 -0.0711 -0.0175
 3755SOL    HW122727   4.438   4.188  12.416 -0.1777  0.9037  1.3591
 3755SOL    HW222728   4.365   4.323  12.430 -1.1979  0.3194 -0.8043
 3756SOL     OW22729   2.625   2.567  15.274  0.3071 -0.3507 -0.0555
 3756SOL    HW122730   2.622   2.607  15.187 -1.7929 -1.3015 -0.4333
 3756SOL    HW222731   2.537   2.576  15.311  0.4076  1.0929 -0.1717
 3757SOL     OW22732   0.160   2.373  16.682  0.0093 -0.2519 -0.7487
 3757SOL    HW122733   0.183   2.451  16.732  1.9933 -1.7610  0.6730
 3757SOL    HW222734   0.088   2.344  16.738 -0.2674  0.2756 -0.8212
 3758SOL     OW22735   2.944   3.343  10.641  0.2800  0.8743 -0.2277
 3758SOL    HW122736   3.031   3.304  10.653 -0.6073 -1.2403 -0.6838
 3758SOL    HW222737   2.937   3.327  10.547 -0.2125  3.1925 -0.5997
 3759SOL     OW22738   4.317   0.496   2.814  0.5634  0.4650  0.2047
 3759SOL    HW122739   4.412   0.496   2.803  0.5245 -0.6771 -0.1529
 3759SOL    HW222740   4.297   0.515   2.722  0.0389  0.4250  0.3133
 3760SOL     OW22741   4.489   0.380   6.347 -0.1506 -0.0581 -0.1251
 3760SOL    HW122742   4.524   0.424   6.424 -1.2766  1.6320 -0.5926
 3760SOL    HW222743   4.401   0.414   6.334 -0.4226 -0.5200  0.4992
 3761SOL     OW22744   4.605   0.071  13.682  0.0454  0.7736  0.1123
 3761SOL    HW122745   4.580   0.008  13.751  0.4500  0.6709  0.1672
 3761SOL    HW222746   4.696   0.048  13.664 -0.0191  0.3273  0.3414
 3762SOL     OW22747   2.209   3.787   5.718 -0.1127 -0.7434  0.3683
 3762SOL    HW122748   2.159   3.712   5.684 -2.8369  1.6716 -0.9336
 3762SOL    HW222749   2.161   3.859   5.677  2.4758  1.7346  1.7427
 3763SOL     OW22750   0.384   1.103   8.559  0.1567 -0.3182  0.3355
 3763SOL    HW122751   0.340   1.117   8.476 -0.1142  1.6239  0.8027
 3763SOL    HW222752   0.473   1.078   8.534 -0.3288 -1.7486  0.0814
 3764SOL     OW22753   1.534   4.682   5.606  0.1942  0.2712 -0.5303
 3764SOL    HW122754   1.621   4.646   5.623  0.1968  0.8914  0.7331
 3764SOL    HW222755   1.550   0.047   5.627 -0.5354  0.1108  0.7032
 3765SOL     OW22756   1.057   0.707   6.546  0.0919 -0.2708  0.2551
 3765SOL    HW122757   1.148   0.738   6.551 -0.3511  1.2387 -1.0769
 3765SOL    HW222758   1.047   0.669   6.634 -0.8361  2.1171  1.1693
 3766SOL     OW22759   3.596   0.228   6.377  0.1623  0.1201 -0.0126
 3766SOL    HW122760   3.678   0.247   6.423  0.1185 -0.2675  0.2207
 3766SOL    HW222761   3.539   0.301   6.403  0.8054  1.2972 -1.9505
 3767SOL     OW22762   2.872   3.166   7.485  0.3746 -0.5031 -0.5027
 3767SOL    HW122763   2.863   3.125   7.571  2.9033  0.1772  0.1008
 3767SOL    HW222764   2.894   3.257   7.505 -0.5302 -0.3028 -0.4310
 3768SOL     OW22765   2.034   0.032  12.845  0.7330 -0.0048 -0.0760
 3768SOL    HW122766   2.014   0.117  12.806 -3.4276 -1.4786 -1.1392
 3768SOL    HW222767   1.991   4.696  12.787 -1.0995 -1.4777  2.8721
 3769SOL     OW22768   1.699   2.756   2.083  0.3316  0.4027 -0.1106
 3769SOL    HW122769   1.670   2.681   2.030  0.4278 -1.1016  1.9683
 3769SOL    HW222770   1.634   2.824   2.068  0.4686  0.6417  0.4097
 3770SOL     OW22771   2.708   3.945   2.299 -0.1039 -0.1083  0.0113
 3770SOL    HW122772   2.801   3.950   2.280 -0.0994 -0.8501 -0.1514
 3770SOL    HW222773   2.698   4.036   2.328  0.2626  0.4019 -1.4243
 3771SOL     OW22774   1.799   0.668   2.684 -0.1645  0.3475  0.4482
 3771SOL    HW122775   1.704   0.671   2.698 -0.0370  0.5891  1.2569
 3771SOL    HW222776   1.828   0.586   2.723  2.4535  1.4943  0.9121
 3772SOL     OW22777   2.134   4.346   6.579 -0.6142  0.0613 -0.5251
 3772SOL    HW122778   2.195   4.370   6.509  1.3342 -1.2747  0.7025
 3772SOL    HW222779   2.142   4.419   6.641 -1.4099 -0.1064 -0.2236
 3773SOL     OW22780   2.875   1.390   6.670 -0.8387  0.1457 -0.2224
 3773SOL    HW122781   2.833   1.325   6.726 -0.5458  1.7137  1.8419
 3773SOL    HW222782   2.823   1.466   6.695  1.0108  1.2383  0.3472
 3774SOL     OW22783   3.925   4.445   8.318 -0.3917  0.1588  0.2670
 3774SOL    HW122784   3.958   4.482   8.400 -2.2339  1.2460  0.4959
 3774SOL    HW222785   4.005   4.424   8.269 -0.7496 -0.0450 -0.2264
 3775SOL     OW22786   1.537   0.846   0.517  0.1125 -0.2593 -0.3017
 3775SOL    HW122787   1.529   0.787   0.442 -0.8472  0.3613 -0.6827
 3775SOL    HW222788   1.539   0.791   0.595 -0.6954  0.1350 -0.0050
 3776SOL     OW22789   0.711   1.131   4.841  0.1321 -0.1817 -0.4346
 3776SOL    HW122790   0.644   1.200   4.840  0.7730  0.4400 -0.4807
 3776SOL    HW222791   0.798   1.170   4.833  0.7790 -1.4694  0.3816
 3777SOL     OW22792   4.570   3.168  11.795 -0.1366 -0.3884  0.3875
 3777SOL    HW122793   4.613   3.144  11.877  0.8235 -0.7280 -0.2250
 3777SOL    HW222794   4.495   3.108  11.802  0.0728 -0.3648  3.1073
 3778SOL     OW22795   1.882   4.130   2.875  0.7317  0.2428 -1.0981
 3778SOL    HW122796   1.804   4.083   2.845  0.4865  1.1181 -1.8092
 3778SOL    HW222797   1.895   4.093   2.963 -1.2350  0.5277 -0.6836
 3779SOL     OW22798   1.987   4.404   9.026  0.3769 -0.2514 -0.7570
 3779SOL    HW122799   2.037   4.324   9.012 -0.0011 -0.5345 -0.4821
 3779SOL    HW222800   1.901   4.374   8.995  1.2982 -1.5705 -2.0198
 3780SOL     OW22801   4.083   3.842   3.320 -0.1323  0.0309 -0.9901
 3780SOL    HW122802   3.993   3.813   3.303 -1.2257  1.3719  2.6594
 3780SOL    HW222803   4.083   3.823   3.413 -1.3511 -0.7421 -1.1499
 3781SOL     OW22804   3.725   3.085   0.067 -0.5014  0.2276 -0.2423
 3781SOL    HW122805   3.754   3.175   0.084 -4.0983  0.7665  2.9603
 3781SOL    HW222806   3.636   3.100   0.034 -0.8258  0.8141  0.9083
 3782SOL     OW22807   1.423   0.869  16.195  0.2259  0.5590  0.2590
 3782SOL    HW122808   1.387   0.785  16.164  1.5442  0.0653  0.0931
 3782SOL    HW222809   1.418   0.919  16.113 -0.7543  0.8420  0.4815
 3783SOL     OW22810   2.046   2.284   7.540  0.0139 -0.0410  0.5115
 3783SOL    HW122811   1.975   2.299   7.477  0.2055 -0.7092  0.1381
 3783SOL    HW222812   2.124   2.294   7.487 -0.3258  1.4068  0.2920
 3784SOL     OW22813   1.746   2.871   6.671 -0.0346  0.1605 -0.5537
 3784SOL    HW122814   1.711   2.936   6.610  0.2786  0.7893 -0.0629
 3784SOL    HW222815   1.792   2.921   6.739 -0.5040 -2.4090  1.6582
 3785SOL     OW22816   4.199   2.122   3.485  0.1175  0.2430  0.0863
 3785SOL    HW122817   4.256   2.046   3.502  0.0526  0.2567  0.3555
 3785SOL    HW222818   4.112   2.081   3.484  0.2242  0.0038  1.1285
 3786SOL     OW22819   4.580   0.234   2.352  0.1840 -0.2605 -0.3966
 3786SOL    HW122820   4.555   0.265   2.265 -0.7178  0.4553  0.1283
 3786SOL    HW222821   4.509   0.174   2.375  0.6033 -0.5745  0.0785
 3787SOL     OW22822   0.905   0.295   8.153 -0.3870  0.2874 -0.2582
 3787SOL    HW122823   0.864   0.299   8.067  1.8901  0.6561 -1.3230
 3787SOL    HW222824   0.846   0.247   8.211  2.8383 -1.0090  1.9559
 3788SOL     OW22825   1.656   1.264   3.585  0.1892  0.2904 -0.0895
 3788SOL    HW122826   1.595   1.277   3.657 -2.4357  0.8182 -2.3706
 3788SOL    HW222827   1.617   1.177   3.569 -1.0601  0.4444  2.2195
 3789SOL     OW22828   1.892   3.156   2.168 -0.5104 -0.4472  0.0716
 3789SOL    HW122829   1.934   3.154   2.082  0.5511 -0.8139  0.5991
 3789SOL    HW222830   1.911   3.070   2.206  0.3275 -0.1565  0.3274
 3790SOL     OW22831   3.486   2.865   3.830 -0.0348 -0.9440  0.1440
 3790SOL    HW122832   3.572   2.902   3.809 -0.4020  0.3787  0.9837
 3790SOL    HW222833   3.507   2.775   3.804  0.8543 -0.3114 -1.3654
 3791SOL     OW22834   0.103   1.033   2.666 -0.4357  0.0600 -0.2713
 3791SOL    HW122835   0.167   0.969   2.635 -2.4545 -0.7351 -2.7721
 3791SOL    HW222836   0.162   1.109   2.670  1.3731 -1.3863  0.9604
 3792SOL     OW22837   3.492   2.782   0.136 -0.2192  0.0438 -0.4991
 3792SOL    HW122838   3.572   2.746   0.099  0.3033  2.3496 -1.6266
 3792SOL    HW222839   3.535   2.848   0.191 -3.3239  1.0837  0.7087
 3793SOL     OW22840   0.856   0.556   1.068 -1.2655  0.2655  0.0368
 3793SOL    HW122841   0.910   0.477   1.068 -1.8698 -0.1467 -1.7312
 3793SOL    HW222842   0.892   0.598   1.146  2.0042  0.1367 -1.3773
 3794SOL     OW22843   0.482   3.888   3.597  0.0742 -0.3806  0.1642
 3794SOL    HW122844   0.442   3.929   3.521  0.9745  0.3961  0.1072
 3794SOL    HW222845   0.438   3.933   3.670 -0.0755  0.3976 -0.4092
 3795SOL     OW22846   2.061   2.851   3.584 -0.6002  0.0038  0.1311
 3795SOL    HW122847   2.100   2.825   3.668 -0.6878  0.0923  0.1985
 3795SOL    HW222848   2.097   2.774   3.541  3.1999  0.8711  1.7695
 3796SOL     OW22849   3.151   1.009   8.619  0.1847 -0.0210  0.3278
 3796SOL    HW122850   3.143   1.103   8.600  2.8633  0.2827  0.6555
 3796SOL    HW222851   3.066   0.968   8.603 -1.1662  2.8566  0.1230
 3797SOL     OW22852   1.262   4.550   4.734 -0.4463  0.1769 -0.1908
 3797SOL    HW122853   1.208   4.510   4.802 -0.6856  2.4461  0.9600
 3797SOL    HW222854   1.311   4.600   4.798 -0.1709  2.7980 -2.4624
 3798SOL     OW22855   0.236   0.237  16.576  0.1975  0.5089 -0.0214
 3798SOL    HW122856   0.199   0.303  16.518  0.2894  1.6810  1.2628
 3798SOL    HW222857   0.163   0.240  16.637 -1.5822 -1.7119 -2.0110
 3799SOL     OW22858   1.927   4.675   7.718 -0.2937 -0.5401 -0.3064
 3799SOL    HW122859   1.983   4.599   7.706  2.6761  1.6277 -0.2277
 3799SOL    HW222860   1.922   4.708   7.628 -1.0531  1.3134  0.4050
 3800SOL     OW22861   4.192   2.716  17.410  0.4481 -0.6610  0.0736
 3800SOL    HW122862   4.147   2.740  17.491  4.2585  0.3062  1.9353
 3800SOL    HW222863   4.113   2.686  17.367  0.7306 -3.3299  1.3800
 3801SOL     OW22864   3.118   1.282   7.148  0.1298  0.2421 -0.1805
 3801SOL    HW122865   3.118   1.190   7.121 -0.3373 -0.0964  0.9671
 3801SOL    HW222866   3.172   1.270   7.226  1.6842  0.2733 -1.2603
 3802SOL     OW22867   4.177   0.131   4.225  0.1009 -0.0961 -0.0404
 3802SOL    HW122868   4.127   0.085   4.293  1.8224 -2.2171 -0.2218
 3802SOL    HW222869   4.183   0.058   4.163 -1.5793  0.5459 -0.9505
 3803SOL     OW22870   0.092   2.847  14.759  0.5430 -0.3507  0.5012
 3803SOL    HW122871   0.098   2.849  14.855 -0.7683 -0.2813  0.5708
 3803SOL    HW222872   0.127   2.930  14.728  0.8008 -1.1764 -1.4308
 3804SOL     OW22873   0.537   0.146   7.339  0.0072 -0.7377 -0.2781
 3804SOL    HW122874   0.503   0.108   7.420  2.4540 -1.6454  0.3345
 3804SOL    HW222875   0.508   0.075   7.282 -0.9778 -1.3876  1.0103
 3805SOL     OW22876   4.052   2.082   2.339 -0.2005 -0.1644  0.1474
 3805SOL    HW122877   4.005   2.004   2.311  0.6439 -0.5458 -0.1973
 3805SOL    HW222878   4.066   2.064   2.432 -1.6922 -2.4251 -0.0674
 3806SOL     OW22879   3.572   0.332  11.763 -0.1096  0.1424  0.2859
 3806SOL    HW122880   3.525   0.248  11.766  0.7511 -0.3971 -0.8548
 3806SOL    HW222881   3.535   0.379  11.837 -1.2384  1.3320 -1.0283
 3807SOL     OW22882   1.067   1.266   0.398  0.2040  0.1120 -0.0809
 3807SOL    HW122883   1.015   1.218   0.463 -0.4921  1.3581  0.2848
 3807SOL    HW222884   1.057   1.351   0.442  1.5516  0.6081 -0.7458
 3808SOL     OW22885   2.705   2.058   5.986  0.1797  0.2774  0.6789
 3808SOL    HW122886   2.694   1.963   5.995 -1.5208  0.5442  1.4133
 3808SOL    HW222887   2.799   2.075   5.990  0.4526 -0.8325 -1.1434
 3809SOL     OW22888   4.434   2.112  14.499  0.0059 -0.6654 -0.5599
 3809SOL    HW122889   4.507   2.099  14.558  0.5267  3.0113 -0.3535
 3809SOL    HW222890   4.474   2.136  14.415  0.3793  1.8507  0.3321
 3810SOL     OW22891   1.053   1.747   7.565 -0.1664 -0.1725  0.5568
 3810SOL    HW122892   1.020   1.833   7.539  2.5269  0.4606 -0.8339
 3810SOL    HW222893   1.009   1.678   7.515 -0.8737  3.0060 -3.1801
 3811SOL     OW22894   4.433   2.731  12.263 -0.6045  0.6620 -0.5447
 3811SOL    HW122895   4.343   2.754  12.286 -0.7575  0.1360 -0.6183
 3811SOL    HW222896   4.482   2.741  12.345 -1.0491 -0.3205 -0.1575
 3812SOL     OW22897   1.479   2.302   7.523 -0.2499 -0.2216 -0.0674
 3812SOL    HW122898   1.487   2.231   7.458 -0.5759 -0.6000  0.3058
 3812SOL    HW222899   1.547   2.280   7.587  1.4751  2.2333 -1.0645
 3813SOL     OW22900   3.791   0.758   2.159 -0.3058 -0.4404 -0.0064
 3813SOL    HW122901   3.802   0.849   2.132  0.9007 -0.1699  1.4149
 3813SOL    HW222902   3.767   0.783   2.248  1.4832 -2.2941  1.0036
 3814SOL     OW22903   3.104   0.884   1.527 -0.2376 -0.1305 -0.0071
 3814SOL    HW122904   3.190   0.842   1.534  0.6353  1.5551 -0.4920
 3814SOL    HW222905   3.039   0.817   1.546  1.5984 -2.2046 -0.9904
 3815SOL     OW22906   0.114   1.676   5.477  0.2013 -0.1364  0.1630
 3815SOL    HW122907   0.158   1.621   5.542 -1.7224 -1.3309  0.4460
 3815SOL    HW222908   0.024   1.647   5.486  0.2641 -0.2219  0.5351
 3816SOL     OW22909   0.650   0.262   4.542  0.0187 -0.0877  0.2968
 3816SOL    HW122910   0.556   0.279   4.536 -0.1572 -2.3714 -3.4657
 3816SOL    HW222911   0.687   0.346   4.566 -0.9757 -0.0707  1.7736
 3817SOL     OW22912   2.450   1.579  12.434  0.1782  0.2776  0.0154
 3817SOL    HW122913   2.398   1.631  12.374  1.1914 -0.5386 -1.5728
 3817SOL    HW222914   2.492   1.639  12.496 -0.3259 -0.1970  0.8108
 3818SOL     OW22915   3.367   0.001   7.486  0.1420 -0.3784  0.0923
 3818SOL    HW122916   3.362   0.096   7.471 -0.4286 -0.4728 -0.3430
 3818SOL    HW222917   3.321   4.693   7.409  0.0324 -0.3070  0.1258
 3819SOL     OW22918   0.398   1.292  16.925  0.0377  0.1050  0.1547
 3819SOL    HW122919   0.475   1.347  16.939 -0.8416  1.1975  0.7002
 3819SOL    HW222920   0.333   1.362  16.920  0.1420  0.2300  0.5635
 3820SOL     OW22921   4.264   1.943   5.388 -0.2754  0.1013  0.3621
 3820SOL    HW122922   4.235   1.853   5.369 -1.0955  0.5317 -0.4577
 3820SOL    HW222923   4.355   1.946   5.358 -0.0695 -0.8363  0.8869
 3821SOL     OW22924   2.560   4.079   3.385 -0.2245 -0.8639  0.6396
 3821SOL    HW122925   2.643   4.121   3.361 -0.5965  0.3706  1.5228
 3821SOL    HW222926   2.549   4.020   3.311  3.0863 -1.6480  0.7428
 3822SOL     OW22927   2.471   0.065   9.337 -0.4513  0.1805 -0.1923
 3822SOL    HW122928   2.530   0.019   9.397  0.5978  0.8258 -0.7358
 3822SOL    HW222929   2.527   0.127   9.291  0.3515  0.5785  1.3091
 3823SOL     OW22930   3.165   0.496   1.498 -0.9549 -0.5357 -0.3050
 3823SOL    HW122931   3.243   0.488   1.443 -0.2833 -0.9670  0.7006
 3823SOL    HW222932   3.102   0.556   1.459 -2.2980 -4.0680 -3.5994
 3824SOL     OW22933   2.978   4.076   3.591  0.5826 -0.1464  0.3971
 3824SOL    HW122934   2.939   4.001   3.635  2.5365 -1.1218  0.4594
 3824SOL    HW222935   2.930   4.079   3.508  4.4971  1.5447 -1.7540
 3825SOL     OW22936   4.426   3.091   6.812  0.6700 -0.1248 -0.8246
 3825SOL    HW122937   4.337   3.122   6.796  0.4476 -1.1666 -1.6213
 3825SOL    HW222938   4.430   3.144   6.892 -2.1216 -0.0318 -0.7556
 3826SOL     OW22939   1.579   3.470   0.188  0.4887 -0.2003  0.2646
 3826SOL    HW122940   1.565   3.381   0.156 -4.4626  0.6946 -0.0548
 3826SOL    HW222941   1.674   3.473   0.193  0.4598  0.3152  0.4952
 3827SOL     OW22942   2.465   2.473   9.021 -0.1216  0.2582  0.0112
 3827SOL    HW122943   2.389   2.497   9.074 -0.0974 -3.1664  1.6583
 3827SOL    HW222944   2.429   2.406   8.963 -0.2296  2.1967 -2.1273
 3828SOL     OW22945   3.477   2.487  17.325  0.7818 -0.1806  0.4419
 3828SOL    HW122946   3.572   2.502  17.324  1.0991 -2.1495  0.7530
 3828SOL    HW222947   3.475   2.406  17.274  1.6879  1.8043 -2.7399
 3829SOL     OW22948   2.323   3.598   8.881  0.0372 -0.2274 -0.2345
 3829SOL    HW122949   2.236   3.619   8.848  0.9058  2.2182 -0.9372
 3829SOL    HW222950   2.375   3.672   8.851  2.5749 -1.4858  1.0105
 3830SOL     OW22951   3.396   3.496   4.991 -0.0145 -0.7314 -0.4297
 3830SOL    HW122952   3.471   3.552   5.010 -1.9945  1.7785 -0.1098
 3830SOL    HW222953   3.323   3.530   5.042 -0.4313 -0.2753 -1.3325
 3831SOL     OW22954   1.399   2.346   3.636 -0.1980  0.1463  0.4990
 3831SOL    HW122955   1.361   2.428   3.604 -0.8758 -0.9507 -1.5276
 3831SOL    HW222956   1.336   2.283   3.600 -0.4119  0.2792  0.6356
 3832SOL     OW22957   0.098   2.437   5.619 -0.0153  0.0956 -0.0226
 3832SOL    HW122958   0.176   2.385   5.639 -1.3494 -3.3457 -3.8152
 3832SOL    HW222959   0.136   2.504   5.562  2.8963 -0.1519  1.6397
 3833SOL     OW22960   0.344   2.012   4.818 -0.5379  0.5650  0.0162
 3833SOL    HW122961   0.313   2.046   4.734 -0.9902  0.2987  0.0747
 3833SOL    HW222962   0.412   2.076   4.841  0.1997 -0.2701  0.1794
 3834SOL     OW22963   1.088   1.510   5.313  0.9369 -0.1658  0.1687
 3834SOL    HW122964   1.109   1.422   5.281 -0.6985 -0.8134  0.9048
 3834SOL    HW222965   1.008   1.510   5.365  2.4103  0.5906  2.4601
 3835SOL     OW22966   4.004   4.551   5.986 -0.6620  0.1050 -0.0171
 3835SOL    HW122967   4.028   4.458   5.986 -0.9835  0.0146 -1.2437
 3835SOL    HW222968   4.003   4.563   6.081 -0.5059 -0.8458  0.1086
 3836SOL     OW22969   0.460   1.028   4.107  0.0879  0.3901 -0.8148
 3836SOL    HW122970   0.491   0.961   4.168  0.2640  1.0962 -0.1326
 3836SOL    HW222971   0.473   1.109   4.155  1.7527 -0.1595 -0.3592
 3837SOL     OW22972   2.555   3.869   6.302 -0.1681 -0.0279 -0.2495
 3837SOL    HW122973   2.518   3.795   6.350  2.9772 -2.3887 -1.4670
 3837SOL    HW222974   2.476   3.922   6.306 -0.2674 -0.1043 -1.1353
 3838SOL     OW22975   1.212   3.801  13.830 -0.4392  0.0183 -0.4215
 3838SOL    HW122976   1.201   3.857  13.906 -1.9798  0.9017 -1.2811
 3838SOL    HW222977   1.250   3.862  13.766  0.2182 -0.3132 -0.3496
 3839SOL     OW22978   2.538   0.081  13.433 -0.0633 -0.3485 -0.6938
 3839SOL    HW122979   2.529   0.123  13.518  0.9940 -2.7945  0.6522
 3839SOL    HW222980   2.539   4.715  13.460  0.1513 -1.2843 -3.9296
 3840SOL     OW22981   0.198   2.608   5.412  0.0596  0.5856  0.0459
 3840SOL    HW122982   0.113   2.621   5.369  0.2860 -0.4821 -0.7190
 3840SOL    HW222983   0.225   2.546   5.344  0.1149 -1.0974  1.6081
 3841SOL     OW22984   3.009   3.311   7.996  0.1414 -0.1714  0.0502
 3841SOL    HW122985   3.044   3.394   8.029 -1.4431  0.5140  0.0040
 3841SOL    HW222986   3.079   3.247   8.004  0.5262  0.7425  3.7907
 3842SOL     OW22987   0.453   1.592   6.761  0.1657 -0.2069 -0.0908
 3842SOL    HW122988   0.378   1.608   6.703  1.7008  0.0039 -2.0308
 3842SOL    HW222989   0.503   1.674   6.752 -0.0094 -0.0187  0.6729
 3843SOL     OW22990   3.211   1.091   0.318  0.0371  0.4081  0.4156
 3843SOL    HW122991   3.118   1.113   0.316  0.4296  2.0795  0.9327
 3843SOL    HW222992   3.219   1.086   0.413  2.1140  2.7432  0.3523
 3844SOL     OW22993   2.901   4.669   6.165  0.0063 -0.4075  0.5965
 3844SOL    HW122994   2.828   4.704   6.113  0.3821 -1.8610 -0.8920
 3844SOL    HW222995   2.854   4.669   6.249  0.3945 -0.1848  0.8161
 3845SOL     OW22996   2.463   0.917   6.162  0.1149  0.0214  0.0931
 3845SOL    HW122997   2.539   0.952   6.116 -0.0560 -2.0869 -1.7669
 3845SOL    HW222998   2.433   0.862   6.090  0.4822 -1.3841  1.0083
 3846SOL     OW22999   0.558   0.290   3.118  0.5796  0.4147 -0.2085
 3846SOL    HW123000   0.606   0.331   3.046  0.0874  0.2425 -0.6332
 3846SOL    HW223001   0.494   0.240   3.067 -1.3669  0.8166  1.8196
 3847SOL     OW23002   0.415   4.492   8.802  0.3528 -0.8663 -0.4738
 3847SOL    HW123003   0.350   4.535   8.747  1.3206  1.9646  0.6231
 3847SOL    HW223004   0.482   4.550   8.767 -2.3426  2.6676  0.3187
 3848SOL     OW23005   3.591   2.558   5.533 -0.3373 -0.0561 -0.4994
 3848SOL    HW123006   3.588   2.570   5.439 -2.0662 -0.3044 -0.4731
 3848SOL    HW223007   3.673   2.512   5.553  0.1164  0.8530 -0.2815
 3849SOL     OW23008   1.128   0.727   7.069  0.1848 -0.3880  0.0199
 3849SOL    HW123009   1.080   0.737   7.151 -0.1462 -2.5189  0.0653
 3849SOL    HW223010   1.056   0.764   7.018 -0.2836  0.3254  1.2012
 3850SOL     OW23011   3.590   4.024   2.461  0.0011  0.2709  0.2720
 3850SOL    HW123012   3.684   4.036   2.447 -0.3530  2.1563 -0.5349
 3850SOL    HW223013   3.559   4.103   2.506 -1.4957  1.0729 -2.1418
 3851SOL     OW23014   3.359   4.282   3.511  0.6399  0.0926  0.0736
 3851SOL    HW123015   3.432   4.334   3.543  0.9228 -1.2955  1.6604
 3851SOL    HW223016   3.385   4.189   3.511  0.4428  0.0451  1.0420
 3852SOL     OW23017   1.676   3.363   4.540 -0.2007 -0.0882 -0.4852
 3852SOL    HW123018   1.687   3.396   4.629 -0.3069 -0.8058 -0.2081
 3852SOL    HW223019   1.695   3.270   4.554  2.9004  0.5288 -0.8059
 3853SOL     OW23020   2.805   2.046   7.528  0.1684  0.0271  0.1445
 3853SOL    HW123021   2.829   2.033   7.620 -0.0674 -1.1368  0.0390
 3853SOL    HW223022   2.826   2.139   7.521 -1.3531  0.4856  1.7479
 3854SOL     OW23023   3.491   4.076  17.616 -0.1680 -0.3711 -0.0996
 3854SOL    HW123024   3.482   4.118  17.701 -2.0134 -1.4019  0.2081
 3854SOL    HW223025   3.533   4.145  17.564 -2.0996  1.0193  0.2067
 3855SOL     OW23026   1.660   3.898  14.144  0.5581 -0.3332  0.0028
 3855SOL    HW123027   1.678   3.947  14.224  2.5691 -0.3755 -0.4279
 3855SOL    HW223028   1.735   3.911  14.085  0.4681  0.0798 -0.0151
 3856SOL     OW23029   0.099   4.223  15.728 -0.0288  0.1917 -0.3318
 3856SOL    HW123030   0.051   4.203  15.648  2.2561  1.1056 -1.9130
 3856SOL    HW223031   0.066   4.313  15.728  1.0062  0.5653 -1.7429
 3857SOL     OW23032   1.621   1.275   5.799  0.1024  0.2071  0.2643
 3857SOL    HW123033   1.659   1.264   5.886  4.1908 -0.8839 -1.6847
 3857SOL    HW223034   1.703   1.259   5.754  0.4096  3.2092 -0.2755
 3858SOL     OW23035   1.362   0.303  11.984  0.7128 -0.1850 -0.1119
 3858SOL    HW123036   1.303   0.345  11.921 -0.2133 -1.3504 -0.0152
 3858SOL    HW223037   1.305   0.234  12.020  0.3885 -0.8971 -2.0259
 3859SOL     OW23038   0.514   0.805  13.036  0.5242  0.0216 -1.0031
 3859SOL    HW123039   0.474   0.791  12.950  0.6344  1.3641 -1.2717
 3859SOL    HW223040   0.600   0.837  13.008  0.6394  0.0408 -0.6298
 3860SOL     OW23041   1.689   2.920   2.981 -0.7438 -0.0980  0.0605
 3860SOL    HW123042   1.667   2.979   2.909  3.5102 -0.1340 -1.2888
 3860SOL    HW223043   1.756   2.869   2.935 -0.1563 -0.3923  1.2407
 3861SOL     OW23044   3.189   3.750  14.615  0.2446 -0.0959  0.2255
 3861SOL    HW123045   3.206   3.844  14.625 -1.5460  0.1466  1.0111
 3861SOL    HW223046   3.095   3.747  14.600  0.0421  0.1238  1.4345
 3862SOL     OW23047   0.762   0.492  12.532  0.5657  0.0641  0.0135
 3862SOL    HW123048   0.777   0.402  12.501  1.5831  1.9413 -4.8643
 3862SOL    HW223049   0.744   0.476  12.624 -1.0020  0.0039 -0.3004
 3863SOL     OW23050   1.710   1.082   7.660  0.1999 -0.0955 -0.1193
 3863SOL    HW123051   1.786   1.031   7.633 -0.4439 -1.1379 -0.0089
 3863SOL    HW223052   1.737   1.118   7.745 -1.5214  0.3071  0.2565
 3864SOL     OW23053   3.782   0.129  13.921  0.4030  0.0403 -0.4092
 3864SOL    HW123054   3.843   0.195  13.887  1.6190  0.1213  1.9798
 3864SOL    HW223055   3.715   0.190  13.952 -1.6356 -1.9303 -0.9592
 3865SOL     OW23056   4.057   3.711  10.525  0.6687  0.0040 -0.0347
 3865SOL    HW123057   4.096   3.628  10.552  0.2578  0.2718  1.3970
 3865SOL    HW223058   3.988   3.702  10.590 -0.6969 -1.0991 -1.6287
 3866SOL     OW23059   2.145   3.180  16.289 -1.0895  0.2741 -0.6266
 3866SOL    HW123060   2.173   3.271  16.289 -1.3874  0.3683  0.4745
 3866SOL    HW223061   2.189   3.145  16.212 -0.3742 -0.7343  0.2280
 3867SOL     OW23062   2.886   0.266   3.400  0.3134 -0.0442 -0.3980
 3867SOL    HW123063   2.840   0.347   3.380  1.0368  0.3075 -0.6270
 3867SOL    HW223064   2.809   0.220   3.435 -0.6819  1.8779 -0.0918
 3868SOL     OW23065   2.217   4.656   8.565  0.1404  0.3051  0.1260
 3868SOL    HW123066   2.225   4.686   8.655 -1.4221  0.0803  0.3455
 3868SOL    HW223067   2.281   4.715   8.526  2.3587 -1.9915  0.2393
 3869SOL     OW23068   3.414   2.639  11.031  0.5878 -0.3262  0.1719
 3869SOL    HW123069   3.361   2.656  11.108 -1.5445 -2.3007 -0.8479
 3869SOL    HW223070   3.335   2.629  10.977  2.0965 -2.6180 -1.6616
 3870SOL     OW23071   4.617   1.701   2.782  0.3867  0.0090 -0.1024
 3870SOL    HW123072   4.588   1.629   2.726 -2.5430  1.2867 -0.1949
 3870SOL    HW223073   4.529   1.726   2.808 -0.5682 -3.2747 -0.1734
 3871SOL     OW23074   4.706   2.369   4.055  0.4498  0.5173  0.5874
 3871SOL    HW123075   4.654   2.327   4.124  1.1008  0.5467  1.1053
 3871SOL    HW223076   4.650   2.356   3.979  0.8500  1.2927  0.1509
 3872SOL     OW23077   1.729   3.917  13.801 -0.1541  0.3532  0.4957
 3872SOL    HW123078   1.743   3.890  13.710  1.6140  3.1993 -0.0806
 3872SOL    HW223079   1.702   4.008  13.787 -1.0423  0.0865  0.5142
 3873SOL     OW23080   2.632   0.250   0.448  0.0668  0.2340  0.0887
 3873SOL    HW123081   2.575   0.173   0.449 -0.4109  0.5872 -0.1416
 3873SOL    HW223082   2.716   0.213   0.477  1.0381  0.9607 -1.7418
 3874SOL     OW23083   1.508   3.175   5.897  0.0725  0.0130 -0.3977
 3874SOL    HW123084   1.547   3.258   5.869  0.2002 -0.3949 -1.4153
 3874SOL    HW223085   1.553   3.112   5.841  0.5876 -2.3567  2.6699
 3875SOL     OW23086   3.579   3.434  12.265 -0.4050  1.0942 -0.3381
 3875SOL    HW123087   3.527   3.515  12.272 -1.0899  0.3971  2.6563
 3875SOL    HW223088   3.539   3.399  12.185  0.6844  1.3858 -1.0050
 3876SOL     OW23089   2.102   2.729   2.392 -0.3220 -0.5127  0.1485
 3876SOL    HW123090   2.046   2.652   2.389 -0.2619 -0.5844  1.0204
 3876SOL    HW223091   2.039   2.798   2.369  0.3014 -0.1069 -0.3348
 3877SOL     OW23092   4.408   4.533   3.438 -0.2457  0.0307  0.0843
 3877SOL    HW123093   4.404   4.626   3.416 -1.3866 -0.0186  0.0780
 3877SOL    HW223094   4.339   4.529   3.505 -0.8701  0.5431 -0.5327
 3878SOL     OW23095   1.456   4.715   4.913 -0.3176  0.4269 -0.4210
 3878SOL    HW123096   1.421   0.050   4.977 -1.8520 -2.3225  1.4171
 3878SOL    HW223097   1.477   0.041   4.836 -1.5531 -0.3415 -1.2953
 3879SOL     OW23098   3.208   1.949   6.049  0.4841 -0.2058 -0.1506
 3879SOL    HW123099   3.131   1.990   6.089  1.3805  2.1544 -0.7934
 3879SOL    HW223100   3.178   1.862   6.025 -1.7027  0.6581 -0.5978
 3880SOL     OW23101   1.266   3.518   6.027  0.2073 -0.0683 -0.3862
 3880SOL    HW123102   1.267   3.538   5.933  1.8472 -1.3713 -0.6474
 3880SOL    HW223103   1.355   3.547   6.047 -1.0520  3.2805  0.4140
 3881SOL     OW23104   3.664   2.421   4.274 -0.4906 -0.3114  0.1162
 3881SOL    HW123105   3.612   2.347   4.241  1.8298 -2.0926  0.5185
 3881SOL    HW223106   3.750   2.409   4.235  0.1377  0.2592  1.3182
 3882SOL     OW23107   4.611   0.511   6.589 -0.1864  0.7409 -0.0118
 3882SOL    HW123108   4.672   0.437   6.594 -1.5142 -0.2338  2.0183
 3882SOL    HW223109   4.652   0.568   6.525  1.1447 -0.7275 -0.4862
 3883SOL     OW23110   1.311   3.525  10.993 -0.5310 -0.0253 -0.1849
 3883SOL    HW123111   1.403   3.502  10.981 -0.6529 -0.5826 -0.0454
 3883SOL    HW223112   1.271   3.442  10.970  0.4752 -0.7645  0.6910
 3884SOL     OW23113   1.649   3.706  16.661  0.2602 -0.9661 -0.0128
 3884SOL    HW123114   1.556   3.720  16.681  0.3859 -0.6051  0.3278
 3884SOL    HW223115   1.639   3.753  16.578 -0.3280 -2.7626 -0.9515
 3885SOL     OW23116   0.714   4.126  11.809  0.1228 -0.1525  0.2601
 3885SOL    HW123117   0.728   4.034  11.786  1.8366  0.1083  0.2476
 3885SOL    HW223118   0.805   4.153  11.796 -0.1519  0.8678  0.4969
 3886SOL     OW23119   1.170   3.576   7.547  0.0785 -0.2365 -0.0091
 3886SOL    HW123120   1.260   3.542   7.548  0.1817  0.0034 -2.0870
 3886SOL    HW223121   1.160   3.607   7.457  3.2892 -0.8463 -0.5853
 3887SOL     OW23122   0.097   1.771   4.382  0.1130 -0.5109  0.2865
 3887SOL    HW123123   0.073   1.717   4.306 -1.5007  1.7946 -0.8422
 3887SOL    HW223124   0.182   1.798   4.348 -0.2194  0.9482  0.5944
 3888SOL     OW23125   0.377   0.980   8.878 -0.0354 -0.0837  0.1244
 3888SOL    HW123126   0.373   0.983   8.782 -2.4852 -0.5460  0.2272
 3888SOL    HW223127   0.468   0.999   8.900  0.7989 -2.2180 -1.3863
 3889SOL     OW23128   4.717   2.425   7.816  0.2657 -0.3384  0.4794
 3889SOL    HW123129   0.047   2.498   7.841 -2.4415  1.8347  0.2897
 3889SOL    HW223130   4.639   2.476   7.796  0.2056 -1.0408 -1.0820
 3890SOL     OW23131   0.303   4.049  11.801 -0.3958 -0.3261  0.4952
 3890SOL    HW123132   0.352   3.973  11.767  3.2477  2.5393 -0.6417
 3890SOL    HW223133   0.356   4.062  11.880  1.2230  1.8081 -0.9376
 3891SOL     OW23134   2.388   2.266   4.468 -0.3313 -0.5521  0.4845
 3891SOL    HW123135   2.453   2.318   4.514 -1.8080  0.3008  1.6266
 3891SOL    HW223136   2.344   2.209   4.531 -2.8399  0.2661 -0.5195
 3892SOL     OW23137   2.735   3.955   3.908 -0.2627  0.2465 -0.4816
 3892SOL    HW123138   2.657   3.973   3.856  0.7687  1.5129 -1.5956
 3892SOL    HW223139   2.771   3.881   3.859  1.7851  0.9885 -0.0891
 3893SOL     OW23140   0.984   3.872   6.361 -0.2820 -0.8853  0.3289
 3893SOL    HW123141   1.013   3.812   6.292 -2.1371  0.8089 -1.9096
 3893SOL    HW223142   1.002   3.818   6.438  0.7417 -1.6327 -0.4339
 3894SOL     OW23143   3.306   3.406   8.138  0.1246 -0.2437 -0.2061
 3894SOL    HW123144   3.264   3.386   8.221  0.5506  2.4380  0.6660
 3894SOL    HW223145   3.331   3.496   8.159 -0.0072 -0.6102  1.4788
 3895SOL     OW23146   4.227   3.384  15.153  0.2966 -0.9041 -1.0923
 3895SOL    HW123147   4.279   3.429  15.087 -2.3421  0.0888 -2.4880
 3895SOL    HW223148   4.204   3.454  15.214 -0.0739 -1.4174 -0.6454
 3896SOL     OW23149   3.821   2.810   2.041 -0.0254 -0.2700  0.4256
 3896SOL    HW123150   3.857   2.721   2.041  0.4365 -0.0806 -0.1157
 3896SOL    HW223151   3.810   2.826   1.947 -1.6898  1.7547  0.9730
 3897SOL     OW23152   4.292   2.765   1.495 -0.3044 -0.1138 -0.8517
 3897SOL    HW123153   4.316   2.760   1.403 -0.6183  0.8431 -0.9830
 3897SOL    HW223154   4.375   2.761   1.541  0.3287 -3.0571 -2.2404
 3898SOL     OW23155   2.824   2.348   3.988  0.2222 -0.1530 -0.4585
 3898SOL    HW123156   2.811   2.273   4.047  0.2733  1.2743  1.3868
 3898SOL    HW223157   2.838   2.419   4.051 -0.2585 -0.9926  0.6150
 3899SOL     OW23158   1.132   1.066   8.613  0.5557  0.0466 -0.2964
 3899SOL    HW123159   1.126   0.988   8.558  0.3048  0.2435 -0.5515
 3899SOL    HW223160   1.099   1.022   8.691  2.6232  1.8378  1.5433
 3900SOL     OW23161   3.401   1.549  11.323  0.1431  0.1289 -0.0547
 3900SOL    HW123162   3.425   1.460  11.296 -0.0510  1.1930 -3.7790
 3900SOL    HW223163   3.477   1.576  11.374  1.5041 -1.4477 -1.2674
 3901SOL     OW23164   1.221   2.566   6.466 -0.5301  0.0048 -0.0274
 3901SOL    HW123165   1.153   2.630   6.447  0.9091  1.6631  0.4035
 3901SOL    HW223166   1.295   2.620   6.437 -0.3397  0.7325  1.8206
 3902SOL     OW23167   1.743   3.058   8.222 -0.1735 -0.1403 -0.5542
 3902SOL    HW123168   1.794   3.117   8.166 -0.5032  0.3645 -0.3220
 3902SOL    HW223169   1.664   3.044   8.170 -1.3070  2.6020  0.4569
 3903SOL     OW23170   2.688   1.413   9.216  0.7894  0.4265  0.3988
 3903SOL    HW123171   2.708   1.383   9.305 -2.8301 -0.7809  0.8132
 3903SOL    HW223172   2.679   1.329   9.171  1.3883 -0.3937  1.7847
 3904SOL     OW23173   0.268   0.475  11.977 -0.0310 -0.3967  0.5988
 3904SOL    HW123174   0.319   0.553  11.955 -0.3981 -0.5917 -0.9273
 3904SOL    HW223175   0.307   0.421  11.909  2.4746  2.2100 -0.0390
 3905SOL     OW23176   1.362   4.138  13.399  0.4732 -0.6574 -0.8162
 3905SOL    HW123177   1.345   4.223  13.357  4.4039  1.4399  1.8639
 3905SOL    HW223178   1.280   4.090  13.386 -0.5257  0.9298 -0.3896
 3906SOL     OW23179   1.893   3.907   1.355  0.0373  0.2999 -0.4558
 3906SOL    HW123180   1.910   3.961   1.432  0.4925 -1.4754  0.6865
 3906SOL    HW223181   1.838   3.961   1.298  1.9422  1.5039 -1.1436
 3907SOL     OW23182   4.275   1.090   3.603 -0.1619  0.0257  0.1477
 3907SOL    HW123183   4.268   1.172   3.554  0.6373 -1.7507 -2.9967
 3907SOL    HW223184   4.309   1.037   3.531  2.2347 -0.1336  1.3941
 3908SOL     OW23185   2.510   2.779   4.045 -0.2655 -0.0693 -0.3500
 3908SOL    HW123186   2.441   2.835   4.081 -0.4318  0.1380 -0.9847
 3908SOL    HW223187   2.466   2.696   4.062  0.0772 -0.0698  0.5591
 3909SOL     OW23188   2.032   1.415   8.738  0.1732  0.6119 -0.8028
 3909SOL    HW123189   2.076   1.476   8.796 -0.5785  1.2939 -0.9583
 3909SOL    HW223190   2.089   1.422   8.662  0.6295  0.4598 -0.4724
 3910SOL     OW23191   1.221   3.721   8.251  0.2863 -0.5912  0.3260
 3910SOL    HW123192   1.253   3.641   8.292  0.1044 -0.1754  1.2690
 3910SOL    HW223193   1.127   3.706   8.252  0.5435 -2.2202 -0.4559
 3911SOL     OW23194   1.349   2.834  11.809  0.1755 -0.0374 -0.5200
 3911SOL    HW123195   1.314   2.875  11.730 -4.8511  2.7249  3.0784
 3911SOL    HW223196   1.397   2.759  11.773  0.2499 -0.0176 -0.4604
 3912SOL     OW23197   3.042   2.716   5.846 -0.2126  0.2209  0.1806
 3912SOL    HW123198   3.031   2.685   5.936 -1.0902  0.5473  0.1831
 3912SOL    HW223199   3.128   2.758   5.850  0.6934 -1.4608 -1.6365
 3913SOL     OW23200   3.525   3.917  17.346  0.0001  0.7407 -0.4026
 3913SOL    HW123201   3.517   3.993  17.403 -1.9306  0.7670 -0.6993
 3913SOL    HW223202   3.575   3.959  17.277  2.8681 -0.8612  0.7249
 3914SOL     OW23203   3.294   0.232   0.912  0.4141 -0.4454 -0.2201
 3914SOL    HW123204   3.349   0.305   0.940  0.4430 -0.7916  0.5961
 3914SOL    HW223205   3.271   0.257   0.822 -1.7932  2.5359  1.1664
 3915SOL     OW23206   0.005   0.246   2.807  0.2738 -0.0565 -0.2491
 3915SOL    HW123207   0.014   0.258   2.902 -0.3831 -2.6191  0.1156
 3915SOL    HW223208   4.691   0.160   2.800 -2.4692  1.2316 -0.2407
 3916SOL     OW23209   0.554   2.497  12.897  0.1012  0.2516  0.3316
 3916SOL    HW123210   0.511   2.438  12.958 -0.6617  0.8299  0.3609
 3916SOL    HW223211   0.539   2.447  12.817  0.8717  2.8888 -1.4673
 3917SOL     OW23212   0.613   4.410  10.326  0.0898 -0.0072 -0.3979
 3917SOL    HW123213   0.596   4.426  10.233  0.1820 -0.8474 -0.5580
 3917SOL    HW223214   0.545   4.345  10.346 -0.2554  0.7003  0.7184
 3918SOL     OW23215   1.730   0.819   5.204 -0.3693 -0.4653  0.0839
 3918SOL    HW123216   1.711   0.888   5.268 -2.4261  0.3524 -1.4246
 3918SOL    HW223217   1.653   0.767   5.224 -0.6643 -0.6762 -1.6748
 3919SOL     OW23218   3.270   4.250   7.157  0.1601 -0.0134 -0.0381
 3919SOL    HW123219   3.203   4.188   7.127  0.6088 -0.5416  0.0465
 3919SOL    HW223220   3.306   4.201   7.231 -1.3270 -0.9914  0.0326
 3920SOL     OW23221   4.327   3.833   8.657 -0.3560 -0.7541 -0.1838
 3920SOL    HW123222   4.255   3.778   8.625 -2.1228  1.2296  0.3859
 3920SOL    HW223223   4.391   3.762   8.655 -2.0603 -2.3944  2.8073
 3921SOL     OW23224   0.986   0.348   6.481  0.3692 -0.5994 -0.1018
 3921SOL    HW123225   0.969   0.254   6.478 -1.0275 -0.3848  0.8539
 3921SOL    HW223226   0.913   0.395   6.439 -0.7798 -1.6206  0.7701
 3922SOL     OW23227   3.538   2.593   6.417  0.0590  0.0489 -0.6793
 3922SOL    HW123228   3.446   2.576   6.439  0.5174  0.0461  1.2610
 3922SOL    HW223229   3.518   2.658   6.350 -1.5443 -0.3115 -0.5527
 3923SOL     OW23230   2.736   0.570   7.254 -0.0076  0.5056 -0.3362
 3923SOL    HW123231   2.677   0.645   7.252 -1.6027 -0.7421  0.4218
 3923SOL    HW223232   2.765   0.564   7.346  1.3834 -1.5378 -0.9038
 3924SOL     OW23233   3.906   3.288  11.323 -0.5606  0.5908 -0.7925
 3924SOL    HW123234   3.986   3.313  11.369 -2.4301  0.2712  2.6096
 3924SOL    HW223235   3.835   3.346  11.350 -0.2054  0.8737 -0.4758
 3925SOL     OW23236   4.337   2.689   8.850  0.1894  0.3631 -0.1243
 3925SOL    HW123237   4.401   2.760   8.841 -0.5358  1.1156  0.6388
 3925SOL    HW223238   4.408   2.627   8.832 -0.5056 -0.8841  1.4405
 3926SOL     OW23239   1.490   3.394   5.602  0.1028  0.5328  0.3053
 3926SOL    HW123240   1.473   3.307   5.568  2.1080  0.8989 -1.6053
 3926SOL    HW223241   1.410   3.398   5.655  0.2953  0.1898  0.6203
 3927SOL     OW23242   0.387   4.303   8.409 -0.4688 -0.2263 -0.3695
 3927SOL    HW123243   0.348   4.232   8.357  2.3031 -0.4912 -2.0531
 3927SOL    HW223244   0.309   4.357   8.422  1.7311  2.4611  1.5018
 3928SOL     OW23245   3.589   0.170   2.050  0.1770 -0.1595  0.6232
 3928SOL    HW123246   3.638   0.209   1.978 -2.9882  0.4174 -1.2098
 3928SOL    HW223247   3.658   0.157   2.115  1.0758  0.7786 -0.1537
 3929SOL     OW23248   2.396   1.690   8.350 -0.3262 -0.2458 -0.1502
 3929SOL    HW123249   2.336   1.762   8.368 -1.3375 -1.2725  0.5737
 3929SOL    HW223250   2.462   1.725   8.291 -1.0665 -0.6671 -1.2211
 3930SOL     OW23251   4.290   2.676   5.796 -0.5863  0.0657 -0.0926
 3930SOL    HW123252   4.338   2.593   5.795 -1.2836 -0.3434  0.6288
 3930SOL    HW223253   4.360   2.728   5.756  0.3811 -2.0233 -1.0620
 3931SOL     OW23254   1.863   2.780  11.701  0.2671  0.2562 -0.0847
 3931SOL    HW123255   1.817   2.801  11.782  1.1940  2.3876 -0.1052
 3931SOL    HW223256   1.887   2.689  11.719  0.7460  0.3275 -0.3511
 3932SOL     OW23257   2.074   4.361  17.090 -0.0025 -0.1752 -0.6263
 3932SOL    HW123258   2.055   4.268  17.083  3.1514 -0.8862 -0.0189
 3932SOL    HW223259   1.987   4.382  17.123  0.2407 -0.5636  0.2534
 3933SOL     OW23260   3.420   1.305   5.412 -0.7397  0.6716  0.1492
 3933SOL    HW123261   3.485   1.255   5.362 -0.3708  1.0687  0.2315
 3933SOL    HW223262   3.480   1.343   5.476 -0.8295 -1.1473  1.3060
 3934SOL     OW23263   2.506   2.202   3.564 -0.7419 -0.7587 -0.1232
 3934SOL    HW123264   2.428   2.257   3.558 -1.7587 -2.4666 -2.6081
 3934SOL    HW223265   2.571   2.253   3.515 -0.2737  0.4072  1.7006
 3935SOL     OW23266   1.066   0.886   1.059  0.0611  0.4253 -0.0516
 3935SOL    HW123267   1.014   0.828   1.115 -0.7378  0.4611 -0.7534
 3935SOL    HW223268   1.106   0.823   1.000 -1.3890  1.5653 -2.2579
 3936SOL     OW23269   0.829   0.077  16.383 -0.3994  0.3213  0.1017
 3936SOL    HW123270   0.851   4.721  16.341  1.1657  1.1532 -0.7523
 3936SOL    HW223271   0.909   0.125  16.360 -1.2441  0.8175 -1.7835
 3937SOL     OW23272   3.159   4.313   5.440 -0.0203  0.1916 -0.6613
 3937SOL    HW123273   3.191   4.386   5.493 -0.1604  0.2837 -0.7026
 3937SOL    HW223274   3.064   4.328   5.439  0.3152  2.3516  0.8248
 3938SOL     OW23275   2.690   3.213   1.385  0.2501 -0.1274 -0.1303
 3938SOL    HW123276   2.710   3.274   1.456  1.2347 -1.5208  0.7761
 3938SOL    HW223277   2.744   3.250   1.316  1.9915 -0.0107  1.3034
 3939SOL     OW23278   2.317   0.113   2.866 -0.7535 -0.4158 -0.2724
 3939SOL    HW123279   2.302   0.019   2.870 -1.1233 -0.4120 -1.5839
 3939SOL    HW223280   2.400   0.126   2.820 -0.0600 -0.5291  0.9506
 3940SOL     OW23281   3.938   1.844   8.179 -0.0114 -0.5508  0.6945
 3940SOL    HW123282   3.937   1.923   8.125 -0.4159 -1.3939 -0.5286
 3940SOL    HW223283   3.847   1.815   8.186  0.2849 -1.6454 -0.0863
 3941SOL     OW23284   1.179   0.528   1.124 -0.0784 -0.0680  0.1842
 3941SOL    HW123285   1.263   0.510   1.165 -0.8352  0.4251  1.9365
 3941SOL    HW223286   1.146   0.592   1.187 -2.7941 -2.1650  0.8819
 3942SOL     OW23287   4.127   0.314   6.544  0.2962 -0.2203  0.5518
 3942SOL    HW123288   4.123   0.333   6.638 -3.7422  1.1596  0.1254
 3942SOL    HW223289   4.196   0.371   6.510 -1.6517  1.0900 -1.2094
 3943SOL     OW23290   0.320   4.664   8.363 -0.0342  0.0357  0.5485
 3943SOL    HW123291   0.404   4.664   8.410 -0.1150  1.6763  0.6878
 3943SOL    HW223292   0.287   4.575   8.377 -0.7884  0.3617  0.8129
 3944SOL     OW23293   2.221   2.527   9.151  0.3751 -0.1652 -0.2933
 3944SOL    HW123294   2.160   2.455   9.166  1.0943 -0.1445  2.6142
 3944SOL    HW223295   2.234   2.549   9.243  1.2202  0.9915 -0.6883
 3945SOL     OW23296   2.282   3.912   1.857  0.2281  0.0839 -0.0526
 3945SOL    HW123297   2.259   3.883   1.946  0.3683 -1.5943 -0.5701
 3945SOL    HW223298   2.238   3.837   1.818 -2.2431  2.1467 -1.3070
 3946SOL     OW23299   2.863   2.514   5.484 -0.2703 -0.6335 -0.1033
 3946SOL    HW123300   2.876   2.443   5.547 -1.9440 -0.4023  0.5076
 3946SOL    HW223301   2.948   2.557   5.476  0.4461 -2.2110 -0.9365
 3947SOL     OW23302   2.162   1.264   6.608  0.2828  0.3093  0.6318
 3947SOL    HW123303   2.110   1.206   6.663 -0.6336  2.4906  2.0604
 3947SOL    HW223304   2.250   1.241   6.638  0.5053 -0.3687 -0.5232
 3948SOL     OW23305   1.236   1.526   4.719  0.0531  0.5109 -0.0677
 3948SOL    HW123306   1.278   1.519   4.804 -0.5281 -3.3105 -0.0818
 3948SOL    HW223307   1.142   1.540   4.731  0.0302 -2.0140  2.4790
 3949SOL     OW23308   2.585   0.644   2.166 -0.3788  0.3063 -0.1896
 3949SOL    HW123309   2.569   0.667   2.074 -1.0822 -2.1622 -0.6830
 3949SOL    HW223310   2.495   0.657   2.197 -0.0293  0.1262  0.8969
 3950SOL     OW23311   3.077   3.402   3.854 -0.0511 -0.0809  0.2091
 3950SOL    HW123312   3.034   3.339   3.796 -0.3227  0.0822  0.2333
 3950SOL    HW223313   3.162   3.360   3.870  0.0304 -0.3215 -0.8640
 3951SOL     OW23314   1.830   2.571   2.407 -0.1352  0.0979  0.0671
 3951SOL    HW123315   1.830   2.493   2.351 -1.9872  1.2762 -1.5403
 3951SOL    HW223316   1.877   2.530   2.480 -0.5309 -1.1694 -0.3870
 3952SOL     OW23317   2.706   1.599   7.913 -0.2043  0.4475 -0.4566
 3952SOL    HW123318   2.658   1.579   7.993  2.0122  0.4407  0.8805
 3952SOL    HW223319   2.632   1.605   7.852 -0.7628  0.5966  0.2365
 3953SOL     OW23320   1.235   3.401   5.708 -0.4546 -0.1370  0.3826
 3953SOL    HW123321   1.218   3.495   5.713  0.9982 -0.0950  4.2101
 3953SOL    HW223322   1.152   3.371   5.670 -0.9928  0.9202  0.7282
 3954SOL     OW23323   2.666   0.077   3.400  0.2130 -0.1277  0.4567
 3954SOL    HW123324   2.596   0.089   3.335 -1.2549 -0.5307  1.9696
 3954SOL    HW223325   2.604   0.088   3.472 -3.1969  0.8468 -2.6007
 3955SOL     OW23326   3.787   2.008   4.155 -0.0740 -0.3644 -0.4560
 3955SOL    HW123327   3.796   1.914   4.142 -0.4380 -0.6286  1.3217
 3955SOL    HW223328   3.802   2.023   4.248 -0.2335  0.2703 -0.5328
 3956SOL     OW23329   4.173   3.652   6.995  0.0627 -0.1092 -0.1953
 3956SOL    HW123330   4.260   3.680   6.969  0.1811 -0.8123 -0.5635
 3956SOL    HW223331   4.179   3.562   7.027  1.3821  0.3643  0.8887
 3957SOL     OW23332   4.308   2.861   3.019  0.6768 -0.4286  0.3104
 3957SOL    HW123333   4.302   2.766   3.018 -1.0132 -0.2840 -3.7207
 3957SOL    HW223334   4.338   2.882   3.108 -1.1314  0.1842  0.7702
 3958SOL     OW23335   0.615   2.121  16.676 -0.4524 -0.1073 -0.1890
 3958SOL    HW123336   0.634   2.171  16.597  2.0761  0.3372  0.6919
 3958SOL    HW223337   0.567   2.042  16.650 -1.3445 -0.7347  3.3645
 3959SOL     OW23338   0.224   3.434   6.632 -0.3597 -0.3003  0.0376
 3959SOL    HW123339   0.166   3.444   6.557  0.4005 -0.7763 -0.6160
 3959SOL    HW223340   0.291   3.494   6.601 -0.4387 -0.3616 -0.2521
 3960SOL     OW23341   2.793   0.746   1.188  0.2901  0.6205 -0.1361
 3960SOL    HW123342   2.762   0.722   1.275 -0.9221  0.9803 -0.4682
 3960SOL    HW223343   2.840   0.827   1.208  1.1322 -0.2418  1.3165
 3961SOL     OW23344   4.197   2.562   0.695  0.7998  0.3003 -0.0299
 3961SOL    HW123345   4.124   2.522   0.743  0.0953  3.2738  1.3579
 3961SOL    HW223346   4.190   2.534   0.604 -0.7730 -2.6686  0.9773
 3962SOL     OW23347   3.306   1.995   5.240  0.1885 -0.0867 -0.3152
 3962SOL    HW123348   3.261   2.033   5.316  1.5044  0.1999  0.3071
 3962SOL    HW223349   3.336   1.909   5.271  1.8682  0.9765  0.9869
 3963SOL     OW23350   2.369   1.546   8.118  0.3129 -0.6794  0.0270
 3963SOL    HW123351   2.354   1.609   8.189 -0.4022  0.2526 -0.9488
 3963SOL    HW223352   2.283   1.541   8.075  0.7374  2.8692 -1.2467
 3964SOL     OW23353   0.144   2.129   6.000  0.9581  0.1884  0.0267
 3964SOL    HW123354   0.142   2.225   5.992 -1.9707 -0.1488 -3.2210
 3964SOL    HW223355   0.209   2.125   6.070  0.0935  0.6896  0.8530
 3965SOL     OW23356   2.411   3.173   8.535 -0.2929 -0.1617  0.2283
 3965SOL    HW123357   2.450   3.229   8.602 -0.1051  0.0613 -0.0661
 3965SOL    HW223358   2.320   3.175   8.564 -0.0527  0.2948  0.9402
 3966SOL     OW23359   0.266   1.603   9.664 -0.5595  0.0332  0.5989
 3966SOL    HW123360   0.202   1.664   9.701  2.2765  2.6025  1.2622
 3966SOL    HW223361   0.237   1.588   9.575  1.2348  0.9820 -0.1452
 3967SOL     OW23362   2.944   0.041   3.060  0.0073  0.4981 -0.3177
 3967SOL    HW123363   3.033   0.074   3.054  0.4383 -0.5377  0.3900
 3967SOL    HW223364   2.945   4.685   3.011 -1.4248 -0.1361  0.7146
 3968SOL     OW23365   3.334   4.420   0.089  0.0128 -0.1790  0.0185
 3968SOL    HW123366   3.381   4.338   0.108 -0.4437 -0.2683  0.7504
 3968SOL    HW223367   3.401   4.473   0.046  1.8341 -0.0096  3.0943
 3969SOL     OW23368   1.802   1.943   3.855 -0.0432  0.2733 -0.4061
 3969SOL    HW123369   1.716   1.982   3.839 -0.1344  0.2732  0.0727
 3969SOL    HW223370   1.800   1.882   3.781  3.8559 -0.8956  0.4222
 3970SOL     OW23371   0.468   2.873   3.815 -0.4716  0.2031 -0.6306
 3970SOL    HW123372   0.464   2.814   3.740  0.0745  0.1384 -0.6112
 3970SOL    HW223373   0.545   2.924   3.788 -0.0901  1.2752  2.5587
 3971SOL     OW23374   2.909   3.964   5.194 -0.2794 -0.3242  0.6610
 3971SOL    HW123375   2.940   4.054   5.199  0.4977 -0.4880 -1.3242
 3971SOL    HW223376   2.819   3.974   5.162 -0.9328  0.4880  2.7441
 3972SOL     OW23377   0.345   2.356  14.426 -0.0212  0.2997 -0.5299
 3972SOL    HW123378   0.414   2.403  14.473  0.8092  0.1511 -1.6066
 3972SOL    HW223379   0.387   2.271  14.414 -0.9085 -0.1348 -0.5764
 3973SOL     OW23380   4.612   4.353   6.894 -0.5113 -0.1565 -0.2215
 3973SOL    HW123381   4.643   4.394   6.975  0.3412 -1.6574  0.2154
 3973SOL    HW223382   4.554   4.420   6.860  1.2556  1.4720 -0.0379
 3974SOL     OW23383   3.884   1.301   7.370  0.3343  0.2274 -0.0715
 3974SOL    HW123384   3.833   1.341   7.440  1.8267  0.1633  1.0400
 3974SOL    HW223385   3.957   1.361   7.357  1.4043 -0.7536  1.4229
 3975SOL     OW23386   1.620   3.266   7.287 -0.7193  0.3612 -0.0742
 3975SOL    HW123387   1.704   3.254   7.244 -1.5996 -3.6654 -0.7303
 3975SOL    HW223388   1.649   3.331   7.351  2.8970  0.9069 -2.2684
 3976SOL     OW23389   0.610   4.279   4.309  0.1918  0.2076 -0.0390
 3976SOL    HW123390   0.663   4.262   4.231  1.3150  0.8728  0.5785
 3976SOL    HW223391   0.652   4.221   4.373  1.8468 -0.4732 -1.7470
 3977SOL     OW23392   4.312   3.057   5.360  0.7022 -0.2308  0.2384
 3977SOL    HW123393   4.317   3.140   5.312 -3.1147 -0.1194  0.0704
 3977SOL    HW223394   4.301   2.991   5.292 -0.5743 -0.2316  0.4554
 3978SOL     OW23395   3.266   1.071  17.131 -0.1275  0.0866  0.2163
 3978SOL    HW123396   3.191   1.114  17.174 -1.0344  1.3126 -2.6406
 3978SOL    HW223397   3.232   1.052  17.044 -0.8877 -1.1154  0.7744
 3979SOL     OW23398   1.200   2.211   2.694 -0.5918 -0.1852 -0.1190
 3979SOL    HW123399   1.206   2.268   2.770 -2.7456 -1.1413  0.7725
 3979SOL    HW223400   1.263   2.146   2.727 -0.6661  0.9319  2.2502
 3980SOL     OW23401   3.008   1.630   6.121  0.0604  0.4076  0.3792
 3980SOL    HW123402   2.918   1.605   6.101 -0.3565  2.7406 -0.5580
 3980SOL    HW223403   3.009   1.654   6.214  0.2585 -3.4172  1.3600
 3981SOL     OW23404   1.994   4.651   1.043 -0.4684 -0.9693  0.3142
 3981SOL    HW123405   1.990   4.637   0.949  0.9502 -1.2868  0.3021
 3981SOL    HW223406   1.901   4.645   1.063 -0.1931  1.1044  2.3205
 3982SOL     OW23407   4.716   3.639   3.766 -0.3579  0.1585  0.3766
 3982SOL    HW123408   0.050   3.653   3.694  3.5259  0.3674  3.7032
 3982SOL    HW223409   4.650   3.704   3.742 -1.3889 -1.6279 -1.6785
 3983SOL     OW23410   3.549   2.545   2.163 -0.6660 -0.4861  0.3063
 3983SOL    HW123411   3.629   2.534   2.111 -0.1283  3.0296  0.3900
 3983SOL    HW223412   3.588   2.612   2.219 -0.2756 -1.6595  1.4355
 3984SOL     OW23413   1.987   3.968   3.099 -0.1395  0.4393 -0.2098
 3984SOL    HW123414   1.933   3.906   3.051  0.2996 -1.7510  2.1573
 3984SOL    HW223415   1.955   3.942   3.185 -1.2040 -3.2057 -1.7174
 3985SOL     OW23416   0.207   0.039   5.557 -0.0499 -0.4506 -0.2829
 3985SOL    HW123417   0.302   0.045   5.562 -0.1398 -0.1844  1.1825
 3985SOL    HW223418   0.186   0.006   5.645 -1.7871  1.0662 -0.1203
 3986SOL     OW23419   3.411   2.363   2.326  0.1827 -0.4454  0.3498
 3986SOL    HW123420   3.453   2.377   2.411 -1.4909  0.5643  1.0205
 3986SOL    HW223421   3.452   2.432   2.274  0.7317  1.5786  3.4262
 3987SOL     OW23422   0.472   4.437   9.083 -0.5093  0.2909 -0.1128
 3987SOL    HW123423   0.443   4.462   8.996  1.1416 -0.6683 -0.9488
 3987SOL    HW223424   0.471   4.341   9.076  3.5198 -0.0526  3.2728
 3988SOL     OW23425   2.543   3.432   3.035 -0.3470  0.2421  0.0632
 3988SOL    HW123426   2.464   3.414   2.984 -0.8749  0.1746  0.8972
 3988SOL    HW223427   2.586   3.347   3.037 -0.6892  0.0748  0.3011
 3989SOL     OW23428   2.042   3.836   4.884  0.0440 -0.1243  0.2202
 3989SOL    HW123429   2.022   3.921   4.845  0.6012 -0.4108 -0.7027
 3989SOL    HW223430   2.083   3.784   4.815  0.2959 -3.4185  2.8515
 3990SOL     OW23431   4.638   2.923  16.029  0.1774 -0.4355 -0.4394
 3990SOL    HW123432   4.671   3.013  16.017 -2.2804  0.5665  0.3968
 3990SOL    HW223433   4.713   2.874  15.995  0.8899  1.0144 -1.0060
 3991SOL     OW23434   1.029   3.536   6.862  0.1779 -0.0351  0.2892
 3991SOL    HW123435   1.002   3.458   6.812  0.5031  0.0568 -0.0314
 3991SOL    HW223436   1.051   3.600   6.794  0.2559 -0.8358 -0.4484
 3992SOL     OW23437   3.384   4.277   6.531  0.0773  0.5997  0.8890
 3992SOL    HW123438   3.361   4.193   6.493 -2.0958  1.0322  1.2847
 3992SOL    HW223439   3.446   4.318   6.470 -0.2533 -3.3212 -2.1100
 3993SOL     OW23440   1.183   4.265  10.078  0.2642  0.2569 -0.7429
 3993SOL    HW123441   1.216   4.229   9.996 -0.6063  0.9001 -1.3705
 3993SOL    HW223442   1.241   4.219  10.140 -0.9543  1.7555  1.5250
 3994SOL     OW23443   1.269   0.854   7.362  0.3437 -0.0349  0.1037
 3994SOL    HW123444   1.225   0.787   7.413 -0.2388 -0.1883 -0.6086
 3994SOL    HW223445   1.361   0.840   7.386  0.6401  0.4756 -0.7181
 3995SOL     OW23446   3.077   1.308   6.820 -0.2194 -0.1262 -0.3010
 3995SOL    HW123447   3.036   1.368   6.758  1.1651  0.8322 -0.2868
 3995SOL    HW223448   3.134   1.260   6.761 -0.0757 -0.0374 -0.2341
 3996SOL     OW23449   3.282   4.538  13.753 -0.3704  0.1711  0.3406
 3996SOL    HW123450   3.333   4.466  13.791 -1.3859 -0.2059  0.9865
 3996SOL    HW223451   3.319   4.546  13.665  0.3582  1.9775  0.8150
 3997SOL     OW23452   0.536   1.367   5.221 -0.1381 -0.4781  0.3814
 3997SOL    HW123453   0.515   1.376   5.314  0.4865  2.0305  0.2947
 3997SOL    HW223454   0.469   1.420   5.177  0.5886  0.0890 -0.0459
 3998SOL     OW23455   0.949   2.682  11.040  0.1840  0.3709 -0.0949
 3998SOL    HW123456   1.018   2.707  11.101  0.0081 -1.8535  1.0012
 3998SOL    HW223457   0.892   2.633  11.098 -0.3095  0.3875 -0.5606
 3999SOL     OW23458   0.651   3.190  14.989 -0.1987 -0.6675  0.1508
 3999SOL    HW123459   0.649   3.275  14.945  0.8661 -0.5283  0.3574
 3999SOL    HW223460   0.592   3.137  14.937  0.4755 -1.1820 -0.0899
 4000SOL     OW23461   4.150   1.353   4.477 -0.0971  0.0680 -0.1185
 4000SOL    HW123462   4.093   1.276   4.482 -0.8415  0.7401  1.4383
 4000SOL    HW223463   4.139   1.379   4.385  1.2414 -2.5509 -1.0302
 4001SOL     OW23464   0.618   2.057  14.955 -0.2319 -0.1232 -0.5898
 4001SOL    HW123465   0.583   1.975  14.989 -0.1610  0.1334  0.1077
 4001SOL    HW223466   0.599   2.036  14.864 -0.3506 -0.1401 -0.5620
 4002SOL     OW23467   3.091   3.432   9.073 -0.1464  0.2312 -0.3393
 4002SOL    HW123468   3.055   3.518   9.049  0.1530  0.3601 -0.3277
 4002SOL    HW223469   3.017   3.406   9.127  0.5341 -0.6185  0.1850
 4003SOL     OW23470   4.402   3.920   3.093  0.2215  0.9539  0.3772
 4003SOL    HW123471   4.427   3.958   3.008 -0.4042  0.9824  0.2053
 4003SOL    HW223472   4.349   3.988   3.134 -0.2444  1.2131 -0.6432
 4004SOL     OW23473   0.743   1.879   2.699 -0.1515  0.2397  0.5963
 4004SOL    HW123474   0.730   1.933   2.777 -0.3370  0.6214  0.2964
 4004SOL    HW223475   0.783   1.948   2.646  0.2090  1.0123  1.8678
 4005SOL     OW23476   3.184   4.624   6.159  0.2438  0.1093 -0.8889
 4005SOL    HW123477   3.211   4.666   6.241  0.8007 -0.9908 -0.5067
 4005SOL    HW223478   3.091   4.645   6.165  0.1389 -0.8178  0.7435
 4006SOL     OW23479   0.417   4.140  10.065 -0.9492 -0.1386  0.0645
 4006SOL    HW123480   0.376   4.176  10.143  2.5097  1.1090  1.2925
 4006SOL    HW223481   0.357   4.073  10.032  0.0052 -0.7181 -0.5116
 4007SOL     OW23482   3.185   4.038  16.487 -0.1643 -0.6347  0.0422
 4007SOL    HW123483   3.091   4.033  16.470 -0.0367  0.6702 -1.0822
 4007SOL    HW223484   3.181   4.061  16.580  0.2769 -0.0307 -0.0878
 4008SOL     OW23485   0.425   3.332   5.258  0.0541  0.3573 -0.0712
 4008SOL    HW123486   0.366   3.263   5.289  1.3779 -1.2244 -1.0111
 4008SOL    HW223487   0.370   3.377   5.194 -1.0664 -0.1649  0.5312
 4009SOL     OW23488   1.424   2.932   8.295 -0.1345  0.2586 -0.0035
 4009SOL    HW123489   1.372   2.872   8.241 -0.1364 -0.2217  0.5308
 4009SOL    HW223490   1.476   2.971   8.225 -0.1978 -0.5570 -0.5104
 4010SOL     OW23491   1.186   0.458   8.545 -0.2282  0.0299  0.1472
 4010SOL    HW123492   1.103   0.477   8.500  0.4574 -1.0811 -1.5917
 4010SOL    HW223493   1.158   0.391   8.607  0.2508  0.5606  0.9247
 4011SOL     OW23494   3.013   0.707   6.952  0.1128  0.0331  0.4182
 4011SOL    HW123495   3.032   0.791   6.909  1.4683  0.3959  1.7744
 4011SOL    HW223496   2.917   0.701   6.947  0.2109 -0.2895 -1.0994
 4012SOL     OW23497   4.725   3.574  15.895  0.0517 -0.4462  0.5312
 4012SOL    HW123498   4.639   3.610  15.875 -0.4156 -0.4545  2.5228
 4012SOL    HW223499   4.691   3.485  15.905  0.4622 -0.4463  1.9123
 4013SOL     OW23500   3.899   1.012  13.969  0.1546  0.0936 -0.5478
 4013SOL    HW123501   3.918   1.037  14.060  1.2533 -3.1575  0.1200
 4013SOL    HW223502   3.984   0.984  13.935  0.5653  0.3714  0.2452
 4014SOL     OW23503   1.409   2.573   5.262 -0.4878  0.0315 -0.7483
 4014SOL    HW123504   1.316   2.556   5.245 -0.5096 -0.8151  0.2459
 4014SOL    HW223505   1.405   2.653   5.315 -1.2991 -1.4708  1.4159
 4015SOL     OW23506   2.648   3.344   0.092  0.3127 -0.7073 -0.0493
 4015SOL    HW123507   2.725   3.400   0.102  0.2904 -0.7701  0.5254
 4015SOL    HW223508   2.684   3.288   0.024 -0.6236 -0.8378 -0.4379
 4016SOL     OW23509   3.115   1.271  15.306  0.2714 -0.2180  0.1313
 4016SOL    HW123510   3.090   1.294  15.396  1.6354 -0.7568  0.6626
 4016SOL    HW223511   3.125   1.176  15.305  0.9349 -0.1001 -2.7020
 4017SOL     OW23512   3.158   3.925   0.623  0.6374 -0.8200 -0.1584
 4017SOL    HW123513   3.079   3.888   0.584 -0.8596  1.6784  0.5956
 4017SOL    HW223514   3.147   3.901   0.715  0.6498 -0.3848 -0.0461
 4018SOL     OW23515   2.722   3.156   8.216  0.2743  0.2528  0.2547
 4018SOL    HW123516   2.700   3.248   8.203  0.2052  0.1886 -0.0968
 4018SOL    HW223517   2.661   3.119   8.279 -1.3375  1.5328 -0.5670
 4019SOL     OW23518   3.779   1.054   7.662  0.1297  0.1993  0.3792
 4019SOL    HW123519   3.841   1.038   7.733  2.9955  0.9120 -1.9630
 4019SOL    HW223520   3.758   0.964   7.640  1.8170  0.2732 -1.6120
 4020SOL     OW23521   4.144   1.493   4.202  0.5452  0.0799  0.3698
 4020SOL    HW123522   4.060   1.472   4.160 -1.2122  1.1776  3.3840
 4020SOL    HW223523   4.107   1.569   4.246 -1.3001 -1.4300  1.4478
 4021SOL     OW23524   3.960   0.907   6.253  0.1128 -0.2253  0.3295
 4021SOL    HW123525   3.954   0.971   6.324  2.1134  0.4105 -0.0704
 4021SOL    HW223526   3.988   0.957   6.177  0.6474 -0.4019  0.4097
 4022SOL     OW23527   2.452   2.963   8.087  0.2644 -0.4778 -0.3664
 4022SOL    HW123528   2.493   2.970   8.173 -3.6775  2.1631  1.2791
 4022SOL    HW223529   2.398   3.041   8.088  0.8407 -0.1044  2.7384
 4023SOL     OW23530   1.885   0.235   0.927  0.5068 -0.4909 -0.2324
 4023SOL    HW123531   1.815   0.298   0.910 -0.0204 -1.0399 -0.0883
 4023SOL    HW223532   1.883   0.196   0.840  0.2274  0.6337 -0.7354
 4024SOL     OW23533   4.362   3.887  15.806  0.1255 -0.2947  0.1697
 4024SOL    HW123534   4.289   3.893  15.867  1.2019  1.4818  1.2615
 4024SOL    HW223535   4.410   3.967  15.826  2.1948 -1.0024 -1.9859
 4025SOL     OW23536   2.783   1.431   3.454 -0.1117  0.0472 -0.5966
 4025SOL    HW123537   2.758   1.343   3.481  0.1841 -0.2056 -1.1437
 4025SOL    HW223538   2.873   1.418   3.422 -0.1322 -1.4277 -0.0477
 4026SOL     OW23539   0.344   0.487   3.689  0.5758 -0.1343  0.1783
 4026SOL    HW123540   0.382   0.575   3.702 -0.8761  0.6941 -1.2004
 4026SOL    HW223541   0.409   0.430   3.649 -1.4370 -2.0449 -0.3899
 4027SOL     OW23542   3.774   1.934   9.653  0.8216 -0.1474 -0.0767
 4027SOL    HW123543   3.699   1.983   9.686  0.8983  0.2377 -0.4719
 4027SOL    HW223544   3.740   1.847   9.631 -1.5132  0.7684 -0.0827
 4028SOL     OW23545   2.557   1.792   2.371  0.6002  0.3146  0.0196
 4028SOL    HW123546   2.540   1.863   2.309  0.1109  1.2366  1.1955
 4028SOL    HW223547   2.615   1.738   2.318 -0.7583 -1.6996  0.5719
 4029SOL     OW23548   2.361   1.801   1.860 -0.1388 -0.1106  0.4857
 4029SOL    HW123549   2.419   1.730   1.831 -0.6433 -0.2122 -0.2717
 4029SOL    HW223550   2.301   1.807   1.786 -0.6355 -1.1274  0.8091
 4030SOL     OW23551   1.714   3.892  10.733  0.0992  0.0031  0.4560
 4030SOL    HW123552   1.677   3.817  10.685  0.9261  0.0765 -0.2767
 4030SOL    HW223553   1.645   3.899  10.799  1.6046  0.1175  2.0160
 4031SOL     OW23554   1.290   0.193   2.457 -0.2940 -0.2159 -0.6680
 4031SOL    HW123555   1.302   0.098   2.462  1.0171 -0.0640 -0.7145
 4031SOL    HW223556   1.308   0.215   2.549 -1.0059 -0.0221 -0.5806
 4032SOL     OW23557   0.074   1.404   1.744 -0.2128  0.8971  0.0515
 4032SOL    HW123558   0.080   1.411   1.840 -0.1521  3.6373 -0.1646
 4032SOL    HW223559   4.707   1.407   1.728  0.4535  3.5964 -3.2229
 4033SOL     OW23560   2.566   1.261   8.906 -0.0350  0.4006 -0.7658
 4033SOL    HW123561   2.476   1.292   8.897 -0.9525 -2.0966 -0.2184
 4033SOL    HW223562   2.604   1.274   8.819  0.4162  0.7784 -0.5065
 4034SOL     OW23563   0.551   1.698   7.654  0.4093 -0.1968  0.2534
 4034SOL    HW123564   0.614   1.671   7.721 -1.6447 -0.5688  2.0455
 4034SOL    HW223565   0.589   1.668   7.572  0.5038  1.3572 -0.2817
 4035SOL     OW23566   0.659   1.825   7.153 -0.1511  0.6262  0.1422
 4035SOL    HW123567   0.662   1.873   7.070 -0.0058  0.3520 -0.0113
 4035SOL    HW223568   0.744   1.783   7.154 -0.6033 -0.2336  2.0244
 4036SOL     OW23569   3.849   2.966  15.740 -0.0144 -0.5905  0.5549
 4036SOL    HW123570   3.767   2.968  15.691  0.0255  0.5168  0.5448
 4036SOL    HW223571   3.902   2.935  15.666  0.4465  1.6192 -0.0301
 4037SOL     OW23572   2.208   2.652   3.467  0.0181  0.5927  0.6539
 4037SOL    HW123573   2.252   2.657   3.382 -1.4138  0.7554 -0.0770
 4037SOL    HW223574   2.179   2.561   3.469  0.8210  0.3714  2.4692
 4038SOL     OW23575   1.773   2.399   9.110 -0.6258 -0.0997  0.1442
 4038SOL    HW123576   1.860   2.359   9.112 -1.1217 -1.2426 -1.7261
 4038SOL    HW223577   1.792   2.492   9.120  1.0003 -0.4385  0.0433
 4039SOL     OW23578   0.558   0.020   6.506 -0.5246 -0.2669 -0.0831
 4039SOL    HW123579   0.505   0.096   6.481 -2.0171 -1.3761 -0.2916
 4039SOL    HW223580   0.586   0.041   6.595 -0.3363  1.1721 -0.4819
 4040SOL     OW23581   4.610   2.868   4.227 -0.1044 -0.3594  0.5482
 4040SOL    HW123582   4.686   2.906   4.271  0.7449 -1.1110 -0.2775
 4040SOL    HW223583   4.647   2.791   4.184 -1.1658 -0.3757 -0.3211
 4041SOL     OW23584   3.160   4.705  11.631  0.0395 -0.1587 -0.7830
 4041SOL    HW123585   3.244   4.690  11.587  0.8639  1.4174  0.2982
 4041SOL    HW223586   3.153   4.618  11.671 -1.2253 -0.7819 -2.3313
 4042SOL     OW23587   0.686   0.989   7.249 -0.1218  0.5996  0.1579
 4042SOL    HW123588   0.618   1.030   7.196 -2.5960 -1.2633  1.8817
 4042SOL    HW223589   0.674   1.033   7.333  1.6704 -0.7133  1.1050
 4043SOL     OW23590   3.220   2.333   8.011 -0.1675 -0.1290 -0.2835
 4043SOL    HW123591   3.148   2.304   8.067 -0.8976 -3.9097 -3.2505
 4043SOL    HW223592   3.219   2.427   8.032 -0.3907 -0.4913  1.3604
 4044SOL     OW23593   0.260   1.667  15.038  0.4399 -0.5886 -0.0281
 4044SOL    HW123594   0.170   1.654  15.007  0.2388 -0.6725  0.5792
 4044SOL    HW223595   0.267   1.589  15.093  0.3704 -1.3219 -1.0670
 4045SOL     OW23596   4.473   0.243   7.120 -0.2575 -0.0894 -0.6278
 4045SOL    HW123597   4.398   0.204   7.076 -0.2469 -1.8658  0.9185
 4045SOL    HW223598   4.446   0.335   7.126  0.1232  0.1560 -2.8411
 4046SOL     OW23599   2.773   1.918  13.492 -0.3215 -0.4866 -0.8717
 4046SOL    HW123600   2.736   1.836  13.525  0.5966 -0.6862 -0.3434
 4046SOL    HW223601   2.858   1.884  13.464 -0.0197  0.6064 -1.2505
 4047SOL     OW23602   0.091   3.531   2.153 -0.3256 -0.1492 -0.2737
 4047SOL    HW123603   0.098   3.553   2.060 -1.7641 -2.9516 -1.0317
 4047SOL    HW223604   0.150   3.591   2.199 -0.7796  0.9365 -1.0967
 4048SOL     OW23605   1.070   4.493   8.347 -0.3589 -0.0972  0.3835
 4048SOL    HW123606   1.019   4.412   8.345  2.1502 -1.6153 -2.1677
 4048SOL    HW223607   1.142   4.456   8.398  2.1431  0.6590 -2.5776
 4049SOL     OW23608   0.107   3.921  10.277 -0.0560  0.7921 -0.4014
 4049SOL    HW123609   0.129   3.836  10.313  3.0672  1.6775 -0.1963
 4049SOL    HW223610   0.034   3.893  10.222 -0.2460 -1.7794  1.1722
 4050SOL     OW23611   2.314   0.697   4.952  0.2764 -0.2027 -1.1078
 4050SOL    HW123612   2.357   0.782   4.945 -2.9125  1.6419  1.4751
 4050SOL    HW223613   2.390   0.642   4.968  0.3173 -0.2766 -1.5735
 4051SOL     OW23614   3.551   3.752  14.276  0.7580 -0.1024  0.0862
 4051SOL    HW123615   3.494   3.707  14.338  0.0388  0.1204 -0.4056
 4051SOL    HW223616   3.632   3.702  14.280  1.3238  0.5147 -3.1284
 4052SOL     OW23617   3.660   1.660   8.846 -0.0015  0.3859 -0.5323
 4052SOL    HW123618   3.678   1.664   8.940 -0.9333 -2.1478 -0.2560
 4052SOL    HW223619   3.741   1.700   8.812  0.2462 -1.1537 -1.7570
 4053SOL     OW23620   1.819   2.539  12.020 -0.7410 -0.5527 -0.3145
 4053SOL    HW123621   1.885   2.542  12.089 -1.0397 -3.3652  0.1048
 4053SOL    HW223622   1.803   2.632  12.005  0.8117 -0.6243 -2.4309
 4054SOL     OW23623   3.254   0.991   2.553  0.1968 -0.2595  0.4119
 4054SOL    HW123624   3.346   0.974   2.534  0.2269  0.3990 -0.0371
 4054SOL    HW223625   3.213   0.905   2.561  0.4661 -0.5161 -1.0271
 4055SOL     OW23626   0.615   1.059   5.386 -0.0438 -0.7037  0.1132
 4055SOL    HW123627   0.547   1.040   5.451  1.8634  1.3366  2.7197
 4055SOL    HW223628   0.578   1.019   5.307  0.0609 -0.6888  0.0569
 4056SOL     OW23629   1.840   1.703  13.668  0.1139  0.1369  0.7027
 4056SOL    HW123630   1.871   1.702  13.578 -0.9845  1.2670  0.3164
 4056SOL    HW223631   1.859   1.612  13.692 -0.7217  0.0475  1.0268
 4057SOL     OW23632   0.348   3.911   7.144  0.1231  0.0203  0.1751
 4057SOL    HW123633   0.281   3.883   7.083 -0.7495 -0.7505  1.4873
 4057SOL    HW223634   0.420   3.853   7.120 -1.8681 -1.7641 -1.3579
 4058SOL     OW23635   2.363   0.412   8.981  0.1005 -0.2019 -0.2992
 4058SOL    HW123636   2.335   0.447   9.065 -1.2441  1.4661 -1.4363
 4058SOL    HW223637   2.387   0.321   8.998  0.6748  0.1472  0.7662
 4059SOL     OW23638   0.552   0.649   6.777  0.0967 -0.3919 -0.3861
 4059SOL    HW123639   0.468   0.669   6.818  0.5664  0.7341  0.0279
 4059SOL    HW223640   0.583   0.570   6.822 -1.1059 -1.2005 -0.9963
 4060SOL     OW23641   3.841   4.095  11.943  0.4384  0.7238 -0.1336
 4060SOL    HW123642   3.926   4.137  11.929  1.8408 -1.1806  2.6235
 4060SOL    HW223643   3.835   4.123  12.034  1.5155  2.9664 -0.7474
 4061SOL     OW23644   2.699   2.542  12.510 -0.0847  0.3816 -0.3013
 4061SOL    HW123645   2.733   2.488  12.582 -0.8274  0.4738  0.1313
 4061SOL    HW223646   2.773   2.560  12.453 -0.8347 -0.1301 -1.4295
 4062SOL     OW23647   2.759   1.182  13.566  0.9005 -0.4580  0.2144
 4062SOL    HW123648   2.758   1.221  13.653  2.0968 -0.3343  0.1616
 4062SOL    HW223649   2.852   1.184  13.546  1.2479 -3.4820  1.4852
 4063SOL     OW23650   2.847   1.002   6.566  0.0481  0.5172 -0.6581
 4063SOL    HW123651   2.800   1.083   6.582  0.4557  0.1389  2.3449
 4063SOL    HW223652   2.775   0.948   6.532 -0.0611 -1.3068  2.5460
 4064SOL     OW23653   4.668   4.168   8.956 -0.3132  0.4785 -0.3195
 4064SOL    HW123654   4.621   4.101   9.006 -1.5541  1.0719 -0.7067
 4064SOL    HW223655   4.629   4.249   8.989 -0.9710 -0.1032  0.3504
 4065SOL     OW23656   1.328   0.900   3.261 -0.5641 -0.3275  0.8074
 4065SOL    HW123657   1.316   0.813   3.299 -1.7981 -0.6317 -0.2711
 4065SOL    HW223658   1.237   0.929   3.271 -1.0486 -1.7048  0.3505
 4066SOL     OW23659   3.725   3.188   3.058 -0.4505 -0.1940  0.3961
 4066SOL    HW123660   3.737   3.195   2.963  0.9229  1.3043  0.6854
 4066SOL    HW223661   3.765   3.273   3.077 -2.4846  2.1351 -5.5864
 4067SOL     OW23662   2.322   2.547   0.434  0.1657  0.5038 -0.3850
 4067SOL    HW123663   2.358   2.459   0.445 -1.3809 -0.1716 -0.6576
 4067SOL    HW223664   2.399   2.602   0.447  1.5097 -0.7920 -3.0108
 4068SOL     OW23665   0.917   2.207   6.033 -0.1747 -0.1782  0.2845
 4068SOL    HW123666   0.848   2.174   6.090 -1.0938  1.4882  0.1424
 4068SOL    HW223667   0.892   2.300   6.034  0.9247  0.1164  0.6192
 4069SOL     OW23668   1.307   0.214   3.934  0.3267 -0.0232 -0.1873
 4069SOL    HW123669   1.354   0.268   3.871  0.3588 -0.3447 -0.4396
 4069SOL    HW223670   1.220   0.255   3.936  0.0783 -0.5517  0.0949
 4070SOL     OW23671   0.126   1.796   8.258 -0.1220  0.3384 -0.1555
 4070SOL    HW123672   0.167   1.742   8.191 -0.6503  1.2042 -1.1839
 4070SOL    HW223673   0.165   1.878   8.229  0.4784 -0.1493 -0.7452
 4071SOL     OW23674   2.878   1.087   2.862 -0.2152  0.3746  0.4233
 4071SOL    HW123675   2.971   1.100   2.878 -0.1221  1.4171 -0.9600
 4071SOL    HW223676   2.854   1.179   2.854 -0.0654  0.0901 -3.2985
 4072SOL     OW23677   0.784   0.440   2.650  0.0464  0.3130  0.4903
 4072SOL    HW123678   0.859   0.381   2.641 -0.0005  0.5572 -1.5015
 4072SOL    HW223679   0.822   0.526   2.630  0.3131 -0.3183 -1.7818
 4073SOL     OW23680   3.841   2.914  14.924  0.4642 -0.1305  0.2350
 4073SOL    HW123681   3.763   2.902  14.978  1.6440  1.7392  2.3227
 4073SOL    HW223682   3.898   2.948  14.993 -0.1965 -1.8172  1.6044
 4074SOL     OW23683   2.115   2.432   7.071  0.0688 -0.3215 -0.5690
 4074SOL    HW123684   2.207   2.408   7.063 -0.6874 -2.6497 -2.2944
 4074SOL    HW223685   2.087   2.364   7.010 -0.2855 -1.4518  0.8739
 4075SOL     OW23686   1.236   3.379   4.198  0.1715  0.6916 -0.5617
 4075SOL    HW123687   1.261   3.290   4.221  0.7485  1.3727  1.4929
 4075SOL    HW223688   1.305   3.402   4.135 -0.3992 -2.1819 -2.2097
 4076SOL     OW23689   2.640   1.966   6.560  0.4258 -0.3366  0.0723
 4076SOL    HW123690   2.566   1.911   6.587  0.2961  0.4039  1.2192
 4076SOL    HW223691   2.621   1.965   6.466  1.6281 -0.8255 -0.1520
 4077SOL     OW23692   2.755   0.434   0.199  0.2396 -0.3364 -0.8194
 4077SOL    HW123693   2.736   0.509   0.143 -0.0468  0.7669  0.7301
 4077SOL    HW223694   2.670   0.392   0.211  1.2070 -1.5768  1.6693
 4078SOL     OW23695   1.442   2.972   0.071  0.2045  0.0276  0.3374
 4078SOL    HW123696   1.496   2.903   0.109  0.6583  0.6652  0.8703
 4078SOL    HW223697   1.370   2.914   0.046  2.2896 -1.9849 -0.9634
 4079SOL     OW23698   2.576   1.165   7.705 -0.1345  0.5303 -0.5776
 4079SOL    HW123699   2.618   1.191   7.787 -1.5054  0.2832  0.1953
 4079SOL    HW223700   2.488   1.198   7.723 -0.0424  0.0091  0.8509
 4080SOL     OW23701   0.643   2.807   3.196 -0.6729  0.3877  0.0259
 4080SOL    HW123702   0.582   2.876   3.169 -1.7930  0.0368  1.6623
 4080SOL    HW223703   0.666   2.852   3.277  1.7153  1.0611 -1.0164
 4081SOL     OW23704   2.582   0.413  17.149  0.0997  0.5851  0.0339
 4081SOL    HW123705   2.579   0.405  17.244  2.3641 -0.5703  0.0081
 4081SOL    HW223706   2.524   0.340  17.125 -0.2230  0.5266  0.9950
 4082SOL     OW23707   3.028   0.613   7.229  0.4053  0.2731  0.3376
 4082SOL    HW123708   3.057   0.657   7.149 -2.7877  1.9419  0.1281
 4082SOL    HW223709   2.933   0.617   7.223  0.2409  0.9425  3.2116
 4083SOL     OW23710   1.833   3.818  11.069  0.4043 -0.0236  0.3898
 4083SOL    HW123711   1.853   3.729  11.039  0.0229  0.5238 -1.4641
 4083SOL    HW223712   1.742   3.824  11.041  0.3545 -0.2604  0.5038
 4084SOL     OW23713   4.559   2.875  15.197 -0.1251 -0.0156  0.4032
 4084SOL    HW123714   4.629   2.917  15.146  0.3838  0.1749  1.2629
 4084SOL    HW223715   4.600   2.865  15.283 -0.8534  1.8263  0.9701
 4085SOL     OW23716   1.696   0.939  13.820  0.1098  0.2091  0.7629
 4085SOL    HW123717   1.743   1.018  13.795  0.8374 -0.2634  0.6091
 4085SOL    HW223718   1.636   0.972  13.886 -3.4849  1.2960 -3.0738
 4086SOL     OW23719   4.074   4.224   3.398 -0.1741 -0.2844 -0.0896
 4086SOL    HW123720   4.017   4.300   3.411 -1.4536 -1.6845  2.4307
 4086SOL    HW223721   4.059   4.207   3.305 -1.3756 -3.2985  0.6633
 4087SOL     OW23722   3.934   4.223   2.736 -0.2389 -0.0918 -0.0463
 4087SOL    HW123723   3.926   4.319   2.741  2.2812  0.1089  0.2763
 4087SOL    HW223724   4.028   4.214   2.750 -0.3069  0.0323  0.5001
 4088SOL     OW23725   3.655   0.945  13.885 -0.5212  0.1463 -0.2498
 4088SOL    HW123726   3.677   0.855  13.909  2.9566  0.9116 -0.5933
 4088SOL    HW223727   3.741   0.985  13.895  0.4206 -1.9003 -0.0100
 4089SOL     OW23728   1.174   3.852   9.365  0.4331  0.4063  0.3233
 4089SOL    HW123729   1.110   3.902   9.315  0.8132 -0.2795 -0.8577
 4089SOL    HW223730   1.128   3.769   9.370  1.6596 -0.2743  0.5066
 4090SOL     OW23731   4.563   4.564  11.980 -0.0110 -0.0410 -0.0043
 4090SOL    HW123732   4.568   4.487  12.037 -2.2440 -0.4897 -0.4181
 4090SOL    HW223733   4.618   4.542  11.905  0.3048 -0.3231  0.3105
 4091SOL     OW23734   0.985   4.341   6.504  0.2302  0.1668 -0.1586
 4091SOL    HW123735   1.038   4.412   6.469  0.8222 -0.1503  0.0962
 4091SOL    HW223736   0.920   4.390   6.555 -0.0559  3.5976 -3.7719
 4092SOL     OW23737   0.761   0.934   0.422  0.1177  0.3412  0.3954
 4092SOL    HW123738   0.804   0.861   0.377  0.6585  0.1606  1.1988
 4092SOL    HW223739   0.778   1.001   0.356  3.0148 -0.1391  0.6396
 4093SOL     OW23740   0.130   2.270   4.372 -0.5649  0.9270 -0.0567
 4093SOL    HW123741   0.097   2.180   4.383 -0.5794  1.2679  2.6265
 4093SOL    HW223742   0.175   2.253   4.289 -1.8093  2.0948 -0.9821
 4094SOL     OW23743   0.028   0.441   7.415  0.3402 -0.1667 -0.0119
 4094SOL    HW123744   4.668   0.445   7.455  0.7928 -0.9260  1.0313
 4094SOL    HW223745   0.070   0.506   7.472  0.9047  0.7294 -1.4437
 4095SOL     OW23746   1.375   0.985   3.563  0.0925  0.2844 -0.4083
 4095SOL    HW123747   1.389   0.893   3.539  1.6554 -0.0030  1.6218
 4095SOL    HW223748   1.455   1.013   3.519  1.0109 -2.7405 -0.6614
 4096SOL     OW23749   0.527   1.436   2.463 -0.2215 -0.4377 -0.0675
 4096SOL    HW123750   0.474   1.489   2.403 -0.9031 -0.8779  0.1497
 4096SOL    HW223751   0.541   1.506   2.527 -2.4272 -0.0429 -0.0038
 4097SOL     OW23752   2.113   0.162   9.132  0.5950 -0.3667 -0.3132
 4097SOL    HW123753   2.135   0.117   9.213 -2.8242 -0.0125  0.7920
 4097SOL    HW223754   2.087   0.090   9.074 -1.1830 -0.9644  1.2376
 4098SOL     OW23755   1.770   1.339   9.005  0.7654 -0.0233  0.6985
 4098SOL    HW123756   1.685   1.318   9.043  1.3371 -1.9267  0.9126
 4098SOL    HW223757   1.814   1.261   9.037 -0.7347 -0.4721  1.6745
 4099SOL     OW23758   3.125   2.111   2.465 -0.2499  0.5595  0.0337
 4099SOL    HW123759   3.069   2.119   2.388  0.1066  3.0662  0.0251
 4099SOL    HW223760   3.078   2.180   2.512 -0.9513 -0.3964  0.7300
 4100SOL     OW23761   4.612   0.330   5.496 -0.1649  0.3514  0.2772
 4100SOL    HW123762   4.540   0.321   5.558  0.1791 -0.3892  0.5724
 4100SOL    HW223763   4.631   0.424   5.503  0.3375  0.1331  1.8024
 4101SOL     OW23764   1.426   0.428   0.876 -0.5947 -0.4507  0.2987
 4101SOL    HW123765   1.344   0.407   0.832 -0.5131 -0.9227  0.3758
 4101SOL    HW223766   1.416   0.377   0.956 -4.0429 -1.1815 -0.6379
 4102SOL     OW23767   2.736   0.482   4.107 -0.0897  0.0291  0.3368
 4102SOL    HW123768   2.791   0.533   4.167  0.3500  0.6310 -0.5684
 4102SOL    HW223769   2.793   0.465   4.032  1.4328 -0.9110  1.7005
 4103SOL     OW23770   3.526   3.194   0.307 -0.5499 -0.2205  0.2578
 4103SOL    HW123771   3.514   3.105   0.342 -0.8808  0.3299  1.5578
 4103SOL    HW223772   3.617   3.210   0.330 -0.9332  3.9698 -1.0935
 4104SOL     OW23773   2.008   0.047  15.293 -0.3293  0.1973  0.1659
 4104SOL    HW123774   2.102   0.043  15.312  0.7745  2.5248 -4.8302
 4104SOL    HW223775   2.002   4.707  15.225 -0.1841  1.5285 -1.1519
 4105SOL     OW23776   4.346   3.961  14.837  0.6953  0.2100 -0.2858
 4105SOL    HW123777   4.438   3.937  14.842  0.3265 -0.5312  2.8148
 4105SOL    HW223778   4.301   3.885  14.798 -0.3002  1.2017 -1.0794
 4106SOL     OW23779   4.639   0.071   5.193  0.0398 -0.1555  0.1086
 4106SOL    HW123780   4.679   0.120   5.121 -0.6383 -2.5687 -1.9149
 4106SOL    HW223781   4.690   0.098   5.270  2.8591  0.5530 -2.0260
 4107SOL     OW23782   2.085   2.231   6.902 -0.2287 -0.1296  0.4769
 4107SOL    HW123783   2.135   2.156   6.868 -0.3588  0.9496 -2.0403
 4107SOL    HW223784   1.996   2.201   6.883 -0.0702 -1.0826  1.1937
 4108SOL     OW23785   1.057   0.101   6.365  0.2869  0.3930 -0.0323
 4108SOL    HW123786   1.086   0.108   6.275  0.0614 -0.5268 -0.1739
 4108SOL    HW223787   0.962   0.106   6.352  0.5808  1.8142 -1.6219
 4109SOL     OW23788   2.074   2.488  10.079  0.9022 -0.1938  0.3400
 4109SOL    HW123789   2.059   2.394  10.092  0.6574 -0.2540 -0.3475
 4109SOL    HW223790   2.060   2.526  10.166 -1.7527  0.0374 -0.1871
 4110SOL     OW23791   0.294   3.976  15.269  0.6708 -0.3731  0.4988
 4110SOL    HW123792   0.280   4.068  15.294  0.3604 -0.3330  0.1918
 4110SOL    HW223793   0.372   3.990  15.215 -0.3631 -1.2944 -1.2365
 4111SOL     OW23794   3.636   4.721   2.795 -0.6310 -0.0242 -0.4523
 4111SOL    HW123795   3.697   0.017   2.725  1.6972 -1.2612  1.1527
 4111SOL    HW223796   3.603   4.642   2.754 -0.0880 -0.2549 -0.4513
 4112SOL     OW23797   1.798   1.436   7.169 -0.7253  0.2662  0.4436
 4112SOL    HW123798   1.720   1.414   7.220 -0.0587 -0.8595  0.9526
 4112SOL    HW223799   1.860   1.383   7.218  1.7692  0.0874 -2.9202
 4113SOL     OW23800   0.896   1.408   6.909  0.7966 -0.0076  0.0803
 4113SOL    HW123801   0.823   1.347   6.916  0.2214  0.5699 -0.9645
 4113SOL    HW223802   0.847   1.490   6.917 -0.2954 -0.5952 -0.6825
 4114SOL     OW23803   2.492   1.218   2.968 -0.2324 -0.0426  0.1399
 4114SOL    HW123804   2.482   1.290   2.905 -1.5177 -0.2713  0.0855
 4114SOL    HW223805   2.418   1.160   2.953  0.6604 -1.1102 -0.1187
 4115SOL     OW23806   0.788   1.149   5.765  0.3950 -0.1992  0.0099
 4115SOL    HW123807   0.797   1.131   5.672 -0.6714  1.7620 -0.4600
 4115SOL    HW223808   0.810   1.242   5.762  0.2731 -0.0905  2.3460
 4116SOL     OW23809   2.011   1.632   7.115 -0.3307  0.3652  0.2853
 4116SOL    HW123810   2.084   1.671   7.164  0.0342 -0.2911  0.2568
 4116SOL    HW223811   1.954   1.588   7.178  1.2900  1.2515  2.3599
 4117SOL     OW23812   1.208   1.160  10.427  1.0671  0.2048 -0.3701
 4117SOL    HW123813   1.238   1.204  10.507 -1.1004  2.2287 -0.6601
 4117SOL    HW223814   1.199   1.238  10.373  0.4224  0.1343 -0.3570
 4118SOL     OW23815   3.522   3.677   3.325 -0.2501 -0.7219 -0.2846
 4118SOL    HW123816   3.589   3.646   3.264 -0.0563  0.3668 -0.6347
 4118SOL    HW223817   3.526   3.596   3.376 -2.0390 -0.7712 -0.2477
 4119SOL     OW23818   2.029   3.587  16.656  0.3529  0.4203  0.4954
 4119SOL    HW123819   2.104   3.644  16.644 -0.7264  1.5138 -1.0384
 4119SOL    HW223820   1.965   3.636  16.708 -1.1884 -0.4001 -0.6317
 4120SOL     OW23821   4.278   2.027   2.971 -0.1630  0.2224  0.2839
 4120SOL    HW123822   4.285   2.110   2.925 -0.6002 -0.0207 -0.2234
 4120SOL    HW223823   4.188   2.000   2.953 -0.1962  0.8919 -0.5435
 4121SOL     OW23824   0.000   1.353   2.476  0.7649  0.2194 -0.2766
 4121SOL    HW123825   4.710   1.261   2.458  0.8307 -0.0915  1.3473
 4121SOL    HW223826   4.700   1.373   2.565 -0.2296  0.0284 -0.5345
 4122SOL     OW23827   3.718   1.314   3.572  0.1965  0.2451 -0.3349
 4122SOL    HW123828   3.770   1.374   3.625 -1.3095 -1.0776  2.5828
 4122SOL    HW223829   3.672   1.272   3.644 -1.0619  1.1440 -0.6134
 4123SOL     OW23830   4.643   1.919  11.432  1.0718  0.0730 -0.0540
 4123SOL    HW123831   4.691   1.999  11.411 -1.8204  0.8662 -3.7136
 4123SOL    HW223832   4.613   1.926  11.522  2.3861  1.3875  0.2784
 4124SOL     OW23833   1.718   3.803   4.993 -0.1572  0.1138 -0.1895
 4124SOL    HW123834   1.761   3.719   4.981 -0.8003 -0.6967  3.0666
 4124SOL    HW223835   1.790   3.864   5.010 -0.0651 -0.3738  1.1624
 4125SOL     OW23836   1.721   0.081   6.627 -0.3012  0.0521 -0.0837
 4125SOL    HW123837   1.688   0.031   6.552 -0.5130  1.4772 -0.9507
 4125SOL    HW223838   1.768   0.005   6.662 -0.2031  0.4965  0.7621
 4126SOL     OW23839   0.920   0.250   3.674  0.3246  0.1048  0.1902
 4126SOL    HW123840   0.909   0.263   3.768 -1.7171 -0.5947  0.0389
 4126SOL    HW223841   0.858   0.312   3.637  0.5324 -1.8865 -3.5676
 4127SOL     OW23842   0.794   1.800  10.456 -0.2269 -0.0422  0.9886
 4127SOL    HW123843   0.712   1.756  10.477  1.1080 -2.3896  1.2685
 4127SOL    HW223844   0.791   1.802  10.361 -0.0194 -0.5240  0.9752
 4128SOL     OW23845   3.785   4.116   0.521  0.1427 -0.7393 -0.2358
 4128SOL    HW123846   3.741   4.201   0.531 -0.9755 -1.3576  0.1074
 4128SOL    HW223847   3.721   4.063   0.473  0.5457 -1.2097 -0.2452
 4129SOL     OW23848   4.131   1.948   6.547 -0.3689 -0.2671 -0.5452
 4129SOL    HW123849   4.126   2.014   6.479 -3.4818 -0.2825 -0.3420
 4129SOL    HW223850   4.095   1.872   6.501  0.5893 -0.2534 -1.3149
 4130SOL     OW23851   4.269   1.367  14.188  0.0607  0.2025 -0.2845
 4130SOL    HW123852   4.313   1.443  14.151  2.3689 -1.4065 -0.8343
 4130SOL    HW223853   4.178   1.377  14.161 -0.6424 -1.5953  1.3559
 4131SOL     OW23854   4.272   1.172  15.177 -0.0392 -1.2395  0.0750
 4131SOL    HW123855   4.200   1.214  15.128  1.8107 -1.1760 -2.5691
 4131SOL    HW223856   4.237   1.186  15.265  0.4440  3.0195 -0.3728
 4132SOL     OW23857   2.362   2.442   3.782 -0.4316 -0.3443 -0.0169
 4132SOL    HW123858   2.302   2.386   3.732 -1.9919 -1.3074  2.9019
 4132SOL    HW223859   2.444   2.394   3.795  0.8068  1.9541  0.6345
 4133SOL     OW23860   0.565   1.254   0.143  0.0436 -0.2991  0.1580
 4133SOL    HW123861   0.535   1.338   0.108 -1.0448 -1.0314 -0.6788
 4133SOL    HW223862   0.481   1.208   0.140  0.4783 -0.9073 -2.4940
 4134SOL     OW23863   3.707   1.237   5.187 -0.0460  0.1271 -0.0837
 4134SOL    HW123864   3.673   1.323   5.212 -0.3293  0.0084 -0.0649
 4134SOL    HW223865   3.790   1.256   5.142  0.2567 -0.5817  0.1822
 4135SOL     OW23866   1.721   1.956   5.381 -0.2613 -0.0564  0.6332
 4135SOL    HW123867   1.807   1.977   5.343 -0.5003 -1.5865 -0.7710
 4135SOL    HW223868   1.704   1.870   5.341  0.0829  0.9152 -1.6003
 4136SOL     OW23869   1.137   1.884  13.834 -0.1805 -0.2002  0.1780
 4136SOL    HW123870   1.092   1.923  13.909  1.5014  1.4773  0.3224
 4136SOL    HW223871   1.211   1.945  13.823 -1.6286  1.3241 -0.9650
 4137SOL     OW23872   2.567   0.807  12.156 -0.1950 -0.2589  0.3032
 4137SOL    HW123873   2.527   0.729  12.193 -1.6727 -0.5616 -1.9314
 4137SOL    HW223874   2.625   0.829  12.229 -0.3381  0.6400  0.1509
 4138SOL     OW23875   2.440   3.401   5.860  0.1828 -1.1528 -0.3851
 4138SOL    HW123876   2.496   3.453   5.917  0.8765 -0.9624 -1.2390
 4138SOL    HW223877   2.415   3.334   5.924 -1.6890 -0.4812 -0.4089
 4139SOL     OW23878   4.208   0.369   5.066 -0.3161 -0.4890 -0.1251
 4139SOL    HW123879   4.238   0.378   4.976 -0.9309 -3.8238 -0.6846
 4139SOL    HW223880   4.295   0.359   5.106  0.8222  1.3543 -2.1378
 4140SOL     OW23881   4.135   3.499   4.919 -0.4527 -0.6681  0.6324
 4140SOL    HW123882   4.169   3.415   4.950  2.7560  0.6763  0.7549
 4140SOL    HW223883   4.082   3.475   4.844 -0.6809  0.8365  0.3058
 4141SOL     OW23884   1.733   3.789  16.407 -0.0874 -0.7037  0.2128
 4141SOL    HW123885   1.781   3.869  16.428 -1.0342 -0.2632  0.7226
 4141SOL    HW223886   1.797   3.719  16.419  0.4080 -0.3624 -0.4510
 4142SOL     OW23887   4.403   3.805   0.957 -0.0896 -0.5039 -0.2917
 4142SOL    HW123888   4.411   3.724   1.007 -0.4517 -0.4793 -0.1910
 4142SOL    HW223889   4.332   3.784   0.897  0.0567 -1.6371 -0.0727
 4143SOL     OW23890   3.726   1.558  12.560 -0.1374  0.6949  0.1849
 4143SOL    HW123891   3.773   1.548  12.477  0.4622  0.8860  0.5008
 4143SOL    HW223892   3.758   1.488  12.616 -2.9388 -0.1157  0.7430
 4144SOL     OW23893   1.545   1.882   1.159 -0.4614 -0.2720 -0.3998
 4144SOL    HW123894   1.594   1.875   1.077 -1.3561  0.9956 -1.0437
 4144SOL    HW223895   1.593   1.814   1.206  1.0980  0.5798 -0.7587
 4145SOL     OW23896   2.470   1.464  16.820  0.2753  0.1405  0.6542
 4145SOL    HW123897   2.554   1.438  16.859  0.1969  0.0866  0.7861
 4145SOL    HW223898   2.497   1.467  16.728  1.0388 -1.5771  0.8124
 4146SOL     OW23899   0.748   3.999   5.586  0.0229  0.1220 -0.2114
 4146SOL    HW123900   0.719   3.938   5.519 -1.1428  1.7551 -1.2068
 4146SOL    HW223901   0.809   4.045   5.529 -0.5570  1.8090  0.5109
 4147SOL     OW23902   0.057   0.488  14.870  0.1889  0.0950 -0.5964
 4147SOL    HW123903   4.707   0.448  14.911  1.3879 -1.6475 -0.1015
 4147SOL    HW223904   0.110   0.409  14.861 -1.4838 -0.7495 -3.0330
 4148SOL     OW23905   1.486   4.597  16.910 -0.1350 -0.3963  0.2644
 4148SOL    HW123906   1.528   4.554  16.984  0.9565  0.7008  0.2828
 4148SOL    HW223907   1.496   4.518  16.857  0.9014  0.4633 -0.8219
 4149SOL     OW23908   2.178   1.565   2.737  0.0187 -0.7860 -0.5157
 4149SOL    HW123909   2.249   1.605   2.686 -0.5322 -0.5890 -1.1197
 4149SOL    HW223910   2.168   1.474   2.710  2.0190 -1.0672 -0.3008
 4150SOL     OW23911   1.828   1.373   2.925  0.2217  0.2056 -0.4975
 4150SOL    HW123912   1.859   1.459   2.896 -0.3243  0.3590 -0.6159
 4150SOL    HW223913   1.733   1.379   2.928  0.4895  3.9332  0.4847
 4151SOL     OW23914   3.206   0.961  11.215 -0.7062 -0.0632  0.4941
 4151SOL    HW123915   3.126   0.912  11.237  0.3669 -1.0747  2.1467
 4151SOL    HW223916   3.256   0.951  11.296 -0.2978  0.5873  0.3190
 4152SOL     OW23917   3.112   2.671   1.843  0.5720  0.8046 -0.0489
 4152SOL    HW123918   3.202   2.697   1.822  0.4893  0.6759 -0.5739
 4152SOL    HW223919   3.088   2.626   1.762  1.4446 -1.0323  0.7140
 4153SOL     OW23920   0.862   0.858   8.487  0.2676 -0.1042 -0.0200
 4153SOL    HW123921   0.919   0.852   8.564  0.5324 -0.0174 -0.2073
 4153SOL    HW223922   0.918   0.820   8.419  1.4383  2.4742 -0.5186
 4154SOL     OW23923   4.051   4.246  11.840  0.3387  0.7195  0.2312
 4154SOL    HW123924   4.140   4.266  11.868  0.3151  0.9475  0.1387
 4154SOL    HW223925   4.030   4.317  11.780  0.3297  0.5587  0.0454
 4155SOL     OW23926   2.873   3.525   3.169  0.1251  0.4468  0.7062
 4155SOL    HW123927   2.829   3.555   3.090 -1.1823 -1.0027  0.8852
 4155SOL    HW223928   2.922   3.605   3.189  0.1087  0.4322  0.8084
 4156SOL     OW23929   1.693   0.902   8.622 -0.8765 -0.0670  0.2773
 4156SOL    HW123930   1.686   0.834   8.555  0.7583  1.5812 -1.5561
 4156SOL    HW223931   1.612   0.890   8.672 -0.8116 -1.5546  0.0222
 4157SOL     OW23932   0.804   4.041   8.453 -0.3829 -0.5022 -0.4806
 4157SOL    HW123933   0.871   3.973   8.460  1.0072  1.0358  1.1270
 4157SOL    HW223934   0.746   4.009   8.522  2.8332 -1.4461  1.7463
 4158SOL     OW23935   4.357   3.525   2.632  0.1132  0.1908 -0.1111
 4158SOL    HW123936   4.378   3.586   2.703  0.1648 -0.2267  0.2347
 4158SOL    HW223937   4.311   3.587   2.575  0.0716  1.7419  1.5892
 4159SOL     OW23938   2.888   3.795   1.812 -0.1956 -0.0743 -0.9075
 4159SOL    HW123939   2.964   3.781   1.755 -0.6628  1.8850 -1.9806
 4159SOL    HW223940   2.832   3.727   1.775 -1.9926  1.4393 -0.9730
 4160SOL     OW23941   0.320   3.067   8.430  1.1846  0.2012  0.1423
 4160SOL    HW123942   0.316   3.161   8.443  1.3711  0.1191  0.7985
 4160SOL    HW223943   0.271   3.028   8.502 -1.5663  0.8376 -1.4018
 4161SOL     OW23944   0.633   0.785   1.077  0.0129  0.0241  0.3786
 4161SOL    HW123945   0.676   0.838   1.010  0.3802  0.1765  0.7283
 4161SOL    HW223946   0.694   0.711   1.082  0.3853  0.4950  2.8705
 4162SOL     OW23947   4.508   1.976  16.235 -0.1381  0.5916  0.3189
 4162SOL    HW123948   4.565   2.051  16.252  0.2731  0.2434  0.5034
 4162SOL    HW223949   4.464   1.967  16.320 -0.1414  2.7570  0.5455
 4163SOL     OW23950   2.394   0.646   5.217 -0.0797 -0.0065 -0.2000
 4163SOL    HW123951   2.310   0.635   5.173 -0.0316 -0.4388 -0.1846
 4163SOL    HW223952   2.403   0.740   5.228  0.6854  0.1609 -2.3436
 4164SOL     OW23953   3.569   0.283   0.137  0.4552  0.0445 -0.1864
 4164SOL    HW123954   3.578   0.378   0.132  0.5271  0.1095  1.0577
 4164SOL    HW223955   3.482   0.269   0.101 -0.1801  2.5673  0.3463
 4165SOL     OW23956   2.373   3.403   0.106 -0.0952 -0.4131 -0.2456
 4165SOL    HW123957   2.458   3.362   0.124  0.9838  1.5716 -0.8362
 4165SOL    HW223958   2.393   3.491   0.074 -2.7230  1.3292  2.9170
 4166SOL     OW23959   4.278   1.169   3.175  0.0174 -0.0103 -0.0009
 4166SOL    HW123960   4.359   1.218   3.172  0.9717 -1.5761  0.0449
 4166SOL    HW223961   4.210   1.232   3.151 -1.2194 -0.1668  3.0619
 4167SOL     OW23962   0.980   1.331  17.393 -0.1884  0.0720 -0.4093
 4167SOL    HW123963   0.911   1.314  17.458 -0.4718  1.1809 -0.4034
 4167SOL    HW223964   1.030   1.250  17.385 -0.5810 -0.2937  0.7517
 4168SOL     OW23965   0.005   4.617  16.778  0.2993  0.4440  0.4191
 4168SOL    HW123966   4.683   4.622  16.860  1.7910 -0.1507  1.3505
 4168SOL    HW223967   0.022   4.710  16.762 -0.9082  0.7530  0.9593
 4169SOL     OW23968   2.177   4.462  12.786 -0.2985 -0.0708 -0.2023
 4169SOL    HW123969   2.234   4.522  12.835  0.8504 -1.4122  0.0814
 4169SOL    HW223970   2.242   4.426  12.726  0.2665 -0.3552  0.5862
 4170SOL     OW23971   3.444   4.650   3.557  0.4641 -0.5899  0.8806
 4170SOL    HW123972   3.516   4.712   3.543 -0.9304  1.0426  1.0810
 4170SOL    HW223973   3.409   4.644   3.469  1.4727 -1.1509  0.5101
 4171SOL     OW23974   4.545   3.030   5.558  0.0965  0.5765 -0.4066
 4171SOL    HW123975   4.484   3.042   5.485  1.4919 -0.3261 -1.7072
 4171SOL    HW223976   4.548   2.935   5.570  0.6339  0.4541 -1.5422
 4172SOL     OW23977   3.916   0.545   1.080 -0.1473  0.4206 -0.1856
 4172SOL    HW123978   3.959   0.513   1.000  1.7295 -1.4916  1.5833
 4172SOL    HW223979   3.980   0.518   1.145 -0.9629 -0.4575  0.2446
 4173SOL     OW23980   2.705   3.881   7.993  0.0008 -0.2930  0.2633
 4173SOL    HW123981   2.761   3.945   8.037  1.0008 -0.2845 -1.0143
 4173SOL    HW223982   2.620   3.918   8.018 -0.5075 -2.2108  1.3148
 4174SOL     OW23983   4.010   2.774   2.523 -0.1243 -0.3391 -0.7366
 4174SOL    HW123984   4.090   2.786   2.472  0.1492 -2.0463 -0.7190
 4174SOL    HW223985   3.969   2.860   2.512  1.0656  0.2108 -0.7837
 4175SOL     OW23986   0.968   2.918  10.705 -0.1289 -0.5606  0.3103
 4175SOL    HW123987   0.995   2.881  10.621 -0.5345 -1.5822  0.6324
 4175SOL    HW223988   0.957   2.837  10.755 -0.2099 -0.6501  0.1465
 4176SOL     OW23989   2.594   0.476  14.431 -0.2255 -0.0512  0.5018
 4176SOL    HW123990   2.564   0.495  14.342 -0.9326  0.5575  0.8716
 4176SOL    HW223991   2.613   0.384  14.413 -0.5213  0.0635 -0.3915
 4177SOL     OW23992   4.155   3.490   8.189  0.2599 -0.3258 -0.0615
 4177SOL    HW123993   4.157   3.462   8.097 -0.2493 -0.7359  0.0485
 4177SOL    HW223994   4.132   3.583   8.190  3.3060  0.3944  1.7630
 4178SOL     OW23995   4.329   4.387  11.662 -0.0699 -0.1400  0.6201
 4178SOL    HW123996   4.409   4.334  11.661 -1.1427 -1.7521 -1.4660
 4178SOL    HW223997   4.374   4.470  11.653 -0.0150 -0.1907  0.4368
 4179SOL     OW23998   2.340   3.234   7.307 -0.1113 -0.1616 -0.0361
 4179SOL    HW123999   2.433   3.258   7.313  0.3724 -1.6354 -1.7920
 4179SOL    HW224000   2.329   3.243   7.212 -2.3901 -0.4128  0.2141
 4180SOL     OW24001   3.017   1.463  12.094  0.4479  0.6354  0.1802
 4180SOL    HW124002   3.053   1.535  12.147 -1.3175 -0.0235  2.2598
 4180SOL    HW224003   2.960   1.431  12.164  1.4640 -0.0120  0.7256
 4181SOL     OW24004   0.826   2.484  11.197 -0.0514 -0.2284  0.0885
 4181SOL    HW124005   0.821   2.491  11.293 -0.9370  0.1092  0.0258
 4181SOL    HW224006   0.881   2.406  11.197  2.8273  1.8434 -2.5851
 4182SOL     OW24007   4.561   1.768  16.028  0.2013  0.5871 -0.4102
 4182SOL    HW124008   4.563   1.834  16.097  1.7687 -1.0273  1.0831
 4182SOL    HW224009   4.569   1.686  16.076 -0.1047  0.9473  0.2547
 4183SOL     OW24010   2.970   0.810  11.253 -0.1072  0.0566 -0.0052
 4183SOL    HW124011   2.913   0.819  11.329  0.0887 -0.8567  0.2590
 4183SOL    HW224012   2.931   0.864  11.185  3.4713  0.2440 -1.9005
 4184SOL     OW24013   4.591   0.187   7.364 -0.0527 -0.4629 -0.4304
 4184SOL    HW124014   4.536   0.197   7.286 -0.6978 -3.4583 -0.3570
 4184SOL    HW224015   4.565   0.266   7.412 -0.2628  0.2792 -1.7840
 4185SOL     OW24016   4.188   0.269  11.841  0.9641 -0.1778  0.2107
 4185SOL    HW124017   4.155   0.318  11.765  0.1304 -0.6347  0.2818
 4185SOL    HW224018   4.263   0.318  11.875  0.7639 -1.2551  2.2165
 4186SOL     OW24019   2.733   4.090   1.146  0.4612 -0.3131 -0.0276
 4186SOL    HW124020   2.741   4.020   1.081 -0.2906 -1.0587  0.6932
 4186SOL    HW224021   2.823   4.121   1.140  0.5205 -0.6016 -0.6777
 4187SOL     OW24022   1.290   1.206   4.825 -0.2268  0.2983 -0.3691
 4187SOL    HW124023   1.224   1.198   4.894 -0.8880 -0.7763 -1.1318
 4187SOL    HW224024   1.365   1.231   4.878 -0.6352 -0.0960  0.3969
 4188SOL     OW24025   0.361   4.239   5.029 -0.3219 -0.2116  0.1996
 4188SOL    HW124026   0.370   4.161   5.085 -0.1928 -0.5784 -0.3240
 4188SOL    HW224027   0.301   4.293   5.079 -0.4210  1.3771 -1.6669
 4189SOL     OW24028   3.467   0.474   7.315 -0.4796 -0.2827  0.2630
 4189SOL    HW124029   3.435   0.562   7.338  0.8686  0.3270 -0.2220
 4189SOL    HW224030   3.496   0.448   7.403 -1.6394 -0.5692  0.5618
 4190SOL     OW24031   2.500   3.930   1.217 -0.3283  0.1586 -0.8215
 4190SOL    HW124032   2.437   3.999   1.240 -0.0062  0.2162 -0.1156
 4190SOL    HW224033   2.573   3.992   1.213  1.5495 -1.8416  2.7709
 4191SOL     OW24034   4.293   1.394   3.972  0.4541  0.0493  0.5297
 4191SOL    HW124035   4.229   1.423   4.037 -1.0292  1.4161 -1.5448
 4191SOL    HW224036   4.297   1.468   3.911 -1.4360  0.6854  1.1738
 4192SOL     OW24037   1.514   0.701   5.259 -0.8306  0.1767 -0.3821
 4192SOL    HW124038   1.436   0.747   5.289  0.0141  0.6822  1.0686
 4192SOL    HW224039   1.485   0.613   5.235 -1.1379  0.4410 -0.9671
 4193SOL     OW24040   3.878   0.265   1.345 -0.2744 -0.4962  0.3124
 4193SOL    HW124041   3.784   0.246   1.352 -0.5874  0.5596 -1.1237
 4193SOL    HW224042   3.922   0.187   1.378  1.5833  0.1653 -0.6277
 4194SOL     OW24043   0.604   0.929   0.665 -0.0638 -0.2458  0.1160
 4194SOL    HW124044   0.648   0.944   0.581 -0.0628  3.4038  0.7747
 4194SOL    HW224045   0.548   0.853   0.646  0.2859 -0.1356 -1.4001
 4195SOL     OW24046   3.854   2.376   7.854 -0.1617  0.0029  0.0006
 4195SOL    HW124047   3.900   2.394   7.936  1.0041  1.1558 -0.9012
 4195SOL    HW224048   3.776   2.334   7.891  0.0090 -0.2960  0.0181
 4196SOL     OW24049   3.072   1.981   2.760  0.2049  0.2069  0.1044
 4196SOL    HW124050   2.994   1.932   2.732  0.7207 -0.2239 -0.5838
 4196SOL    HW224051   3.061   2.057   2.703 -1.2521  0.0398  0.1488
 4197SOL     OW24052   0.689   3.638   6.345  0.0910  0.5412 -0.0236
 4197SOL    HW124053   0.770   3.588   6.361  0.8023  2.0678  1.1337
 4197SOL    HW224054   0.682   3.667   6.436  1.0910 -0.0949  0.2640
 4198SOL     OW24055   2.300   0.870   1.352 -0.0921 -0.8115 -0.3914
 4198SOL    HW124056   2.241   0.881   1.277 -2.0707 -2.6109  0.9017
 4198SOL    HW224057   2.262   0.789   1.386  1.5689 -0.4361  2.2875
 4199SOL     OW24058   4.332   0.140   2.861  0.1366 -0.1982 -0.3137
 4199SOL    HW124059   4.407   0.163   2.916  1.2100 -0.9072 -1.4954
 4199SOL    HW224060   4.357   0.188   2.782  1.2724 -1.9345 -1.0015
 4200SOL     OW24061   3.304   3.489  11.615 -0.5170 -0.5849 -0.4860
 4200SOL    HW124062   3.390   3.519  11.646 -0.1770 -1.1355 -0.9121
 4200SOL    HW224063   3.291   3.561  11.553  0.6640  0.4561  0.4758
 4201SOL     OW24064   1.627   4.187   4.185  0.0148 -0.0597 -0.1902
 4201SOL    HW124065   1.665   4.154   4.266 -0.5624 -0.9672 -0.2923
 4201SOL    HW224066   1.538   4.207   4.214 -0.0216 -0.8162  0.2006
 4202SOL     OW24067   1.715   2.598   6.738  0.0679  0.4087 -0.7264
 4202SOL    HW124068   1.719   2.693   6.735 -1.3650  0.5388  1.5102
 4202SOL    HW224069   1.666   2.590   6.820 -2.6978  0.9757 -2.3167
 4203SOL     OW24070   2.411   3.655   2.292 -0.2166  0.0561  0.3238
 4203SOL    HW124071   2.446   3.707   2.219  0.1470 -1.4078 -0.5491
 4203SOL    HW224072   2.378   3.730   2.341  1.0627 -0.2980  1.7445
 4204SOL     OW24073   1.960   3.486   1.359  0.2109  0.2542 -0.6049
 4204SOL    HW124074   1.873   3.475   1.397  0.4128  2.0586  0.3602
 4204SOL    HW224075   2.021   3.466   1.430 -0.1449 -2.0192 -0.9389
 4205SOL     OW24076   4.306   3.368   7.403 -0.5543  0.0817 -0.5674
 4205SOL    HW124077   4.300   3.324   7.318  1.2568 -0.5061 -0.3841
 4205SOL    HW224078   4.255   3.303   7.450 -0.4442 -0.3167 -1.0020
 4206SOL     OW24079   4.598   3.736  16.394  0.1790  0.0189 -0.6533
 4206SOL    HW124080   4.659   3.752  16.323  0.2398  0.3228 -0.5335
 4206SOL    HW224081   4.552   3.820  16.402  1.4936  0.6245  0.5121
 4207SOL     OW24082   1.860   3.095   5.345  0.7126  0.4878 -0.1110
 4207SOL    HW124083   1.916   3.101   5.268  0.0183 -0.1570 -0.6731
 4207SOL    HW224084   1.902   3.026   5.396  1.2750  2.0168  1.4864
 4208SOL     OW24085   1.157   2.475   4.770 -0.3524  0.2488 -0.2365
 4208SOL    HW124086   1.213   2.511   4.701  0.2887 -0.6540 -0.1910
 4208SOL    HW224087   1.078   2.456   4.719 -2.1471 -2.0927  3.4178
 4209SOL     OW24088   3.281   0.179   5.133 -0.4820  0.3480  0.4294
 4209SOL    HW124089   3.367   0.146   5.108 -0.6521 -0.1990  0.5683
 4209SOL    HW224090   3.295   0.259   5.183  0.3968 -0.4005  1.3732
 4210SOL     OW24091   4.671   3.976   7.138  0.7287 -0.1327  0.1280
 4210SOL    HW124092   4.695   4.040   7.205 -0.5660  0.7362 -0.2516
 4210SOL    HW224093   0.014   3.986   7.073  0.8301  0.3975  0.3173
 4211SOL     OW24094   3.841   3.059   4.828 -0.5686 -0.5004 -0.0661
 4211SOL    HW124095   3.814   3.143   4.791  1.0986 -1.1040 -2.6178
 4211SOL    HW224096   3.910   3.034   4.767  0.0155 -1.9142  1.1797
 4212SOL     OW24097   2.705   4.301   6.967  0.2610  0.2173  0.5268
 4212SOL    HW124098   2.734   4.342   6.885 -1.0845 -1.9399 -1.0141
 4212SOL    HW224099   2.717   4.207   6.951  0.4664  0.5480 -1.2848
 4213SOL     OW24100   2.121   0.794   0.918  0.1115  0.5095  0.1605
 4213SOL    HW124101   2.165   0.793   0.833  2.3846  0.1870  1.3525
 4213SOL    HW224102   2.072   0.712   0.916  0.6640  0.1424  1.8311
 4214SOL     OW24103   2.479   0.087   3.197 -0.5879  0.5637 -0.0260
 4214SOL    HW124104   2.456   0.143   3.123  0.3027 -0.2781 -0.9499
 4214SOL    HW224105   2.472   0.002   3.153 -0.6661  0.8201 -0.5149
 4215SOL     OW24106   1.444   0.754  16.705  0.0396 -0.0708 -0.6668
 4215SOL    HW124107   1.352   0.730  16.712  0.0657  0.4346  1.4604
 4215SOL    HW224108   1.439   0.846  16.731  0.1540 -0.3079  0.2024
 4216SOL     OW24109   2.303   2.303   3.013 -0.6466  0.5424  0.2059
 4216SOL    HW124110   2.241   2.334   2.947 -0.2383  0.8438 -0.0411
 4216SOL    HW224111   2.381   2.296   2.957 -0.1689  1.5095  0.7455
 4217SOL     OW24112   3.472   2.201   5.246 -0.6364 -0.8034  0.1623
 4217SOL    HW124113   3.502   2.187   5.157 -1.7384  0.3157 -0.3930
 4217SOL    HW224114   3.389   2.152   5.243  0.0882 -2.0058 -0.1231
 4218SOL     OW24115   3.867   1.471   7.130  0.1399  0.1630 -0.1016
 4218SOL    HW124116   3.856   1.524   7.209  0.8182  1.2525 -0.7479
 4218SOL    HW224117   3.805   1.518   7.074  0.8439  1.0961 -0.0898
 4219SOL     OW24118   1.136   0.899   3.875 -0.0377  0.4112  0.0009
 4219SOL    HW124119   1.086   0.879   3.796  0.4735 -0.9473  0.0233
 4219SOL    HW224120   1.138   0.812   3.916  1.1506  0.5339  0.2145
 4220SOL     OW24121   0.614   3.417  16.013  0.0131 -0.4793  0.0946
 4220SOL    HW124122   0.627   3.497  15.961 -0.7066  0.8304  1.9270
 4220SOL    HW224123   0.693   3.372  15.984  0.1701 -1.3479  1.9104
 4221SOL     OW24124   0.576   3.800   1.438  0.1834  0.1189 -0.2421
 4221SOL    HW124125   0.509   3.754   1.490  0.2752 -2.0197 -2.0375
 4221SOL    HW224126   0.537   3.888   1.433  1.0197  0.5797  1.0376
 4222SOL     OW24127   4.130   0.300   2.946 -0.0111  0.4399  0.3239
 4222SOL    HW124128   4.181   0.363   2.895 -0.2942  0.5312  0.1573
 4222SOL    HW224129   4.182   0.221   2.933 -0.3650  0.3078 -0.2873
 4223SOL     OW24130   0.612   1.150   6.140 -0.0821 -0.3291  0.2507
 4223SOL    HW124131   0.656   1.087   6.084 -0.4328  1.3295 -1.8828
 4223SOL    HW224132   0.539   1.179   6.086  2.5006  2.1094 -1.9521
 4224SOL     OW24133   0.351   0.957   1.648 -0.5250 -0.4700 -0.0850
 4224SOL    HW124134   0.282   0.898   1.676 -0.2099 -0.0493  1.5574
 4224SOL    HW224135   0.399   0.899   1.589  0.6139  1.2045 -0.8246
 4225SOL     OW24136   0.477   4.071   8.608 -0.3047 -0.1089 -0.4304
 4225SOL    HW124137   0.390   4.103   8.633  1.0492  1.1081  2.7166
 4225SOL    HW224138   0.529   4.146   8.635 -0.5159  0.3672 -1.3294
 4226SOL     OW24139   4.038   2.686   3.443  0.3214 -0.1129  0.2207
 4226SOL    HW124140   4.049   2.663   3.536  1.9086 -1.7437 -0.3623
 4226SOL    HW224141   4.127   2.710   3.420  0.8153 -0.7865  1.4231
 4227SOL     OW24142   0.927   2.431   9.000  0.3020  0.4335  0.3102
 4227SOL    HW124143   0.915   2.433   8.905 -1.4199 -1.2365  0.5046
 4227SOL    HW224144   0.919   2.342   9.034 -1.1118  0.4700  0.0825
 4228SOL     OW24145   0.332   2.416   5.264  0.4644  0.1197  0.3287
 4228SOL    HW124146   0.316   2.323   5.280 -0.8221  0.4763  1.1613
 4228SOL    HW224147   0.425   2.430   5.279  0.3805 -0.6745  1.6624
 4229SOL     OW24148   0.515   2.897   8.010 -0.1648 -0.0087  0.2849
 4229SOL    HW124149   0.576   2.969   8.029  1.4722 -1.5757  0.9721
 4229SOL    HW224150   0.452   2.911   8.080 -0.5495 -1.1873  0.1736
 4230SOL     OW24151   0.385   4.254  15.376 -0.0574  0.1466  0.1611
 4230SOL    HW124152   0.458   4.211  15.422 -1.4383  0.5764  2.7839
 4230SOL    HW224153   0.389   4.343  15.411 -2.4327  0.0147  0.7390
 4231SOL     OW24154   2.449   0.689   1.786 -0.1780 -0.8553 -0.0385
 4231SOL    HW124155   2.482   0.772   1.818  0.1660 -0.9809 -0.0607
 4231SOL    HW224156   2.362   0.692   1.825 -0.1530 -0.8797  0.0185
 4232SOL     OW24157   0.081   3.143   3.729 -0.7401 -0.2620  0.4666
 4232SOL    HW124158   0.128   3.204   3.785  0.0662  1.8244 -2.4580
 4232SOL    HW224159   0.013   3.198   3.689  1.4455  2.2611  0.1914
 4233SOL     OW24160   3.036   2.100  15.737  0.2441 -0.3403 -0.4752
 4233SOL    HW124161   2.946   2.070  15.733  0.3020 -0.5785  0.0273
 4233SOL    HW224162   3.084   2.017  15.739 -0.0512 -0.4799  0.4292
 4234SOL     OW24163   3.434   4.134  14.838 -0.5427  0.2203 -0.8306
 4234SOL    HW124164   3.527   4.110  14.838 -0.7284 -0.4946  0.6894
 4234SOL    HW224165   3.425   4.164  14.928 -0.4471 -1.4013 -0.2794
 4235SOL     OW24166   1.289   1.345   8.344 -0.4461  0.1070 -0.1355
 4235SOL    HW124167   1.328   1.290   8.412  0.7386 -0.1596 -1.0330
 4235SOL    HW224168   1.202   1.368   8.378  0.1441 -0.1503  1.5231
 4236SOL     OW24169   1.705   4.543  16.634  0.2816 -0.2682 -0.4964
 4236SOL    HW124170   1.678   4.633  16.616 -0.7365 -0.3782  0.5202
 4236SOL    HW224171   1.727   4.521  16.543  0.8719 -1.7572 -0.0047
 4237SOL     OW24172   2.323   4.054  10.221  0.0470  0.0251  0.2082
 4237SOL    HW124173   2.292   4.007  10.143  2.2183 -0.1477 -0.5660
 4237SOL    HW224174   2.412   4.019  10.227 -0.8621 -2.1076  1.1457
 4238SOL     OW24175   0.415   2.227  13.484 -0.5138 -0.0807 -0.6928
 4238SOL    HW124176   0.395   2.244  13.576  0.3005  0.9926 -0.7131
 4238SOL    HW224177   0.337   2.178  13.459  1.1214 -2.7672 -0.4893
 4239SOL     OW24178   3.104   0.693   9.966 -0.5270  0.2086 -0.1099
 4239SOL    HW124179   3.091   0.608   9.924 -3.2777  0.7147 -0.2979
 4239SOL    HW224180   3.128   0.667  10.055 -0.5324  1.4430  0.2478
 4240SOL     OW24181   1.326   1.349  17.240 -0.4305  0.5340 -0.1045
 4240SOL    HW124182   1.257   1.404  17.203 -0.6716 -0.0600 -0.5264
 4240SOL    HW224183   1.385   1.409  17.285 -1.6498  1.0150  0.8667
 4241SOL     OW24184   1.903   2.871   5.037  0.2821 -0.0553  0.2022
 4241SOL    HW124185   1.971   2.896   4.976  1.8564 -0.9852  1.5728
 4241SOL    HW224186   1.953   2.846   5.115  1.8705  1.5379 -0.3174
 4242SOL     OW24187   1.496   4.702   2.967 -0.3080  0.7078  0.5401
 4242SOL    HW124188   1.555   4.633   2.997 -0.6105  0.0487 -0.3908
 4242SOL    HW224189   1.485   4.682   2.875  1.8086  2.5558 -0.1173
 4243SOL     OW24190   3.985   3.086   3.775  0.1089 -0.1561  0.2728
 4243SOL    HW124191   4.041   3.091   3.853  0.6432  0.4088 -0.1476
 4243SOL    HW224192   4.054   3.063   3.712 -0.8636  0.8026 -1.1214
 4244SOL     OW24193   4.084   0.706   4.751  0.7136 -0.0548 -0.0072
 4244SOL    HW124194   4.077   0.611   4.762  1.6814 -0.1356 -0.0834
 4244SOL    HW224195   4.159   0.726   4.807  1.8214 -1.6212 -0.9393
 4245SOL     OW24196   4.165   4.678   9.075  0.1745 -0.3594 -0.1094
 4245SOL    HW124197   4.127   0.004   9.145 -1.5892 -2.2700  0.3707
 4245SOL    HW224198   4.246   4.643   9.112  0.7343  1.3544  0.2936
 4246SOL     OW24199   4.385   3.348   2.291 -0.6243 -0.1560  0.2950
 4246SOL    HW124200   4.425   3.414   2.235  3.3831 -1.8363  1.1957
 4246SOL    HW224201   4.401   3.277   2.229 -2.2369 -1.0063  0.8343
 4247SOL     OW24202   3.455   0.525   5.871  0.1098  0.4691 -0.3670
 4247SOL    HW124203   3.389   0.474   5.824 -0.1286  0.1976  0.2629
 4247SOL    HW224204   3.531   0.477   5.839 -1.1518 -0.9719 -1.1853
 4248SOL     OW24205   1.937   1.474  13.750  0.2673  0.2432  0.7558
 4248SOL    HW124206   2.021   1.463  13.705 -0.4121 -1.9201  0.0505
 4248SOL    HW224207   1.939   1.416  13.826 -2.0320 -0.0303  0.6117
 4249SOL     OW24208   3.077   0.361   4.716 -0.3924 -0.3427 -0.5800
 4249SOL    HW124209   3.061   0.336   4.624 -1.8981 -2.7569  0.3323
 4249SOL    HW224210   3.067   0.277   4.761  3.3099 -1.1270 -1.1783
 4250SOL     OW24211   0.016   4.525   4.683 -0.3853 -0.3215  0.3214
 4250SOL    HW124212   4.684   4.450   4.686  0.8165 -1.2471  0.8691
 4250SOL    HW224213   4.689   4.588   4.730  1.6535 -0.4083  2.7709
 4251SOL     OW24214   0.150   0.219   5.806 -0.0843  0.3727  0.6897
 4251SOL    HW124215   0.229   0.239   5.757 -1.1098  3.0255  0.1377
 4251SOL    HW224216   0.148   0.285   5.875  2.3359 -0.7810  1.8854
 4252SOL     OW24217   0.204   0.405   2.687  0.3690 -0.0359 -0.3533
 4252SOL    HW124218   0.131   0.372   2.738 -0.4895  2.3519 -0.0326
 4252SOL    HW224219   0.173   0.382   2.599  0.8074  0.2812 -0.5919
 4253SOL     OW24220   3.716   0.585  16.120 -0.3391 -0.2100 -0.2674
 4253SOL    HW124221   3.678   0.672  16.118 -0.7410 -0.3411  1.3508
 4253SOL    HW224222   3.760   0.583  16.205 -1.2724  3.2339  0.3066
 4254SOL     OW24223   3.323   1.265   3.356 -0.0261  0.5012 -0.4701
 4254SOL    HW124224   3.305   1.184   3.404  0.8332  1.5359  1.5916
 4254SOL    HW224225   3.406   1.294   3.392 -0.8851  1.8400  0.3969
 4255SOL     OW24226   4.128   4.025   4.975  0.1514 -0.2683 -0.2961
 4255SOL    HW124227   4.167   3.973   4.904  0.9732 -0.6436  0.4367
 4255SOL    HW224228   4.193   4.033   5.045 -0.5611  0.4452  0.2793
 4256SOL     OW24229   4.468   2.587   1.020 -0.1107 -0.2914  0.2176
 4256SOL    HW124230   4.525   2.645   0.969 -0.2086 -1.1140 -0.8081
 4256SOL    HW224231   4.473   2.510   0.964  1.8754 -0.4159  0.5366
 4257SOL     OW24232   3.239   1.759   8.601 -0.6504  0.3351  0.0497
 4257SOL    HW124233   3.167   1.821   8.605  1.1256  2.3787  0.3456
 4257SOL    HW224234   3.315   1.804   8.637  0.8515 -2.4667  0.4240
 4258SOL     OW24235   3.552   1.986   9.854  0.1189  0.0910 -0.4441
 4258SOL    HW124236   3.554   1.904   9.904  1.4004  0.5750  0.3035
 4258SOL    HW224237   3.520   2.048   9.920  0.4965  0.0534 -0.2233
 4259SOL     OW24238   0.760   2.259  16.486 -0.4450 -0.0607 -0.0374
 4259SOL    HW124239   0.789   2.323  16.551 -0.0750  0.2375 -0.4897
 4259SOL    HW224240   0.816   2.183  16.502  2.6273  2.1349 -0.3733
 4260SOL     OW24241   3.750   0.279   4.609 -0.4123 -0.2567 -0.4853
 4260SOL    HW124242   3.728   0.343   4.541 -0.1362 -0.2392 -0.5585
 4260SOL    HW224243   3.819   0.233   4.561  0.8708  0.5187  0.6024
 4261SOL     OW24244   0.396   0.681   2.937 -0.8424  0.3393 -0.2811
 4261SOL    HW124245   0.372   0.676   2.845 -0.0470  0.8904 -0.5146
 4261SOL    HW224246   0.318   0.724   2.971 -0.3211  0.4628  0.7654
 4262SOL     OW24247   2.550   4.073  15.670  0.2661 -0.0546  0.2983
 4262SOL    HW124248   2.576   4.022  15.747 -2.5179  2.0447  2.6117
 4262SOL    HW224249   2.503   4.149  15.705  0.9353 -1.2460  3.8260
 4263SOL     OW24250   2.926   2.479  17.259  0.5906 -0.6495 -0.7188
 4263SOL    HW124251   2.992   2.459  17.326 -1.0262 -0.9657  0.8026
 4263SOL    HW224252   2.961   2.445  17.177  0.0830 -1.5827 -0.5536
 4264SOL     OW24253   0.885   2.853   5.764  0.3813  0.1993  0.5278
 4264SOL    HW124254   0.808   2.804   5.735 -0.3877  2.4508 -1.2002
 4264SOL    HW224255   0.905   2.895   5.680 -0.6722  0.5751  0.4710
 4265SOL     OW24256   0.875   4.075   8.045 -0.2362 -0.0747  0.2194
 4265SOL    HW124257   0.966   4.062   8.018 -0.5139  0.1399 -0.7888
 4265SOL    HW224258   0.892   4.063   8.139 -0.9823  0.4643  0.4222
 4266SOL     OW24259   2.234   0.533   0.329 -0.4180 -0.0265 -0.8715
 4266SOL    HW124260   2.163   0.567   0.274 -1.5594 -1.0990 -0.0520
 4266SOL    HW224261   2.303   0.597   0.311  1.2843 -1.0065  2.2582
 4267SOL     OW24262   1.208   2.916   4.127  0.6528  0.2336 -0.0057
 4267SOL    HW124263   1.179   2.896   4.039 -1.7790 -1.3233  1.1637
 4267SOL    HW224264   1.146   2.862   4.176  0.1745 -0.3129 -1.2113
 4268SOL     OW24265   3.840   0.599   5.303  0.3691  0.6158 -0.2795
 4268SOL    HW124266   3.822   0.658   5.230  0.4138  0.8135 -0.1315
 4268SOL    HW224267   3.857   0.516   5.259 -2.6193  1.0897 -2.3297
 4269SOL     OW24268   0.241   2.717   3.952  0.3345 -0.0639  0.2974
 4269SOL    HW124269   0.248   2.757   3.866  1.3635 -0.6888  0.0978
 4269SOL    HW224270   0.236   2.623   3.938  0.3911 -0.1376  0.7708
 4270SOL     OW24271   0.905   3.973  10.749 -0.3407  0.2275  0.3173
 4270SOL    HW124272   0.848   4.003  10.820 -0.9855 -1.1804  0.4015
 4270SOL    HW224273   0.831   3.929  10.706 -0.3598  0.4726  0.0990
 4271SOL     OW24274   3.330   0.570  15.941 -0.1026 -0.2294 -0.3548
 4271SOL    HW124275   3.332   0.665  15.934  2.5762 -0.2020  0.8179
 4271SOL    HW224276   3.333   0.546  15.848  3.3288  1.5259 -0.7015
 4272SOL     OW24277   2.613   3.414   2.525  0.0409 -0.4519 -0.0103
 4272SOL    HW124278   2.679   3.472   2.487  1.4282 -0.2926  2.6319
 4272SOL    HW224279   2.671   3.339   2.526  0.4256 -0.1359  1.2614
 4273SOL     OW24280   1.735   2.511  17.468 -0.0796  0.5156 -0.1906
 4273SOL    HW124281   1.819   2.551  17.445  1.0473 -1.1663  1.0130
 4273SOL    HW224282   1.708   2.579  17.531  0.8979  0.4169  0.3340
 4274SOL     OW24283   3.860   2.574   3.822  0.0848 -0.9193  0.1850
 4274SOL    HW124284   3.884   2.567   3.914  1.2815  1.2178  0.0307
 4274SOL    HW224285   3.947   2.589   3.785 -0.1200 -0.9826 -0.3290
 4275SOL     OW24286   0.612   3.369   7.447  0.2029  0.7702  0.2889
 4275SOL    HW124287   0.527   3.359   7.405  0.4327  0.9024 -0.2126
 4275SOL    HW224288   0.677   3.375   7.376  0.0475  2.0211  0.2411
 4276SOL     OW24289   0.384   3.056   6.439  0.0329  0.2533 -0.0019
 4276SOL    HW124290   0.445   3.058   6.514 -1.8626 -1.0309  1.5814
 4276SOL    HW224291   0.313   3.000   6.470 -0.4899  0.4126 -0.9367
 4277SOL     OW24292   3.769   2.322  16.640  0.2573 -0.3901  0.3605
 4277SOL    HW124293   3.817   2.372  16.706  2.4504 -1.6563 -0.2708
 4277SOL    HW224294   3.784   2.366  16.556  1.9303  0.3362  1.0430
 4278SOL     OW24295   4.593   4.336  12.125  0.2336  0.3286  0.4082
 4278SOL    HW124296   4.659   4.303  12.064  0.2753 -1.6982  1.5409
 4278SOL    HW224297   4.644   4.364  12.200  1.1446  0.0960 -0.1201
 4279SOL     OW24298   0.241   4.189   8.693  0.0598  0.1005  0.0068
 4279SOL    HW124299   0.187   4.261   8.662 -0.3366  0.3647  1.2783
 4279SOL    HW224300   0.278   4.236   8.768 -2.0609  1.0472  0.4598
 4280SOL     OW24301   2.423   2.781  14.051 -0.1161 -0.2166 -0.1510
 4280SOL    HW124302   2.430   2.876  14.061  0.4173 -0.4479  1.5704
 4280SOL    HW224303   2.416   2.785  13.955 -0.3541  0.3189 -0.1119
 4281SOL     OW24304   3.039   0.065   2.683 -0.1003  0.3043 -0.0894
 4281SOL    HW124305   3.121   0.020   2.662 -0.1622  0.5214 -0.8261
 4281SOL    HW224306   3.064   0.114   2.761 -3.2492 -0.9352  1.6789
 4282SOL     OW24307   2.734   0.093   9.179 -0.7060  0.8634  0.3436
 4282SOL    HW124308   2.788   0.164   9.212  2.2040 -1.2784  0.1954
 4282SOL    HW224309   2.756   0.029   9.247 -0.3623  0.7235  0.1013
 4283SOL     OW24310   3.069   2.324   5.225  0.9119  0.5323  0.2734
 4283SOL    HW124311   3.071   2.229   5.218  1.1808  0.5806 -0.3117
 4283SOL    HW224312   3.068   2.347   5.132 -1.9023  3.4098  1.0093
 4284SOL     OW24313   3.474   1.365   8.155  0.3152 -0.0681  0.3108
 4284SOL    HW124314   3.471   1.333   8.245  1.2437  2.0862  1.1265
 4284SOL    HW224315   3.447   1.290   8.102  1.1961 -2.1400  2.8202
 4285SOL     OW24316   2.806   1.633   4.938  0.9188 -0.2410 -0.0696
 4285SOL    HW124317   2.766   1.581   4.868 -0.6428 -0.1822  0.7596
 4285SOL    HW224318   2.735   1.633   5.003  0.7928 -1.0240 -0.2015
 4286SOL     OW24319   1.772   3.257   1.805  0.0659 -0.2511  0.0244
 4286SOL    HW124320   1.849   3.244   1.751  1.4522  0.0518  1.9396
 4286SOL    HW224321   1.725   3.323   1.754  2.0530  1.2679  0.2080
 4287SOL     OW24322   0.128   4.217   5.239 -0.0994 -0.2468  0.0099
 4287SOL    HW124323   0.085   4.259   5.165  1.5980  0.4960 -0.5502
 4287SOL    HW224324   0.107   4.126   5.216  0.9394 -1.0009  2.0637
 4288SOL     OW24325   4.597   2.287   2.834  0.2491 -0.2162 -0.0835
 4288SOL    HW124326   4.596   2.313   2.742  0.5696 -2.4211 -0.7184
 4288SOL    HW224327   4.665   2.350   2.858 -0.0289  0.3022 -0.6491
 4289SOL     OW24328   0.530   0.304   4.897  0.2924  0.4193 -0.0828
 4289SOL    HW124329   0.450   0.301   4.949 -0.0514 -1.3405 -0.7281
 4289SOL    HW224330   0.569   0.384   4.933  2.5142 -0.5185 -0.4448
 4290SOL     OW24331   0.389   1.713  14.093  0.0704 -0.2809  0.7826
 4290SOL    HW124332   0.426   1.640  14.143 -1.1595  0.0708  2.2027
 4290SOL    HW224333   0.333   1.664  14.032 -0.4325  0.1418  0.9110
 4291SOL     OW24334   2.301   1.657  10.438  0.0684  0.0010 -0.4852
 4291SOL    HW124335   2.308   1.753  10.446 -1.3366 -0.1935  2.9725
 4291SOL    HW224336   2.265   1.641  10.351  1.0595  0.3495 -0.9641
 4292SOL     OW24337   3.451   2.776   5.622  0.7373 -0.0205  0.2147
 4292SOL    HW124338   3.537   2.810   5.648  0.9110 -0.0134 -0.3669
 4292SOL    HW224339   3.476   2.688   5.592 -1.9898 -0.1169 -1.7179
 4293SOL     OW24340   4.189   1.988  16.713 -0.7651  0.4053 -0.0534
 4293SOL    HW124341   4.162   1.896  16.707 -0.6343  0.2857  1.2008
 4293SOL    HW224342   4.150   2.028  16.636 -1.1887  0.2896  0.1030
 4294SOL     OW24343   1.217   2.322   2.962 -0.1274  0.6543  0.1382
 4294SOL    HW124344   1.180   2.234   2.965 -0.8791  0.9708  0.1963
 4294SOL    HW224345   1.141   2.379   2.948 -1.0546 -0.5189  0.4475
 4295SOL     OW24346   2.922   3.463   9.640  0.4660 -0.8241  0.1525
 4295SOL    HW124347   2.962   3.543   9.605 -2.4430  0.9315  0.8222
 4295SOL    HW224348   2.991   3.398   9.627  0.0913 -0.4999 -3.6112
 4296SOL     OW24349   0.506   1.042   2.740  0.0727 -0.1167  0.2409
 4296SOL    HW124350   0.445   0.985   2.695  1.7871 -2.1620  0.5218
 4296SOL    HW224351   0.455   1.122   2.749  0.7013  0.1683  1.4097
 4297SOL     OW24352   4.176   0.139   5.687 -0.1377 -0.2762 -0.2221
 4297SOL    HW124353   4.253   0.124   5.742 -0.0789  0.8021 -0.0023
 4297SOL    HW224354   4.106   0.125   5.751 -0.1926 -1.5821 -0.5620
 4298SOL     OW24355   4.006   2.637   9.939 -0.0051  0.5569  0.9954
 4298SOL    HW124356   3.924   2.681   9.917  0.4135  0.8949  0.1087
 4298SOL    HW224357   4.044   2.692  10.007  1.2393  1.2418 -0.2362
 4299SOL     OW24358   3.539   1.867  12.525 -0.2117 -0.1102  0.2551
 4299SOL    HW124359   3.544   1.941  12.463  2.3319 -0.6499 -0.1982
 4299SOL    HW224360   3.544   1.795  12.463  1.8573  0.8120 -0.6504
 4300SOL     OW24361   0.580   2.137  15.983  0.0407 -0.2129  0.1050
 4300SOL    HW124362   0.576   2.114  15.891  1.4480  0.6253 -0.1615
 4300SOL    HW224363   0.668   2.170  16.001 -0.1512  0.4493 -0.1845
 4301SOL     OW24364   1.285   2.777   5.421  0.3717  0.3071  0.2524
 4301SOL    HW124365   1.217   2.809   5.362  0.4465 -2.5252 -1.3810
 4301SOL    HW224366   1.242   2.735   5.495  0.0758 -1.5613 -0.9715
 4302SOL     OW24367   3.034   1.114  10.702  0.1576  0.7837 -0.0906
 4302SOL    HW124368   3.087   1.172  10.757  1.2827 -1.0341  0.7286
 4302SOL    HW224369   3.054   1.025  10.731  1.1169  0.6955 -1.0129
 4303SOL     OW24370   1.184   1.405   2.279  0.0046 -0.3280 -0.2658
 4303SOL    HW124371   1.095   1.433   2.298 -0.4500 -2.4712  0.7202
 4303SOL    HW224372   1.207   1.434   2.191 -1.9532  1.0580 -0.3120
 4304SOL     OW24373   3.729   0.236   5.062 -0.5083  0.0808  0.9090
 4304SOL    HW124374   3.794   0.214   4.996 -2.2056 -1.1066 -0.3773
 4304SOL    HW224375   3.749   0.167   5.125 -2.4430 -0.7185  0.6500
 4305SOL     OW24376   2.569   0.956   7.082  0.3067  0.1340 -0.0988
 4305SOL    HW124377   2.508   0.907   7.026 -0.5354 -1.0657  1.8540
 4305SOL    HW224378   2.508   1.024   7.110  1.1928  0.1674  1.7254
 4306SOL     OW24379   3.242   3.574  12.611  0.5441  0.4255  0.1666
 4306SOL    HW124380   3.254   3.480  12.619  0.2755  0.3032 -0.8395
 4306SOL    HW224381   3.190   3.565  12.531  1.4870 -2.0001 -0.1575
 4307SOL     OW24382   1.208   2.210   3.257 -0.9108 -0.1251  0.2958
 4307SOL    HW124383   1.132   2.213   3.199 -0.8481 -3.0774  0.0762
 4307SOL    HW224384   1.241   2.121   3.246 -1.0124 -0.2544  1.0451
 4308SOL     OW24385   3.666   4.081  14.975  0.2076 -0.1703 -0.4446
 4308SOL    HW124386   3.746   4.033  14.954  2.4298  3.1052  0.5803
 4308SOL    HW224387   3.672   4.081  15.071  0.2997 -0.6949 -0.4490
 4309SOL     OW24388   4.049   0.099   3.539  0.2265  0.3543 -0.2928
 4309SOL    HW124389   4.057   0.027   3.477 -1.9640 -0.5208  0.4367
 4309SOL    HW224390   3.990   0.156   3.490  1.0147  1.1257 -0.3429
 4310SOL     OW24391   0.317   2.734  10.629 -0.2246  0.7729  0.0205
 4310SOL    HW124392   0.340   2.654  10.674  0.2727 -0.3961 -2.3250
 4310SOL    HW224393   0.370   2.718  10.551  1.3352 -0.8322  1.4113
 4311SOL     OW24394   4.651   2.710   6.560  0.2059  0.3566 -0.1545
 4311SOL    HW124395   4.591   2.719   6.634  1.5109 -1.4606  1.1197
 4311SOL    HW224396   4.635   2.623   6.523  2.3395  0.5812 -1.5920
 4312SOL     OW24397   4.008   3.063   2.592 -0.2175  0.2091  0.2308
 4312SOL    HW124398   4.084   3.020   2.630 -0.1180  1.7891  1.8227
 4312SOL    HW224399   4.047   3.141   2.555  1.2334 -0.3756  0.5398
 4313SOL     OW24400   0.829   4.180   9.715 -0.4340  0.2124 -0.2422
 4313SOL    HW124401   0.861   4.226   9.793  1.4719 -0.2568 -0.7325
 4313SOL    HW224402   0.737   4.169   9.739 -0.3815  0.6372  0.1728
 4314SOL     OW24403   2.541   1.675   0.731 -0.0998  0.5310 -0.3789
 4314SOL    HW124404   2.611   1.681   0.797 -0.7243  1.2507  0.2228
 4314SOL    HW224405   2.486   1.751   0.747  0.3966  0.7236  0.4294
 4315SOL     OW24406   2.549   3.822   2.537  0.0223  0.1311  0.4157
 4315SOL    HW124407   2.576   3.851   2.450 -0.7546 -0.1491  0.0806
 4315SOL    HW224408   2.532   3.906   2.579 -1.0155  0.6999 -1.1552
 4316SOL     OW24409   3.686   0.211   7.833  0.2881 -0.4847 -0.3049
 4316SOL    HW124410   3.728   0.136   7.874  2.8528  1.8189  1.2622
 4316SOL    HW224411   3.720   0.209   7.744  1.3106 -0.3665  0.0861
 4317SOL     OW24412   0.102   4.273   2.297  0.3432 -0.1943 -0.2722
 4317SOL    HW124413   0.133   4.194   2.252 -0.1727 -0.9740  0.7554
 4317SOL    HW224414   0.018   4.249   2.337 -0.2074  1.4890 -0.4420
 4318SOL     OW24415   4.579   2.300  15.836 -0.1997  0.0124  0.0813
 4318SOL    HW124416   4.544   2.243  15.904  1.9915  0.6219  1.7168
 4318SOL    HW224417   4.546   2.258  15.757 -0.2890 -0.4959  0.3864
 4319SOL     OW24418   0.396   1.874   8.030 -0.1005 -0.2508  0.5616
 4319SOL    HW124419   0.445   1.949   8.064  0.5982  0.5107 -2.0743
 4319SOL    HW224420   0.313   1.920   8.042 -1.0537 -1.4056 -1.5488
 4320SOL     OW24421   3.223   4.455   9.111  0.6092 -0.2921  0.6812
 4320SOL    HW124422   3.174   4.536   9.102  0.3434 -0.5907 -0.5092
 4320SOL    HW224423   3.163   4.406   9.168 -0.0367 -1.0574 -0.6722
 4321SOL     OW24424   2.254   2.813   0.163  0.0325 -0.2673  0.0709
 4321SOL    HW124425   2.330   2.846   0.212 -0.1345  0.4640 -0.1657
 4321SOL    HW224426   2.204   2.773   0.234  0.0827  0.4127  0.4898
 4322SOL     OW24427   4.447   1.618   3.367 -0.2034  0.6102  0.3671
 4322SOL    HW124428   4.527   1.649   3.324 -0.3823  1.8958  0.9557
 4322SOL    HW224429   4.383   1.620   3.296 -0.9688 -0.9888  1.0129
 4323SOL     OW24430   0.624   1.177   2.454 -0.0447 -0.5999  1.0041
 4323SOL    HW124431   0.694   1.240   2.437 -0.7300 -0.0585  0.2167
 4323SOL    HW224432   0.557   1.236   2.489 -1.1234 -2.7392  2.5453
 4324SOL     OW24433   1.620   1.111   0.588  0.9107 -0.3368  0.3223
 4324SOL    HW124434   1.609   1.018   0.569  0.9484 -0.2417 -0.1613
 4324SOL    HW224435   1.657   1.147   0.508 -0.0910 -1.6548 -0.7293
 4325SOL     OW24436   2.616   3.704   0.304 -0.0436  0.3910  0.2742
 4325SOL    HW124437   2.682   3.767   0.331  0.6100  0.3496 -1.2147
 4325SOL    HW224438   2.624   3.627   0.360  0.2962  0.6780  0.6154
 4326SOL     OW24439   1.870   4.031   9.513 -0.3505 -0.2100  0.0553
 4326SOL    HW124440   1.845   4.061   9.600  1.2454 -0.7544  0.6913
 4326SOL    HW224441   1.929   4.101   9.487 -0.4337 -0.1744 -0.0377
 4327SOL     OW24442   1.438   0.309   6.584 -0.5756  0.4464  0.0860
 4327SOL    HW124443   1.350   0.345   6.577 -0.8271  0.0247  1.1185
 4327SOL    HW224444   1.470   0.340   6.499 -1.9522 -0.4411 -0.7489
 4328SOL     OW24445   3.374   0.185   7.134 -0.1851 -0.1883 -0.2155
 4328SOL    HW124446   3.318   0.258   7.160  1.8161  0.8893  1.0840
 4328SOL    HW224447   3.329   0.117   7.184  0.1622  0.6344  1.2100
 4329SOL     OW24448   4.544   0.996  16.373  0.2059 -0.6438  0.2007
 4329SOL    HW124449   4.605   0.923  16.365 -1.2654 -1.6960 -1.6990
 4329SOL    HW224450   4.530   0.996  16.468 -0.3769 -1.3166  0.1193
 4330SOL     OW24451   0.187   3.147   4.168 -0.3947 -0.3525 -0.3549
 4330SOL    HW124452   0.235   3.226   4.142 -1.6114  0.1854 -0.9908
 4330SOL    HW224453   0.225   3.084   4.107  0.3645 -0.5554  0.3250
 4331SOL     OW24454   1.047   3.898   9.947  0.0267  0.4202 -0.0240
 4331SOL    HW124455   1.130   3.860   9.976  0.0121 -1.2074 -2.1617
 4331SOL    HW224456   0.980   3.854  10.000  0.3081 -0.6412 -0.5608
 4332SOL     OW24457   4.138   3.555   3.076 -0.0568 -0.4758  0.2505
 4332SOL    HW124458   4.103   3.639   3.048  1.1161 -0.9584 -2.7066
 4332SOL    HW224459   4.232   3.567   3.091 -0.1931  1.1507 -0.2074
 4333SOL     OW24460   3.678   1.301   7.882  0.0569  0.0240 -0.7039
 4333SOL    HW124461   3.597   1.254   7.902  0.9374 -1.6180 -1.0743
 4333SOL    HW224462   3.734   1.284   7.958  1.0691  1.5420 -1.1092
 4334SOL     OW24463   3.238   4.071   6.813 -0.4859 -0.7703  0.4256
 4334SOL    HW124464   3.143   4.056   6.806 -0.6512 -0.2118  1.3839
 4334SOL    HW224465   3.263   3.979   6.813 -0.6190 -0.8070 -0.6198
 4335SOL     OW24466   1.819   4.517  13.896  0.0928  0.3786 -0.5262
 4335SOL    HW124467   1.902   4.490  13.937  0.3664 -0.0749 -1.3877
 4335SOL    HW224468   1.764   4.542  13.971  0.1262 -1.6721  0.1807
 4336SOL     OW24469   3.073   2.238   6.237  0.4024  0.4647  0.1391
 4336SOL    HW124470   3.166   2.226   6.255  0.8674  0.1205 -2.5062
 4336SOL    HW224471   3.054   2.314   6.182 -0.3521 -0.1320 -0.4231
 4337SOL     OW24472   1.339   3.575   1.662 -0.4391 -0.2275 -0.0480
 4337SOL    HW124473   1.304   3.559   1.574  0.1065  0.9982 -0.4854
 4337SOL    HW224474   1.321   3.488   1.697 -2.3199  0.4123  0.5717
 4338SOL     OW24475   3.167   3.780  15.526  0.0734 -0.7070 -0.2390
 4338SOL    HW124476   3.122   3.855  15.486 -1.4487 -0.5376  1.7719
 4338SOL    HW224477   3.252   3.779  15.483  0.8369 -0.5375  1.2751
 4339SOL     OW24478   2.966   2.886   4.265 -0.0897  0.0686 -0.0524
 4339SOL    HW124479   2.941   2.978   4.271  1.1001  0.4924 -1.7128
 4339SOL    HW224480   2.995   2.881   4.174 -0.9756 -1.2334 -0.2686
 4340SOL     OW24481   3.305   3.458   4.063 -0.2644 -0.3392  0.4401
 4340SOL    HW124482   3.247   3.425   4.132 -0.4577 -1.5464 -0.3056
 4340SOL    HW224483   3.376   3.394   4.060 -0.9021 -1.0683  1.0464
 4341SOL     OW24484   0.500   3.650   0.121 -0.3783 -0.2197  0.1081
 4341SOL    HW124485   0.467   3.684   0.038  0.0166 -1.4813 -0.5736
 4341SOL    HW224486   0.464   3.562   0.111 -0.8277  0.0411 -0.5728
 4342SOL     OW24487   0.602   3.102  13.266  0.2646  0.4087  0.5391
 4342SOL    HW124488   0.507   3.097  13.272  0.1957  0.2868 -0.5599
 4342SOL    HW224489   0.610   3.197  13.272 -0.1656  0.3880  1.4638
 4343SOL     OW24490   3.758   2.646   2.653 -0.6064  0.3573 -0.7385
 4343SOL    HW124491   3.767   2.554   2.631  0.5570  0.6844 -1.6641
 4343SOL    HW224492   3.847   2.658   2.688  0.0293 -0.4057 -2.1050
 4344SOL     OW24493   2.561   0.543   3.747  0.3885 -0.2012 -0.0243
 4344SOL    HW124494   2.490   0.567   3.688  0.6687  2.3826  0.6780
 4344SOL    HW224495   2.602   0.629   3.757  0.7110 -0.2974 -0.4917
 4345SOL     OW24496   1.493   4.270  10.733  0.4754 -0.0960  0.3187
 4345SOL    HW124497   1.542   4.351  10.725  1.0288 -0.5331 -0.8365
 4345SOL    HW224498   1.521   4.246  10.821 -2.0419  0.8337  1.3765
 4346SOL     OW24499   1.844   2.304   6.265 -0.8968  0.1689  0.1730
 4346SOL    HW124500   1.835   2.210   6.276  0.0722 -0.1356 -1.6300
 4346SOL    HW224501   1.810   2.327   6.351  0.9030 -0.0456  0.9476
 4347SOL     OW24502   1.259   1.304   1.799  0.3122  0.2770  0.5930
 4347SOL    HW124503   1.165   1.322   1.789  0.3609 -0.2206 -0.8592
 4347SOL    HW224504   1.304   1.386   1.778  3.2211 -1.3863  0.3507
 4348SOL     OW24505   2.328   3.574   7.529 -0.0881  0.4739  0.6824
 4348SOL    HW124506   2.402   3.634   7.533 -0.1404  0.5824  0.0710
 4348SOL    HW224507   2.251   3.618   7.567 -0.3360  1.2387 -0.6956
 4349SOL     OW24508   3.357   3.624  14.426 -0.0357 -0.3562 -0.0412
 4349SOL    HW124509   3.282   3.591  14.377  1.1983 -0.0398 -2.1524
 4349SOL    HW224510   3.325   3.682  14.495 -1.8333 -1.9783  0.4998
 4350SOL     OW24511   4.258   0.814  17.199  0.0432  0.6987  0.1335
 4350SOL    HW124512   4.165   0.810  17.219 -0.2461 -0.4645 -1.4560
 4350SOL    HW224513   4.278   0.889  17.255 -0.2480  1.2687 -0.5277
 4351SOL     OW24514   2.291   1.069   2.819  0.2612  0.3092 -0.3412
 4351SOL    HW124515   2.233   1.108   2.884  1.9330  1.0464  0.6989
 4351SOL    HW224516   2.293   1.121   2.739 -1.3548  1.1528  0.1755
 4352SOL     OW24517   0.685   0.712   7.583  0.1817 -0.4413 -0.0408
 4352SOL    HW124518   0.608   0.738   7.533 -1.6608  2.3668  4.2695
 4352SOL    HW224519   0.733   0.795   7.579 -2.4785  1.0650 -0.8880
 4353SOL     OW24520   4.022   3.234   8.778 -0.0717 -0.1730 -0.0630
 4353SOL    HW124521   3.967   3.156   8.775 -0.2949  0.0524 -1.9081
 4353SOL    HW224522   4.010   3.259   8.870  1.3912 -0.3486  0.1685
 4354SOL     OW24523   2.857   2.695  10.180  0.6702  0.3206 -0.3091
 4354SOL    HW124524   2.908   2.768  10.215 -0.7582  0.7759  0.8749
 4354SOL    HW224525   2.892   2.622  10.232 -0.4086  1.4320  1.9981
 4355SOL     OW24526   0.464   4.648   7.910  0.4862  1.0242 -0.2556
 4355SOL    HW124527   0.461   4.579   7.844 -0.3929  1.8025 -1.0294
 4355SOL    HW224528   0.542   4.625   7.960  0.2250 -1.3323 -0.9415
 4356SOL     OW24529   3.210   2.227  11.975  0.5840  0.2442  0.3526
 4356SOL    HW124530   3.270   2.210  12.048  1.6182  0.9632 -0.3244
 4356SOL    HW224531   3.209   2.322  11.965 -0.3282  0.4100  2.0102
 4357SOL     OW24532   2.924   2.219   6.467 -0.7658  0.0146 -0.7363
 4357SOL    HW124533   2.965   2.224   6.381 -0.7077  1.7091 -0.6080
 4357SOL    HW224534   2.833   2.214   6.439 -0.8663 -1.1725 -0.1839
 4358SOL     OW24535   3.859   2.146   6.855 -0.0515  0.2451  0.1579
 4358SOL    HW124536   3.880   2.208   6.925  1.1128  1.3262 -1.1521
 4358SOL    HW224537   3.860   2.060   6.897  0.3911  0.4350  0.5350
 4359SOL     OW24538   4.035   1.801   7.479 -0.1909  0.3962  0.4108
 4359SOL    HW124539   3.976   1.863   7.522  0.3422  1.6020 -0.6037
 4359SOL    HW224540   4.055   1.743   7.552  0.3633 -0.6694 -0.5978
 4360SOL     OW24541   3.510   2.437   5.793 -0.5173 -0.6818  0.2606
 4360SOL    HW124542   3.579   2.445   5.859 -1.3298 -0.2709  1.0631
 4360SOL    HW224543   3.550   2.464   5.710 -3.3469 -0.3577 -1.0053
 4361SOL     OW24544   2.388   4.015  15.422 -0.0646 -0.0308  0.0186
 4361SOL    HW124545   2.306   3.968  15.430 -0.7327  1.0896 -0.2913
 4361SOL    HW224546   2.417   4.040  15.510  4.0472 -0.7840 -1.1082
 4362SOL     OW24547   3.000   3.162   6.619 -0.0502 -0.2008  0.2517
 4362SOL    HW124548   3.007   3.090   6.682 -0.8801 -0.4293  0.0819
 4362SOL    HW224549   3.073   3.216   6.648 -1.6371  3.4632 -2.6378
 4363SOL     OW24550   0.879   2.953  17.012  0.8276  0.0827 -0.1481
 4363SOL    HW124551   0.946   2.975  17.077 -0.0702 -1.4410  1.3181
 4363SOL    HW224552   0.869   3.032  16.959  2.8561  0.5459  0.1582
 4364SOL     OW24553   0.234   1.672   4.894 -0.3696  0.0964  0.2782
 4364SOL    HW124554   0.162   1.610   4.901 -0.0142  0.0394  3.0925
 4364SOL    HW224555   0.221   1.689   4.800 -2.3915 -0.2596  0.5061
 4365SOL     OW24556   3.926   0.639   0.239 -0.0353  0.5112 -0.3544
 4365SOL    HW124557   3.952   0.706   0.302  0.4673  0.5019 -0.5466
 4365SOL    HW224558   3.901   0.567   0.296  1.4260 -1.3152 -1.9873
 4366SOL     OW24559   1.891   3.777  16.805 -0.4310  0.0678  0.4867
 4366SOL    HW124560   1.798   3.756  16.798 -0.1439 -1.0429  0.0365
 4366SOL    HW224561   1.908   3.757  16.897 -3.0572 -2.1909  0.4648
 4367SOL     OW24562   2.837   0.082  15.462 -0.7841 -0.6221 -0.7682
 4367SOL    HW124563   2.744   0.101  15.474 -0.7761 -1.1606  0.1940
 4367SOL    HW224564   2.866   0.110  15.375  1.8059 -1.9676 -0.3298
 4368SOL     OW24565   2.310   2.805   7.393  0.8070  0.0587 -0.2086
 4368SOL    HW124566   2.323   2.802   7.298 -0.1692 -0.7863 -0.3278
 4368SOL    HW224567   2.335   2.895   7.412 -1.3041  0.0449  2.6920
 4369SOL     OW24568   0.093   0.987   6.399 -0.1059 -0.4796 -0.4215
 4369SOL    HW124569   0.133   0.969   6.484  1.0153  0.6776 -0.7199
 4369SOL    HW224570   0.163   0.967   6.337 -0.5054  0.5595 -1.2042
 4370SOL     OW24571   0.549   2.935   2.063  0.7248 -0.4027 -0.3548
 4370SOL    HW124572   0.611   2.864   2.048 -0.7702 -1.6193 -0.7230
 4370SOL    HW224573   0.482   2.892   2.115  1.7967 -0.9119  0.5879
 4371SOL     OW24574   1.473   3.400   7.108  0.1850  0.3198  0.1529
 4371SOL    HW124575   1.524   3.352   7.173 -2.3233 -1.0701  1.1124
 4371SOL    HW224576   1.447   3.469   7.168  1.1596 -0.5516  1.5869
 4372SOL     OW24577   0.977   4.654  15.354 -0.3915  0.0081  0.0779
 4372SOL    HW124578   0.938   4.568  15.366  2.8740 -1.6693 -1.1886
 4372SOL    HW224579   1.052   4.626  15.301 -0.0614  0.1605  0.4596
 4373SOL     OW24580   3.348   1.333   6.938 -0.1394  0.1550  0.0382
 4373SOL    HW124581   3.346   1.320   7.033  0.9080  1.0542  0.1768
 4373SOL    HW224582   3.255   1.319   6.923 -0.4664  2.9848 -0.5847
 4374SOL     OW24583   3.487   2.593   0.341  0.0540 -0.3953 -0.4142
 4374SOL    HW124584   3.483   2.504   0.307  2.6845 -0.3970 -0.7643
 4374SOL    HW224585   3.488   2.644   0.259  1.2031 -2.0560 -1.4278
 4375SOL     OW24586   4.251   2.878  16.786  0.4650  0.1226  0.1983
 4375SOL    HW124587   4.253   2.782  16.784  2.1170  0.1702  0.0851
 4375SOL    HW224588   4.172   2.880  16.841  1.5843  0.3120  1.7894
 4376SOL     OW24589   4.228   0.094   1.253 -0.0373 -0.3900  0.5673
 4376SOL    HW124590   4.204   0.005   1.280 -3.2252  0.1854 -0.4521
 4376SOL    HW224591   4.253   0.075   1.163  1.9288  0.4693  0.9283
 4377SOL     OW24592   2.632   3.129   0.288 -0.3922 -0.0739 -1.2432
 4377SOL    HW124593   2.593   3.194   0.230 -0.5042 -0.4618 -1.5976
 4377SOL    HW224594   2.725   3.149   0.300 -0.4665  0.3353 -1.3666
 4378SOL     OW24595   0.210   1.879  15.206 -0.1373 -0.1482  0.0806
 4378SOL    HW124596   0.244   1.805  15.155 -0.5626 -0.6860  0.5803
 4378SOL    HW224597   0.291   1.930  15.210 -1.0951  1.3552  0.4319
 4379SOL     OW24598   1.039   2.916   2.012  0.6346 -0.1003  0.0424
 4379SOL    HW124599   1.057   2.887   1.923  1.2756  2.5695 -0.7158
 4379SOL    HW224600   1.029   2.839   2.068 -1.0618 -1.2801 -1.8803
 4380SOL     OW24601   3.829   1.547   2.750  0.4737 -0.0838 -0.1790
 4380SOL    HW124602   3.882   1.511   2.679 -0.3653 -0.1608 -0.7581
 4380SOL    HW224603   3.840   1.639   2.725  0.2075 -0.1536 -0.5468
 4381SOL     OW24604   1.045   3.430   8.491  0.0367 -0.0475 -0.5997
 4381SOL    HW124605   1.094   3.384   8.424  0.2770  0.8308 -1.0330
 4381SOL    HW224606   0.959   3.423   8.449 -0.8086  0.4929  0.9842
 4382SOL     OW24607   0.627   2.104   9.026  0.2440 -0.3024  0.6068
 4382SOL    HW124608   0.564   2.044   8.986  0.3061  0.9517 -1.3889
 4382SOL    HW224609   0.663   2.152   8.952  0.3155  1.2691  1.6713
 4383SOL     OW24610   0.590   3.569   5.368  0.2666 -0.7641 -0.2221
 4383SOL    HW124611   0.587   3.561   5.273  0.4385 -0.2345 -0.2728
 4383SOL    HW224612   0.548   3.484   5.383 -2.0889  0.3930 -0.2049
 4384SOL     OW24613   4.601   0.550   6.063 -0.1126  0.7355 -0.1664
 4384SOL    HW124614   4.575   0.633   6.103  0.1330  0.0889  1.3255
 4384SOL    HW224615   4.520   0.517   6.023 -0.7113  1.0398  0.8023
 4385SOL     OW24616   1.459   4.497   4.192  0.0299  0.5322 -0.1032
 4385SOL    HW124617   1.472   4.531   4.104 -3.6409  0.7443 -0.5445
 4385SOL    HW224618   1.541   4.523   4.235  1.4811 -1.9793 -1.3381
 4386SOL     OW24619   0.359   2.824  15.028 -0.6994  0.5148 -0.5810
 4386SOL    HW124620   0.393   2.913  15.021 -0.1935  0.5102  1.6971
 4386SOL    HW224621   0.296   2.842  15.098  1.6164 -0.0562  1.6395
 4387SOL     OW24622   1.834   1.548   3.837  0.4449 -0.4547  0.4290
 4387SOL    HW124623   1.926   1.566   3.859  1.2032 -2.5941 -1.0041
 4387SOL    HW224624   1.787   1.550   3.921 -0.0160 -2.1979  0.2089
 4388SOL     OW24625   3.347   2.799  17.615  0.1056  0.0343  0.0717
 4388SOL    HW124626   3.403   2.795  17.693 -0.2118  0.1449  0.3024
 4388SOL    HW224627   3.320   2.709  17.597  1.0577 -0.2987  0.2868
 4389SOL     OW24628   1.861   1.862   8.038  0.9812 -0.4812 -0.3887
 4389SOL    HW124629   1.789   1.838   8.096 -0.4344 -0.4189 -2.1447
 4389SOL    HW224630   1.941   1.829   8.079  1.3792  1.4789  0.4267
 4390SOL     OW24631   0.345   2.882  11.392 -0.4033 -0.1822  0.0913
 4390SOL    HW124632   0.368   2.886  11.299  0.7750  2.5295  0.4986
 4390SOL    HW224633   0.313   2.792  11.399  1.6499 -0.8274  1.1831
 4391SOL     OW24634   1.295   3.510  14.869 -0.3434  0.2770 -0.1065
 4391SOL    HW124635   1.277   3.602  14.889  0.0999  0.3949 -0.2541
 4391SOL    HW224636   1.226   3.458  14.910  0.0788 -1.4877 -1.5954
 4392SOL     OW24637   0.145   2.908  16.895 -0.3005 -0.0695 -0.1346
 4392SOL    HW124638   0.160   2.815  16.916  0.6149 -0.5039 -2.6808
 4392SOL    HW224639   0.201   2.954  16.958  1.5348 -1.4306 -0.7424
 4393SOL     OW24640   2.301   4.148   9.057  0.5509  0.1114  0.4853
 4393SOL    HW124641   2.346   4.090   9.119  0.3742  0.0407  0.5465
 4393SOL    HW224642   2.223   4.146   9.113  0.0645 -2.2939 -0.2854
 4394SOL     OW24643   4.371   3.070   3.801 -0.2577  0.1267 -0.2432
 4394SOL    HW124644   4.383   3.148   3.855  0.8129  0.4620 -0.9657
 4394SOL    HW224645   4.307   3.017   3.849  1.7888 -2.3239 -0.2124
 4395SOL     OW24646   4.461   3.591   8.680 -0.1731 -0.3529  0.1373
 4395SOL    HW124647   4.451   3.508   8.633 -1.7256 -0.3039  0.3569
 4395SOL    HW224648   4.430   3.574   8.769 -0.0826 -4.5676 -0.6640
 4396SOL     OW24649   1.236   3.099   9.454 -0.1747 -0.5444 -0.1160
 4396SOL    HW124650   1.176   3.025   9.442  0.0438 -0.1083 -3.9633
 4396SOL    HW224651   1.312   3.045   9.436  0.4675  0.4274 -0.3179
 4397SOL     OW24652   3.701   3.918   3.572 -0.3360  0.6319  0.3539
 4397SOL    HW124653   3.718   3.992   3.514 -0.6536  0.0771 -0.4370
 4397SOL    HW224654   3.607   3.936   3.577 -1.1639 -3.5248 -0.2979
 4398SOL     OW24655   2.131   2.824  14.793 -0.4948  0.4286 -0.1559
 4398SOL    HW124656   2.094   2.739  14.767 -1.0387  2.0217 -4.5275
 4398SOL    HW224657   2.201   2.797  14.853 -0.1299 -0.5162 -0.9925
 4399SOL     OW24658   2.033   0.629   4.899  0.0686  0.1349  0.3671
 4399SOL    HW124659   2.128   0.635   4.901  0.1412 -1.4223  1.3427
 4399SOL    HW224660   2.008   0.721   4.886 -0.3180  0.0164  0.2694
 4400SOL     OW24661   3.060   2.897   3.966 -0.3716 -0.1214  0.3390
 4400SOL    HW124662   2.980   2.867   3.922  0.5125 -1.1693 -0.5631
 4400SOL    HW224663   3.132   2.877   3.906 -1.2572 -2.0398 -0.0910
 4401SOL     OW24664   3.674   2.900  16.822  0.0647 -0.3223 -0.0892
 4401SOL    HW124665   3.604   2.841  16.847  1.2792 -1.9162 -0.3994
 4401SOL    HW224666   3.695   2.934  16.909  0.0059 -1.3237  0.3162
 4402SOL     OW24667   3.740   4.357  12.287  0.0033 -0.1183  0.1740
 4402SOL    HW124668   3.706   4.379  12.374  1.9618 -0.4999  1.0468
 4402SOL    HW224669   3.704   4.428  12.233  0.5438 -0.0152 -0.0479
 4403SOL     OW24670   2.921   4.092   2.940 -0.3348  0.4357 -0.2308
 4403SOL    HW124671   2.889   4.009   2.904  2.0915 -0.6514  0.1064
 4403SOL    HW224672   3.012   4.075   2.967 -1.3796 -1.9766  1.8074
 4404SOL     OW24673   2.105   3.256   8.308 -0.3996 -0.2847  0.1293
 4404SOL    HW124674   2.153   3.311   8.369  1.4817  0.5334 -2.0765
 4404SOL    HW224675   2.037   3.214   8.361  1.7159 -2.1366  1.3824
 4405SOL     OW24676   3.422   2.692   6.188 -0.3065  0.2040 -0.3196
 4405SOL    HW124677   3.394   2.650   6.107  0.4280 -0.2843 -0.3168
 4405SOL    HW224678   3.335   2.726   6.208  0.1314  1.1404 -0.0109
 4406SOL     OW24679   1.841   0.981   8.830  0.9665 -0.8752  0.2264
 4406SOL    HW124680   1.931   0.965   8.801  1.4841  0.9772  0.8195
 4406SOL    HW224681   1.789   0.945   8.759 -0.7186  0.5376  0.7601
 4407SOL     OW24682   0.343   4.718   3.551 -0.3727 -0.5539  0.0841
 4407SOL    HW124683   0.333   4.624   3.538  0.3344 -0.5349 -0.5641
 4407SOL    HW224684   0.331   0.027   3.463  0.7996  2.1241  0.9964
 4408SOL     OW24685   2.063   3.243   6.573  0.4439 -0.0246 -0.0012
 4408SOL    HW124686   1.981   3.282   6.603  0.4620 -1.6474  2.1887
 4408SOL    HW224687   2.030   3.162   6.535  0.5937 -0.6489  1.2013
 4409SOL     OW24688   1.088   2.501   4.063 -0.8458  0.4461  0.5549
 4409SOL    HW124689   1.052   2.579   4.106 -0.3526 -0.0281  1.7997
 4409SOL    HW224690   1.130   2.535   3.983 -3.9352  3.8519  0.3447
 4410SOL     OW24691   1.544   4.637  10.433 -0.1182 -0.4515  0.1768
 4410SOL    HW124692   1.571   4.606  10.520 -1.2645 -0.4249  0.5422
 4410SOL    HW224693   1.454   4.605  10.444 -0.3875 -0.9223 -3.2820
 4411SOL     OW24694   1.548   0.473   3.926 -0.0420  0.2918  0.3949
 4411SOL    HW124695   1.537   0.438   3.837 -0.0898  3.5421 -0.8959
 4411SOL    HW224696   1.571   0.563   3.904 -0.2346  0.2627  0.0631
 4412SOL     OW24697   0.534   3.155   4.638 -0.6186  0.1606 -0.0434
 4412SOL    HW124698   0.462   3.135   4.579 -1.9487  1.8149  1.0284
 4412SOL    HW224699   0.500   3.220   4.699  0.7716  1.7613 -0.9746
 4413SOL     OW24700   2.489   1.470   4.376 -0.4166 -0.0192 -0.2276
 4413SOL    HW124701   2.572   1.470   4.423 -0.1936 -0.9373 -0.6171
 4413SOL    HW224702   2.431   1.435   4.444 -0.6008 -0.3725 -0.5637
 4414SOL     OW24703   4.388   4.163   7.015  0.2353 -0.3519  0.0697
 4414SOL    HW124704   4.366   4.183   7.106  0.7658 -1.2414  0.3851
 4414SOL    HW224705   4.440   4.238   6.985  0.6283 -0.6738 -0.0468
 4415SOL     OW24706   3.887   1.817   7.839 -0.2032 -0.1532  0.0367
 4415SOL    HW124707   3.874   1.897   7.789 -0.3822 -0.0644  0.2275
 4415SOL    HW224708   3.802   1.815   7.883  1.4760  0.1560  3.2997
 4416SOL     OW24709   1.842   1.197  12.722 -0.6311 -0.1705 -0.1524
 4416SOL    HW124710   1.909   1.235  12.664 -0.8072  0.5455  0.1229
 4416SOL    HW224711   1.865   1.104  12.718  0.3928 -0.0514  3.0011
 4417SOL     OW24712   4.150   1.170   5.775  0.1397  0.0175 -0.4799
 4417SOL    HW124713   4.235   1.170   5.730 -0.1013 -1.9121 -0.9291
 4417SOL    HW224714   4.092   1.120   5.718 -1.6707 -0.0942  1.5098
 4418SOL     OW24715   4.347   4.250   1.007  0.8549  0.5471  0.1880
 4418SOL    HW124716   4.425   4.234   1.061 -0.3531  3.4545  2.8149
 4418SOL    HW224717   4.392   4.240   0.923 -1.5967 -2.2738 -0.7631
 4419SOL     OW24718   4.422   2.607   7.365 -0.4185 -0.0489  0.0851
 4419SOL    HW124719   4.517   2.593   7.358 -0.2893  0.5494  0.6322
 4419SOL    HW224720   4.430   2.700   7.389 -0.7251 -0.1063  0.4149
 4420SOL     OW24721   1.659   3.910   0.673  0.2169 -0.1769  0.3308
 4420SOL    HW124722   1.720   3.837   0.684 -0.0527 -0.0325  2.7242
 4420SOL    HW224723   1.688   3.945   0.588  1.3095  0.1527  0.8386
 4421SOL     OW24724   3.546   1.156   0.351 -0.4963  0.4868  1.3891
 4421SOL    HW124725   3.562   1.245   0.385 -1.2533  1.7898 -1.6894
 4421SOL    HW224726   3.463   1.164   0.304  0.3673 -0.6064 -0.2993
 4422SOL     OW24727   1.253   0.607   3.918 -0.6953  0.5170  0.1402
 4422SOL    HW124728   1.242   0.581   4.009  2.2639  2.2429  1.0124
 4422SOL    HW224729   1.342   0.643   3.918 -1.0189  1.2912  2.3472
 4423SOL     OW24730   4.417   4.205   5.491  0.2041  0.3180  0.7210
 4423SOL    HW124731   4.380   4.176   5.575  1.3889 -1.7163  0.5597
 4423SOL    HW224732   4.439   4.119   5.454 -2.0962 -0.0729  0.2771
 4424SOL     OW24733   2.370   0.518   5.505 -0.8437 -0.1494  0.7219
 4424SOL    HW124734   2.307   0.470   5.451 -0.5520 -0.7183  0.8849
 4424SOL    HW224735   2.417   0.561   5.433 -2.2349 -0.9188 -0.6552
 4425SOL     OW24736   4.658   4.418  11.289 -0.0458 -0.0657 -1.0815
 4425SOL    HW124737   4.586   4.363  11.319  1.4962 -1.7416 -0.4276
 4425SOL    HW224738   4.685   4.371  11.211  0.9343  0.4636 -1.0637
 4426SOL     OW24739   0.299   0.170  11.359 -0.0250  0.6036  0.2816
 4426SOL    HW124740   0.218   0.160  11.309  0.6185  0.2991 -0.7030
 4426SOL    HW224741   0.346   0.087  11.353 -0.1869  0.7554 -3.1777
 4427SOL     OW24742   4.330   0.617  13.388  0.1325 -0.1128  0.1517
 4427SOL    HW124743   4.248   0.590  13.430  0.5275 -2.0942 -0.3549
 4427SOL    HW224744   4.336   0.706  13.422  1.5937 -0.2866  0.3337
 4428SOL     OW24745   1.984   2.871   7.925 -0.4523  0.3432  0.1906
 4428SOL    HW124746   2.003   2.925   8.001 -0.0236 -0.3302  0.5656
 4428SOL    HW224747   2.059   2.813   7.913 -1.2973 -0.8356  0.5945
 4429SOL     OW24748   3.279   1.146   4.980  0.1299  0.4532  0.0193
 4429SOL    HW124749   3.332   1.226   4.985  0.1875  0.5930 -2.7257
 4429SOL    HW224750   3.193   1.184   4.962 -0.2164 -1.3735 -2.1440
 4430SOL     OW24751   4.084   1.195   4.838  0.3687 -0.4556  0.2728
 4430SOL    HW124752   4.152   1.128   4.831  1.6379  1.0459 -1.7042
 4430SOL    HW224753   4.053   1.194   4.747  1.5899  0.1415 -0.1475
 4431SOL     OW24754   3.044   3.026   4.590  0.0533  0.0163  0.0319
 4431SOL    HW124755   3.073   3.106   4.635 -0.7724 -0.4676  1.4298
 4431SOL    HW224756   2.975   2.988   4.644 -0.6576 -1.1575 -1.7086
 4432SOL     OW24757   0.130   0.417  16.351  0.0180  0.2820 -0.1160
 4432SOL    HW124758   0.219   0.408  16.315 -0.1133 -0.0116 -0.3706
 4432SOL    HW224759   0.137   0.509  16.376  1.1904 -0.4414  2.2911
 4433SOL     OW24760   2.733   2.683   7.163 -0.2543  0.2192  0.2976
 4433SOL    HW124761   2.804   2.719   7.110 -0.5450 -1.2008 -1.0608
 4433SOL    HW224762   2.716   2.749   7.231  0.8191  1.3447 -0.5175
 4434SOL     OW24763   4.008   1.288   2.236  0.2509 -0.0052 -0.4614
 4434SOL    HW124764   4.007   1.352   2.164  1.3900  0.6013  0.0772
 4434SOL    HW224765   4.067   1.331   2.297 -5.1437  2.5012  2.9705
 4435SOL     OW24766   0.355   2.379   9.325 -0.0134  0.5937 -0.0010
 4435SOL    HW124767   0.299   2.423   9.389 -1.9476  0.3875 -1.5497
 4435SOL    HW224768   0.420   2.449   9.314 -2.0760  2.5688  0.3399
 4436SOL     OW24769   1.262   2.476  10.005  0.4516  0.2792 -0.0928
 4436SOL    HW124770   1.203   2.421  10.056 -0.3203  0.6360 -0.6024
 4436SOL    HW224771   1.328   2.481  10.074  1.6485  1.4258 -1.3035
 4437SOL     OW24772   1.098   3.690   6.571  0.4104  0.2514  0.6681
 4437SOL    HW124773   1.167   3.657   6.513  0.7476  0.5182  0.9106
 4437SOL    HW224774   1.151   3.718   6.646 -0.8609 -1.5389  2.2499
 4438SOL     OW24775   2.359   4.691  10.268 -0.4481  0.0577  0.3788
 4438SOL    HW124776   2.349   4.638  10.347  0.3398  0.5437  0.8137
 4438SOL    HW224777   2.343   0.054  10.297  2.8233  0.0796  2.1775
 4439SOL     OW24778   0.165   0.269   3.732 -0.5734 -0.0281 -0.0734
 4439SOL    HW124779   0.212   0.351   3.712 -2.4157  1.4427  1.6566
 4439SOL    HW224780   0.221   0.253   3.808 -0.0862  0.9532 -0.2182
 4440SOL     OW24781   1.204   0.051   9.552  0.1801  0.1438  0.0461
 4440SOL    HW124782   1.135   4.715   9.569 -1.1299  1.5095 -0.1981
 4440SOL    HW224783   1.278   4.722   9.578 -0.5742 -2.0123 -2.4395
 4441SOL     OW24784   2.549   2.193   4.118 -0.5549  0.5520  0.2383
 4441SOL    HW124785   2.486   2.132   4.079  1.0002 -2.0115  1.6876
 4441SOL    HW224786   2.608   2.208   4.044 -0.8466 -0.3335 -0.1769
 4442SOL     OW24787   3.367   1.744  11.109  0.2943 -0.1744 -0.4369
 4442SOL    HW124788   3.373   1.676  11.176  0.6022 -0.6140 -0.9245
 4442SOL    HW224789   3.455   1.782  11.106  0.4768 -0.6476 -0.9549
 4443SOL     OW24790   1.942   2.929   8.357  0.1062 -0.1970  0.3275
 4443SOL    HW124791   1.867   2.971   8.315  0.5619 -1.4647 -1.7625
 4443SOL    HW224792   1.936   2.980   8.438  0.1169 -0.0913  0.2612
 4444SOL     OW24793   3.456   1.951   5.001 -0.2579 -0.0524  0.7807
 4444SOL    HW124794   3.392   1.976   5.068  0.7451 -1.5680  2.2919
 4444SOL    HW224795   3.432   2.022   4.940 -1.1940 -1.0885 -0.0712
 4445SOL     OW24796   1.457   2.101   4.669  0.2400  0.1045 -0.3589
 4445SOL    HW124797   1.369   2.114   4.704  0.5577  3.4292 -0.8605
 4445SOL    HW224798   1.495   2.048   4.739  0.1626  1.4119  0.6506
 4446SOL     OW24799   3.233   4.174  10.548  0.0494 -0.1411 -0.0005
 4446SOL    HW124800   3.219   4.079  10.556  2.4782 -0.3294  1.7787
 4446SOL    HW224801   3.243   4.181  10.453 -2.4422 -0.2551 -0.2830
 4447SOL     OW24802   0.510   1.357   3.425  0.4320  0.3070 -0.6347
 4447SOL    HW124803   0.432   1.375   3.373 -0.8760 -0.6298  1.0126
 4447SOL    HW224804   0.477   1.280   3.471  1.4270  0.1303 -0.2015
 4448SOL     OW24805   3.434   3.930   0.544  0.3487 -0.4959  0.1367
 4448SOL    HW124806   3.471   3.890   0.622 -1.1741 -1.4533  0.3663
 4448SOL    HW224807   3.342   3.940   0.567  0.4257 -5.4870  2.5962
 4449SOL     OW24808   0.844   2.642  11.411 -1.0516  0.1169 -0.0128
 4449SOL    HW124809   0.775   2.642  11.477 -1.6217 -1.0735 -0.5894
 4449SOL    HW224810   0.809   2.709  11.353  1.6929  1.9907  0.4785
 4450SOL     OW24811   1.967   0.308   9.889  0.3281 -0.0426 -0.3310
 4450SOL    HW124812   1.914   0.378   9.850  1.7180 -0.0443 -2.2224
 4450SOL    HW224813   1.898   0.251   9.922  0.3653 -0.3131 -0.7220
 4451SOL     OW24814   0.324   4.333   4.191 -0.2559 -0.3722 -0.7721
 4451SOL    HW124815   0.413   4.347   4.223  0.2175 -2.4195 -1.1939
 4451SOL    HW224816   0.305   4.422   4.159  3.5733  0.7172 -0.0225
 4452SOL     OW24817   3.031   3.810   4.985 -0.1044 -0.5324  0.2746
 4452SOL    HW124818   3.039   3.864   4.907 -2.8042 -0.9371 -0.2687
 4452SOL    HW224819   3.010   3.876   5.051  1.7361  0.2318  0.1075
 4453SOL     OW24820   0.137   0.235   6.913  0.2462  0.4903 -0.2242
 4453SOL    HW124821   0.102   0.305   6.969 -1.4024  0.1713 -0.8702
 4453SOL    HW224822   0.146   0.158   6.970 -0.1390  0.2885 -0.4351
 4454SOL     OW24823   2.686   1.752   0.940 -0.4556  0.4239  0.2040
 4454SOL    HW124824   2.769   1.794   0.962 -0.1806 -0.7874  1.5240
 4454SOL    HW224825   2.635   1.826   0.973  1.6411  1.8476  0.2479
 4455SOL     OW24826   3.008   2.156   8.107  0.3016 -0.8677 -0.3430
 4455SOL    HW124827   2.924   2.200   8.094  0.3648 -0.7926 -0.5023
 4455SOL    HW224828   2.987   2.093   8.176  1.5624 -1.1789 -0.2417
 4456SOL     OW24829   0.207   3.795   6.739  0.8583  0.1744  0.6135
 4456SOL    HW124830   0.236   3.707   6.766 -0.2641 -1.0710 -2.2876
 4456SOL    HW224831   0.291   3.833   6.716  0.3510  1.3626  0.7307
 4457SOL     OW24832   4.586   3.511   9.916 -0.1774 -0.0411  0.5345
 4457SOL    HW124833   4.598   3.596   9.958  3.5932 -0.1122 -0.3778
 4457SOL    HW224834   4.498   3.522   9.881  0.1055  0.9297  0.1411
 4458SOL     OW24835   3.216   2.726   9.024  0.5254 -0.1036  0.6049
 4458SOL    HW124836   3.253   2.679   9.099  2.2789 -1.4158 -1.1043
 4458SOL    HW224837   3.296   2.748   8.976  1.3973 -0.4406  1.9058
 4459SOL     OW24838   0.600   3.731   0.728  0.5399 -0.0882 -0.1870
 4459SOL    HW124839   0.638   3.788   0.795 -1.0142  2.0218 -1.0921
 4459SOL    HW224840   0.581   3.797   0.661 -2.1994 -0.0275  0.6704
 4460SOL     OW24841   0.899   0.560   5.937 -0.7424  0.0718  0.0012
 4460SOL    HW124842   0.918   0.582   5.845 -0.3154 -1.3484 -0.2405
 4460SOL    HW224843   0.934   0.472   5.941  1.0289  0.8090  0.6170
 4461SOL     OW24844   1.086   1.348   7.084 -0.1009 -0.0641 -0.2089
 4461SOL    HW124845   1.032   1.282   7.127 -0.9917  0.7300 -0.1199
 4461SOL    HW224846   1.013   1.377   7.029  1.2490  0.3441 -1.8089
 4462SOL     OW24847   4.498   3.761   9.328 -0.3992  0.3625  0.6308
 4462SOL    HW124848   4.530   3.774   9.239 -0.8282  3.0533  0.8801
 4462SOL    HW224849   4.557   3.692   9.360 -0.0661 -0.4425 -1.6841
 4463SOL     OW24850   3.112   1.905   7.744  0.4112 -0.2822 -0.6487
 4463SOL    HW124851   3.127   1.967   7.816 -2.1858 -1.1784  0.6837
 4463SOL    HW224852   3.028   1.943   7.720  0.8073  0.3087 -1.1101
 4464SOL     OW24853   2.920   2.150   3.841  0.0084 -0.4325 -0.1105
 4464SOL    HW124854   2.893   2.215   3.777  0.9850  0.4728  0.4044
 4464SOL    HW224855   2.904   2.197   3.923 -0.6873 -0.9042  0.0212
 4465SOL     OW24856   4.126   0.038   0.692  0.4834 -0.6113  0.0444
 4465SOL    HW124857   4.184   4.710   0.746 -0.2535 -3.3119 -1.9528
 4465SOL    HW224858   4.182   0.112   0.667 -0.1789 -0.0724  0.1680
 4466SOL     OW24859   1.504   2.478  11.522 -0.4081 -0.0670  0.1582
 4466SOL    HW124860   1.440   2.525  11.576 -0.8543  0.1149 -0.5226
 4466SOL    HW224861   1.574   2.463  11.585 -1.3741 -0.2568  1.1744
 4467SOL     OW24862   1.515   2.395   9.017 -1.0514 -0.0612 -0.0752
 4467SOL    HW124863   1.601   2.406   9.059 -0.1521 -0.6629 -1.7438
 4467SOL    HW224864   1.512   2.301   9.001 -0.7366 -0.0106 -0.4398
 4468SOL     OW24865   1.450   3.415   6.328 -0.6228 -0.3875  0.4184
 4468SOL    HW124866   1.513   3.451   6.265 -0.8293 -0.2213  0.3080
 4468SOL    HW224867   1.469   3.323   6.311  1.5749  0.4851 -1.7680
 4469SOL     OW24868   1.545   1.575   5.313  0.2523  0.1510 -0.5524
 4469SOL    HW124869   1.460   1.584   5.269 -0.0512  0.0103  0.0089
 4469SOL    HW224870   1.599   1.628   5.255  0.5646  0.1896 -0.2250
 4470SOL     OW24871   2.528   1.003   8.721 -0.5794  0.0461  0.8471
 4470SOL    HW124872   2.587   1.044   8.783  0.5380  0.6535 -0.6314
 4470SOL    HW224873   2.438   1.030   8.741 -0.1822  0.6834  1.7700
 4471SOL     OW24874   2.843   0.702   8.140 -0.2004  0.4311  0.4296
 4471SOL    HW124875   2.857   0.794   8.116  2.7666 -0.8965 -2.9141
 4471SOL    HW224876   2.829   0.670   8.051 -0.3719 -0.5600  0.8242
 4472SOL     OW24877   1.955   3.955  13.214 -0.1992  0.2661  0.1373
 4472SOL    HW124878   1.940   4.040  13.172  1.4147 -0.1791 -1.3056
 4472SOL    HW224879   1.890   3.916  13.157 -1.4601  0.8275  1.1822
 4473SOL     OW24880   1.545   3.255  10.423 -0.5770 -0.3443 -0.4810
 4473SOL    HW124881   1.577   3.276  10.511 -2.7247 -0.6023  0.3569
 4473SOL    HW224882   1.497   3.175  10.442  1.6379 -1.2958  1.1588
 4474SOL     OW24883   2.209   1.807   7.746  0.0845 -0.2308 -0.6347
 4474SOL    HW124884   2.168   1.876   7.694 -0.8049  0.8197  1.4680
 4474SOL    HW224885   2.243   1.846   7.827 -0.0527  1.9589 -1.6145
 4475SOL     OW24886   1.902   2.694   0.200 -0.5775 -0.7443 -0.2311
 4475SOL    HW124887   1.982   2.690   0.251 -0.1768 -0.4403 -0.8361
 4475SOL    HW224888   1.940   2.747   0.130  0.7688 -3.5295 -1.5744
 4476SOL     OW24889   1.630   2.609   6.250  0.0423  0.9068 -0.1800
 4476SOL    HW124890   1.665   2.575   6.332 -0.7153 -0.3867 -0.3965
 4476SOL    HW224891   1.716   2.629   6.215  0.2486 -1.4471 -1.0338
 4477SOL     OW24892   1.398   4.613   9.697  0.2893  0.0406 -0.0773
 4477SOL    HW124893   1.344   4.615   9.776  0.4325 -0.3056  0.0301
 4477SOL    HW224894   1.458   4.540   9.713  1.0684  1.0350  1.5000
 4478SOL     OW24895   0.400   2.626   7.193  0.0454 -0.3905  0.1560
 4478SOL    HW124896   0.370   2.712   7.166 -1.0940 -1.0337 -0.6287
 4478SOL    HW224897   0.495   2.638   7.192 -0.0636  0.4801  0.3958
 4479SOL     OW24898   0.217   1.498   2.652 -0.5273  0.2240 -0.1837
 4479SOL    HW124899   0.248   1.470   2.738  0.2780 -2.1717 -1.2508
 4479SOL    HW224900   0.137   1.445   2.656  0.3799 -1.3871 -3.0818
 4480SOL     OW24901   3.148   0.409   8.276  0.4453 -0.4219 -0.6431
 4480SOL    HW124902   3.072   0.454   8.314  1.4434 -0.7062  1.7354
 4480SOL    HW224903   3.221   0.446   8.325 -1.1832  1.1244  0.6314
 4481SOL     OW24904   0.404   2.487  10.736  0.1009 -0.2112 -0.3986
 4481SOL    HW124905   0.483   2.467  10.687  1.0226 -4.1508  2.6526
 4481SOL    HW224906   0.370   2.398  10.734  2.1447 -1.0759  3.8332
 4482SOL     OW24907   1.602   0.452   6.056 -0.1183 -0.1362  0.4391
 4482SOL    HW124908   1.545   0.518   6.016  0.3763  1.3640  2.2284
 4482SOL    HW224909   1.565   0.376   6.010  0.3070  0.4916 -0.9501
 4483SOL     OW24910   1.379   2.103   1.132 -0.1914 -0.0760  0.2169
 4483SOL    HW124911   1.417   2.015   1.138 -0.8191 -0.2219  1.9700
 4483SOL    HW224912   1.295   2.076   1.169  0.0557 -2.6469 -1.0650
 4484SOL     OW24913   4.482   4.414   9.380  0.3559 -0.0571 -0.2426
 4484SOL    HW124914   4.545   4.444   9.446  0.6010  0.1731 -0.5778
 4484SOL    HW224915   4.481   4.489   9.319  0.8947 -0.8769 -1.2608
 4485SOL     OW24916   4.280   1.917  15.855 -0.3815  0.1367  0.0751
 4485SOL    HW124917   4.341   1.977  15.896  1.4841 -1.2562 -0.6418
 4485SOL    HW224918   4.246   1.968  15.781  1.3506  0.9780 -0.1487
 4486SOL     OW24919   0.629   1.569   3.568  0.5284  0.0810 -0.3778
 4486SOL    HW124920   0.570   1.601   3.637  1.6173  1.2881 -0.0018
 4486SOL    HW224921   0.585   1.500   3.519  0.8062 -1.4474  1.4986
 4487SOL     OW24922   4.175   1.669   6.964 -0.0084 -0.2724 -0.1207
 4487SOL    HW124923   4.193   1.599   7.027  3.6582  1.1818  0.4384
 4487SOL    HW224924   4.104   1.625   6.917 -0.1084  2.3663 -2.3993
 4488SOL     OW24925   2.092   0.050  10.972  0.2263 -0.5663 -0.1286
 4488SOL    HW124926   2.026   0.088  11.029  1.4887 -0.8248  1.4919
 4488SOL    HW224927   2.139   0.122  10.929 -0.6248  0.5928  0.8779
 4489SOL     OW24928   2.689   3.795   8.992 -0.1809 -0.0769  0.4741
 4489SOL    HW124929   2.693   3.700   8.985  0.7057 -0.1305  1.6942
 4489SOL    HW224930   2.750   3.816   9.062  0.9087  0.9135 -0.7899
 4490SOL     OW24931   0.682   0.396  12.087  0.4211  0.1137 -0.5881
 4490SOL    HW124932   0.710   0.472  12.036 -0.1520 -0.3828 -1.6436
 4490SOL    HW224933   0.667   0.445  12.168  1.4731 -0.5973  0.0312
 4491SOL     OW24934   0.389   3.401  15.019  0.4070  0.7101 -0.2122
 4491SOL    HW124935   0.443   3.430  15.092 -2.9808  0.9882  2.1634
 4491SOL    HW224936   0.459   3.396  14.954  1.2552 -0.4746  0.7991
 4492SOL     OW24937   3.973   0.903   4.263 -0.3056  0.4889 -0.3920
 4492SOL    HW124938   3.940   0.822   4.225 -1.4331  1.3902 -1.3828
 4492SOL    HW224939   3.980   0.955   4.182  1.8346  3.1196  1.4647
 4493SOL     OW24940   0.150   3.742   3.020 -0.2414  0.3324  0.5531
 4493SOL    HW124941   0.145   3.788   2.936 -1.4047  1.0308  1.0083
 4493SOL    HW224942   0.095   3.669   2.993  0.1563 -0.2997  1.4724
 4494SOL     OW24943   3.784   2.352   7.047  0.0569  0.6686  0.4731
 4494SOL    HW124944   3.698   2.310   7.050 -0.0634  0.8012 -0.9922
 4494SOL    HW224945   3.768   2.441   7.081 -1.8550  1.6285 -2.9505
 4495SOL     OW24946   1.820   0.779  11.603  0.5324  0.1450 -0.0415
 4495SOL    HW124947   1.807   0.741  11.690  1.1822 -1.4415 -0.6354
 4495SOL    HW224948   1.912   0.753  11.592  0.2621 -0.3571 -1.0715
 4496SOL     OW24949   2.960   1.524   2.245  0.4252 -0.1718 -0.5330
 4496SOL    HW124950   3.006   1.441   2.259 -1.2292 -1.1906 -1.0735
 4496SOL    HW224951   3.037   1.575   2.268  1.5572 -2.1421  0.0460
 4497SOL     OW24952   1.897   1.263   6.194 -0.3240 -0.0449 -0.2448
 4497SOL    HW124953   1.954   1.189   6.176  0.8674  0.5549  1.0724
 4497SOL    HW224954   1.909   1.290   6.285 -0.0690  2.4358 -1.0148
 4498SOL     OW24955   3.445   2.160   8.068  0.0424  0.2137  0.1221
 4498SOL    HW124956   3.390   2.086   8.044 -3.0974  1.6407  2.9500
 4498SOL    HW224957   3.373   2.221   8.082  1.3725  1.5188  1.2113
 4499SOL     OW24958   0.164   2.431   8.971  0.1032 -0.3876 -0.0134
 4499SOL    HW124959   0.249   2.471   8.990  0.1537  1.0917 -3.2234
 4499SOL    HW224960   0.175   2.345   9.011  1.7308  1.3862  3.3737
 4500SOL     OW24961   0.643   4.094   6.534  0.0880 -0.0272  0.4517
 4500SOL    HW124962   0.710   4.094   6.603 -0.1588  0.5529  0.6876
 4500SOL    HW224963   0.666   4.179   6.498 -0.6061 -0.2621 -0.5211
 4501SOL     OW24964   3.070   3.233   1.849 -0.0375  0.3419  0.2392
 4501SOL    HW124965   3.105   3.265   1.766 -1.2615  0.0153 -0.3993
 4501SOL    HW224966   3.152   3.208   1.892 -0.5441 -0.0368  0.9742
 4502SOL     OW24967   4.646   1.100   2.465 -0.3201  0.1382 -0.1387
 4502SOL    HW124968   4.704   1.036   2.506 -0.7487  0.4759  1.0097
 4502SOL    HW224969   4.620   1.059   2.382  0.7578  0.7718 -0.7797
 4503SOL     OW24970   2.020   3.058   9.347 -0.2758 -0.0941 -0.3490
 4503SOL    HW124971   1.927   3.067   9.365 -0.2593 -3.4788  1.3500
 4503SOL    HW224972   2.016   3.020   9.260 -1.7981  2.7270 -1.5124
 4504SOL     OW24973   3.558   3.055   8.939  0.1102  0.4672 -0.1489
 4504SOL    HW124974   3.490   3.032   9.003 -1.7603  0.8893 -2.0062
 4504SOL    HW224975   3.530   3.140   8.906 -2.3629  0.0981  0.9733
 4505SOL     OW24976   2.626   2.750   8.188  0.0166  0.3730 -0.2411
 4505SOL    HW124977   2.587   2.837   8.178  1.6478  1.0718 -0.4581
 4505SOL    HW224978   2.711   2.774   8.224 -0.6163 -1.3647  2.4741
 4506SOL     OW24979   1.619   2.774   0.163  0.4893 -0.2477 -0.2891
 4506SOL    HW124980   1.586   2.701   0.215  0.1203  0.9538  1.1582
 4506SOL    HW224981   1.705   2.780   0.205 -0.7478  1.2206  2.0217
 4507SOL     OW24982   1.294   0.354   7.118 -0.4223 -0.0586 -0.1980
 4507SOL    HW124983   1.300   0.437   7.167  1.1566  0.0476 -0.5563
 4507SOL    HW224984   1.239   0.378   7.043  0.1061  2.6495  0.2829
 4508SOL     OW24985   4.290   2.349  14.601  0.2274  0.0087  0.1470
 4508SOL    HW124986   4.272   2.273  14.656  0.0652 -0.7331 -0.9342
 4508SOL    HW224987   4.377   2.323  14.570 -0.9594 -2.8925 -0.7683
 4509SOL     OW24988   1.255   2.908   1.381  0.1119 -0.0523  0.0885
 4509SOL    HW124989   1.316   2.890   1.453 -0.1050  0.2418  0.3459
 4509SOL    HW224990   1.291   2.855   1.310 -0.4870 -2.1863  1.3762
 4510SOL     OW24991   0.018   3.051   9.129 -0.0914  0.9035  0.2912
 4510SOL    HW124992   4.695   3.131   9.113 -1.8371  0.0021  1.3531
 4510SOL    HW224993   0.094   3.097   9.165 -0.1487  1.9645 -0.9260
 4511SOL     OW24994   1.358   0.583  13.029 -0.1683 -0.1176  0.0007
 4511SOL    HW124995   1.369   0.667  13.075 -0.9608 -0.5425  0.9530
 4511SOL    HW224996   1.299   0.550  13.097 -2.4170  0.5946 -1.6381
 4512SOL     OW24997   2.504   1.109   8.410 -0.6724 -0.2917 -0.6785
 4512SOL    HW124998   2.435   1.047   8.386  1.3433 -2.0264 -1.8735
 4512SOL    HW224999   2.451   1.185   8.435 -3.2070 -2.0673 -0.5821
 4513SOL     OW25000   0.357   0.205   0.643  0.3456  0.0550 -0.6682
 4513SOL    HW125001   0.431   0.150   0.666 -0.2096 -0.3026  0.2779
 4513SOL    HW225002   0.379   0.275   0.703  0.8927  0.5151 -1.4058
 4514SOL     OW25003   3.644   4.333   8.895 -0.2364 -0.4379  0.0268
 4514SOL    HW125004   3.736   4.317   8.915 -0.5795 -0.4827  1.5878
 4514SOL    HW225005   3.609   4.389   8.964  1.3455  1.3715 -0.6325
 4515SOL     OW25006   3.090   4.607   1.577 -0.7309  0.1719 -0.2776
 4515SOL    HW125007   3.071   4.554   1.499  1.0168  1.1842 -1.3864
 4515SOL    HW225008   3.122   4.538   1.635  2.0781  1.4872 -0.2650
 4516SOL     OW25009   4.382   0.820   7.878 -0.1717 -0.3206 -0.4130
 4516SOL    HW125010   4.376   0.911   7.909  1.5591  0.1950 -1.5859
 4516SOL    HW225011   4.336   0.830   7.794  0.1562  0.2800 -0.5222
 4517SOL     OW25012   0.422   1.865   4.012 -0.3991  0.1607 -0.2319
 4517SOL    HW125013   0.416   1.910   3.928  0.0446  0.7747  0.0688
 4517SOL    HW225014   0.514   1.841   4.023 -0.3473  0.1682 -0.6159
 4518SOL     OW25015   2.018   2.652   8.304 -0.2725 -0.1439 -0.5344
 4518SOL    HW125016   1.998   2.743   8.327  1.2690  0.1467 -0.3633
 4518SOL    HW225017   2.109   2.653   8.273  0.6499 -1.5079  2.0768
 4519SOL     OW25018   3.148   3.592   7.230 -0.8173  0.3575  0.3179
 4519SOL    HW125019   3.145   3.580   7.325  0.3444 -2.1126  0.0393
 4519SOL    HW225020   3.140   3.687   7.227 -0.6193  0.4017  1.3617
 4520SOL     OW25021   3.880   1.629   4.830 -0.3086 -0.8336  0.5912
 4520SOL    HW125022   3.915   1.687   4.898  0.9029  0.5657 -1.1970
 4520SOL    HW225023   3.846   1.695   4.770  0.6040 -0.9338 -0.0430
 4521SOL     OW25024   3.913   0.053  13.491  0.5837  0.5491  0.4884
 4521SOL    HW125025   3.836   0.109  13.483  0.6118  0.6197  0.7165
 4521SOL    HW225026   3.908   0.016  13.580 -3.6243 -2.0993 -0.8613
 4522SOL     OW25027   4.614   2.425  11.324  0.1597 -0.1531  0.1666
 4522SOL    HW125028   4.591   2.451  11.235  1.0850 -0.1359 -0.0699
 4522SOL    HW225029   4.708   2.407  11.312  0.1176 -0.3962  0.1982
 4523SOL     OW25030   1.401   4.649  15.057 -0.2818 -0.0517 -0.9627
 4523SOL    HW125031   1.371   4.559  15.063 -2.2236  0.6365 -0.1783
 4523SOL    HW225032   1.324   4.683  15.010 -1.0176 -0.2201  0.1179
 4524SOL     OW25033   4.096   0.385   1.227  0.3090  0.5823 -0.0361
 4524SOL    HW125034   4.166   0.333   1.268 -1.4589 -1.4841  0.3402
 4524SOL    HW225035   4.020   0.335   1.256  0.8327  0.5511  1.2522
 4525SOL     OW25036   1.359   0.249   4.969  0.3738 -0.1256  0.2044
 4525SOL    HW125037   1.272   0.288   4.972  1.1045  1.6403 -1.6857
 4525SOL    HW225038   1.412   0.323   4.942  0.5530  0.4524  2.1329
 4526SOL     OW25039   3.795   3.523   9.971  0.0869 -0.1128  0.5446
 4526SOL    HW125040   3.781   3.596  10.031  2.3018  1.5107 -0.8902
 4526SOL    HW225041   3.706   3.489   9.963 -0.5400  1.4369  0.9285
 4527SOL     OW25042   0.973   3.636   8.136  0.2850  0.2247  0.0703
 4527SOL    HW125043   0.919   3.697   8.185  0.5276 -0.1494  0.7987
 4527SOL    HW225044   0.914   3.562   8.119  0.5542  0.0840 -0.2521
 4528SOL     OW25045   0.378   3.327   4.777  0.1048 -0.3445  0.4738
 4528SOL    HW125046   0.323   3.372   4.714  0.1259 -0.6925  0.2112
 4528SOL    HW225047   0.307   3.279   4.819 -1.3314 -0.8840 -2.6376
 4529SOL     OW25048   2.368   0.252   5.145  0.0337  0.1520 -0.2079
 4529SOL    HW125049   2.287   0.282   5.103 -0.9477  1.1330  2.4461
 4529SOL    HW225050   2.360   0.158   5.129  0.1816  0.2587 -0.9434
 4530SOL     OW25051   3.267   4.427  15.912  0.1583  0.4064  0.2105
 4530SOL    HW125052   3.298   4.515  15.887 -1.6666  0.6956 -0.9968
 4530SOL    HW225053   3.257   4.389  15.825 -0.1245  0.9160  0.0172
 4531SOL     OW25054   4.309   3.773   9.685 -0.3455  0.1546 -1.1308
 4531SOL    HW125055   4.395   3.763   9.726 -0.2926  0.3925 -1.1896
 4531SOL    HW225056   4.330   3.835   9.616  2.5729 -0.0723 -0.4720
 4532SOL     OW25057   2.563   1.930   7.547 -0.5866  0.1983  0.2052
 4532SOL    HW125058   2.497   1.993   7.577 -1.3208 -0.7088  0.5122
 4532SOL    HW225059   2.641   1.984   7.558 -1.2977  0.9968  1.4190
 4533SOL     OW25060   4.378   2.590   2.374 -0.1191 -0.6220  0.4863
 4533SOL    HW125061   4.363   2.580   2.468 -0.2034  1.3045  0.6763
 4533SOL    HW225062   4.337   2.675   2.358 -1.6902 -1.5655 -0.5931
 4534SOL     OW25063   3.288   3.658   8.224  0.6235 -0.1705 -0.2460
 4534SOL    HW125064   3.241   3.727   8.178 -1.4550 -1.6220 -0.3301
 4534SOL    HW225065   3.335   3.709   8.290 -2.3582  0.6158  1.2694
 4535SOL     OW25066   0.311   3.057   2.647 -0.2385  0.0882 -0.3030
 4535SOL    HW125067   0.294   3.089   2.559  0.3257  1.9079  0.2479
 4535SOL    HW225068   0.231   3.092   2.688 -0.6841  0.7373 -1.7240
 4536SOL     OW25069   3.586   1.097   2.023  0.7257  0.1823  0.5958
 4536SOL    HW125070   3.554   1.048   2.099  1.0707 -0.1275  0.5406
 4536SOL    HW225071   3.548   1.183   2.038 -2.5563 -1.0631 -0.5941
 4537SOL     OW25072   4.133   0.042  11.591  0.0087 -0.0339 -0.5464
 4537SOL    HW125073   4.068   0.092  11.542 -1.1316 -0.4323  0.5894
 4537SOL    HW225074   4.196   0.024  11.520 -0.0307 -1.2968 -0.2506
 4538SOL     OW25075   3.330   3.018   9.110 -0.5398 -0.1465  0.5672
 4538SOL    HW125076   3.273   2.943   9.095 -0.7866  0.2200 -0.3074
 4538SOL    HW225077   3.292   3.060   9.187 -0.5462 -2.8637  2.0556
 4539SOL     OW25078   0.815   4.064   0.664  0.4643  0.0594 -0.6127
 4539SOL    HW125079   0.792   4.004   0.735 -1.0384  0.2416 -0.9544
 4539SOL    HW225080   0.903   4.095   0.687  0.5367 -0.1706 -0.5754
 4540SOL     OW25081   0.248   0.689   8.675  0.0276 -0.1823  0.0571
 4540SOL    HW125082   0.209   0.752   8.614 -1.9942 -1.9759 -0.5122
 4540SOL    HW225083   0.193   0.692   8.754  0.3775  1.6526  0.2290
 4541SOL     OW25084   0.642   0.731   8.812  0.0909 -0.3511  0.0277
 4541SOL    HW125085   0.570   0.781   8.773  1.6682 -0.8113 -3.5141
 4541SOL    HW225086   0.658   0.779   8.894 -0.7798  0.5080 -0.2964
 4542SOL     OW25087   1.689   1.221   2.520  0.1264  0.0544 -0.0571
 4542SOL    HW125088   1.672   1.301   2.469  1.1809 -0.1286 -0.6944
 4542SOL    HW225089   1.773   1.189   2.489  1.4831  0.5085  3.2003
 4543SOL     OW25090   1.933   4.580   9.324  0.1539 -0.3687 -0.0788
 4543SOL    HW125091   2.027   4.598   9.315  0.1833  0.2124  1.3151
 4543SOL    HW225092   1.922   4.518   9.252 -2.2330 -0.3844  0.2988
 4544SOL     OW25093   3.828   3.933   8.748 -0.8236 -0.4006 -0.2270
 4544SOL    HW125094   3.819   3.903   8.838 -0.6838  0.8183  0.1864
 4544SOL    HW225095   3.871   4.018   8.754 -1.1939 -0.1800 -0.6237
 4545SOL     OW25096   3.989   0.821  17.286 -0.9712 -0.1521  0.4428
 4545SOL    HW125097   3.947   0.751  17.336  0.2496  1.3660  3.6036
 4545SOL    HW225098   3.946   0.897  17.325 -1.2070  0.4307 -0.9408
 4546SOL     OW25099   0.179   3.472   3.300  0.3492 -0.6866  0.1050
 4546SOL    HW125100   0.205   3.381   3.283  3.1881  0.1342  0.1014
 4546SOL    HW225101   0.084   3.458   3.299 -0.0533  1.9442  1.2249
 4547SOL     OW25102   3.631   0.946  16.338 -0.1286 -0.1730 -0.0996
 4547SOL    HW125103   3.695   0.920  16.272  2.2164  1.7756  1.3808
 4547SOL    HW225104   3.556   0.912  16.289  1.8507 -1.7474 -2.0239
 4548SOL     OW25105   3.315   2.230   7.778 -0.4712  0.4635  0.2351
 4548SOL    HW125106   3.274   2.254   7.861 -1.7668 -1.6287  0.1898
 4548SOL    HW225107   3.350   2.144   7.797 -4.9692 -1.6912 -1.1382
 4549SOL     OW25108   1.564   0.249   0.594 -0.4959  0.2034 -0.0314
 4549SOL    HW125109   1.471   0.240   0.613 -0.5486 -0.2156 -0.4629
 4549SOL    HW225110   1.560   0.208   0.507 -2.0087 -2.4762  1.3123
 4550SOL     OW25111   0.932   4.096   1.004 -0.2667  0.1473  0.0743
 4550SOL    HW125112   0.881   4.016   0.989 -0.8566  0.0201  2.6761
 4550SOL    HW225113   0.861   4.161   1.010  0.0680  0.4547  0.6603
 4551SOL     OW25114   2.375   0.711   6.443  0.2829 -0.7128  1.1023
 4551SOL    HW125115   2.314   0.641   6.465  0.6001 -1.1012  0.7614
 4551SOL    HW225116   2.435   0.660   6.389  1.2254  0.9430  0.5841
 4552SOL     OW25117   1.154   4.621   4.371 -0.0280 -0.0135 -0.2394
 4552SOL    HW125118   1.187   4.626   4.461 -2.0022  1.0412  0.4145
 4552SOL    HW225119   1.146   4.712   4.345 -1.6742 -0.0307  0.2558
 4553SOL     OW25120   3.553   3.698   1.560  0.3825  0.5386 -0.4813
 4553SOL    HW125121   3.545   3.746   1.642 -1.9383 -0.3061 -0.1923
 4553SOL    HW225122   3.616   3.631   1.585 -1.7436 -1.2711  0.1064
 4554SOL     OW25123   0.670   4.141   2.696 -0.1781  0.0055  0.0479
 4554SOL    HW125124   0.615   4.083   2.749 -0.0007 -0.3171 -0.1262
 4554SOL    HW225125   0.690   4.202   2.767  0.1454 -1.0035  0.8285
 4555SOL     OW25126   0.797   2.011   3.035  0.0740 -0.5271  0.5337
 4555SOL    HW125127   0.733   2.078   3.011  0.0306 -0.8347 -0.2260
 4555SOL    HW225128   0.758   1.963   3.107  0.8790 -1.1212  0.5753
 4556SOL     OW25129   3.367   3.745  15.361 -0.2860  0.1147 -0.4300
 4556SOL    HW125130   3.445   3.753  15.307 -1.3104 -0.4321 -2.0078
 4556SOL    HW225131   3.327   3.674  15.309  2.1356 -0.2084 -1.8413
 4557SOL     OW25132   2.623   1.513   6.003  0.1400  0.2259  0.7036
 4557SOL    HW125133   2.604   1.490   6.093 -1.2400  2.3656  0.9495
 4557SOL    HW225134   2.675   1.435   5.981 -0.9105 -0.7307  1.6209
 4558SOL     OW25135   1.568   1.059   3.390 -0.1215 -0.0778 -0.2060
 4558SOL    HW125136   1.497   1.023   3.337  1.3815 -2.2325 -0.7371
 4558SOL    HW225137   1.642   1.056   3.329 -0.1023 -1.1848 -0.1192
 4559SOL     OW25138   3.297   4.681  16.512  0.8806 -0.1372 -0.3751
 4559SOL    HW125139   3.286   0.032  16.566  0.0137 -0.4479 -0.1018
 4559SOL    HW225140   3.360   4.715  16.448  0.7318  0.1048 -0.3917
 4560SOL     OW25141   2.930   2.889   1.935 -0.3307 -0.2217  0.5197
 4560SOL    HW125142   2.880   2.945   1.875  1.9941  0.3280 -0.9360
 4560SOL    HW225143   3.020   2.884   1.900 -0.4112  0.7540  0.1617
 4561SOL     OW25144   1.349   0.201  14.979  0.0715 -0.1368 -0.5988
 4561SOL    HW125145   1.308   0.280  14.941 -0.7845 -0.7091 -0.8584
 4561SOL    HW225146   1.289   0.206  15.054  1.0274 -0.2860  0.1730
 4562SOL     OW25147   0.297   3.375   9.053 -0.1208  0.4120  0.6018
 4562SOL    HW125148   0.242   3.432   8.999 -1.2922  0.8888  2.3102
 4562SOL    HW225149   0.385   3.395   9.023  0.1322 -1.6473  0.0145
 4563SOL     OW25150   0.624   1.461   6.277  0.5964 -0.2789 -1.2664
 4563SOL    HW125151   0.683   1.392   6.246  0.3182 -1.3359  0.5611
 4563SOL    HW225152   0.637   1.516   6.200  0.0852 -0.6314 -1.6015
 4564SOL     OW25153   1.519   1.709  13.707  0.5892 -0.0800  0.0215
 4564SOL    HW125154   1.434   1.685  13.670  1.2107 -0.0738 -1.3948
 4564SOL    HW225155   1.582   1.652  13.662  0.3071  2.5479 -3.6768
 4565SOL     OW25156   0.224   4.602   8.648 -0.1613 -0.1784 -0.0916
 4565SOL    HW125157   0.237   4.697   8.640 -0.9837 -0.1670 -1.2719
 4565SOL    HW225158   0.145   4.597   8.702 -0.6782  1.2248 -0.7082
 4566SOL     OW25159   3.236   4.254   2.396 -0.1025 -0.4590  0.3037
 4566SOL    HW125160   3.304   4.248   2.329  0.3341  1.6754  0.5585
 4566SOL    HW225161   3.220   4.161   2.413 -0.8331 -0.2123  0.9852
 4567SOL     OW25162   0.752   3.872   0.917  0.3073  0.0738  0.0270
 4567SOL    HW125163   0.746   3.854   1.011  0.0736  1.7734  0.3399
 4567SOL    HW225164   0.795   3.790   0.894  1.2592  0.7908 -0.7110
 4568SOL     OW25165   4.103   2.912   7.145 -0.4547 -0.5470  0.5456
 4568SOL    HW125166   4.101   2.838   7.206 -0.7358  0.3356  1.6093
 4568SOL    HW225167   4.075   2.866   7.066  1.1813 -1.1514  0.3348
 4569SOL     OW25168   2.081   4.316   7.555  0.3561  0.3812  0.1976
 4569SOL    HW125169   2.051   4.345   7.641 -0.2367 -0.6442  0.3457
 4569SOL    HW225170   2.113   4.398   7.518 -1.5101  1.1716  0.3665
 4570SOL     OW25171   4.663   2.964   3.889  0.6134  0.4936 -0.1092
 4570SOL    HW125172   4.626   3.035   3.942  0.3615  0.2664  0.0182
 4570SOL    HW225173   4.719   3.013   3.828  0.7998 -0.7313 -0.9069
 4571SOL     OW25174   3.393   4.683   0.954  0.4505  0.1457 -0.7292
 4571SOL    HW125175   3.388   0.052   0.954  1.7648  0.2186  2.0698
 4571SOL    HW225176   3.303   4.660   0.974 -0.0076  1.8574 -0.8708
 4572SOL     OW25177   2.161   0.845   8.947 -0.1535  0.2424 -0.0063
 4572SOL    HW125178   2.216   0.770   8.924  0.2317  0.0963  1.3783
 4572SOL    HW225179   2.088   0.798   8.988 -0.4533  0.9506  0.2680
 4573SOL     OW25180   3.426   0.995   6.910 -0.2185  0.2159  0.4404
 4573SOL    HW125181   3.445   0.962   6.998 -2.9529 -0.1959  0.8871
 4573SOL    HW225182   3.498   1.055   6.892 -0.1112 -0.4096 -1.2322
 4574SOL     OW25183   0.914   0.716  16.269 -0.7555  0.1755 -0.4007
 4574SOL    HW125184   0.952   0.764  16.343  1.6894 -1.7676 -0.3819
 4574SOL    HW225185   0.891   0.633  16.310 -1.1507 -0.8485 -2.6578
 4575SOL     OW25186   2.179   3.307   2.570  0.1225 -0.9001 -0.5099
 4575SOL    HW125187   2.230   3.228   2.553 -0.4239 -1.5856  0.9991
 4575SOL    HW225188   2.251   3.368   2.554  0.4786 -1.2112 -0.1146
 4576SOL     OW25189   2.541   2.608   7.476  0.4942  0.2070 -0.4135
 4576SOL    HW125190   2.472   2.672   7.492  0.8768  0.5313 -0.0563
 4576SOL    HW225191   2.590   2.611   7.558 -1.3294  1.3587  0.6255
 4577SOL     OW25192   2.402   1.122   1.911  0.1561  0.4239  0.3802
 4577SOL    HW125193   2.430   1.115   1.820 -2.2357 -1.5796 -0.2277
 4577SOL    HW225194   2.313   1.157   1.899 -1.1154 -2.3816  1.4132
 4578SOL     OW25195   4.561   1.048   3.663 -0.0450  0.3336 -0.0393
 4578SOL    HW125196   4.466   1.052   3.653  0.1676 -0.1320 -2.1541
 4578SOL    HW225197   4.574   1.118   3.728  1.6375 -0.9518  1.0124
 4579SOL     OW25198   0.269   3.622  14.922 -0.2323 -0.4030 -0.3309
 4579SOL    HW125199   0.190   3.575  14.897 -0.4859  0.4225 -1.0726
 4579SOL    HW225200   0.311   3.559  14.981 -0.4855  1.3616  1.7655
 4580SOL     OW25201   2.135   1.290   4.120 -0.1415 -0.5423  0.1846
 4580SOL    HW125202   2.109   1.214   4.068  2.6174 -1.5916  0.3939
 4580SOL    HW225203   2.161   1.252   4.204 -2.4098  0.2672  1.2755
 4581SOL     OW25204   0.354   2.449   6.943  0.0918 -0.0210 -0.0897
 4581SOL    HW125205   0.379   2.515   7.007 -1.3393 -0.5431  1.0065
 4581SOL    HW225206   0.269   2.485   6.918  1.9773  3.5197 -1.3585
 4582SOL     OW25207   4.027   4.500   8.023 -0.8369  0.6618 -0.2068
 4582SOL    HW125208   4.033   4.589   8.057  0.2145  1.1518 -1.6316
 4582SOL    HW225209   4.071   4.445   8.087 -1.1767 -1.1302 -1.5015
 4583SOL     OW25210   2.964   3.923   6.204 -0.1171  0.1309 -0.5113
 4583SOL    HW125211   2.992   3.998   6.257 -0.5712  0.3038 -0.5149
 4583SOL    HW225212   2.871   3.943   6.199 -0.6782 -1.6917  2.4845
 4584SOL     OW25213   2.252   4.653  10.756 -0.1012 -0.3198  0.4011
 4584SOL    HW125214   2.186   4.649  10.686 -0.9866 -1.4742  1.2950
 4584SOL    HW225215   2.194   4.667  10.831  1.5026  0.1811  1.5554
 4585SOL     OW25216   1.286   4.525  10.457 -0.3092 -0.0724 -0.2188
 4585SOL    HW125217   1.295   4.432  10.478 -2.9426 -0.3910 -0.3907
 4585SOL    HW225218   1.270   4.519  10.362 -1.7201 -0.0202  0.0108
 4586SOL     OW25219   0.066   2.776   1.452 -0.3949  0.3653  0.6393
 4586SOL    HW125220   0.128   2.709   1.481  0.6984  1.4487  0.7667
 4586SOL    HW225221   0.123   2.836   1.404 -0.0260  0.9232  1.7975
 4587SOL     OW25222   2.379   4.215   4.579  0.4226 -0.2617  0.1203
 4587SOL    HW125223   2.377   4.159   4.501 -1.7544 -0.0240 -0.0040
 4587SOL    HW225224   2.373   4.141   4.639 -0.0867 -1.1090 -0.9621
 4588SOL     OW25225   3.329   4.305   4.942 -0.0095  0.3833 -0.8013
 4588SOL    HW125226   3.236   4.307   4.965  0.2313 -0.5583  0.2605
 4588SOL    HW225227   3.339   4.210   4.941  0.1084  0.3945 -0.7313
 4589SOL     OW25228   0.843   4.166   5.365  0.0646  0.1294 -0.2231
 4589SOL    HW125229   0.927   4.209   5.354  1.0777 -2.0601 -1.1038
 4589SOL    HW225230   0.862   4.072   5.361 -0.0689  0.2277 -2.9404
 4590SOL     OW25231   0.237   2.627  14.610 -0.4183 -0.3722 -0.6047
 4590SOL    HW125232   0.226   2.614  14.516 -1.5849 -0.8158 -0.3962
 4590SOL    HW225233   0.158   2.673  14.638 -0.4270  0.4753 -2.0422
 4591SOL     OW25234   2.469   1.674   5.852  0.0549  0.3398  0.1205
 4591SOL    HW125235   2.513   1.631   5.925  1.4830 -0.3598 -1.1625
 4591SOL    HW225236   2.387   1.625   5.845  0.6305 -0.1259 -3.4990
 4592SOL     OW25237   1.709   2.501   6.495 -0.0667 -0.7409 -0.1594
 4592SOL    HW125238   1.717   2.524   6.587 -2.7020 -3.4088  0.7124
 4592SOL    HW225239   1.649   2.427   6.499 -1.0613  0.0842  0.2280
 4593SOL     OW25240   3.462   2.230   2.009  1.1198  0.2456  0.3593
 4593SOL    HW125241   3.509   2.284   2.073 -0.0550  0.7985  0.7724
 4593SOL    HW225242   3.372   2.254   2.033  1.1065 -0.2458  0.7886
 4594SOL     OW25243   2.297   1.915   8.011  0.3416  0.4356  0.4135
 4594SOL    HW125244   2.258   1.995   7.976  0.4219  0.8745  1.3451
 4594SOL    HW225245   2.378   1.961   8.032  1.1995 -0.5990 -0.5849
 4595SOL     OW25246   1.501   3.456   0.453 -0.4416 -0.0910 -0.9023
 4595SOL    HW125247   1.441   3.384   0.471 -2.5803  1.6961 -0.9092
 4595SOL    HW225248   1.523   3.450   0.360  0.5576 -2.6297 -0.4926
 4596SOL     OW25249   2.171   1.204   6.337 -0.1400  0.1158  0.6901
 4596SOL    HW125250   2.202   1.115   6.355  3.0926  1.4494  1.6255
 4596SOL    HW225251   2.197   1.246   6.419  1.2938  2.4306 -0.9843
 4597SOL     OW25252   3.103   0.659   1.167 -0.0815 -0.1130 -0.7290
 4597SOL    HW125253   3.054   0.738   1.189  0.5137 -0.5186  2.0557
 4597SOL    HW225254   3.045   0.583   1.164 -0.8997  0.3999  1.9365
 4598SOL     OW25255   0.635   0.000   1.917 -0.0732  0.2048 -0.1875
 4598SOL    HW125256   0.541   4.716   1.906  0.3655 -1.0694 -2.6599
 4598SOL    HW225257   0.641   0.080   1.970  1.9604 -0.4008  0.4962
 4599SOL     OW25258   0.815   4.682   9.595  0.0212  0.7303  0.4829
 4599SOL    HW125259   0.849   0.019   9.532  0.3961 -1.8484 -1.9458
 4599SOL    HW225260   0.865   4.606   9.564  0.9803  1.0789  1.1776
 4600SOL     OW25261   0.121   0.428   6.000 -0.1376  0.0544  0.1220
 4600SOL    HW125262   0.032   0.445   6.030  0.3308  1.1264  0.9205
 4600SOL    HW225263   0.164   0.456   6.081  2.0617 -2.3656 -0.2370
 4601SOL     OW25264   3.709   2.001   2.785  0.2423  0.4396 -0.1109
 4601SOL    HW125265   3.687   2.020   2.876 -1.1024 -1.4442 -0.0216
 4601SOL    HW225266   3.675   2.079   2.742 -0.1804 -0.2205 -0.9844
 4602SOL     OW25267   3.837   1.404   6.707  0.1924 -0.0664 -0.5582
 4602SOL    HW125268   3.755   1.363   6.736  0.8845 -0.7600  0.4205
 4602SOL    HW225269   3.817   1.415   6.614  0.1494  2.1178 -0.2926
 4603SOL     OW25270   1.547   0.710   0.777 -0.1347 -0.0397  0.8743
 4603SOL    HW125271   1.540   0.786   0.835  1.1413  3.4593 -3.5521
 4603SOL    HW225272   1.472   0.662   0.812  1.1624 -1.5490  1.5264
 4604SOL     OW25273   3.221   2.069   8.400 -0.5436  0.3223 -0.1250
 4604SOL    HW125274   3.202   2.039   8.488 -1.5374  1.2741 -0.0060
 4604SOL    HW225275   3.136   2.110   8.381 -1.0026 -0.8796 -0.6717
 4605SOL     OW25276   3.522   3.665   2.742 -0.1577 -0.2615 -0.1691
 4605SOL    HW125277   3.613   3.672   2.774 -0.5883 -0.0513  1.0217
 4605SOL    HW225278   3.506   3.572   2.732  2.9807 -0.9028  0.5709
 4606SOL     OW25279   0.019   3.233   5.639  0.3804 -0.1050  0.8723
 4606SOL    HW125280   4.702   3.155   5.603 -0.3415  0.1965  1.0999
 4606SOL    HW225281   0.059   3.203   5.721 -2.2196  0.8772  2.4930
 4607SOL     OW25282   2.160   0.124   5.766 -0.1954 -0.4932 -0.3961
 4607SOL    HW125283   2.144   0.034   5.795 -0.6399 -0.1155  0.5366
 4607SOL    HW225284   2.234   0.149   5.822 -0.3670 -1.7759  0.4157
 4608SOL     OW25285   0.278   0.818   1.074  0.1960 -0.2073  0.2787
 4608SOL    HW125286   0.274   0.882   1.003  2.8267 -1.8886 -1.4143
 4608SOL    HW225287   0.263   0.733   1.032 -1.1628  1.5511 -2.8147
 4609SOL     OW25288   1.350   3.304   3.675  0.7846 -0.2857  0.4835
 4609SOL    HW125289   1.432   3.353   3.663 -0.4581  1.6323 -0.1132
 4609SOL    HW225290   1.295   3.367   3.720  1.1144  1.3811 -1.4392
 4610SOL     OW25291   3.354   3.206  16.729  0.2172 -0.4185 -0.1904
 4610SOL    HW125292   3.283   3.167  16.780 -1.6517  1.5136 -1.3192
 4610SOL    HW225293   3.331   3.159  16.649  2.7734 -0.7156 -0.7612
 4611SOL     OW25294   1.214   3.019   8.742 -0.6797  0.0069  0.2240
 4611SOL    HW125295   1.178   3.100   8.779 -0.1299  0.6046 -0.5461
 4611SOL    HW225296   1.228   3.047   8.651  2.2553 -0.7091  0.4660
 4612SOL     OW25297   3.245   1.868   5.629 -0.1205  0.1118  0.0017
 4612SOL    HW125298   3.312   1.935   5.637 -0.5189  0.5979 -0.7762
 4612SOL    HW225299   3.168   1.911   5.666 -1.5019 -0.6546 -1.9813
 4613SOL     OW25300   0.428   2.487   0.346  0.1629 -0.2319 -0.0593
 4613SOL    HW125301   0.356   2.542   0.316 -0.9159 -1.7853 -0.3342
 4613SOL    HW225302   0.419   2.478   0.441  1.5979  2.6024  0.3627
 4614SOL     OW25303   1.615   2.496   8.116 -0.0949  0.0786  0.3377
 4614SOL    HW125304   1.670   2.573   8.099 -0.9779  0.7215  0.3971
 4614SOL    HW225305   1.610   2.453   8.031 -0.6589  1.3942 -0.2825
 4615SOL     OW25306   3.319   0.505   5.163 -0.0658 -0.4089  0.7225
 4615SOL    HW125307   3.356   0.593   5.153  0.1012 -0.6954 -1.1640
 4615SOL    HW225308   3.382   0.444   5.126 -0.8634 -0.0835 -1.1566
 4616SOL     OW25309   2.190   1.763   1.293 -0.1055 -0.1798  0.6074
 4616SOL    HW125310   2.101   1.775   1.259 -0.1310  0.9813  1.1068
 4616SOL    HW225311   2.202   1.846   1.338  0.3896 -1.2951  2.5099
 4617SOL     OW25312   3.522   4.692   4.876  0.4542  0.8520 -0.0010
 4617SOL    HW125313   3.430   4.669   4.892  0.6329  0.2570  0.1467
 4617SOL    HW225314   3.525   0.052   4.835  0.9253  0.9586  0.2647
 4618SOL     OW25315   4.423   3.861  15.123 -0.1616  0.1776 -0.0150
 4618SOL    HW125316   4.370   3.922  15.175  0.4638 -0.3538  1.2480
 4618SOL    HW225317   4.418   3.912  15.042 -1.4676 -1.3937 -0.9319
 4619SOL     OW25318   4.281   0.143  10.412  0.0681  0.1045  0.1094
 4619SOL    HW125319   4.208   0.157  10.351 -2.0309 -1.6393  2.2665
 4619SOL    HW225320   4.239   0.166  10.494  1.9729 -0.6958  1.3162
 4620SOL     OW25321   1.483   3.261   8.629 -0.6400 -0.4641 -0.8560
 4620SOL    HW125322   1.429   3.336   8.656  1.6790  2.0954 -3.3064
 4620SOL    HW225323   1.428   3.224   8.560 -0.9016 -0.5030 -0.6263
 4621SOL     OW25324   2.580   3.844   8.361 -0.0881  0.2311  0.5060
 4621SOL    HW125325   2.547   3.806   8.442 -0.1385 -1.4216 -0.3023
 4621SOL    HW225326   2.500   3.846   8.309  1.6540  1.6013 -2.1340
 4622SOL     OW25327   3.198   0.188   1.574 -0.6364  0.5181 -0.9742
 4622SOL    HW125328   3.173   0.095   1.574  1.8259 -0.1392 -0.0512
 4622SOL    HW225329   3.236   0.192   1.662 -3.3835 -2.1081  0.3670
 4623SOL     OW25330   1.951   2.017   6.272 -0.4381  0.1496  0.0989
 4623SOL    HW125331   1.934   1.925   6.294  1.1445  0.1148  1.1880
 4623SOL    HW225332   1.950   2.060   6.357  1.2877  1.6445 -0.6349
 4624SOL     OW25333   2.321   2.942   4.588 -0.3298 -0.0268 -0.0226
 4624SOL    HW125334   2.270   2.890   4.526 -1.1241  0.5934  0.1160
 4624SOL    HW225335   2.345   3.016   4.534 -1.1826  1.7661  2.0306
 4625SOL     OW25336   3.673   0.322   8.400  0.0334 -0.5504  0.1929
 4625SOL    HW125337   3.750   0.304   8.346 -0.1559  0.7151 -0.4876
 4625SOL    HW225338   3.663   0.415   8.417  0.1024 -0.0684 -2.4022
 4626SOL     OW25339   2.042   0.519  15.369  0.8074 -0.0110 -0.2331
 4626SOL    HW125340   1.967   0.472  15.333  0.8473 -1.0224  1.0079
 4626SOL    HW225341   2.063   0.463  15.444 -1.3526 -0.4011  0.0928
 4627SOL     OW25342   4.348   2.317   7.856  0.2767 -0.1273  0.3291
 4627SOL    HW125343   4.421   2.317   7.795  0.3973  2.2094  0.4430
 4627SOL    HW225344   4.278   2.341   7.796  1.8221  1.1113 -0.9861
 4628SOL     OW25345   4.344   3.542  15.556  0.5060  0.2675 -0.4002
 4628SOL    HW125346   4.338   3.448  15.539 -1.9861  0.5841 -1.2441
 4628SOL    HW225347   4.350   3.526  15.650  2.6557 -0.0058 -0.5840
 4629SOL     OW25348   2.557   0.301   4.075  0.3774 -0.1379  0.8736
 4629SOL    HW125349   2.614   0.378   4.068  1.8678 -1.1244  2.3523
 4629SOL    HW225350   2.601   0.264   4.151  2.8227  0.0813 -0.4171
 4630SOL     OW25351   1.514   3.803   4.088 -0.7296  0.0621  0.0093
 4630SOL    HW125352   1.463   3.865   4.140  0.1836  2.8724 -2.4867
 4630SOL    HW225353   1.532   3.848   4.006 -1.2717  1.1344  0.4796
 4631SOL     OW25354   3.579   1.317   4.227 -0.3529  0.2007  0.2126
 4631SOL    HW125355   3.485   1.321   4.246 -0.7093 -2.4570 -0.9897
 4631SOL    HW225356   3.594   1.375   4.152  0.1824 -0.1007  0.0840
 4632SOL     OW25357   0.361   1.254  14.222  0.0114  0.4078  0.2953
 4632SOL    HW125358   0.267   1.242  14.237 -0.4979  2.4387 -1.1381
 4632SOL    HW225359   0.370   1.246  14.127 -0.2110 -0.3309  0.3363
 4633SOL     OW25360   1.273   2.025   9.195 -0.6764  0.4602 -0.1335
 4633SOL    HW125361   1.306   2.047   9.282 -3.2817  1.4801  0.5950
 4633SOL    HW225362   1.294   1.932   9.189  0.3795  0.7068 -0.2928
 4634SOL     OW25363   0.743   1.291   1.127  0.4976  0.3227 -0.1322
 4634SOL    HW125364   0.723   1.293   1.034 -1.8013  1.9054  0.3889
 4634SOL    HW225365   0.814   1.227   1.132  1.2727  1.2129  0.0727
 4635SOL     OW25366   3.186   1.488   8.218  0.2786  0.2822  0.4424
 4635SOL    HW125367   3.272   1.471   8.181 -0.9929 -0.2942 -2.2569
 4635SOL    HW225368   3.214   1.524   8.302  2.2852 -0.1036 -0.0660
 4636SOL     OW25369   3.509   0.703  11.861  0.0868 -0.2334  0.2160
 4636SOL    HW125370   3.491   0.624  11.911 -1.6069  0.5794  0.9013
 4636SOL    HW225371   3.600   0.695  11.833  0.4373  1.4304  0.8589
 4637SOL     OW25372   0.053   3.501   2.988  0.4687 -0.3636  0.0312
 4637SOL    HW125373   4.706   3.456   3.029 -2.3343  1.8551 -2.6151
 4637SOL    HW225374   0.064   3.437   2.918  0.4392  0.8280 -1.0540
 4638SOL     OW25375   1.236   3.640   7.193 -0.1592  0.0718 -0.2315
 4638SOL    HW125376   1.275   3.713   7.146  2.0905  0.0515  1.5899
 4638SOL    HW225377   1.180   3.700   7.244 -1.9694 -1.1109 -0.8116
 4639SOL     OW25378   1.105   4.656  15.642 -0.1010 -0.1422 -0.1647
 4639SOL    HW125379   1.070   4.710  15.572  1.9742  1.5508  0.1312
 4639SOL    HW225380   1.193   4.635  15.612  0.3714  1.9312 -0.1797
 4640SOL     OW25381   2.553   1.991  12.063 -0.4026  0.1162 -0.7410
 4640SOL    HW125382   2.567   1.908  12.017  0.9337  0.4383 -0.9259
 4640SOL    HW225383   2.643   2.024  12.062  0.1029 -1.2657 -2.3636
 4641SOL     OW25384   2.588   3.899  14.269  0.2579 -0.7268 -0.3932
 4641SOL    HW125385   2.523   3.848  14.221 -0.9096  0.1981  0.2165
 4641SOL    HW225386   2.663   3.867  14.219  1.9825  1.8919  0.4954
 4642SOL     OW25387   1.375   1.531   4.972  0.1895 -0.3746 -0.2524
 4642SOL    HW125388   1.408   1.442   4.983 -0.1058 -0.5574 -0.8589
 4642SOL    HW225389   1.350   1.562   5.060 -1.7819 -1.7071 -0.3275
 4643SOL     OW25390   0.417   1.057  15.028 -0.0649  0.4268 -0.4703
 4643SOL    HW125391   0.442   1.060  15.121 -1.6395 -0.3976 -0.0219
 4643SOL    HW225392   0.491   1.105  14.991  0.0940 -1.1434 -2.1867
 4644SOL     OW25393   2.210   2.155   1.675  0.3097 -0.1647  0.0175
 4644SOL    HW125394   2.303   2.148   1.697  0.1415  1.5825  1.3357
 4644SOL    HW225395   2.224   2.204   1.594  0.5480  0.9527  0.7235
 4645SOL     OW25396   2.241   0.077   7.568  0.4321 -0.4748  0.2918
 4645SOL    HW125397   2.281   0.118   7.644 -0.9150  1.0509  0.1679
 4645SOL    HW225398   2.311   0.082   7.503 -1.3729  0.5333 -1.5732
 4646SOL     OW25399   4.588   4.541  14.739 -0.0194  0.0462  0.1859
 4646SOL    HW125400   4.665   4.594  14.757 -1.9144  2.3255  1.5758
 4646SOL    HW225401   4.565   4.564  14.649  0.1266  1.4438  0.5049
 4647SOL     OW25402   1.903   4.614   6.711  0.0027 -0.2086  0.3483
 4647SOL    HW125403   1.914   4.526   6.748  1.8016  0.0205  0.3442
 4647SOL    HW225404   1.936   4.663   6.786  0.3503  0.0352  0.0378
 4648SOL     OW25405   3.256   2.615   3.854 -0.2741 -0.2871  0.5647
 4648SOL    HW125406   3.298   2.699   3.837  1.0269 -1.3530 -1.4701
 4648SOL    HW225407   3.238   2.581   3.766 -0.5518 -0.3436  0.6438
 4649SOL     OW25408   1.740   3.294   6.938  0.1375 -0.5478 -0.3630
 4649SOL    HW125409   1.764   3.222   6.996  0.5663  0.7180  1.0366
 4649SOL    HW225410   1.757   3.368   6.997 -0.9788  0.1696 -0.9373
 4650SOL     OW25411   0.611   3.576   4.696 -0.0723 -0.7394  0.0568
 4650SOL    HW125412   0.670   3.585   4.771 -2.1477 -2.3148  1.8915
 4650SOL    HW225413   0.638   3.487   4.671  0.2346 -1.2001  1.9881
 4651SOL     OW25414   4.654   2.150   4.645  1.0123 -0.0909  0.2080
 4651SOL    HW125415   4.666   2.074   4.702 -0.4770 -0.3697  0.1595
 4651SOL    HW225416   4.667   2.115   4.557 -0.5684  1.9373 -0.8374
 4652SOL     OW25417   1.856   3.990   7.250 -0.3930  0.1371 -0.6018
 4652SOL    HW125418   1.848   4.039   7.332  0.5776 -0.6586 -0.0275
 4652SOL    HW225419   1.845   3.898   7.273  0.4840  0.3198  0.5790
 4653SOL     OW25420   0.730   4.165   6.902  0.6763  0.0319 -0.5149
 4653SOL    HW125421   0.776   4.161   6.986 -0.2440  0.9682  0.0392
 4653SOL    HW225422   0.800   4.159   6.837 -1.1627  0.8429 -2.5805
 4654SOL     OW25423   3.328   1.415   2.866 -0.2923  0.0488 -0.1548
 4654SOL    HW125424   3.385   1.380   2.935  1.7429  1.4753 -1.1059
 4654SOL    HW225425   3.397   1.428   2.801 -0.0426  0.3063  0.1587
 4655SOL     OW25426   2.280   2.898   4.116  0.3578  0.8842 -0.1139
 4655SOL    HW125427   2.308   2.990   4.117  3.6960 -0.0688 -2.7072
 4655SOL    HW225428   2.185   2.907   4.109  0.2071  0.2238  1.1081
 4656SOL     OW25429   0.876   2.739   6.391 -0.2805 -0.0020 -0.2328
 4656SOL    HW125430   0.846   2.821   6.353  1.0807  0.6452  0.1290
 4656SOL    HW225431   0.960   2.764   6.429 -0.8998  0.6723  0.7000
 4657SOL     OW25432   2.181   3.331   8.552  0.5939  0.0921  0.8778
 4657SOL    HW125433   2.121   3.400   8.582  1.2121  1.0873 -0.1484
 4657SOL    HW225434   2.261   3.382   8.533  0.7793 -0.4655  0.1593
 4658SOL     OW25435   2.073   1.605  11.405  0.0669  0.2397 -0.3496
 4658SOL    HW125436   2.029   1.554  11.336  1.5393 -0.7262 -0.5805
 4658SOL    HW225437   2.003   1.669  11.417  1.5951  2.0483 -1.1677
 4659SOL     OW25438   2.212   3.817   9.246 -0.3323  0.0090  0.5975
 4659SOL    HW125439   2.158   3.872   9.303 -1.9659  0.1755 -1.1350
 4659SOL    HW225440   2.153   3.744   9.229  0.9800 -0.8976  0.0277
 4660SOL     OW25441   3.537   4.005   2.072 -0.1995 -0.5818 -0.4870
 4660SOL    HW125442   3.520   3.953   2.151 -0.5991 -1.5209 -1.1992
 4660SOL    HW225443   3.543   3.940   2.002 -1.9175 -2.9287  1.5183
 4661SOL     OW25444   2.016   4.172   6.186  0.1332  0.3686  0.2941
 4661SOL    HW125445   2.048   4.259   6.210  1.5386  0.0922 -0.6275
 4661SOL    HW225446   1.956   4.153   6.259 -0.5280  3.1920  0.4947
 4662SOL     OW25447   1.804   0.796   6.737 -0.1718  0.2770  0.4251
 4662SOL    HW125448   1.762   0.845   6.808 -0.9456 -1.8463  1.4444
 4662SOL    HW225449   1.854   0.734   6.789 -0.4059 -1.5488 -1.5299
 4663SOL     OW25450   1.626   4.471   9.159 -0.3800 -0.1639  0.2959
 4663SOL    HW125451   1.621   4.438   9.248 -0.9519  2.7645  1.3464
 4663SOL    HW225452   1.627   4.383   9.120 -1.9420 -0.1307  0.2144
 4664SOL     OW25453   1.372   4.062  11.069  0.1041  0.5230 -0.3279
 4664SOL    HW125454   1.307   4.129  11.050  0.3573  0.2957 -2.0682
 4664SOL    HW225455   1.337   4.034  11.153  0.1005  2.4220  0.2812
 4665SOL     OW25456   1.594   1.711   7.634  0.0938  0.8223 -0.0635
 4665SOL    HW125457   1.521   1.773   7.632  0.1673  0.8970 -0.4277
 4665SOL    HW225458   1.593   1.679   7.544 -0.5081  1.4967 -0.2956
 4666SOL     OW25459   1.978   2.520   6.712 -0.1108 -0.3686 -0.3577
 4666SOL    HW125460   1.886   2.547   6.707  0.1467  0.6238  0.3745
 4666SOL    HW225461   1.982   2.465   6.789 -2.1109 -0.9062 -0.6322
 4667SOL     OW25462   3.361   2.265   6.297 -0.1228 -0.1780  0.0282
 4667SOL    HW125463   3.447   2.288   6.261 -1.0674  2.5830 -0.4651
 4667SOL    HW225464   3.324   2.352   6.314 -1.8189 -0.2373 -3.2575
 4668SOL     OW25465   0.922   0.164   8.604  0.2351  0.0854  0.0470
 4668SOL    HW125466   0.930   0.159   8.699 -0.6308  2.7422  0.2594
 4668SOL    HW225467   0.851   0.227   8.591 -2.4151 -2.4671  2.0673
 4669SOL     OW25468   4.661   0.395   8.728  0.2535  0.2773  0.0506
 4669SOL    HW125469   4.586   0.369   8.781  0.6512 -1.4372 -0.2265
 4669SOL    HW225470   4.650   0.488   8.708  0.0823  0.6007  1.6388
 4670SOL     OW25471   1.492   0.510   7.647 -0.0687  0.4698  0.5055
 4670SOL    HW125472   1.467   0.441   7.586  1.4523 -2.7208  3.4956
 4670SOL    HW225473   1.580   0.538   7.620 -0.2404  0.4688 -0.0647
 4671SOL     OW25474   4.712   2.114   8.439  0.2296  0.5107  0.4159
 4671SOL    HW125475   0.053   2.180   8.431  0.9835 -0.1989  0.9954
 4671SOL    HW225476   4.638   2.167   8.409  1.0031  1.7993  0.8049
 4672SOL     OW25477   4.185   3.713  10.034 -0.0112  0.0706 -0.1177
 4672SOL    HW125478   4.184   3.807  10.015 -0.0229  0.1537  0.2900
 4672SOL    HW225479   4.151   3.714  10.123  1.1750 -0.4638  0.3345
 4673SOL     OW25480   0.408   4.175   5.600  0.4560  0.0266  0.4172
 4673SOL    HW125481   0.317   4.161   5.625  0.8110 -0.3640  1.5138
 4673SOL    HW225482   0.429   4.094   5.554 -0.0507 -0.3722  0.8889
 4674SOL     OW25483   3.189   1.003   1.997 -0.2779 -0.3261  0.0339
 4674SOL    HW125484   3.231   0.932   1.949 -3.2519 -1.7288 -0.5042
 4674SOL    HW225485   3.187   0.972   2.088 -2.3615 -1.1638 -0.2870
 4675SOL     OW25486   2.294   1.874  14.790  0.3529 -0.2460  0.1404
 4675SOL    HW125487   2.202   1.862  14.812  0.3865  0.6525  0.7501
 4675SOL    HW225488   2.326   1.920  14.867  0.7351  0.6648 -0.5589
 4676SOL     OW25489   2.217   0.855   0.598 -0.4424  0.1107  0.0328
 4676SOL    HW125490   2.283   0.807   0.549  0.5356  0.3825  1.0926
 4676SOL    HW225491   2.130   0.838   0.561 -0.4713 -0.5758  0.4231
 4677SOL     OW25492   4.377   0.324   4.199  0.3514  0.5934  0.0215
 4677SOL    HW125493   4.320   0.248   4.205  1.2732 -0.2457 -1.6869
 4677SOL    HW225494   4.460   0.287   4.230  0.8163  0.3919 -1.4284
 4678SOL     OW25495   0.601   2.895   7.757  0.1812 -0.2870 -0.1841
 4678SOL    HW125496   0.581   2.908   7.850 -2.6996  1.0364 -1.0063
 4678SOL    HW225497   0.519   2.887   7.709  1.0213 -1.2971 -1.4281
 4679SOL     OW25498   3.471   0.765   1.239  0.1357  0.2655  0.5340
 4679SOL    HW125499   3.407   0.788   1.171 -0.2754 -1.5570  0.3239
 4679SOL    HW225500   3.478   0.672   1.218  0.6688  1.0415 -2.7236
 4680SOL     OW25501   0.200   4.040   0.272 -0.1952  0.2529 -0.5625
 4680SOL    HW125502   0.271   3.992   0.314 -0.3133  1.4707  1.0460
 4680SOL    HW225503   0.132   4.042   0.340  0.0540 -1.8981 -0.2571
 4681SOL     OW25504   2.711   0.646   0.941  0.2346 -0.0992 -0.1533
 4681SOL    HW125505   2.721   0.674   1.032  0.2076  0.3313 -0.2814
 4681SOL    HW225506   2.622   0.612   0.950  0.1093  0.5024  0.9578
 4682SOL     OW25507   1.908   4.353   1.995 -0.1212 -0.0945 -0.1933
 4682SOL    HW125508   1.978   4.399   1.947 -1.0077 -0.4197 -1.7846
 4682SOL    HW225509   1.830   4.397   1.964  0.8033  0.6629 -1.4412
 4683SOL     OW25510   0.402   1.853   7.253 -0.3013  0.3822 -0.1675
 4683SOL    HW125511   0.443   1.911   7.317 -0.1553  1.1422 -0.9672
 4683SOL    HW225512   0.471   1.854   7.188  0.0486  1.1699  0.2206
 4684SOL     OW25513   1.300   2.212   6.969 -0.0986  0.2929 -0.4004
 4684SOL    HW125514   1.327   2.303   6.979 -0.7735  0.3826  0.6532
 4684SOL    HW225515   1.229   2.199   7.032  1.5483 -4.1559  0.5700
 4685SOL     OW25516   3.700   0.785   3.471 -0.1115 -0.1741 -0.2213
 4685SOL    HW125517   3.729   0.845   3.402  2.6104 -0.6030  0.5724
 4685SOL    HW225518   3.696   0.840   3.550 -1.2667  0.1745 -0.5204
 4686SOL     OW25519   0.843   3.129  14.190 -0.1578  0.0532  0.4492
 4686SOL    HW125520   0.835   3.066  14.262 -0.8302 -1.1721 -0.6838
 4686SOL    HW225521   0.937   3.141  14.178  0.0483 -0.3580  1.7036
 4687SOL     OW25522   2.828   2.301   5.663 -0.5404 -0.1072  0.3469
 4687SOL    HW125523   2.894   2.234   5.642  1.5788  2.3158 -0.6968
 4687SOL    HW225524   2.787   2.291   5.749 -0.4487 -0.9266  0.2948
 4688SOL     OW25525   2.942   2.689   7.649 -0.3113  0.6866  0.6511
 4688SOL    HW125526   2.958   2.768   7.598 -2.1584  0.6968  0.0800
 4688SOL    HW225527   2.846   2.699   7.646 -0.4441 -0.1014  2.0852
 4689SOL     OW25528   1.814   0.806   3.784  0.7239  0.3879  0.4868
 4689SOL    HW125529   1.804   0.858   3.863  0.6909  0.1021  0.6720
 4689SOL    HW225530   1.822   0.874   3.718  1.1918  1.0954  1.2727
 4690SOL     OW25531   3.560   2.343   3.132 -0.4534  0.1675 -0.9184
 4690SOL    HW125532   3.608   2.344   3.215 -2.0432  0.0468  0.0079
 4690SOL    HW225533   3.602   2.415   3.085  1.4145 -0.7294 -0.6151
 4691SOL     OW25534   0.861   3.312   1.870 -0.3399 -0.0264 -0.0386
 4691SOL    HW125535   0.953   3.329   1.854 -0.3758  0.1984 -0.0049
 4691SOL    HW225536   0.857   3.228   1.917 -0.8238  0.8308  1.4704
 4692SOL     OW25537   0.513   2.949  16.912  0.3556 -0.0498  0.2134
 4692SOL    HW125538   0.524   3.004  16.990  0.7319 -0.6027  0.5536
 4692SOL    HW225539   0.419   2.931  16.911  0.4870 -0.6297 -0.8771
 4693SOL     OW25540   3.208   4.025   7.391 -0.0212  0.5216  0.8191
 4693SOL    HW125541   3.287   4.066   7.425 -0.1024  0.3843  1.1773
 4693SOL    HW225542   3.181   3.968   7.463 -0.5581  1.0446  1.0323
 4694SOL     OW25543   2.845   3.135  13.109 -0.2702  0.4069  0.6206
 4694SOL    HW125544   2.871   3.100  13.195  0.0551 -1.1134 -0.1125
 4694SOL    HW225545   2.764   3.177  13.138 -0.8645 -0.8594  0.7818
 4695SOL     OW25546   0.324   0.202   9.666 -0.0308  0.5123  0.2067
 4695SOL    HW125547   0.349   0.149   9.742  1.8637  1.4197  0.2182
 4695SOL    HW225548   0.396   0.178   9.607  1.1782  0.9741  1.4944
 4696SOL     OW25549   2.576   4.167   6.663 -0.0356 -0.2728  0.5974
 4696SOL    HW125550   2.546   4.117   6.738 -2.7434  1.0530  0.3846
 4696SOL    HW225551   2.616   4.097   6.611 -0.8266  0.6575 -1.2722
 4697SOL     OW25552   4.599   2.724   9.616  0.0749 -0.7955 -0.7222
 4697SOL    HW125553   4.510   2.750   9.596  1.2482  2.1086 -2.0758
 4697SOL    HW225554   4.594   2.709   9.711  1.5214 -0.6808 -0.6313
 4698SOL     OW25555   0.365   3.803   4.336  0.0797 -0.0452 -0.1326
 4698SOL    HW125556   0.402   3.764   4.257 -1.0262 -0.2700 -0.5399
 4698SOL    HW225557   0.371   3.730   4.396 -0.6580 -0.0496 -0.0635
 4699SOL     OW25558   2.990   0.519   5.907 -0.1050 -0.3876  0.0850
 4699SOL    HW125559   3.046   0.538   5.832 -1.5638  1.1745 -0.6079
 4699SOL    HW225560   3.030   0.588   5.961 -0.7239 -0.4165  0.5820
 4700SOL     OW25561   1.452   2.102  16.283 -0.1600 -0.4285 -0.0402
 4700SOL    HW125562   1.409   2.017  16.279 -1.3649  0.2054 -0.4598
 4700SOL    HW225563   1.378   2.160  16.302  0.0058 -0.7207  1.4837
 4701SOL     OW25564   4.630   2.543   2.299  0.7621  0.3501  0.1949
 4701SOL    HW125565   4.544   2.564   2.334  1.2333  0.9950  0.9721
 4701SOL    HW225566   4.621   2.574   2.209  1.2104 -1.5091 -0.4857
 4702SOL     OW25567   1.500   2.731   2.311  0.6749  0.0152  0.4339
 4702SOL    HW125568   1.510   2.720   2.406 -0.6294 -0.4985  0.5076
 4702SOL    HW225569   1.586   2.696   2.288  1.1112  1.8275 -0.6446
 4703SOL     OW25570   4.364   1.840  16.883 -0.1502 -0.1232  0.5361
 4703SOL    HW125571   4.385   1.885  16.964  0.0697 -1.6912  1.3631
 4703SOL    HW225572   4.357   1.917  16.827 -0.2926 -0.9352 -0.5833
 4704SOL     OW25573   4.019   0.655   2.733  0.4056  0.1260 -0.0769
 4704SOL    HW125574   4.026   0.681   2.825 -0.5219  0.1592 -0.0076
 4704SOL    HW225575   3.979   0.568   2.740  0.5009  0.0679 -0.2824
 4705SOL     OW25576   2.655   0.035  11.522 -0.2722  0.0236  0.4461
 4705SOL    HW125577   2.564   0.008  11.512 -0.1603  0.7449 -2.4589
 4705SOL    HW225578   2.705   4.694  11.477 -0.1622 -0.0296  0.6488
 4706SOL     OW25579   3.583   0.445  16.809  0.1275 -0.0780 -0.4298
 4706SOL    HW125580   3.513   0.465  16.871  0.5832  1.5309 -0.4330
 4706SOL    HW225581   3.611   0.534  16.785 -0.8519  0.0669 -1.0176
 4707SOL     OW25582   0.385   3.317   6.385  0.5569 -0.2825  0.4646
 4707SOL    HW125583   0.378   3.222   6.399  0.3481 -0.3628 -0.2195
 4707SOL    HW225584   0.475   3.328   6.415  0.8993 -3.2313  0.5616
 4708SOL     OW25585   1.168   4.129  15.483 -0.1990 -1.1983  0.1890
 4708SOL    HW125586   1.241   4.106  15.540  0.4486 -0.7247 -0.4510
 4708SOL    HW225587   1.148   4.046  15.439 -2.3432 -1.0433  0.8701
 4709SOL     OW25588   0.466   0.005   5.706  0.8232  0.1266 -0.2403
 4709SOL    HW125589   0.413   4.695   5.776  0.8664  0.0847 -0.2295
 4709SOL    HW225590   0.551   4.692   5.727  0.6547  1.3426  2.7901
 4710SOL     OW25591   3.947   4.451  10.765 -0.3059  0.2241 -0.1447
 4710SOL    HW125592   3.932   4.389  10.836 -1.4883 -0.0813 -0.6635
 4710SOL    HW225593   3.969   4.383  10.702 -2.0812  1.5957 -2.2497
 4711SOL     OW25594   1.056   1.517   1.573  0.7110 -0.6424 -0.0141
 4711SOL    HW125595   1.003   1.450   1.618 -0.1804  0.9788  1.3690
 4711SOL    HW225596   1.144   1.506   1.608  0.9868  1.4170 -0.1058
 4712SOL     OW25597   2.496   3.387   6.574  0.2740 -0.5673 -0.5118
 4712SOL    HW125598   2.577   3.347   6.605  0.4762 -1.7182 -2.4820
 4712SOL    HW225599   2.442   3.396   6.653  1.2746  0.4448  0.0581
 4713SOL     OW25600   2.118   2.746   2.722  0.3315  0.2958  0.0886
 4713SOL    HW125601   2.053   2.814   2.706  1.7320  1.7247  0.5022
 4713SOL    HW225602   2.168   2.749   2.641  3.1461 -0.1125  1.8185
 4714SOL     OW25603   1.178   4.487   9.154 -0.7600 -0.4475  0.1710
 4714SOL    HW125604   1.200   4.415   9.213 -0.3114 -0.0870  0.4441
 4714SOL    HW225605   1.117   4.540   9.204 -0.1326 -0.8000  1.3083
 4715SOL     OW25606   0.080   3.720   9.488 -0.3237 -0.2518  0.1614
 4715SOL    HW125607   0.103   3.793   9.546  0.0600  0.0876 -0.4109
 4715SOL    HW225608   0.059   3.649   9.548 -0.2804 -0.4755 -0.0864
 4716SOL     OW25609   1.165   3.928   2.822 -0.2645  0.7982 -0.2612
 4716SOL    HW125610   1.120   3.968   2.897 -2.6173 -1.4062 -0.5001
 4716SOL    HW225611   1.092   3.904   2.764  0.8790  2.1318 -2.2603
 4717SOL     OW25612   3.610   4.052  17.086  0.2952  0.5609 -0.0819
 4717SOL    HW125613   3.529   4.034  17.037  0.4335 -1.5860  0.5016
 4717SOL    HW225614   3.622   4.144  17.062 -1.6716  1.3941  2.1339
 4718SOL     OW25615   0.872   4.605   7.810 -0.2522 -0.4660  0.5815
 4718SOL    HW125616   0.960   4.597   7.774 -0.5209  0.1693 -0.2185
 4718SOL    HW225617   0.877   4.553   7.891 -0.4891 -1.9821 -0.3900
 4719SOL     OW25618   1.444   3.852   9.512  0.5988 -0.1523  0.2528
 4719SOL    HW125619   1.504   3.919   9.479  0.4164  0.3710  0.9730
 4719SOL    HW225620   1.372   3.867   9.451 -0.0322 -2.7905  0.3690
 4720SOL     OW25621   4.469   3.938  14.214  0.3565  0.0737 -0.2018
 4720SOL    HW125622   4.525   3.943  14.292 -0.5490 -0.9306  0.5030
 4720SOL    HW225623   4.511   3.872  14.159 -0.4505  0.1491 -0.9039
 4721SOL     OW25624   3.964   0.387   5.806  0.7546 -0.0714 -0.2490
 4721SOL    HW125625   3.881   0.419   5.842 -0.3230 -2.2863 -0.7529
 4721SOL    HW225626   3.965   0.304   5.853 -0.5547  0.4381  0.7255
 4722SOL     OW25627   3.167   4.610   8.195 -0.1822 -0.2800  0.1045
 4722SOL    HW125628   3.172   4.640   8.286 -0.9977 -0.9777  0.3722
 4722SOL    HW225629   3.172   4.696   8.152 -0.8360  0.0030  0.5878
 4723SOL     OW25630   2.362   2.050  13.820 -0.1400 -0.1177  0.2878
 4723SOL    HW125631   2.409   2.079  13.898  0.1483  0.8297 -0.2447
 4723SOL    HW225632   2.404   2.100  13.750 -0.3472  1.3733  1.2288
 4724SOL     OW25633   4.100   3.460  10.609  0.2519  0.0876 -0.2020
 4724SOL    HW125634   4.035   3.417  10.554 -1.4553  0.9121  1.1614
 4724SOL    HW225635   4.144   3.384  10.647 -0.2029 -0.1850 -0.2126
 4725SOL     OW25636   4.383   2.468   4.118 -0.0881  0.1874  0.4100
 4725SOL    HW125637   4.372   2.533   4.188 -0.0123  1.3077 -0.6284
 4725SOL    HW225638   4.395   2.391   4.175  0.8489 -0.1162 -0.2024
 4726SOL     OW25639   3.194   2.513  13.710 -0.7522 -0.1960  0.0301
 4726SOL    HW125640   3.253   2.438  13.709  0.3496  0.6454  1.4672
 4726SOL    HW225641   3.109   2.470  13.716 -2.3878  3.2711  1.9767
 4727SOL     OW25642   2.075   1.130  11.578  0.0578 -0.1697  0.1903
 4727SOL    HW125643   1.997   1.163  11.622 -0.3025 -1.6780  0.6552
 4727SOL    HW225644   2.126   1.211  11.569  0.7517 -0.4325  1.7149
 4728SOL     OW25645   1.893   4.111   8.236 -0.3956  0.2408 -0.0811
 4728SOL    HW125646   1.806   4.150   8.239 -0.6698 -0.3821  0.0652
 4728SOL    HW225647   1.928   4.158   8.160  1.6852  1.0371  1.3626
 4729SOL     OW25648   3.426   3.651   5.464 -0.2078 -0.0321 -0.2962
 4729SOL    HW125649   3.388   3.717   5.522  1.0162 -0.6999  1.2509
 4729SOL    HW225650   3.436   3.575   5.520 -1.2629  0.0994  0.0781
 4730SOL     OW25651   3.191   2.744   2.450 -0.1827  0.4532  0.3363
 4730SOL    HW125652   3.268   2.756   2.506  0.4278  0.8090 -0.5690
 4730SOL    HW225653   3.174   2.653   2.473  2.3702  0.1281  0.8899
 4731SOL     OW25654   2.751   2.013   5.447 -0.3924 -0.0869  0.2185
 4731SOL    HW125655   2.747   1.971   5.361  0.1736 -0.2677  0.2828
 4731SOL    HW225656   2.792   2.098   5.430  1.3421 -0.7722  1.0785
 4732SOL     OW25657   2.222   2.382   6.608  0.7564  0.1315  0.2305
 4732SOL    HW125658   2.228   2.320   6.680  0.7582  0.1893  0.2795
 4732SOL    HW225659   2.155   2.444   6.637  0.0785  0.3454 -1.8015
 4733SOL     OW25660   3.498   4.090   5.499 -0.4508 -0.8041  0.2031
 4733SOL    HW125661   3.470   4.009   5.456 -0.8915 -0.9287  0.7261
 4733SOL    HW225662   3.486   4.055   5.587 -1.2615  1.0004  0.8270
 4734SOL     OW25663   0.692   1.638   6.074 -0.3773  0.1686  0.0436
 4734SOL    HW125664   0.698   1.659   5.981 -4.6378 -1.2248 -0.5407
 4734SOL    HW225665   0.647   1.713   6.112 -1.5248  0.0786 -1.1702
 4735SOL     OW25666   1.347   4.357   5.319 -0.3686 -0.5891  0.4485
 4735SOL    HW125667   1.392   4.441   5.312  2.6932 -2.1870  0.8214
 4735SOL    HW225668   1.387   4.322   5.398  0.6890 -1.4450 -0.4623
 4736SOL     OW25669   3.570   0.022   5.372  0.3835  0.0841  0.1009
 4736SOL    HW125670   3.498   4.716   5.318 -0.3201 -0.1290  1.1881
 4736SOL    HW225671   3.616   4.666   5.389 -1.4732  0.0297  4.8143
 4737SOL     OW25672   0.518   1.848   8.345  0.0687  0.1797 -0.1688
 4737SOL    HW125673   0.460   1.907   8.393 -0.0000 -0.6246  0.7188
 4737SOL    HW225674   0.457   1.774   8.347 -3.2838  2.8214 -4.3755
 4738SOL     OW25675   1.189   3.053   5.109 -0.2834 -0.2016  0.4037
 4738SOL    HW125676   1.283   3.048   5.125 -0.2428 -0.5294  0.0469
 4738SOL    HW225677   1.199   3.034   5.016  1.2394  3.7010 -0.2574
 4739SOL     OW25678   3.789   3.703   5.347  0.2234 -0.3501  0.2864
 4739SOL    HW125679   3.855   3.695   5.277  0.3451  1.3106  0.2174
 4739SOL    HW225680   3.822   3.639   5.410 -0.9649  0.1463  1.4089
 4740SOL     OW25681   2.390   2.974   2.189  0.3110 -0.3791 -0.1560
 4740SOL    HW125682   2.463   3.010   2.138 -0.1432  1.2631  0.3376
 4740SOL    HW225683   2.379   2.887   2.152  2.0540  0.0173 -1.6451
 4741SOL     OW25684   4.594   3.092  10.219  0.2459  0.4913 -0.1809
 4741SOL    HW125685   4.602   3.134  10.134  0.2893  2.3854  0.7590
 4741SOL    HW225686   4.666   3.030  10.223 -0.4068 -0.1941  1.3452
 4742SOL     OW25687   0.222   3.215  15.248 -0.2147  0.2318  0.6114
 4742SOL    HW125688   0.145   3.163  15.272 -0.7455  0.5085 -0.5054
 4742SOL    HW225689   0.241   3.247  15.336  1.2100 -1.4708  0.9171
 4743SOL     OW25690   3.578   2.252   4.994  0.0763 -0.3357  0.1647
 4743SOL    HW125691   3.610   2.323   5.049  1.9446 -1.1299  0.1203
 4743SOL    HW225692   3.525   2.300   4.930  2.9154  0.4458 -1.6103
 4744SOL     OW25693   2.482   0.926  11.462 -0.0514  0.2171  0.0126
 4744SOL    HW125694   2.450   0.937  11.373 -1.2215 -2.1795  0.1177
 4744SOL    HW225695   2.563   0.976  11.449 -0.8946  1.4974 -0.2307
 4745SOL     OW25696   0.935   2.210  13.476  0.2396 -0.6071  0.5095
 4745SOL    HW125697   0.990   2.132  13.487  1.2662 -0.3626 -2.9617
 4745SOL    HW225698   0.939   2.230  13.382  0.4981  0.0935  0.6677
 4746SOL     OW25699   0.417   0.385  11.219 -0.2257  0.6188  0.2077
 4746SOL    HW125700   0.344   0.447  11.213  0.0939  0.8503 -1.1870
 4746SOL    HW225701   0.380   0.324  11.283 -0.7428 -0.6070 -1.2644
 4747SOL     OW25702   1.698   3.293  17.651 -0.3732  0.5426  0.3475
 4747SOL    HW125703   1.757   3.220  17.669  1.3021  1.3382 -1.9656
 4747SOL    HW225704   1.674   3.272  17.561  1.9213 -0.5005  0.0015
 4748SOL     OW25705   1.078   4.313   5.362 -0.1157  0.2705 -0.4690
 4748SOL    HW125706   1.169   4.315   5.330  0.0262 -1.5417 -0.1811
 4748SOL    HW225707   1.086   4.392   5.415 -2.0620 -0.1634  0.4416
 4749SOL     OW25708   0.519   0.300  12.603 -0.0654 -0.1004  0.2338
 4749SOL    HW125709   0.583   0.291  12.533 -0.5939 -0.1206 -0.2508
 4749SOL    HW225710   0.449   0.245  12.568 -1.0770  2.6874 -2.1790
 4750SOL     OW25711   2.108   0.297  10.170  0.3851  0.2558  0.0010
 4750SOL    HW125712   2.140   0.259  10.088 -0.7692  1.5428 -1.0433
 4750SOL    HW225713   2.106   0.224  10.231 -0.7990  0.9690  0.8058
 4751SOL     OW25714   3.111   2.280   9.916  0.6004 -0.2461 -0.5337
 4751SOL    HW125715   3.062   2.224   9.855  0.4780 -2.4159  1.5559
 4751SOL    HW225716   3.130   2.209   9.978  1.8299  0.1738 -0.4224
 4752SOL     OW25717   1.299   3.231   6.916 -0.1939  0.3701  0.1498
 4752SOL    HW125718   1.359   3.163   6.886  0.0270  0.5281  0.2414
 4752SOL    HW225719   1.358   3.289   6.963 -0.5866  1.4550 -0.7155
 4753SOL     OW25720   0.859   4.033   6.019 -0.1262 -0.2539  0.2389
 4753SOL    HW125721   0.873   4.109   5.961 -1.6599  0.3619  0.6883
 4753SOL    HW225722   0.768   4.014   5.995  0.4083 -2.3376 -0.0837
 4754SOL     OW25723   2.702   2.573   5.277  0.0981  0.5919  0.3563
 4754SOL    HW125724   2.760   2.557   5.352  0.4581  0.7063  0.1038
 4754SOL    HW225725   2.697   2.489   5.230 -0.1970  0.6537  0.2799
 4755SOL     OW25726   2.021   1.937   1.440 -0.0880 -0.2571 -0.2129
 4755SOL    HW125727   1.979   1.871   1.384 -0.2438 -0.2319 -0.1277
 4755SOL    HW225728   2.000   2.016   1.389 -4.6844 -1.2767  0.0851
 4756SOL     OW25729   2.232   1.409   0.299 -0.1385 -0.0046 -0.6748
 4756SOL    HW125730   2.186   1.446   0.375  1.5339  1.0085 -0.1648
 4756SOL    HW225731   2.197   1.457   0.224 -2.5049 -0.4687  0.1295
 4757SOL     OW25732   3.605   0.813  16.917  0.1500  0.5623 -0.3723
 4757SOL    HW125733   3.625   0.780  17.005 -1.7099 -0.0604 -0.1718
 4757SOL    HW225734   3.604   0.907  16.935 -0.1887  0.5747 -0.4575
 4758SOL     OW25735   1.927   3.976   2.390  0.5230 -0.3025  0.4509
 4758SOL    HW125736   1.851   3.940   2.344  1.9980 -1.4698 -1.0771
 4758SOL    HW225737   1.887   3.979   2.478  3.8761  1.8051  1.8905
 4759SOL     OW25738   3.921   0.367  14.390  0.1614  0.0650 -1.0338
 4759SOL    HW125739   3.871   0.383  14.470  1.6963 -0.3631  0.0067
 4759SOL    HW225740   3.858   0.332  14.327  0.4381  0.6941 -1.6516
 4760SOL     OW25741   1.355   3.815   4.420  0.1472  0.0808 -0.1271
 4760SOL    HW125742   1.332   3.840   4.330  0.7379 -1.0157 -0.5786
 4760SOL    HW225743   1.360   3.903   4.458  0.3522 -0.1364  0.3479
 4761SOL     OW25744   3.012   3.907   0.864  0.2886 -0.0765  0.2995
 4761SOL    HW125745   2.975   3.823   0.837 -0.1553  0.6831 -1.5313
 4761SOL    HW225746   2.930   3.954   0.880  1.0754  1.3745  0.0717
 4762SOL     OW25747   1.276   3.061   7.963 -0.3346 -0.0360 -0.1647
 4762SOL    HW125748   1.196   3.086   7.918 -0.6774 -1.7596 -0.4955
 4762SOL    HW225749   1.250   3.092   8.050 -2.0386  0.1541 -0.7530
 4763SOL     OW25750   1.191   4.060   0.999  0.3419 -0.0750 -0.7600
 4763SOL    HW125751   1.095   4.062   1.010  0.4417  0.2296  0.0861
 4763SOL    HW225752   1.213   4.152   1.018  1.4199 -0.8305  1.5948
 4764SOL     OW25753   0.842   2.922   0.334  0.3566  0.1489  0.6813
 4764SOL    HW125754   0.937   2.912   0.345  0.2453  0.5542  1.9994
 4764SOL    HW225755   0.834   3.006   0.378  1.5188  1.1224 -0.9811
 4765SOL     OW25756   3.351   3.059   1.767 -0.7295  0.6717 -0.0337
 4765SOL    HW125757   3.389   3.147   1.773  2.6438 -0.7618 -0.5498
 4765SOL    HW225758   3.305   3.076   1.684  0.7927  3.1011 -0.3973
 4766SOL     OW25759   0.084   2.825   5.727 -0.7195  0.0056  0.5258
 4766SOL    HW125760   0.102   2.911   5.766 -0.8189  0.5567 -0.6256
 4766SOL    HW225761   0.151   2.837   5.659 -1.7632 -1.9378 -0.8576
 4767SOL     OW25762   0.027   0.418   2.112  0.3587  0.1715 -0.0569
 4767SOL    HW125763   0.041   0.335   2.157  1.4124  1.5322  2.1392
 4767SOL    HW225764   0.058   0.479   2.179  0.5342  0.4968 -0.4332
 4768SOL     OW25765   0.916   1.292   3.325  0.4703  0.1779  0.1579
 4768SOL    HW125766   0.904   1.221   3.388  1.6930 -0.7603 -0.6585
 4768SOL    HW225767   0.904   1.371   3.378 -1.0311 -1.7073  2.6692
 4769SOL     OW25768   2.620   3.519   5.453 -0.5595  0.2241 -0.3734
 4769SOL    HW125769   2.586   3.587   5.511 -1.9422  1.0415 -2.1560
 4769SOL    HW225770   2.709   3.503   5.485 -1.1610  0.8861  1.6780
 4770SOL     OW25771   4.550   1.345  12.468 -0.2662  0.2886 -0.4671
 4770SOL    HW125772   4.542   1.428  12.513 -0.3554 -0.0063  0.0618
 4770SOL    HW225773   4.601   1.297  12.533  1.4913  1.7432 -0.8079
 4771SOL     OW25774   3.908   3.707   4.626 -0.2471  0.5634  0.6536
 4771SOL    HW125775   3.958   3.627   4.640  0.1955  0.9507  1.2636
 4771SOL    HW225776   3.823   3.668   4.645  0.1339 -0.4460  0.2999
 4772SOL     OW25777   0.602   0.616   4.888  0.3050  0.1363 -0.8871
 4772SOL    HW125778   0.636   0.703   4.867  2.7883 -0.1164  2.0211
 4772SOL    HW225779   0.510   0.638   4.902 -0.0940 -2.2166  0.2125
 4773SOL     OW25780   4.041   4.639   4.800 -0.4527  0.0128 -0.3792
 4773SOL    HW125781   4.064   4.655   4.892 -0.1169  2.2698 -0.8363
 4773SOL    HW225782   3.990   4.561   4.818  0.6631 -0.0430  2.5313
 4774SOL     OW25783   0.057   1.447   3.369  0.2961 -0.4777 -0.4509
 4774SOL    HW125784   0.045   1.475   3.460  1.1872 -1.5991  0.0076
 4774SOL    HW225785   4.726   1.371   3.360 -0.5836  0.0867  0.3604
 4775SOL     OW25786   4.001   4.474   7.260  0.2385  0.1050 -0.2263
 4775SOL    HW125787   4.053   4.554   7.267  1.8129 -0.9414 -0.1270
 4775SOL    HW225788   3.955   4.486   7.177  2.2232  0.8231 -1.2145
 4776SOL     OW25789   3.893   1.904   1.526  0.1966 -0.0962  0.2124
 4776SOL    HW125790   3.861   1.856   1.450 -0.1917  0.6650 -0.1080
 4776SOL    HW225791   3.986   1.897   1.505  0.4144 -0.1837  1.1757
 4777SOL     OW25792   2.544   2.045   8.039  0.1981  0.2675  0.3430
 4777SOL    HW125793   2.588   2.096   7.971  0.0272  1.6480  1.2816
 4777SOL    HW225794   2.605   2.033   8.112  0.3990  0.1789  0.1610
 4778SOL     OW25795   0.726   0.488  16.049  0.1870  0.4938 -1.1698
 4778SOL    HW125796   0.636   0.458  16.058  0.6904 -0.2259  1.3270
 4778SOL    HW225797   0.704   0.578  16.025 -2.2976  0.6500  1.7866
 4779SOL     OW25798   0.578   4.222   7.799 -0.1771  0.3670 -0.3091
 4779SOL    HW125799   0.526   4.187   7.871 -0.2715  0.4489 -0.3376
 4779SOL    HW225800   0.547   4.155   7.739 -1.4590  0.8499 -0.1698
 4780SOL     OW25801   1.730   3.561   8.761 -0.2292  0.1443 -0.0145
 4780SOL    HW125802   1.768   3.555   8.848 -0.7920 -1.5981  0.1167
 4780SOL    HW225803   1.664   3.492   8.770 -0.7571  0.6162 -0.2445
 4781SOL     OW25804   1.704   4.567   7.436  0.0431  0.3455  0.3676
 4781SOL    HW125805   1.682   4.553   7.528 -0.5549 -1.9941 -0.1141
 4781SOL    HW225806   1.775   4.630   7.443 -0.5846  1.1710 -0.6628
 4782SOL     OW25807   1.176   0.440   9.136 -0.6964 -0.0410 -0.1031
 4782SOL    HW125808   1.199   0.358   9.180  0.5975  0.6035  0.4109
 4782SOL    HW225809   1.250   0.452   9.078 -0.6913  2.0176  0.3209
 4783SOL     OW25810   3.221   1.844  10.122  0.2569 -0.1000  0.5953
 4783SOL    HW125811   3.209   1.938  10.112 -0.1472 -0.1301  0.8228
 4783SOL    HW225812   3.168   1.821  10.198  0.8128 -2.0648  0.3934
 4784SOL     OW25813   1.820   0.795   7.319  0.8933  0.9496  0.2021
 4784SOL    HW125814   1.840   0.826   7.408 -0.8492  1.0455  0.5650
 4784SOL    HW225815   1.811   0.880   7.276 -0.7674 -0.1483 -1.6010
 4785SOL     OW25816   1.946   0.471   1.154 -0.3424 -0.6998 -0.3044
 4785SOL    HW125817   1.946   0.442   1.063 -2.9353 -0.1394 -0.4799
 4785SOL    HW225818   1.884   0.411   1.195  0.6108 -1.2297  0.3568
 4786SOL     OW25819   2.264   0.495   6.796  0.4430 -0.3049 -0.0945
 4786SOL    HW125820   2.225   0.553   6.862 -1.3064 -2.0513  0.3822
 4786SOL    HW225821   2.218   0.524   6.717 -1.4115  2.0815  1.8679
 4787SOL     OW25822   0.964   4.676  13.976  0.5003 -0.1618  0.2735
 4787SOL    HW125823   0.870   4.675  13.996  0.7071 -0.6624  1.2212
 4787SOL    HW225824   0.982   0.035  13.936  0.3694 -0.9561 -1.4983
 4788SOL     OW25825   2.491   1.186  14.743  1.1378  0.2026 -0.2959
 4788SOL    HW125826   2.581   1.174  14.712  0.7600  0.6542 -1.5622
 4788SOL    HW225827   2.499   1.277  14.772 -2.4486  0.1379  0.8513
 4789SOL     OW25828   2.337   3.470   9.711  0.0232  0.1352  0.2430
 4789SOL    HW125829   2.285   3.421   9.774  3.3111 -1.6697  1.5241
 4789SOL    HW225830   2.362   3.542   9.769  1.2441 -0.1210  0.0422
 4790SOL     OW25831   0.049   1.846   6.374  0.5678 -0.2200  0.9579
 4790SOL    HW125832   0.049   1.762   6.420 -0.3042 -1.1689 -0.7619
 4790SOL    HW225833   4.687   1.877   6.394 -1.0634 -2.6978 -2.4360
 4791SOL     OW25834   3.532   2.068   0.227  0.7307  0.3135  0.1566
 4791SOL    HW125835   3.563   2.041   0.313  1.9725  1.5050  0.0867
 4791SOL    HW225836   3.609   2.065   0.170 -0.6311  0.7566 -1.7232
 4792SOL     OW25837   0.184   4.501   1.761  0.1534  0.0679  0.0729
 4792SOL    HW125838   0.090   4.495   1.775  0.4959 -1.0789  1.9317
 4792SOL    HW225839   0.220   4.413   1.776  0.7147  0.4090  0.7475
 4793SOL     OW25840   2.546   0.369   4.503 -0.4956  0.0090 -0.0692
 4793SOL    HW125841   2.527   0.452   4.546  1.3883  0.7072 -0.6227
 4793SOL    HW225842   2.491   0.392   4.428 -0.0650  1.9875  0.2271
 4794SOL     OW25843   3.541   0.582   0.251 -0.2120  0.2159  0.3465
 4794SOL    HW125844   3.459   0.616   0.287 -0.2383  0.8478 -0.2983
 4794SOL    HW225845   3.597   0.582   0.328  0.9203 -2.3787 -0.4863
 4795SOL     OW25846   0.168   0.172  17.467 -0.3647 -0.2698  0.3960
 4795SOL    HW125847   0.098   0.168  17.533  0.0736 -0.0143  0.8752
 4795SOL    HW225848   0.165   0.083  17.433  1.3116 -0.3310  0.4128
 4796SOL     OW25849   3.467   2.067  15.774  0.2107  0.3957 -0.1778
 4796SOL    HW125850   3.384   2.020  15.775 -0.3181  1.3724  1.9279
 4796SOL    HW225851   3.434   2.153  15.799  1.0490 -0.1617  2.8341
 4797SOL     OW25852   3.186   2.473   2.497 -0.5243  0.4518 -0.1361
 4797SOL    HW125853   3.242   2.424   2.438 -1.9241 -0.0040 -1.0909
 4797SOL    HW225854   3.108   2.418   2.511  0.5785 -1.1278 -0.1917
 4798SOL     OW25855   1.515   4.341   7.877  0.6460 -0.3670  0.1140
 4798SOL    HW125856   1.601   4.303   7.857  0.4489 -1.2338  0.9161
 4798SOL    HW225857   1.467   4.263   7.907 -0.2162  0.8797  1.9873
 4799SOL     OW25858   0.190   0.426   8.671 -0.4973 -0.0483  0.6283
 4799SOL    HW125859   0.096   0.425   8.692 -0.8004 -1.5610 -0.7100
 4799SOL    HW225860   0.212   0.518   8.664  0.3140 -0.3538 -0.7396
 4800SOL     OW25861   0.113   0.071   6.546  0.0663 -0.3723  0.0761
 4800SOL    HW125862   0.130   4.705   6.562 -0.8885 -0.6455 -0.4781
 4800SOL    HW225863   0.019   0.067   6.527 -0.1430  0.5635  0.9072
 4801SOL     OW25864   3.312   4.009   2.684 -0.0248  0.6433 -0.4898
 4801SOL    HW125865   3.309   3.957   2.764  2.2876  0.1296 -0.7425
 4801SOL    HW225866   3.296   3.935   2.624  0.7951  0.1441 -0.0875
 4802SOL     OW25867   1.222   0.834   5.779  0.1294  0.5357  0.1553
 4802SOL    HW125868   1.315   0.814   5.783 -0.0751 -0.5990 -0.7235
 4802SOL    HW225869   1.202   0.785   5.699 -1.4294  0.6675  0.4458
 4803SOL     OW25870   0.048   1.593  14.219  0.1394 -0.4064 -0.8245
 4803SOL    HW125871   4.714   1.639  14.276 -0.1007  0.8292 -2.0755
 4803SOL    HW225872   4.726   1.597  14.137  0.5775 -0.9843 -1.1134
 4804SOL     OW25873   2.755   4.165   2.473  0.3126 -0.3506  0.0674
 4804SOL    HW125874   2.791   4.251   2.492 -2.2665  1.0236 -1.2445
 4804SOL    HW225875   2.829   4.105   2.482 -0.2976 -1.1754 -0.3167
 4805SOL     OW25876   3.648   1.760   3.035  0.9514  0.0541 -0.7034
 4805SOL    HW125877   3.616   1.784   2.949  0.5382  0.5758 -0.4040
 4805SOL    HW225878   3.679   1.846   3.064  3.6757 -0.8833 -0.8782
 4806SOL     OW25879   3.712   0.244   2.440 -0.2203  0.6481  0.5040
 4806SOL    HW125880   3.682   0.335   2.453  0.4265  0.9562 -0.1740
 4806SOL    HW225881   3.628   0.201   2.423 -0.0503  0.4393  0.2117
 4807SOL     OW25882   0.836   2.537   5.432 -0.5865  0.0028  0.0838
 4807SOL    HW125883   0.766   2.486   5.472  0.3691 -0.0053  1.7346
 4807SOL    HW225884   0.906   2.478   5.461 -0.4963  0.4507  0.7629
 4808SOL     OW25885   3.158   1.097  14.494  0.0261 -0.8885  0.4297
 4808SOL    HW125886   3.151   1.129  14.404 -1.5286 -1.1477  0.4580
 4808SOL    HW225887   3.084   1.135  14.543 -1.8858 -0.7849 -2.5487
 4809SOL     OW25888   3.193   1.297  16.040 -0.3337  0.0367 -0.3645
 4809SOL    HW125889   3.247   1.263  15.969 -2.1099  0.5764 -1.9646
 4809SOL    HW225890   3.129   1.354  15.997 -1.5083 -2.7849 -2.3942
 4810SOL     OW25891   2.055   2.161   7.196  0.0950 -0.2004  0.0319
 4810SOL    HW125892   2.048   2.078   7.148 -1.1828  0.3323 -0.7128
 4810SOL    HW225893   2.101   2.204   7.124 -0.0123  0.8713  0.5954
 4811SOL     OW25894   0.060   0.959  11.449  0.2474  0.1504 -0.0621
 4811SOL    HW125895   0.139   0.994  11.491  0.6436 -0.0150 -0.6726
 4811SOL    HW225896   0.034   1.045  11.415 -0.6112 -0.5703 -1.2120
 4812SOL     OW25897   4.315   3.878   3.615 -0.6546  0.1701  0.0407
 4812SOL    HW125898   4.223   3.893   3.638 -0.6956 -0.0800  0.0313
 4812SOL    HW225899   4.323   3.917   3.528  0.0518 -0.4615 -0.1806
 4813SOL     OW25900   3.937   4.250  10.979  0.2899 -0.2148  0.5666
 4813SOL    HW125901   3.996   4.174  10.982 -0.2655 -0.5652  2.5418
 4813SOL    HW225902   3.860   4.210  10.939  1.9843 -1.6010 -1.3255
 4814SOL     OW25903   2.105   0.704   3.821 -0.3371 -0.7934  0.2151
 4814SOL    HW125904   2.101   0.609   3.812  0.2536 -0.7626 -0.3009
 4814SOL    HW225905   2.021   0.719   3.865 -1.2180 -1.7765 -1.1227
 4815SOL     OW25906   0.723   2.862   4.156 -0.3130  0.1219 -0.0176
 4815SOL    HW125907   0.681   2.944   4.129  1.7682 -0.1883 -4.1871
 4815SOL    HW225908   0.666   2.799   4.113 -0.2869  0.5040 -0.6072
 4816SOL     OW25909   3.457   2.931   0.982  0.1296  0.0612 -0.5333
 4816SOL    HW125910   3.430   2.886   1.062  3.0931 -0.6075  0.0902
 4816SOL    HW225911   3.525   2.870   0.955 -0.7786 -0.9197 -0.5945
 4817SOL     OW25912   3.190   0.190   3.398 -0.6434 -0.8597  0.7598
 4817SOL    HW125913   3.103   0.230   3.402  0.3778  1.3577  1.2101
 4817SOL    HW225914   3.169   0.098   3.414  2.1482 -1.5920  0.0598
 4818SOL     OW25915   2.804   3.646   7.220 -0.4026  0.1440 -0.3027
 4818SOL    HW125916   2.781   3.647   7.128 -1.3265 -3.0619 -0.1164
 4818SOL    HW225917   2.886   3.601   7.201  0.1265  0.7544  0.5042
 4819SOL     OW25918   3.248   3.782   4.623 -0.0501 -0.8633 -0.2119
 4819SOL    HW125919   3.244   3.787   4.527  2.4283  1.1649 -0.2055
 4819SOL    HW225920   3.331   3.824   4.643 -0.8099  0.0631  1.0279
 4820SOL     OW25921   2.475   3.442  13.606  0.0400  0.2203  0.0850
 4820SOL    HW125922   2.459   3.457  13.699 -2.4694  2.0103 -0.6244
 4820SOL    HW225923   2.569   3.429  13.612 -0.1384 -2.3318 -2.6810
 4821SOL     OW25924   0.132   1.662   4.631 -0.2819 -0.0266 -0.4009
 4821SOL    HW125925   0.049   1.627   4.665  0.0405  0.5738  1.0330
 4821SOL    HW225926   0.096   1.713   4.559  0.1529  0.5714 -0.1935
 4822SOL     OW25927   0.064   3.988   9.621  0.1535 -0.1538 -0.4939
 4822SOL    HW125928   0.100   4.062   9.669 -0.1782 -1.4212  1.6973
 4822SOL    HW225929   4.717   4.037   9.584 -0.7190  0.5026  2.1132
 4823SOL     OW25930   3.264   1.294   3.666  0.2397  0.4205  0.5115
 4823SOL    HW125931   3.306   1.369   3.623 -1.0351  0.7480 -0.1510
 4823SOL    HW225932   3.172   1.323   3.666  0.0300 -0.3604  4.2676
 4824SOL     OW25933   3.922   3.008   5.280 -0.2379  0.0772 -0.1636
 4824SOL    HW125934   3.977   3.072   5.234 -1.2906 -0.7127 -2.5231
 4824SOL    HW225935   3.957   3.025   5.367 -0.1114 -0.3353 -0.1329
 4825SOL     OW25936   1.917   1.532   8.188  0.4141 -0.0872 -0.2563
 4825SOL    HW125937   1.952   1.621   8.187 -0.8235  0.4236  1.8859
 4825SOL    HW225938   1.889   1.509   8.099  1.2435 -1.2148 -0.2283
 4826SOL     OW25939   3.050   3.559   3.455  0.3869 -0.0582 -0.2111
 4826SOL    HW125940   3.090   3.568   3.368  2.2287  1.0427  0.7551
 4826SOL    HW225941   3.103   3.489   3.494 -0.6660 -0.6813  0.1171
 4827SOL     OW25942   2.601   0.790   7.367 -0.2403  0.0343 -0.0232
 4827SOL    HW125943   2.647   0.862   7.410  1.4255  0.1090 -1.9029
 4827SOL    HW225944   2.575   0.843   7.291 -1.3055  0.2063  0.4663
 4828SOL     OW25945   3.504   0.729   5.024 -0.0631 -0.4955  0.1049
 4828SOL    HW125946   3.582   0.781   5.007  0.1976 -0.4071  1.6052
 4828SOL    HW225947   3.438   0.792   5.054  0.1372  1.5175 -3.6720
 4829SOL     OW25948   2.217   3.139   2.333 -0.0731  0.2813 -0.5819
 4829SOL    HW125949   2.267   3.090   2.267  1.8089  1.7585 -0.2443
 4829SOL    HW225950   2.282   3.151   2.401 -0.1128 -2.4284 -0.0833
 4830SOL     OW25951   0.444   3.246  14.632  0.4227  0.1803 -0.6777
 4830SOL    HW125952   0.488   3.185  14.691 -0.7433 -0.7500 -0.7772
 4830SOL    HW225953   0.491   3.226  14.551 -0.9926  0.4314 -1.5604
 4831SOL     OW25954   3.378   2.355   3.447  0.0510  0.2857  0.4641
 4831SOL    HW125955   3.384   2.449   3.428  0.6645  0.2847  0.6465
 4831SOL    HW225956   3.464   2.323   3.418 -1.0225  0.0183 -2.3572
 4832SOL     OW25957   1.718   0.695   6.249  0.6842 -0.0249 -0.5098
 4832SOL    HW125958   1.771   0.657   6.179  2.4310 -0.6390  1.1461
 4832SOL    HW225959   1.745   0.787   6.250 -0.1604  0.1989  1.3157
 4833SOL     OW25960   0.429   2.798  14.734  0.2348 -0.0218 -0.6299
 4833SOL    HW125961   0.406   2.763  14.820 -1.8548  1.0864 -0.7567
 4833SOL    HW225962   0.367   2.752  14.677  0.3762  0.1656 -0.9372
 4834SOL     OW25963   4.296   4.482   3.106 -0.0345 -0.1017 -0.2588
 4834SOL    HW125964   4.239   4.549   3.145 -0.3022 -0.5626  0.1318
 4834SOL    HW225965   4.245   4.452   3.032 -1.4858  1.1293  0.2348
 4835SOL     OW25966   1.858   2.135   2.477 -0.2007 -0.1502 -0.0410
 4835SOL    HW125967   1.803   2.122   2.554 -0.0224  0.6927  0.2370
 4835SOL    HW225968   1.922   2.064   2.490  1.4224  1.0960 -1.2295
 4836SOL     OW25969   4.311   2.733   1.214  0.0592 -0.0322  0.2909
 4836SOL    HW125970   4.364   2.691   1.146  0.3906  0.1904  0.4101
 4836SOL    HW225971   4.259   2.794   1.161  1.6316  1.1918  0.1614
 4837SOL     OW25972   0.818   2.909   9.672 -0.3672  0.4198 -0.5585
 4837SOL    HW125973   0.777   2.985   9.632 -0.8119  0.8136  0.6430
 4837SOL    HW225974   0.743   2.876   9.721  2.7254 -2.3647  2.3084
 4838SOL     OW25975   4.602   4.581  17.344  0.2384 -0.0141 -1.0305
 4838SOL    HW125976   4.545   4.522  17.295  0.7137  0.5680 -2.2987
 4838SOL    HW225977   4.541   4.652  17.365  2.1746  1.6370 -0.9665
 4839SOL     OW25978   2.030   0.412   4.348 -0.3181  0.7049 -0.2299
 4839SOL    HW125979   2.007   0.349   4.417 -1.5848 -1.2427 -2.4077
 4839SOL    HW225980   2.081   0.468   4.407 -0.4127  0.6515 -0.0969
 4840SOL     OW25981   1.492   4.690   9.104 -0.0964 -0.6412  0.1028
 4840SOL    HW125982   1.538   4.607   9.119  0.7736 -0.1480  0.1622
 4840SOL    HW225983   1.461   4.720   9.189  0.0715 -0.1278 -0.0173
 4841SOL     OW25984   0.520   2.616  14.319 -0.1552  0.0986 -0.2942
 4841SOL    HW125985   0.425   2.618  14.335 -0.0273  1.9494  0.1790
 4841SOL    HW225986   0.537   2.522  14.317  0.1153  0.0740  2.9599
 4842SOL     OW25987   1.108   2.642   5.637 -0.3164  0.4472  0.1696
 4842SOL    HW125988   1.150   2.572   5.688 -1.3742  0.6236  1.2820
 4842SOL    HW225989   1.072   2.698   5.706 -1.1591 -0.5020  0.5010
 4843SOL     OW25990   1.865   0.864   4.958  0.2219  0.0969 -0.2148
 4843SOL    HW125991   1.799   0.839   4.894 -0.4277  1.7428 -0.1848
 4843SOL    HW225992   1.817   0.866   5.041 -0.4433 -2.9286 -0.5594
 4844SOL     OW25993   1.515   3.632   6.022 -0.3339  0.0286  0.1310
 4844SOL    HW125994   1.570   3.559   6.050  0.7599  0.8966  0.2496
 4844SOL    HW225995   1.545   3.642   5.931 -1.9846  0.3682 -0.3726
 4845SOL     OW25996   2.690   0.895   7.687 -0.0527 -0.5906 -0.0673
 4845SOL    HW125997   2.634   0.971   7.707 -0.4977 -1.3891  1.6916
 4845SOL    HW225998   2.713   0.921   7.598  0.3522 -2.3756 -0.4734
 4846SOL     OW25999   0.218   1.313   0.334  0.0659  0.0930 -0.2970
 4846SOL    HW126000   0.247   1.311   0.243 -0.0983  1.3472 -0.3762
 4846SOL    HW226001   0.303   1.326   0.376 -0.7536 -0.1032  1.4299
 4847SOL     OW26002   4.243   0.784   3.854  0.6731 -0.0831  0.6301
 4847SOL    HW126003   4.203   0.723   3.791 -2.4029 -1.0244  3.5152
 4847SOL    HW226004   4.301   0.731   3.908 -0.6758 -1.2143  0.9552
 4848SOL     OW26005   3.432   1.151  17.556 -0.1652 -0.4444  0.0808
 4848SOL    HW126006   3.418   1.121  17.466 -1.4725  0.6060 -0.0620
 4848SOL    HW226007   3.371   1.096  17.604  0.2187 -0.9186  0.0252
 4849SOL     OW26008   3.125   0.762   5.938  0.0504  0.3607 -0.2204
 4849SOL    HW126009   3.102   0.851   5.913 -0.5927 -0.5708 -2.9351
 4849SOL    HW226010   3.217   0.748   5.914  0.5735 -3.2967  3.9106
 4850SOL     OW26011   3.489   2.817   2.015  0.1235  0.4488  0.0614
 4850SOL    HW126012   3.561   2.778   2.064  0.6525  1.2560 -0.0819
 4850SOL    HW226013   3.413   2.797   2.070  0.0222 -0.6913 -0.5047
 4851SOL     OW26014   1.180   1.819   5.605 -0.0807 -0.2116  0.4575
 4851SOL    HW126015   1.215   1.839   5.518 -0.1965  0.8216  0.6450
 4851SOL    HW226016   1.122   1.894   5.618  1.4534  1.2107 -0.9444
 4852SOL     OW26017   0.821   4.527   6.611  0.1684  0.9074 -0.3003
 4852SOL    HW126018   0.877   4.579   6.669  0.3856  0.1767  0.1514
 4852SOL    HW226019   0.747   4.585   6.594  1.1895  2.2509 -0.1502
 4853SOL     OW26020   3.492   0.540   4.828 -0.0635  0.0725  0.0381
 4853SOL    HW126021   3.485   0.595   4.906 -0.7528 -0.6911  0.5136
 4853SOL    HW226022   3.467   0.615   4.774 -0.3111  0.6909  1.0118
 4854SOL     OW26023   2.269   1.162   9.785 -0.0688 -0.1469  0.0549
 4854SOL    HW126024   2.328   1.176   9.711 -0.2120 -1.3068 -0.2922
 4854SOL    HW226025   2.324   1.180   9.861 -0.4926 -0.2965  0.4062
 4855SOL     OW26026   0.356   2.343   7.582  0.1996 -0.9571 -0.1937
 4855SOL    HW126027   0.275   2.294   7.600 -0.9081  0.6921 -0.7398
 4855SOL    HW226028   0.408   2.313   7.657  0.2236  0.6353  0.4267
 4856SOL     OW26029   3.244   1.750   4.362 -0.2960  0.3483 -0.7607
 4856SOL    HW126030   3.302   1.690   4.314 -0.8494 -1.2625  0.5799
 4856SOL    HW226031   3.229   1.817   4.296  2.6494  0.7110 -1.0903
 4857SOL     OW26032   1.518   3.876   9.963 -0.1453  0.4662  0.4010
 4857SOL    HW126033   1.496   3.783   9.966 -1.4733  0.8275  1.5640
 4857SOL    HW226034   1.610   3.856   9.984 -0.1272 -1.0060 -1.0354
 4858SOL     OW26035   0.776   0.053   9.111  0.1711 -0.4636 -0.8473
 4858SOL    HW126036   0.761   0.112   9.185 -0.7782  0.5401 -1.8298
 4858SOL    HW226037   0.719   4.707   9.135  2.7249 -1.7436  1.3350
 4859SOL     OW26038   4.497   2.673   3.313  0.0811 -0.3893 -0.8071
 4859SOL    HW126039   4.446   2.749   3.284 -0.2149 -0.9026 -1.6183
 4859SOL    HW226040   4.495   2.693   3.407 -2.2834  0.7847 -1.1077
 4860SOL     OW26041   2.241   0.346   9.809 -0.2233  0.4269 -0.3787
 4860SOL    HW126042   2.152   0.330   9.842 -0.7526  2.3692 -0.8356
 4860SOL    HW226043   2.279   0.408   9.871 -0.6174  0.1091  0.1848
 4861SOL     OW26044   2.718   3.055   9.633  0.1301 -0.0679  0.4310
 4861SOL    HW126045   2.688   3.090   9.549  1.7467  0.7529  0.1958
 4861SOL    HW226046   2.663   3.110   9.689 -0.3693  0.0068 -0.1277
 4862SOL     OW26047   4.674   0.720  15.934  0.3200 -0.0643  0.9052
 4862SOL    HW126048   0.024   0.731  15.878 -1.8325  2.1965 -1.6332
 4862SOL    HW226049   4.600   0.763  15.890  2.3971  0.6278 -1.9061
 4863SOL     OW26050   0.494   1.827   2.357 -0.0881  0.4193 -0.3669
 4863SOL    HW126051   0.475   1.739   2.323  1.6790 -0.0219 -0.1966
 4863SOL    HW226052   0.526   1.806   2.444 -2.0517 -0.0618  0.2400
 4864SOL     OW26053   0.332   0.121  14.805 -0.5350  0.2974 -0.2326
 4864SOL    HW126054   0.305   0.202  14.848 -0.1261  1.3506 -1.9646
 4864SOL    HW226055   0.427   0.119  14.811 -0.5324  1.1926  0.0669
 4865SOL     OW26056   1.392   4.388  15.086 -0.6774  0.2524  0.2566
 4865SOL    HW126057   1.326   4.369  15.152  0.0998  1.0306  1.2623
 4865SOL    HW226058   1.429   4.302  15.070  2.1044  1.3755  0.6009
 4866SOL     OW26059   1.268   4.422   8.519  0.2423  0.1349 -0.0111
 4866SOL    HW126060   1.190   4.414   8.574 -0.8800 -0.2313 -1.6462
 4866SOL    HW226061   1.333   4.379   8.576  1.2170 -1.8609 -2.6476
 4867SOL     OW26062   1.441   2.350   4.190 -0.0836 -0.0556 -0.0734
 4867SOL    HW126063   1.483   2.376   4.272 -0.8914  0.8169  0.0758
 4867SOL    HW226064   1.511   2.305   4.143  0.7022 -1.1037  2.0998
 4868SOL     OW26065   2.288   0.053   6.686  0.2409  0.2788 -0.3058
 4868SOL    HW126066   2.249   4.696   6.708 -1.2571  0.8625 -0.7674
 4868SOL    HW226067   2.367   0.017   6.645 -0.1161 -1.0981  0.2386
 4869SOL     OW26068   1.264   3.120   5.810  0.4217  0.3631 -0.2453
 4869SOL    HW126069   1.241   3.142   5.720  0.0078 -0.3367 -0.3127
 4869SOL    HW226070   1.349   3.158   5.832  1.1710  0.0037 -2.5274
 4870SOL     OW26071   4.378   3.644   2.338 -0.2384 -0.0365 -0.7083
 4870SOL    HW126072   4.457   3.687   2.371 -0.4063  0.8646 -1.4708
 4870SOL    HW226073   4.405   3.630   2.247 -0.9014  0.9344 -1.0590
 4871SOL     OW26074   2.490   0.362   9.490 -0.1445  0.7205  0.2647
 4871SOL    HW126075   2.478   0.416   9.411 -2.0900  0.6546  0.4971
 4871SOL    HW226076   2.402   0.379   9.524 -1.6492 -0.5731 -2.9845
 4872SOL     OW26077   3.919   3.694  15.041  0.1877  0.2417 -0.8595
 4872SOL    HW126078   3.995   3.712  15.096  1.0585 -1.3071 -1.5619
 4872SOL    HW226079   3.856   3.749  15.088 -0.4454  0.3311 -1.8257
 4873SOL     OW26080   4.632   0.496  12.486 -0.5949  0.0966  0.1197
 4873SOL    HW126081   4.543   0.463  12.496 -0.3692  0.3279  2.7835
 4873SOL    HW226082   4.653   0.559  12.555  0.2427 -0.5599  0.4729
 4874SOL     OW26083   1.024   2.898   9.494  0.3561 -0.4906 -0.3220
 4874SOL    HW126084   0.950   2.930   9.546  0.7289 -1.4356  0.7887
 4874SOL    HW226085   0.980   2.823   9.454 -1.5697  1.7987 -2.4726
 4875SOL     OW26086   3.213   4.227  10.281 -0.3909  0.1998  0.1341
 4875SOL    HW126087   3.165   4.310  10.288 -0.7288  0.0816 -0.6873
 4875SOL    HW226088   3.173   4.187  10.203 -0.5695  0.5150  0.0603
 4876SOL     OW26089   3.445   3.451   9.288  0.1554  0.3978  0.1207
 4876SOL    HW126090   3.418   3.372   9.335  1.6647 -0.7752 -0.9847
 4876SOL    HW226091   3.539   3.450   9.307 -0.0774 -1.6960  1.2622
 4877SOL     OW26092   3.324   4.254   8.945 -0.2107  0.2223 -0.0505
 4877SOL    HW126093   3.299   4.340   8.979  1.9967  1.4315 -1.5386
 4877SOL    HW226094   3.264   4.199   8.996 -2.0543 -0.3272 -2.8292
 4878SOL     OW26095   0.901   0.568  13.298  0.1426  0.3590 -0.1082
 4878SOL    HW126096   0.814   0.595  13.269  1.1809  1.8600 -1.7442
 4878SOL    HW226097   0.913   0.633  13.367  0.9822 -2.5786  2.5535
 4879SOL     OW26098   3.931   2.819   7.931  0.0782  0.1299  0.3124
 4879SOL    HW126099   3.842   2.854   7.927 -0.5501 -1.8230 -3.1474
 4879SOL    HW226100   3.948   2.812   8.025 -2.8733  0.9164  0.9182
 4880SOL     OW26101   2.600   2.966   7.583 -0.3559 -0.2297 -0.0492
 4880SOL    HW126102   2.601   3.020   7.662  0.5692  0.5809 -0.6237
 4880SOL    HW226103   2.512   2.991   7.553 -1.4848 -2.8595  1.0148
 4881SOL     OW26104   3.307   2.023  15.290 -0.2919  0.1540 -0.9623
 4881SOL    HW126105   3.274   2.069  15.368 -0.8776  1.3509 -1.9207
 4881SOL    HW226106   3.222   1.994  15.257 -1.0817  0.8938  0.4075
 4882SOL     OW26107   4.490   1.716  12.327  0.1933 -0.6740 -0.1349
 4882SOL    HW126108   4.541   1.675  12.397  0.0233 -0.5815  0.0414
 4882SOL    HW226109   4.452   1.788  12.377 -1.2077 -2.4147  1.2936
 4883SOL     OW26110   0.134   4.580   3.315  0.1113  0.0746  0.1956
 4883SOL    HW126111   0.065   4.620   3.263  1.8302 -0.7209 -2.6585
 4883SOL    HW226112   0.084   4.529   3.379  2.5478 -4.8190 -1.7360
 4884SOL     OW26113   4.319   4.672  11.372  0.0457  0.1484  0.2116
 4884SOL    HW126114   4.344   4.670  11.279  4.5569 -1.1972  1.4644
 4884SOL    HW226115   4.236   4.624  11.371  0.2809 -0.2485 -0.2404
 4885SOL     OW26116   3.739   0.180   5.974 -0.3475  0.0784  0.6988
 4885SOL    HW126117   3.787   0.246   6.024  0.6083  0.3728 -0.5943
 4885SOL    HW226118   3.651   0.186   6.010 -0.8589 -1.4389 -0.2752
 4886SOL     OW26119   3.863   1.871   6.706  0.0806  0.4145 -0.0047
 4886SOL    HW126120   3.931   1.929   6.673  0.6125 -1.0779 -1.5230
 4886SOL    HW226121   3.856   1.900   6.796 -0.2082  1.7689 -0.4632
 4887SOL     OW26122   3.574   2.174   4.117  0.2953  1.1595  0.5158
 4887SOL    HW126123   3.493   2.125   4.122 -0.3298  2.3257  1.8867
 4887SOL    HW226124   3.638   2.103   4.129 -2.4059 -1.3636 -0.1659
 4888SOL     OW26125   2.057   3.376   3.769 -0.0405  0.2921  0.2271
 4888SOL    HW126126   2.153   3.381   3.774  0.1882 -1.1811 -2.5733
 4888SOL    HW226127   2.032   3.308   3.831  1.7333 -1.2433 -0.7348
 4889SOL     OW26128   0.021   0.663   6.393  0.0225 -0.4826 -0.5117
 4889SOL    HW126129   0.024   0.755   6.419  4.0606 -0.8167  0.2863
 4889SOL    HW226130   4.687   0.664   6.320  1.8990  0.9897 -2.0562
 4890SOL     OW26131   0.935   1.826   4.720 -0.1250 -0.4460 -0.0343
 4890SOL    HW126132   0.894   1.825   4.807 -0.7179  0.4853 -0.3122
 4890SOL    HW226133   0.972   1.738   4.722 -1.1575 -0.8805 -0.2604
 4891SOL     OW26134   0.279   1.057   8.306  0.6287 -0.3419 -0.2281
 4891SOL    HW126135   0.243   1.131   8.257 -0.2642 -1.5496 -1.3905
 4891SOL    HW226136   0.318   1.015   8.230 -0.5334 -0.0703 -0.9770
 4892SOL     OW26137   0.249   3.187   3.267  0.0583 -0.1081  0.1253
 4892SOL    HW126138   0.335   3.175   3.307 -0.4278 -1.9974  0.6213
 4892SOL    HW226139   0.239   3.101   3.227  0.2794  0.4090 -1.0426
 4893SOL     OW26140   1.312   2.816   5.850  0.4406 -0.0678 -0.0847
 4893SOL    HW126141   1.321   2.911   5.856  0.3963 -0.0115 -0.9319
 4893SOL    HW226142   1.238   2.799   5.909 -0.5812 -0.4734 -1.4965
 4894SOL     OW26143   2.371   2.400   7.112  0.0175 -0.1408  0.0362
 4894SOL    HW126144   2.408   2.325   7.066  1.3668  0.2870  0.3956
 4894SOL    HW226145   2.444   2.425   7.169  0.6219 -1.5043 -0.1383
 4895SOL     OW26146   2.466   0.963   4.676 -0.3350 -0.2321 -0.7149
 4895SOL    HW126147   2.465   0.889   4.615  2.2280  0.0000 -1.0051
 4895SOL    HW226148   2.470   1.037   4.616  2.0148  0.4492  0.3189
 4896SOL     OW26149   3.546   0.640   5.515 -0.2162  0.0046  0.3564
 4896SOL    HW126150   3.609   0.579   5.474 -0.9094 -1.3664  1.3207
 4896SOL    HW226151   3.466   0.587   5.512 -0.7911  1.0509 -3.2446
 4897SOL     OW26152   3.758   1.196   1.697 -0.2242  0.1203  0.2086
 4897SOL    HW126153   3.794   1.136   1.762 -1.9430 -0.5681  0.5127
 4897SOL    HW226154   3.664   1.185   1.684 -0.0978 -0.3867 -0.3015
 4898SOL     OW26155   4.033   4.250  13.890 -0.0502  0.0174  0.2549
 4898SOL    HW126156   4.013   4.159  13.910  0.7321  0.1975  1.9211
 4898SOL    HW226157   4.114   4.240  13.840 -0.8089 -0.8793 -0.7891
 4899SOL     OW26158   4.412   1.446   1.285 -0.1047  0.1187 -0.2639
 4899SOL    HW126159   4.320   1.417   1.285  0.4907 -1.7292  0.0711
 4899SOL    HW226160   4.453   1.375   1.334 -0.9797 -0.2567 -0.0751
 4900SOL     OW26161   0.681   3.424   7.148  0.1455 -0.0041 -0.1928
 4900SOL    HW126162   0.735   3.345   7.156 -2.4335 -1.7508  0.0459
 4900SOL    HW226163   0.731   3.487   7.096  1.0348 -2.0123 -1.7754
 4901SOL     OW26164   0.823   1.050   8.182  0.0568 -0.1488 -0.6437
 4901SOL    HW126165   0.867   1.069   8.266 -1.1726 -2.2920  0.4850
 4901SOL    HW226166   0.762   0.982   8.211  0.7227  0.3036  1.8962
 4902SOL     OW26167   3.114   2.955  17.074  0.1806 -0.5821  0.4280
 4902SOL    HW126168   3.124   2.880  17.016  0.7389 -0.0179 -0.2087
 4902SOL    HW226169   3.081   2.915  17.155 -0.4421  0.9419  0.9409
 4903SOL     OW26170   0.632   3.467   8.687 -0.1510  0.0503  0.4394
 4903SOL    HW126171   0.694   3.496   8.620 -0.3234  0.3737  0.4213
 4903SOL    HW226172   0.549   3.507   8.663  0.1543 -0.8778 -2.1769
 4904SOL     OW26173   2.995   4.184   8.896  0.1609  0.5297  0.1894
 4904SOL    HW126174   2.919   4.169   8.952 -1.0779 -1.5492 -2.0531
 4904SOL    HW226175   3.066   4.153   8.952  0.0001  0.6762  0.4772
 4905SOL     OW26176   0.454   4.090  12.904 -0.2721 -0.3484  0.5864
 4905SOL    HW126177   0.437   4.026  12.834  0.4977 -0.8135  0.8225
 4905SOL    HW226178   0.546   4.095  12.875 -1.3165  2.9228 -2.1340
 4906SOL     OW26179   4.474   0.399  13.494  0.0123 -0.3614  0.2721
 4906SOL    HW126180   4.516   0.456  13.559 -0.4329 -2.7913  2.6421
 4906SOL    HW226181   4.413   0.461  13.453  0.8199 -0.2808 -0.8116
 4907SOL     OW26182   2.988   2.890   6.375  0.0663  0.6417 -0.8101
 4907SOL    HW126183   2.912   2.934   6.412  1.2676  1.3022  0.9088
 4907SOL    HW226184   3.060   2.940   6.413 -0.9110  1.2604  0.2220
 4908SOL     OW26185   3.027   1.354   4.103 -0.1383 -0.1058 -0.3339
 4908SOL    HW126186   3.123   1.358   4.114 -0.2509 -0.3336  0.7756
 4908SOL    HW226187   3.007   1.419   4.036 -1.0617 -1.3469 -1.2512
 4909SOL     OW26188   1.015   1.798   8.189 -0.5042 -0.6596 -0.3789
 4909SOL    HW126189   1.064   1.880   8.200 -0.3334 -0.8088 -0.0419
 4909SOL    HW226190   0.924   1.828   8.191  0.9448  3.7530  0.3204
 4910SOL     OW26191   0.522   4.506  11.755 -0.2659  0.0275 -0.2937
 4910SOL    HW126192   0.523   4.413  11.776 -1.2361  0.0358 -0.2283
 4910SOL    HW226193   0.575   4.502  11.676  1.0549  0.2423  0.5793
 4911SOL     OW26194   3.543   4.420   4.232  0.4380  0.1449  0.1905
 4911SOL    HW126195   3.479   4.475   4.278 -1.0022 -0.8571 -0.5989
 4911SOL    HW226196   3.478   4.372   4.180  1.2358 -0.9722  0.2194
 4912SOL     OW26197   2.409   4.369  13.333  0.6205  0.8022  0.1784
 4912SOL    HW126198   2.500   4.341  13.329  0.0104 -1.2834  0.8276
 4912SOL    HW226199   2.393   4.403  13.245 -2.0627 -0.8683  0.0361
 4913SOL     OW26200   4.500   0.424   0.836  0.4623 -0.0810 -0.0691
 4913SOL    HW126201   4.550   0.504   0.851  0.5660 -0.1737  0.0782
 4913SOL    HW226202   4.528   0.395   0.750  1.0799 -0.7994  0.3751
 4914SOL     OW26203   1.974   2.146   4.608  0.2660 -0.1339 -0.2061
 4914SOL    HW126204   1.880   2.152   4.627  0.6563  0.9245  1.4372
 4914SOL    HW226205   2.003   2.232   4.641  0.6447  0.1656 -1.3423
 4915SOL     OW26206   0.801   3.795   7.275 -0.4303 -0.3821 -0.0703
 4915SOL    HW126207   0.809   3.744   7.195  2.7869 -0.8186  0.5193
 4915SOL    HW226208   0.743   3.864   7.243 -0.8875 -0.5963  0.2967
 4916SOL     OW26209   1.088   3.487   9.195  0.5500 -0.5892  0.3382
 4916SOL    HW126210   1.101   3.393   9.189 -0.7765 -0.6523 -1.4775
 4916SOL    HW226211   0.993   3.489   9.208  0.3515 -1.3018 -1.0000
 4917SOL     OW26212   4.030   0.318   2.442  0.0962 -0.0099 -0.4690
 4917SOL    HW126213   4.094   0.389   2.438  0.9591 -0.8571 -1.5519
 4917SOL    HW226214   3.952   0.363   2.407 -0.3112  0.1620  0.6782
 4918SOL     OW26215   1.426   2.172  17.338  0.2963 -0.5332 -0.3658
 4918SOL    HW126216   1.470   2.167  17.253  1.9787  0.3154  0.4544
 4918SOL    HW226217   1.363   2.242  17.322  1.2391  0.0701 -1.4863
 4919SOL     OW26218   2.200   1.257   5.042 -0.1388 -0.6495  0.2556
 4919SOL    HW126219   2.133   1.282   5.105  1.6462  1.7374  1.1997
 4919SOL    HW226220   2.172   1.167   5.025  1.5671 -1.0883 -0.3264
 4920SOL     OW26221   0.680   1.219   3.950  0.3763  0.0254  0.0840
 4920SOL    HW126222   0.739   1.197   4.022  2.0094 -0.9216 -1.5619
 4920SOL    HW226223   0.694   1.139   3.901  1.0237  2.1866 -3.2788
 4921SOL     OW26224   0.368   3.621   4.108 -0.2943  0.2596 -0.2465
 4921SOL    HW126225   0.307   3.550   4.086 -0.4230 -0.1290  1.3835
 4921SOL    HW226226   0.452   3.585   4.078 -0.0997  1.0989 -0.7006
 4922SOL     OW26227   2.689   1.065  12.250  0.4910 -0.2699 -0.4457
 4922SOL    HW126228   2.608   1.108  12.222  1.6660  3.5017  1.9783
 4922SOL    HW226229   2.740   1.096  12.175 -1.0359 -0.9454 -1.7618
 4923SOL     OW26230   1.642   2.093  17.481  0.1734  0.2823 -0.1829
 4923SOL    HW126231   1.645   2.161  17.548 -0.5443  3.5733 -3.4659
 4923SOL    HW226232   1.581   2.147  17.430 -3.3660 -2.3426  1.2590
 4924SOL     OW26233   0.366   3.404   0.127  0.3788  0.1052  0.3688
 4924SOL    HW126234   0.271   3.413   0.135  0.3591 -0.9989  1.2926
 4924SOL    HW226235   0.374   3.317   0.165  0.4369 -0.0086  0.0933
 4925SOL     OW26236   3.474   2.950   8.588  0.3057 -0.1043 -0.3231
 4925SOL    HW126237   3.427   2.964   8.505  2.0090 -1.1276 -1.4642
 4925SOL    HW226238   3.566   2.964   8.567 -0.3067  0.1844 -2.8194
 4926SOL     OW26239   3.449   3.551   7.215 -0.2774  0.2931  0.7457
 4926SOL    HW126240   3.361   3.585   7.201 -0.2794 -0.1727 -0.2895
 4926SOL    HW226241   3.437   3.461   7.186 -1.0368  0.4593  0.5611
 4927SOL     OW26242   0.312   2.071  12.680 -0.0615  0.0749  0.2115
 4927SOL    HW126243   0.388   2.040  12.630  0.2084  1.1036 -0.0295
 4927SOL    HW226244   0.350   2.088  12.766 -2.6668  3.9439  0.5902
 4928SOL     OW26245   2.320   3.248   4.169  0.1322 -0.5928 -0.1357
 4928SOL    HW126246   2.329   3.186   4.097  1.5218 -0.4721 -0.0829
 4928SOL    HW226247   2.261   3.312   4.129  3.1126  0.8348 -2.2457
 4929SOL     OW26248   0.092   1.493   7.494  0.2639 -0.3896  0.5361
 4929SOL    HW126249   0.138   1.556   7.549  1.2808  0.1272 -0.9460
 4929SOL    HW226250   0.065   1.542   7.417 -0.7367 -0.6840  0.6961
 4930SOL     OW26251   0.664   3.643   8.426 -0.1517  0.7269 -0.0565
 4930SOL    HW126252   0.649   3.728   8.467 -0.4215  1.8902 -2.5790
 4930SOL    HW226253   0.579   3.605   8.447  1.6365 -2.7595  0.9530
 4931SOL     OW26254   2.499   4.084   0.245  0.6639  0.3498 -0.3123
 4931SOL    HW126255   2.590   4.056   0.249  0.7748  1.0401  1.6687
 4931SOL    HW226256   2.486   4.073   0.150 -0.8805  2.1296 -0.3139
 4932SOL     OW26257   3.923   3.334   7.777 -0.3974 -0.2800 -0.5076
 4932SOL    HW126258   3.871   3.301   7.850  0.9996  0.1495  0.6911
 4932SOL    HW226259   4.013   3.332   7.810  0.3449 -1.1450 -2.5990
 4933SOL     OW26260   4.205   4.366  13.459  0.3788  0.1352 -0.4500
 4933SOL    HW126261   4.234   4.317  13.383  0.6011  1.3590 -1.1499
 4933SOL    HW226262   4.164   4.439  13.413 -0.6454 -1.0814 -1.4720
 4934SOL     OW26263   3.237   3.568  15.218  0.1380 -1.2174  0.7864
 4934SOL    HW126264   3.180   3.544  15.291  0.4895 -0.5814  1.2674
 4934SOL    HW226265   3.168   3.562  15.151 -0.2045  2.8600  0.7503
 4935SOL     OW26266   1.294   1.568  13.484 -0.7203 -1.0138 -0.4684
 4935SOL    HW126267   1.211   1.554  13.531 -1.4268 -0.2504 -1.4927
 4935SOL    HW226268   1.261   1.648  13.444 -0.4297 -0.6652 -0.0106
 4936SOL     OW26269   1.093   2.340  11.971  0.5731  0.3949 -0.0914
 4936SOL    HW126270   1.153   2.293  11.913  1.3323 -0.2354  1.2009
 4936SOL    HW226271   1.088   2.423  11.924  0.4024 -0.4545 -1.5661
 4937SOL     OW26272   2.215   1.471   4.522  0.8496 -0.3203  0.1757
 4937SOL    HW126273   2.146   1.499   4.582  1.4827  1.8912 -0.1412
 4937SOL    HW226274   2.243   1.551   4.478  1.0901  0.0136  0.9327
 4938SOL     OW26275   1.934   4.538  12.748 -0.4336 -0.5413 -0.8912
 4938SOL    HW126276   1.915   4.504  12.835 -3.3353 -0.3886 -1.4573
 4938SOL    HW226277   2.027   4.520  12.733 -0.0478  1.3962 -0.8003
 4939SOL     OW26278   4.276   2.727   9.246  0.1508  0.1089  0.0390
 4939SOL    HW126279   4.370   2.711   9.241  0.1109 -0.3992  0.8615
 4939SOL    HW226280   4.235   2.641   9.235  0.7685  0.0250 -1.5788
 4940SOL     OW26281   0.378   4.564   6.975 -0.0011 -0.6646 -0.0750
 4940SOL    HW126282   0.409   4.474   6.966 -0.0822 -0.7860  0.8410
 4940SOL    HW226283   0.349   4.563   7.066  0.4689  1.4426  0.1100
 4941SOL     OW26284   2.897   4.137  10.268 -0.3613 -0.2066  0.2577
 4941SOL    HW126285   2.802   4.137  10.259 -0.5063 -0.0692  1.7503
 4941SOL    HW226286   2.896   4.100  10.357 -1.6177  0.8325  0.6753
 4942SOL     OW26287   1.045   3.958  13.188  0.1429  0.2011 -0.1221
 4942SOL    HW126288   1.067   3.997  13.272  1.5393  0.8572 -0.7948
 4942SOL    HW226289   1.132   3.966  13.149  0.4544 -3.5330 -0.2413
 4943SOL     OW26290   0.325   1.850   1.368  0.1510  0.8254  0.2437
 4943SOL    HW126291   0.399   1.799   1.336  0.5728  0.4026  1.8592
 4943SOL    HW226292   0.268   1.786   1.409  0.2745  2.4832  3.0467
 4944SOL     OW26293   4.041   4.322  16.121 -0.2969  0.5613  0.3088
 4944SOL    HW126294   3.984   4.261  16.074  0.4770  0.5951 -0.6635
 4944SOL    HW226295   3.985   4.352  16.193  0.1248  2.3545 -0.1049
 4945SOL     OW26296   0.516   4.268  11.884  0.2898 -0.0043  0.4078
 4945SOL    HW126297   0.592   4.222  11.847 -0.1879 -1.6451  1.4416
 4945SOL    HW226298   0.472   4.195  11.927 -2.4854  0.9925 -0.7545
 4946SOL     OW26299   1.840   0.320  15.261 -0.7226 -0.3380 -0.6847
 4946SOL    HW126300   1.835   0.244  15.319 -1.3561  0.7736  0.7233
 4946SOL    HW226301   1.861   0.278  15.178  3.4945 -0.8766  0.6738
 4947SOL     OW26302   2.682   1.245   4.840  0.2289  0.1289 -0.0200
 4947SOL    HW126303   2.751   1.267   4.903  0.5812  1.4485 -0.8753
 4947SOL    HW226304   2.604   1.269   4.892  1.2034 -0.4288  1.6962
 4948SOL     OW26305   4.677   4.313   2.717 -0.0238  0.2907  0.7601
 4948SOL    HW126306   4.603   4.338   2.661  1.0579  1.5418 -0.1198
 4948SOL    HW226307   4.645   4.264   2.793  0.3236 -0.3338  0.4988
 4949SOL     OW26308   1.183   3.818  15.699  0.1610  0.3715  0.4070
 4949SOL    HW126309   1.111   3.824  15.761 -1.2456 -0.8792 -1.1005
 4949SOL    HW226310   1.222   3.743  15.744  2.4377  1.1652 -0.2234
 4950SOL     OW26311   1.204   1.604   7.113 -0.0880 -0.3698 -0.3262
 4950SOL    HW126312   1.180   1.512   7.101 -0.6124 -0.3445  0.5084
 4950SOL    HW226313   1.248   1.623   7.030  2.7342 -1.1478  1.0035
 4951SOL     OW26314   3.211   3.723   4.335 -0.0341 -0.3840 -0.8696
 4951SOL    HW126315   3.144   3.657   4.353  0.2827  0.1010  2.0526
 4951SOL    HW226316   3.159   3.795   4.298 -0.1446  0.2696  0.5718
 4952SOL     OW26317   0.322   1.158   0.070  0.1822 -0.7157  0.3904
 4952SOL    HW126318   0.241   1.108   0.083  0.5352 -1.7473 -1.3433
 4952SOL    HW226319   0.284   1.236   0.030  1.3207  1.6479  3.9507
 4953SOL     OW26320   2.868   1.237  14.997 -0.2921  0.4200  0.2455
 4953SOL    HW126321   2.881   1.287  14.916  0.5427 -1.4155 -0.7677
 4953SOL    HW226322   2.799   1.176  14.970  1.9721 -1.9983 -0.0741
 4954SOL     OW26323   4.680   0.004   7.176  0.0950  0.1345  0.1129
 4954SOL    HW126324   4.652   0.070   7.239  0.2552 -0.1655  0.4992
 4954SOL    HW226325   0.044   0.030   7.163  0.5405 -0.0889  2.8399
 4955SOL     OW26326   4.689   0.703   3.692 -0.1453  0.1253 -0.2375
 4955SOL    HW126327   4.619   0.639   3.700 -0.9748  0.9470 -0.8815
 4955SOL    HW226328   4.719   0.686   3.602 -0.8100  3.5917 -1.1306
 4956SOL     OW26329   3.134   1.249  11.252 -0.4054 -0.1703 -0.1390
 4956SOL    HW126330   3.101   1.171  11.206  1.1578 -0.6810 -0.4034
 4956SOL    HW226331   3.219   1.222  11.286 -1.1113 -1.4011  0.6612
 4957SOL     OW26332   2.742   4.244   5.664  0.3434 -0.1268 -0.2190
 4957SOL    HW126333   2.809   4.258   5.731  0.2119  2.7614 -0.7108
 4957SOL    HW226334   2.764   4.154   5.641  0.8993 -0.6324  2.2655
 4958SOL     OW26335   1.828   1.139   4.967 -0.1989  0.1881 -0.4158
 4958SOL    HW126336   1.878   1.057   4.974  1.4763  1.4454  1.9350
 4958SOL    HW226337   1.789   1.160   5.051  0.4998  4.1268 -1.1076
 4959SOL     OW26338   3.302   1.376   4.162 -0.0128 -0.3518 -0.0791
 4959SOL    HW126339   3.324   1.370   4.069 -0.3254 -1.5933 -0.0827
 4959SOL    HW226340   3.320   1.466   4.189  1.4791 -0.6271 -0.1215
 4960SOL     OW26341   2.297   4.078  15.061 -0.2173  0.6917 -1.3153
 4960SOL    HW126342   2.264   3.997  15.099 -0.0413  0.8519 -0.8156
 4960SOL    HW226343   2.228   4.135  15.094 -0.2419 -1.0871  1.7023
 4961SOL     OW26344   1.269   0.237   8.697 -0.5622  0.1006  0.2166
 4961SOL    HW126345   1.361   0.259   8.686 -0.2552 -0.4636  1.6770
 4961SOL    HW226346   1.279   0.160   8.752  0.6682  0.2443  0.1944
 4962SOL     OW26347   2.823   0.951   5.788 -0.1862 -0.1776  0.3945
 4962SOL    HW126348   2.910   0.989   5.799 -0.3387  0.0617  0.8113
 4962SOL    HW226349   2.828   0.885   5.720  0.6800  0.7273 -0.4276
 4963SOL     OW26350   0.849   3.345   3.617  0.2976 -0.8272  0.4127
 4963SOL    HW126351   0.762   3.343   3.577 -0.5901  1.0988  2.2213
 4963SOL    HW226352   0.867   3.439   3.619 -1.4356 -0.4858  0.5822
 4964SOL     OW26353   1.698   0.561   3.497 -1.0970 -0.3149 -0.1658
 4964SOL    HW126354   1.752   0.640   3.489  0.4279 -1.6017 -2.3489
 4964SOL    HW226355   1.751   0.498   3.448  0.1729  0.1394  0.6116
 4965SOL     OW26356   3.652   1.958  10.837  0.1914 -0.2447  0.4591
 4965SOL    HW126357   3.610   1.923  10.915  0.0157  2.6610  1.6586
 4965SOL    HW226358   3.604   1.919  10.764 -0.1867  2.1801 -0.6085
 4966SOL     OW26359   2.004   4.216   4.507 -0.2596 -0.2415  0.6487
 4966SOL    HW126360   1.962   4.170   4.434 -0.8950  1.2792  0.0471
 4966SOL    HW226361   2.083   4.251   4.465 -0.2412 -0.8607  0.1654
 4967SOL     OW26362   2.549   2.365   8.100 -0.0462  0.2572 -0.0903
 4967SOL    HW126363   2.593   2.290   8.140  1.3912  0.6085 -1.0069
 4967SOL    HW226364   2.464   2.363   8.143  0.3988 -3.7678  0.5534
 4968SOL     OW26365   1.667   3.396   5.799 -0.2486  0.1568  0.0477
 4968SOL    HW126366   1.760   3.402   5.778 -0.4141  2.2725 -0.0803
 4968SOL    HW226367   1.628   3.406   5.713  0.8083 -0.2914 -0.4881
 4969SOL     OW26368   2.769   0.535  13.993 -0.1607  0.5074 -0.1365
 4969SOL    HW126369   2.762   0.501  14.082 -0.5309  0.6428 -0.1146
 4969SOL    HW226370   2.862   0.530  13.970 -0.4181 -1.5116 -0.7213
 4970SOL     OW26371   3.956   2.323  11.688 -0.0687  0.3694 -0.0212
 4970SOL    HW126372   3.922   2.342  11.601  0.3596 -2.5589 -0.8236
 4970SOL    HW226373   4.041   2.365  11.676  0.6345 -1.3762 -1.0987
 4971SOL     OW26374   2.779   4.353   0.979  0.3170  0.1063  0.1219
 4971SOL    HW126375   2.808   4.281   0.924 -2.4777  0.1321 -1.3689
 4971SOL    HW226376   2.837   4.340   1.054 -0.7680  0.6456  1.0625
 4972SOL     OW26377   4.064   0.765   0.687 -0.6923  0.4557 -0.1456
 4972SOL    HW126378   3.970   0.745   0.686 -0.8572  1.0616  2.6458
 4972SOL    HW226379   4.063   0.860   0.675 -1.1370  0.4012 -0.5092
 4973SOL     OW26380   2.136   3.497  16.237 -0.0027  0.6420  0.4429
 4973SOL    HW126381   2.091   3.581  16.248 -0.5898  0.5731 -1.5485
 4973SOL    HW226382   2.158   3.485  16.330 -0.2359  0.3370  0.4560
 4974SOL     OW26383   1.362   1.533   1.706  0.1926 -0.2664 -0.3108
 4974SOL    HW126384   1.393   1.615   1.669 -0.6295  0.8104  1.3432
 4974SOL    HW226385   1.424   1.465   1.682  1.1636 -0.1093  1.6888
 4975SOL     OW26386   0.847   4.148   7.140  0.6033  0.3973 -0.6260
 4975SOL    HW126387   0.810   4.211   7.202 -0.5514  0.6127 -1.5155
 4975SOL    HW226388   0.928   4.183   7.104  1.5108 -3.5861 -2.4200
 4976SOL     OW26389   4.628   3.004   4.792 -0.0989 -0.0489 -0.5396
 4976SOL    HW126390   4.692   2.933   4.796 -1.0797 -0.9206 -0.5812
 4976SOL    HW226391   4.624   3.017   4.698 -2.2236  0.0565 -0.4272
 4977SOL     OW26392   0.076   4.574  13.875  0.1817  0.0381  0.0145
 4977SOL    HW126393   0.050   4.482  13.872  2.3838 -0.5793 -0.3686
 4977SOL    HW226394   4.721   4.619  13.898  0.2629 -0.2071  0.7844
 4978SOL     OW26395   2.382   3.233   8.093 -0.5344  0.1168 -0.1984
 4978SOL    HW126396   2.429   3.312   8.065  0.4416 -1.3246 -2.6527
 4978SOL    HW226397   2.418   3.220   8.181  0.4024  1.1096 -0.4269
 4979SOL     OW26398   4.278   2.453  16.329 -0.3616 -0.1931  0.4014
 4979SOL    HW126399   4.260   2.544  16.352  1.7235  0.0010  1.2870
 4979SOL    HW226400   4.206   2.413  16.378 -0.1864  0.5527  1.2708
 4980SOL     OW26401   2.924   0.080   0.706 -0.9152 -0.7287 -0.3103
 4980SOL    HW126402   2.989   0.087   0.635 -0.3034 -1.0353  0.2188
 4980SOL    HW226403   2.929   4.713   0.722 -0.6719 -1.0353 -2.1375
 4981SOL     OW26404   2.473   4.169   3.776 -0.0087  0.2481 -0.0030
 4981SOL    HW126405   2.481   4.226   3.699 -0.8602 -0.0125 -0.2866
 4981SOL    HW226406   2.396   4.114   3.757 -0.9196  1.5662 -0.1077
 4982SOL     OW26407   3.939   0.488   6.890  0.0375 -0.1386 -0.5078
 4982SOL    HW126408   3.917   0.466   6.981  3.8563 -2.9325 -0.2652
 4982SOL    HW226409   4.034   0.501   6.892  0.0733 -0.3241 -1.3663
 4983SOL     OW26410   2.904   0.193  11.310 -0.0553  0.4758  0.0544
 4983SOL    HW126411   2.977   0.254  11.298 -0.0968  0.4393 -0.3885
 4983SOL    HW226412   2.904   0.143  11.228  0.3559 -0.7719  0.8107
 4984SOL     OW26413   4.238   3.304   4.231 -0.6972  0.1485 -0.5478
 4984SOL    HW126414   4.160   3.333   4.183 -0.9851  1.4621  0.7247
 4984SOL    HW226415   4.190   3.234   4.276  0.7292 -0.5653 -0.1319
 4985SOL     OW26416   3.457   4.193   7.443  0.1614  0.3328  0.4605
 4985SOL    HW126417   3.547   4.223   7.440  0.0663  0.5698 -0.1125
 4985SOL    HW226418   3.410   4.254   7.499  2.5378  1.8180  0.8067
 4986SOL     OW26419   2.117   2.379  13.609  0.3938 -0.4289  0.7323
 4986SOL    HW126420   2.030   2.366  13.571  0.1203 -0.7509  1.4697
 4986SOL    HW226421   2.153   2.374  13.520  0.3257 -1.1682  0.7488
 4987SOL     OW26422   3.001   3.952   1.180 -0.0824 -0.0171 -0.2303
 4987SOL    HW126423   2.932   3.890   1.156 -2.3735  1.6109  2.1900
 4987SOL    HW226424   3.082   3.905   1.159 -1.8681 -2.1798 -2.4269
 4988SOL     OW26425   4.225   4.326   4.220  0.1800 -0.0422  0.1653
 4988SOL    HW126426   4.277   4.252   4.250  0.2019 -0.6365 -1.3115
 4988SOL    HW226427   4.180   4.294   4.141  0.2592  3.0823 -1.1442
 4989SOL     OW26428   0.592   3.643  13.553  0.0349 -0.0753  0.0114
 4989SOL    HW126429   0.603   3.734  13.580  1.5203 -0.5270  0.9079
 4989SOL    HW226430   0.594   3.644  13.457 -1.4263  1.2351  0.0115
 4990SOL     OW26431   2.247   0.944   5.827  0.2161 -0.4619  0.4917
 4990SOL    HW126432   2.330   0.898   5.844 -0.5112 -1.5600  1.0990
 4990SOL    HW226433   2.189   0.893   5.884  1.2443 -2.4262 -0.2239
 4991SOL     OW26434   4.225   0.382   0.092  0.4482 -0.3559 -0.0674
 4991SOL    HW126435   4.183   0.440   0.029 -1.6884 -2.3350 -0.4865
 4991SOL    HW226436   4.152   0.393   0.154  0.7759  0.6467  0.1467
 4992SOL     OW26437   1.259   1.197  12.646 -0.3147 -0.0304 -0.1020
 4992SOL    HW126438   1.209   1.208  12.565  1.5176 -1.6945 -1.4305
 4992SOL    HW226439   1.217   1.260  12.705  1.5903  0.9750  0.1768
 4993SOL     OW26440   3.765   3.793  15.387  0.2597 -0.0828 -0.1704
 4993SOL    HW126441   3.703   3.766  15.320  0.4081  2.6071 -1.4015
 4993SOL    HW226442   3.777   3.887  15.371  0.8556 -0.3811 -1.3928
 4994SOL     OW26443   3.858   1.456   5.702  0.1027  0.5692  0.2415
 4994SOL    HW126444   3.889   1.543   5.727  1.8055  0.5672 -1.8539
 4994SOL    HW226445   3.907   1.398   5.762 -1.3881 -1.2824 -0.3388
 4995SOL     OW26446   4.617   2.693  14.687 -0.3857 -0.4179 -0.5561
 4995SOL    HW126447   4.551   2.761  14.676 -0.3116  0.2231  2.7433
 4995SOL    HW226448   4.690   2.746  14.721  0.3418 -1.4316 -0.5409
 4996SOL     OW26449   3.877   0.774  12.831 -0.1318  0.6760  0.0084
 4996SOL    HW126450   3.967   0.791  12.857  0.1488  0.0482 -0.5706
 4996SOL    HW226451   3.831   0.822  12.900  0.0012 -0.2868  0.7628
 4997SOL     OW26452   4.546   0.319  15.591  0.3695 -0.4310 -0.1008
 4997SOL    HW126453   4.501   0.237  15.610  0.0243 -0.3762 -0.6751
 4997SOL    HW226454   4.536   0.361  15.676  0.4968  0.0217 -0.3110
 4998SOL     OW26455   0.412   4.003   3.354  0.7291 -0.0008 -0.1491
 4998SOL    HW126456   0.363   4.067   3.406 -2.7400 -1.2939 -1.8197
 4998SOL    HW226457   0.368   3.991   3.270 -2.3041 -2.1069  1.7311
 4999SOL     OW26458   0.476   3.713  17.229 -0.2235  0.6494  0.0970
 4999SOL    HW126459   0.541   3.723  17.299  1.3827  0.8845 -1.4257
 4999SOL    HW226460   0.392   3.735  17.269 -0.8456 -2.5321  0.5443
 5000SOL     OW26461   2.855   0.418  14.225  0.1432 -0.6027 -0.4604
 5000SOL    HW126462   2.842   0.416  14.320 -0.9102 -0.3630 -0.6012
 5000SOL    HW226463   2.916   0.344  14.221  1.2051  0.2986 -1.0495
 5001SOL     OW26464   0.401   0.750  12.631  0.0207 -0.1078  0.2567
 5001SOL    HW126465   0.415   0.676  12.690  0.9656 -1.2590 -1.4328
 5001SOL    HW226466   0.420   0.831  12.679 -0.0263  0.4246 -0.6229
 5002SOL     OW26467   4.012   4.105   9.091  0.2396 -0.1097 -0.2044
 5002SOL    HW126468   3.991   4.102   8.997 -2.3441 -0.9310  0.4046
 5002SOL    HW226469   3.928   4.088   9.133  0.4998  1.3719  0.8922
 5003SOL     OW26470   0.017   1.748   3.007  0.1966 -0.0076  0.6803
 5003SOL    HW126471   4.712   1.747   2.916 -0.0780  0.6071  0.7671
 5003SOL    HW226472   4.669   1.784   3.056 -0.4529 -0.4419  0.0122
 5004SOL     OW26473   3.773   0.343  10.973  0.1258  0.5785 -0.7070
 5004SOL    HW126474   3.829   0.266  10.971 -1.8681 -0.8668 -1.3072
 5004SOL    HW226475   3.685   0.305  10.970  0.9095 -1.3222  0.5011
 5005SOL     OW26476   1.335   3.636   5.171 -0.1721  0.2233  0.4070
 5005SOL    HW126477   1.308   3.628   5.263  2.9454  1.7866  1.4542
 5005SOL    HW226478   1.353   3.546   5.144  0.0354  0.9280 -1.7792
 5006SOL     OW26479   3.798   3.385   5.429 -0.8634 -0.1091 -0.5246
 5006SOL    HW126480   3.780   3.311   5.486 -0.9580 -1.1637 -1.9144
 5006SOL    HW226481   3.849   3.448   5.480 -3.4906  0.0361  1.8539
 5007SOL     OW26482   2.675   1.123   3.492 -0.0258 -0.1504  0.1222
 5007SOL    HW126483   2.691   1.150   3.582  0.6556  1.3851 -0.4502
 5007SOL    HW226484   2.760   1.136   3.450 -0.9185  1.8887 -1.1104
 5008SOL     OW26485   3.391   3.287  12.034  0.2925 -0.3351  0.0494
 5008SOL    HW126486   3.328   3.359  12.041  0.9873  0.3724 -0.9819
 5008SOL    HW226487   3.363   3.264  11.946 -0.1104 -0.4169  0.1958
 5009SOL     OW26488   2.082   3.034   8.129 -0.2144 -0.6365 -0.3491
 5009SOL    HW126489   2.119   3.116   8.164  0.3013 -1.0361  0.0480
 5009SOL    HW226490   2.052   2.993   8.210  0.8998  2.6332  1.7571
 5010SOL     OW26491   1.454   0.402   9.620 -0.8313  0.0555  1.0293
 5010SOL    HW126492   1.413   0.317   9.636 -1.9518  1.0105  3.2032
 5010SOL    HW226493   1.371   0.445   9.639 -0.3878  0.8353  1.1742
 5011SOL     OW26494   0.936   3.422   5.390  0.5012  0.0125 -0.0402
 5011SOL    HW126495   0.889   3.505   5.376  0.3440  0.1621  1.3844
 5011SOL    HW226496   0.999   3.428   5.318  2.2069 -1.9505  1.3261
 5012SOL     OW26497   1.467   3.414  15.071 -0.4660  0.1577  0.2750
 5012SOL    HW126498   1.464   3.464  15.152  3.8660  0.9044 -0.0327
 5012SOL    HW226499   1.410   3.468  15.017 -1.1867  0.5192  1.4001
 5013SOL     OW26500   1.359   1.920   8.859  0.8479 -0.2483  0.5374
 5013SOL    HW126501   1.396   1.834   8.875  0.9124 -0.9652 -3.4807
 5013SOL    HW226502   1.329   1.912   8.769  3.1383  0.1289 -0.2568
 5014SOL     OW26503   2.866   4.059  12.092  0.3650  0.1649 -0.5004
 5014SOL    HW126504   2.906   3.985  12.138  1.6505 -0.2287 -2.2296
 5014SOL    HW226505   2.809   4.089  12.163  2.0291  1.2026  0.3991
 5015SOL     OW26506   1.709   0.112   3.878 -0.1781 -0.0824  0.8090
 5015SOL    HW126507   1.647   0.111   3.951  2.2755 -0.3189  2.9218
 5015SOL    HW226508   1.777   0.060   3.920 -1.1532 -1.7069  0.3784
 5016SOL     OW26509   0.612   3.347   1.790 -0.3845 -0.2294  0.0966
 5016SOL    HW126510   0.564   3.309   1.864  2.5965 -3.3964  0.4053
 5016SOL    HW226511   0.699   3.340   1.829 -0.9615 -4.3450  0.6928
 5017SOL     OW26512   2.803   0.170   4.943  0.4293 -0.4044 -0.4037
 5017SOL    HW126513   2.896   0.146   4.946  0.7056  0.6117 -0.5839
 5017SOL    HW226514   2.812   0.254   4.897 -0.3360 -0.1070 -0.0046
 5018SOL     OW26515   1.420   4.431   3.722 -0.6211  0.1412  0.4637
 5018SOL    HW126516   1.366   4.509   3.732 -0.2050  0.3844  0.8171
 5018SOL    HW226517   1.409   4.391   3.809 -0.1685 -3.1209 -0.9895
 5019SOL     OW26518   0.748   3.735   4.451 -0.3843 -0.3998 -0.5369
 5019SOL    HW126519   0.707   3.693   4.526 -1.2565  0.0432 -0.7661
 5019SOL    HW226520   0.836   3.696   4.457  0.4001  1.1315 -2.2119
 5020SOL     OW26521   0.834   3.116   2.297 -0.1277  0.0807  0.4180
 5020SOL    HW126522   0.910   3.174   2.308 -1.6907  2.2742 -0.3261
 5020SOL    HW226523   0.778   3.179   2.252  1.1332 -0.5626 -2.0909
 5021SOL     OW26524   2.531   3.787   7.035 -0.2750 -0.6938 -0.0716
 5021SOL    HW126525   2.546   3.856   7.100  3.4785 -1.3793 -0.1887
 5021SOL    HW226526   2.523   3.843   6.958  1.0999 -2.5881 -1.5869
 5022SOL     OW26527   3.038   3.623   7.943 -0.4874 -0.3110 -0.0879
 5022SOL    HW126528   3.107   3.638   7.878  1.5058 -1.5601  1.7180
 5022SOL    HW226529   3.048   3.698   8.002  0.8928  0.6176 -1.4870
 5023SOL     OW26530   4.076   3.693   6.738  0.1165 -0.0800  0.2661
 5023SOL    HW126531   4.114   3.667   6.822  1.3673  0.4387 -0.1371
 5023SOL    HW226532   3.991   3.648   6.737  0.4780 -0.7714 -0.1676
 5024SOL     OW26533   0.107   4.715   7.749 -0.4442 -0.3939 -0.3280
 5024SOL    HW126534   0.128   4.706   7.656  0.3725  3.4824 -0.5431
 5024SOL    HW226535   0.119   0.082   7.764  1.8469 -0.6601 -0.3937
 5025SOL     OW26536   2.511   2.882  16.035  0.0641  0.3330 -0.1149
 5025SOL    HW126537   2.553   2.830  16.103 -0.7253 -0.2712 -0.0943
 5025SOL    HW226538   2.571   2.872  15.960 -0.3115  0.4672 -0.4310
 5026SOL     OW26539   2.555   2.077  13.395 -0.1572 -0.0657  0.5826
 5026SOL    HW126540   2.626   2.027  13.436  0.5560 -0.2167 -0.8393
 5026SOL    HW226541   2.503   2.008  13.356  1.2151  0.0682 -1.5060
 5027SOL     OW26542   2.075   2.325   1.873 -0.4289  0.0072 -0.0336
 5027SOL    HW126543   2.104   2.278   1.795 -2.2344  1.6278 -1.6970
 5027SOL    HW226544   1.989   2.350   1.838 -0.1984  0.6846 -0.1248
 5028SOL     OW26545   0.991   2.481   2.933  0.3238 -0.2846  0.2103
 5028SOL    HW126546   0.968   2.559   2.984  0.2124 -0.4701  0.4443
 5028SOL    HW226547   0.941   2.505   2.855  1.7422  0.4756 -0.4679
 5029SOL     OW26548   1.808   0.288   2.755  0.3749 -0.0355  0.0552
 5029SOL    HW126549   1.895   0.318   2.784  0.3695  0.6612 -0.6584
 5029SOL    HW226550   1.839   0.225   2.690  0.5672  0.1616 -0.0474
 5030SOL     OW26551   1.190   1.314   7.549  0.0882  0.4570  0.3829
 5030SOL    HW126552   1.151   1.235   7.512 -1.4202 -0.0138  2.9662
 5030SOL    HW226553   1.224   1.362   7.473  0.2203  0.8833  0.7150
 5031SOL     OW26554   3.093   1.513   5.855 -0.0262 -0.9881  0.0054
 5031SOL    HW126555   3.006   1.549   5.838  0.5803  0.0427 -0.8803
 5031SOL    HW226556   3.103   1.551   5.943 -0.1288  0.3208 -0.5454
 5032SOL     OW26557   4.429   1.299   7.463  0.0372 -0.2039 -0.6347
 5032SOL    HW126558   4.518   1.315   7.432  0.3086 -0.3522  0.0502
 5032SOL    HW226559   4.377   1.265   7.390  0.5590  1.7151 -1.8830
 5033SOL     OW26560   1.644   2.871   8.537  0.0885  0.2768 -0.3321
 5033SOL    HW126561   1.567   2.907   8.494 -1.0606  0.1925  1.6856
 5033SOL    HW226562   1.626   2.921   8.616 -2.1025  0.5674 -1.0132
 5034SOL     OW26563   1.203   4.623   6.732  0.4269  0.2718  0.4283
 5034SOL    HW126564   1.199   4.538   6.687  1.0535  1.0171 -1.0552
 5034SOL    HW226565   1.286   4.663   6.706  0.7948  0.8920  2.5984
 5035SOL     OW26566   1.495   3.008   8.713 -0.0735  0.2296 -0.1875
 5035SOL    HW126567   1.403   2.983   8.720  0.2759 -1.4119 -1.2512
 5035SOL    HW226568   1.492   3.100   8.686  0.4781  0.1281 -0.6005
 5036SOL     OW26569   3.537   1.457   8.670 -0.0430  0.2000 -0.3749
 5036SOL    HW126570   3.541   1.538   8.721  0.9713 -1.3950  2.1067
 5036SOL    HW226571   3.626   1.431   8.696 -0.5853 -1.4178 -0.1325
 5037SOL     OW26572   3.211   4.394   1.701  0.2253 -0.8173 -0.2693
 5037SOL    HW126573   3.304   4.384   1.720 -0.2434 -3.0532  0.8434
 5037SOL    HW226574   3.173   4.312   1.731 -0.6032  0.1046  1.2193
 5038SOL     OW26575   3.528   4.705  16.331  0.1524 -0.1161  0.5697
 5038SOL    HW126576   3.606   4.650  16.332 -0.3049 -0.8380 -2.6556
 5038SOL    HW226577   3.561   0.069  16.335  0.9672 -0.3477 -0.7612
 5039SOL     OW26578   1.255   1.881   8.597 -0.4273  0.1572  0.2025
 5039SOL    HW126579   1.257   1.811   8.531  0.2396  1.3158 -1.0102
 5039SOL    HW226580   1.162   1.888   8.617 -0.7084  0.4004 -1.1814
 5040SOL     OW26581   2.090   2.326  10.389  0.8241 -0.5821  0.0939
 5040SOL    HW126582   2.032   2.250  10.377 -0.0515  0.2541 -0.8775
 5040SOL    HW226583   2.129   2.322  10.477  1.0040  0.0530  0.0422
 5041SOL     OW26584   3.717   3.264   2.502  0.2371 -0.2467  0.3975
 5041SOL    HW126585   3.662   3.312   2.440  1.0678 -0.5103 -0.5492
 5041SOL    HW226586   3.746   3.190   2.448 -1.2229 -1.1477  0.8800
 5042SOL     OW26587   3.285   2.367   4.575  0.7022 -0.0207  0.2279
 5042SOL    HW126588   3.303   2.458   4.600  2.4795 -0.5379  0.8359
 5042SOL    HW226589   3.314   2.358   4.485  1.5862  0.7154  0.4382
 5043SOL     OW26590   4.404   2.039  17.056 -0.1049  0.0377  0.8319
 5043SOL    HW126591   4.358   2.122  17.072 -0.3149  0.0014  0.4248
 5043SOL    HW226592   4.383   1.983  17.131 -0.1281  0.5257  1.1882
 5044SOL     OW26593   2.403   3.173   5.166  0.3914 -0.4590  0.5100
 5044SOL    HW126594   2.444   3.089   5.145  0.0939 -0.1204 -1.4279
 5044SOL    HW226595   2.488   3.216   5.162  0.5793 -0.9131 -0.4207
 5045SOL     OW26596   4.308   0.619   9.327  0.3849  0.3046 -0.0268
 5045SOL    HW126597   4.403   0.627   9.314  0.3067  0.3054 -0.6231
 5045SOL    HW226598   4.291   0.714   9.329  1.6276  0.5889 -2.1428
 5046SOL     OW26599   2.766   1.347   2.744 -0.1464 -0.9341 -0.2753
 5046SOL    HW126600   2.743   1.364   2.653 -1.2090  0.3823  0.2392
 5046SOL    HW226601   2.696   1.380   2.801 -0.8398 -1.1932 -0.9772
 5047SOL     OW26602   2.481   4.108   1.516 -0.5444 -0.2872 -0.2179
 5047SOL    HW126603   2.469   4.017   1.543  0.1512 -0.0566  0.9012
 5047SOL    HW226604   2.407   4.109   1.457  0.3031  1.3981 -1.2457
 5048SOL     OW26605   3.783   0.233   7.554  0.9363 -0.4400  0.6468
 5048SOL    HW126606   3.859   0.278   7.517  0.3840 -0.7501 -0.8338
 5048SOL    HW226607   3.737   0.203   7.476  1.2690  0.1633  0.2274
 5049SOL     OW26608   0.651   1.523   3.208 -0.1163  0.3235  0.1865
 5049SOL    HW126609   0.570   1.568   3.231 -1.0766 -0.4072 -1.7997
 5049SOL    HW226610   0.662   1.463   3.282 -0.9021  0.0072  0.0471
 5050SOL     OW26611   1.816   0.148   0.637  0.3357  0.5149  0.3264
 5050SOL    HW126612   1.749   0.080   0.636  0.6942  0.1484  1.1150
 5050SOL    HW226613   1.756   0.223   0.641 -0.7502 -0.3556  0.5119
 5051SOL     OW26614   1.407   4.296   0.811 -0.1729  0.6606  0.2766
 5051SOL    HW126615   1.324   4.337   0.834 -0.6866  0.5983 -1.5255
 5051SOL    HW226616   1.422   4.242   0.889 -0.5935  1.8360  1.1749
 5052SOL     OW26617   2.683   3.451   9.482 -0.5749  0.1758 -0.4607
 5052SOL    HW126618   2.613   3.515   9.494 -1.5461 -0.8139 -0.8705
 5052SOL    HW226619   2.748   3.496   9.536 -1.1540 -0.0634  0.4461
 5053SOL     OW26620   1.593   1.827  16.524 -0.4739 -0.7994  0.1980
 5053SOL    HW126621   1.531   1.765  16.485  0.1533 -0.6354 -1.0600
 5053SOL    HW226622   1.589   1.789  16.611 -0.0212  1.6665  1.2918
 5054SOL     OW26623   0.197   1.151  17.066  0.4117  0.7497  0.0383
 5054SOL    HW126624   0.274   1.188  17.023  0.9830 -2.5598 -1.7078
 5054SOL    HW226625   0.235   1.064  17.072 -0.7952  0.0226 -2.8395
 5055SOL     OW26626   4.052   4.200   9.583  1.2655  0.1715 -0.6982
 5055SOL    HW126627   4.108   4.274   9.560  0.1935  0.7517 -1.4087
 5055SOL    HW226628   3.963   4.231   9.569  0.2540 -1.1491  2.6042
 5056SOL     OW26629   2.365   1.229   3.653 -0.6957 -0.0738  0.4246
 5056SOL    HW126630   2.451   1.188   3.658 -2.1741 -3.0500  1.4705
 5056SOL    HW226631   2.391   1.311   3.610  0.1380 -0.9790 -0.7849
 5057SOL     OW26632   0.090   4.680  14.823 -0.3877 -0.0329  0.5268
 5057SOL    HW126633   0.084   4.684  14.918 -0.9889 -0.0663  0.4911
 5057SOL    HW226634   0.175   4.721  14.805  0.2376 -1.3818  0.4353
 5058SOL     OW26635   2.408   3.353   8.974  0.0887  0.0522  0.2889
 5058SOL    HW126636   2.392   3.446   8.956 -1.1870 -0.2414 -0.0813
 5058SOL    HW226637   2.384   3.353   9.066  0.6254 -0.0499  0.4289
 5059SOL     OW26638   3.059   2.107   5.724 -0.2970 -0.1417  0.3628
 5059SOL    HW126639   3.025   2.142   5.806 -2.5944  0.9757 -1.0722
 5059SOL    HW226640   3.146   2.147   5.717  0.0380 -1.2738 -2.1619
 5060SOL     OW26641   1.755   2.554  10.328  0.3149  0.1894 -0.3771
 5060SOL    HW126642   1.730   2.581  10.240 -1.6481 -0.4933 -0.0511
 5060SOL    HW226643   1.720   2.629  10.376  1.7922  0.8963 -0.4264
 5061SOL     OW26644   1.373   1.244   7.117 -0.2265  0.4855  0.0130
 5061SOL    HW126645   1.281   1.267   7.111 -0.1122  1.3183  1.3945
 5061SOL    HW226646   1.355   1.161   7.161  0.9698 -0.8350 -2.0115
 5062SOL     OW26647   0.418   4.141   9.691 -0.1099  0.6785  0.3485
 5062SOL    HW126648   0.405   4.181   9.605  2.9372  3.7386  1.3641
 5062SOL    HW226649   0.498   4.189   9.710 -0.1147  1.4654 -1.6916
 5063SOL     OW26650   3.910   1.282  15.579  0.1753  0.0991 -0.0356
 5063SOL    HW126651   3.903   1.370  15.541  0.4799  0.0851 -0.1240
 5063SOL    HW226652   3.848   1.229  15.530  0.6413 -0.7862  0.3252
 5064SOL     OW26653   1.981   4.387   7.809 -0.2522  0.0100 -0.0366
 5064SOL    HW126654   2.017   4.446   7.875  1.0281 -0.9219  0.0974
 5064SOL    HW226655   1.984   4.304   7.856  2.2929  0.0844 -0.0885
 5065SOL     OW26656   1.255   0.825   2.658  0.5653  0.3320 -0.7386
 5065SOL    HW126657   1.163   0.808   2.634  0.1530  3.2075 -1.1225
 5065SOL    HW226658   1.280   0.823   2.565  0.2939 -0.8857 -0.7914
 5066SOL     OW26659   4.248   4.153   3.094  0.0085 -0.4486 -0.2131
 5066SOL    HW126660   4.242   4.205   3.014  0.0769  2.3183  1.5721
 5066SOL    HW226661   4.298   4.213   3.151  2.9321 -2.3822 -0.7438
 5067SOL     OW26662   2.665   3.177   9.398 -0.6220  0.7266  0.2584
 5067SOL    HW126663   2.575   3.175   9.366 -1.3440  0.6656  2.2888
 5067SOL    HW226664   2.677   3.270   9.418  2.0684  0.6769 -1.2100
 5068SOL     OW26665   3.117   2.649   5.465 -0.1763 -0.0626  0.2701
 5068SOL    HW126666   3.118   2.744   5.476 -0.8490 -0.3123  2.4289
 5068SOL    HW226667   3.138   2.645   5.372  1.6677  2.0887  0.5834
 5069SOL     OW26668   3.570   1.028   3.122  0.1697 -0.5233 -0.0205
 5069SOL    HW126669   3.544   1.007   3.032 -3.2466 -2.6087  1.4479
 5069SOL    HW226670   3.528   0.953   3.165  0.4647 -0.5420  0.2335
 5070SOL     OW26671   3.574   3.260   8.191  0.0206 -0.1826 -0.3404
 5070SOL    HW126672   3.561   3.176   8.148 -0.0580  0.6596 -1.9440
 5070SOL    HW226673   3.481   3.286   8.196  0.1278 -0.2939  2.5295
 5071SOL     OW26674   4.444   2.957   3.224  0.2974  0.0521 -0.4798
 5071SOL    HW126675   4.532   2.936   3.254 -0.3414  3.9941  4.1047
 5071SOL    HW226676   4.435   3.050   3.246 -1.0269 -0.5284  1.4211
 5072SOL     OW26677   3.781   3.063   9.526  0.1308 -0.1438 -0.5246
 5072SOL    HW126678   3.726   3.107   9.591  1.7201 -0.4421  1.0278
 5072SOL    HW226679   3.773   2.973   9.556 -1.2204  0.4352  0.8499
 5073SOL     OW26680   1.094   3.608   4.200 -0.4455 -0.2927  0.2811
 5073SOL    HW126681   1.130   3.522   4.223 -0.7210 -0.6621 -0.6950
 5073SOL    HW226682   1.075   3.647   4.286 -1.6864 -1.7036  0.6411
 5074SOL     OW26683   1.353   1.353   1.425 -0.5216 -0.3758  0.1242
 5074SOL    HW126684   1.385   1.435   1.387  0.9722 -0.2619  1.6000
 5074SOL    HW226685   1.417   1.335   1.493  0.4631  1.9529 -0.1737
 5075SOL     OW26686   3.697   1.891   5.946 -0.3569 -0.4702 -0.4445
 5075SOL    HW126687   3.627   1.832   5.970 -1.1071  1.3441  1.8368
 5075SOL    HW226688   3.645   1.960   5.905 -0.4533  0.9931  2.1286
 5076SOL     OW26689   1.662   3.417   1.389 -0.6840 -0.0581 -0.0046
 5076SOL    HW126690   1.660   3.464   1.306 -2.5242 -1.8047 -0.9435
 5076SOL    HW226691   1.580   3.368   1.392 -0.3158 -0.6822 -0.1655
 5077SOL     OW26692   3.863   1.070   2.242  0.2836 -0.0992 -0.4416
 5077SOL    HW126693   3.923   1.022   2.185 -1.6942  0.0502 -2.6596
 5077SOL    HW226694   3.912   1.153   2.247 -1.0432  0.5895  1.1791
 5078SOL     OW26695   2.502   1.062   3.857  0.3712  0.0070 -0.5688
 5078SOL    HW126696   2.475   1.092   3.944  1.6650 -0.1382 -0.1216
 5078SOL    HW226697   2.423   1.008   3.858  2.0008 -2.3268  0.6461
 5079SOL     OW26698   1.041   4.058   2.180  0.1685  0.1080 -0.5322
 5079SOL    HW126699   0.998   4.136   2.215  2.1119  1.4497 -1.1118
 5079SOL    HW226700   1.116   4.061   2.239  0.5776 -0.4174 -1.0292
 5080SOL     OW26701   1.557   2.933   3.374  0.0307  0.5018 -0.1873
 5080SOL    HW126702   1.509   2.934   3.457  1.0102 -1.9933  0.3953
 5080SOL    HW226703   1.492   2.897   3.313 -0.4849  0.9167  0.1182
 5081SOL     OW26704   4.060   0.401  11.659  0.2342 -0.5220  0.9547
 5081SOL    HW126705   3.982   0.390  11.714 -0.4866 -0.7148 -0.1189
 5081SOL    HW226706   4.033   0.363  11.575 -0.3662  0.1461  0.8499
 5082SOL     OW26707   4.558   1.956   5.554  0.3413  0.1604  0.0251
 5082SOL    HW126708   4.546   1.946   5.459  1.8834 -0.3938 -0.1061
 5082SOL    HW226709   4.555   2.050   5.572  0.1739 -0.0934  1.2574
 5083SOL     OW26710   0.870   0.932   9.098  0.1673  0.1289 -0.6780
 5083SOL    HW126711   0.877   0.997   9.028  0.0726  0.0012 -0.8057
 5083SOL    HW226712   0.949   0.878   9.101 -0.3816 -0.6501 -0.2819
 5084SOL     OW26713   3.573   2.599   3.750  0.2867  0.0169  0.0068
 5084SOL    HW126714   3.551   2.506   3.759 -3.7672  1.1968  2.1329
 5084SOL    HW226715   3.664   2.599   3.782  0.6895 -0.4733 -1.1314
 5085SOL     OW26716   0.211   1.396   4.261  0.3558  0.0776  0.3832
 5085SOL    HW126717   0.143   1.450   4.220 -1.2173 -1.8069  0.5476
 5085SOL    HW226718   0.279   1.424   4.199 -0.6321 -0.1042 -0.7863
 5086SOL     OW26719   2.767   4.574  11.328  0.1849 -0.1396 -0.0978
 5086SOL    HW126720   2.718   4.614  11.256  2.9211  1.9256 -0.8096
 5086SOL    HW226721   2.839   4.538  11.277  1.5540  3.4039 -0.6757
 5087SOL     OW26722   4.120   2.507   8.856  0.5847 -0.3005  0.6766
 5087SOL    HW126723   4.179   2.576   8.824 -0.0529 -0.5634 -1.0580
 5087SOL    HW226724   4.179   2.432   8.842 -0.0691 -0.6165 -0.4044
 5088SOL     OW26725   0.953   3.752  15.873 -0.1135  0.2048 -0.6276
 5088SOL    HW126726   1.001   3.827  15.909  0.6814 -0.0249 -1.2369
 5088SOL    HW226727   0.953   3.689  15.945  2.2317  0.6314 -0.2573
 5089SOL     OW26728   4.183   1.483   7.157  0.5161 -0.7690  0.0280
 5089SOL    HW126729   4.237   1.404   7.157  0.0527 -1.0813  0.7282
 5089SOL    HW226730   4.095   1.448   7.145  1.0323 -2.7528  2.0875
 5090SOL     OW26731   0.096   1.431   8.431  0.3989 -0.0425  0.5830
 5090SOL    HW126732   0.039   1.356   8.448 -0.0637  1.1906  4.4505
 5090SOL    HW226733   0.175   1.409   8.480  1.8348 -0.3837 -1.8841
 5091SOL     OW26734   0.516   4.615   4.696 -0.3706 -0.5584  0.8512
 5091SOL    HW126735   0.441   4.647   4.646 -1.2396  0.2719  2.6876
 5091SOL    HW226736   0.525   4.527   4.660  1.4626 -0.9916  2.3377
 5092SOL     OW26737   2.259   4.610   4.101  0.0455  0.0530  0.5249
 5092SOL    HW126738   2.258   4.640   4.010 -1.9728  0.5325  0.7192
 5092SOL    HW226739   2.176   4.643   4.135  0.4735  0.1138  1.5056
 5093SOL     OW26740   4.661   4.239   7.913  0.1693  0.1393 -0.2720
 5093SOL    HW126741   0.009   4.202   7.958 -0.3176  0.1377  0.5395
 5093SOL    HW226742   4.586   4.209   7.964  0.4330  1.6730  1.0061
 5094SOL     OW26743   3.872   4.633   6.615  0.4583  0.4668  0.4737
 5094SOL    HW126744   3.822   4.610   6.693  0.6647  1.6187  0.9410
 5094SOL    HW226745   3.856   0.001   6.613 -1.3793  0.1381 -0.3884
 5095SOL     OW26746   2.050   1.092   6.810  0.0547 -0.2821 -0.1914
 5095SOL    HW126747   2.095   1.015   6.842  0.3711  0.9170  2.2410
 5095SOL    HW226748   1.970   1.068   6.763  0.1424  1.5074 -1.2906
 5096SOL     OW26749   1.571   3.828  11.030 -0.1481  0.8184  0.1002
 5096SOL    HW126750   1.516   3.906  11.017 -0.6538  0.2764 -1.0199
 5096SOL    HW226751   1.518   3.779  11.093  0.4336  1.1771  0.8690
 5097SOL     OW26752   2.934   0.353   0.664 -0.4240  0.1061  0.1894
 5097SOL    HW126753   2.879   0.414   0.713  0.5120  0.3389  0.9610
 5097SOL    HW226754   2.906   0.272   0.706  0.4006  0.0358  0.6126
 5098SOL     OW26755   4.674   4.490   3.481 -0.3647 -0.8903  0.0694
 5098SOL    HW126756   4.662   4.481   3.576  0.3557 -0.0237  0.2371
 5098SOL    HW226757   4.584   4.510   3.455 -0.1583 -0.5092 -0.3372
 5099SOL     OW26758   2.881   1.907   9.690 -0.7278  0.0902  0.2788
 5099SOL    HW126759   2.919   1.995   9.695 -0.7932  0.0346  1.6650
 5099SOL    HW226760   2.910   1.873   9.774  0.1271 -1.0642 -0.4958
 5100SOL     OW26761   1.475   1.493  15.233 -0.1313  0.2697  0.4009
 5100SOL    HW126762   1.557   1.538  15.250  0.9602 -2.0769  1.3454
 5100SOL    HW226763   1.498   1.405  15.263 -0.5788 -0.3970 -1.2261
 5101SOL     OW26764   0.156   0.546   9.175 -0.3387 -0.1862  0.1812
 5101SOL    HW126765   0.147   0.584   9.262 -0.6441 -1.8049  0.8583
 5101SOL    HW226766   0.242   0.505   9.179 -1.4039 -2.3209  1.3468
 5102SOL     OW26767   3.832   1.938  10.451 -0.5384 -0.4450 -0.8849
 5102SOL    HW126768   3.915   1.979  10.429 -1.2009  0.9895 -0.6904
 5102SOL    HW226769   3.807   1.893  10.370 -1.3196 -0.9124 -0.3923
 5103SOL     OW26770   3.379   1.264  12.588 -0.0271 -0.0328 -0.1319
 5103SOL    HW126771   3.427   1.341  12.619  0.5152 -0.6988  0.6799
 5103SOL    HW226772   3.302   1.278  12.642 -0.3443 -0.5040 -0.4668
 5104SOL     OW26773   0.626   4.247   1.827  0.2586  0.2445  0.2472
 5104SOL    HW126774   0.532   4.254   1.813  0.1693 -1.8826 -0.1729
 5104SOL    HW226775   0.639   4.265   1.920 -1.5020  2.4930  0.0607
 5105SOL     OW26776   3.395   1.340  15.265 -0.3895  0.1633  0.3133
 5105SOL    HW126777   3.393   1.369  15.357 -2.3846  0.1841  0.2810
 5105SOL    HW226778   3.302   1.318  15.257 -0.1330 -1.7088  2.6135
 5106SOL     OW26779   0.104   4.023   2.923 -0.0137  0.0630 -0.4928
 5106SOL    HW126780   0.077   4.096   2.979 -1.4465  1.1080 -2.5053
 5106SOL    HW226781   0.020   3.988   2.892 -0.2601  1.2431 -1.1892
 5107SOL     OW26782   1.256   2.371  17.396 -0.0436  0.2436  0.4189
 5107SOL    HW126783   1.185   2.312  17.421 -0.1236  0.5289  0.8665
 5107SOL    HW226784   1.297   2.373  17.482 -0.8549 -1.4692  0.8380
 5108SOL     OW26785   0.234   3.337   7.891  0.1894 -0.4151 -0.5573
 5108SOL    HW126786   0.277   3.405   7.942 -1.8876 -0.4847  1.2982
 5108SOL    HW226787   0.304   3.283   7.854  0.0885 -0.3730 -0.8121
 5109SOL     OW26788   0.634   0.569   5.228 -0.0681  0.7114  0.2310
 5109SOL    HW126789   0.560   0.612   5.187  0.6659  1.4114 -0.3406
 5109SOL    HW226790   0.599   0.488   5.266  0.6928 -0.9083 -2.4652
 5110SOL     OW26791   3.691   0.431   9.558 -0.0434  0.2874  0.7714
 5110SOL    HW126792   3.753   0.368   9.594 -0.0387  0.0641  0.3781
 5110SOL    HW226793   3.604   0.395   9.577  0.8738 -0.6216  3.1773
 5111SOL     OW26794   1.127   1.546   4.427  0.7116 -0.2334 -0.0675
 5111SOL    HW126795   1.201   1.588   4.471  0.7969  0.7773 -1.1775
 5111SOL    HW226796   1.139   1.567   4.334 -1.5280 -3.8496 -1.2052
 5112SOL     OW26797   4.411   1.778   1.246 -0.1476  0.3855  0.0225
 5112SOL    HW126798   4.338   1.793   1.186  0.1030  0.7665 -0.1870
 5112SOL    HW226799   4.438   1.686   1.237  0.9565  0.5758  1.3172
 5113SOL     OW26800   3.134   2.629   7.335  0.6472 -0.1478 -0.3594
 5113SOL    HW126801   3.102   2.668   7.254  1.4795  1.0000 -0.1404
 5113SOL    HW226802   3.068   2.662   7.397  1.6918  2.0646 -0.4514
 5114SOL     OW26803   4.547   2.848   5.007  0.3578  0.0351 -0.0405
 5114SOL    HW126804   4.464   2.808   4.979  0.6133 -0.8617  0.4653
 5114SOL    HW226805   4.550   2.929   4.956 -1.2134 -1.4864 -2.5791
 5115SOL     OW26806   2.433   1.462   2.812  0.1165 -0.2002 -0.2799
 5115SOL    HW126807   2.475   1.520   2.749 -0.6236  1.7698  1.0384
 5115SOL    HW226808   2.353   1.512   2.832  0.1841 -0.0588 -0.3658
 5116SOL     OW26809   0.634   4.663   8.776  0.0572  0.0802 -0.2652
 5116SOL    HW126810   0.717   4.706   8.796  0.1874  0.0953 -0.8275
 5116SOL    HW226811   0.570   4.725   8.811 -0.1023 -0.8140  1.0399
 5117SOL     OW26812   0.852   0.211   7.428  0.3799 -0.1345 -0.3148
 5117SOL    HW126813   0.943   0.229   7.404 -0.4775  1.5731 -2.3175
 5117SOL    HW226814   0.868   0.211   7.523  0.7828 -1.5051 -0.3941
 5118SOL     OW26815   4.675   4.160   0.885  0.5327  0.2848  0.4819
 5118SOL    HW126816   4.708   4.242   0.922 -2.3171  0.3423  2.8932
 5118SOL    HW226817   0.031   4.135   0.844  0.5316 -0.4330  0.9064
 5119SOL     OW26818   1.530   4.355   9.843 -0.0439  0.0292 -0.7406
 5119SOL    HW126819   1.592   4.428   9.847 -1.5521  1.3552 -1.5847
 5119SOL    HW226820   1.520   4.340   9.937 -0.6455  1.1265 -0.6331
 5120SOL     OW26821   2.859   0.509   2.792 -0.2683 -0.1970  0.0223
 5120SOL    HW126822   2.928   0.487   2.855 -0.0468 -1.5399 -0.6704
 5120SOL    HW226823   2.839   0.423   2.754 -2.7587 -0.2242  1.4113
 5121SOL     OW26824   2.917   0.040  11.902  0.7412  0.3652  0.3456
 5121SOL    HW126825   2.921   0.099  11.977 -0.2539  1.5165 -0.5174
 5121SOL    HW226826   2.938   4.682  11.942  1.3651  0.0453 -0.6375
 5122SOL     OW26827   1.122   4.208   2.592  0.2822 -0.0421  0.0562
 5122SOL    HW126828   1.031   4.180   2.591 -0.1871  1.5763 -0.7477
 5122SOL    HW226829   1.160   4.158   2.519 -0.5606  1.4700 -1.4104
 5123SOL     OW26830   3.025   1.218   2.001  0.2065 -0.3148 -0.0556
 5123SOL    HW126831   2.986   1.201   1.915  1.3755  0.2727 -0.6921
 5123SOL    HW226832   3.088   1.146   2.003 -2.1782 -2.3703  1.1289
 5124SOL     OW26833   2.274   3.408   6.736  0.1061 -0.3494  0.0013
 5124SOL    HW126834   2.201   3.349   6.717  1.0518 -0.3271 -3.7624
 5124SOL    HW226835   2.230   3.484   6.774  0.8761  1.3119 -2.4278
 5125SOL     OW26836   0.137   0.091  12.022  0.0456  0.0299 -0.0948
 5125SOL    HW126837   0.190   0.170  12.030  0.2686 -0.0274 -1.0426
 5125SOL    HW226838   0.198   0.033  11.978  0.5698  1.1786 -0.8780
 5126SOL     OW26839   3.093   0.722   5.470  0.4888  0.1872 -0.3721
 5126SOL    HW126840   3.138   0.806   5.458  0.9374  0.1047  0.7813
 5126SOL    HW226841   3.160   0.657   5.450  1.8074  0.8507  1.8656
 5127SOL     OW26842   1.406   3.254   2.165  0.0585 -0.1625 -0.0658
 5127SOL    HW126843   1.496   3.247   2.134  0.8645  0.0555  2.2714
 5127SOL    HW226844   1.373   3.165   2.154  1.2469 -0.6474  0.3592
 5128SOL     OW26845   2.039   1.347   5.335  0.0729  0.2885 -0.0158
 5128SOL    HW126846   1.958   1.362   5.383  1.2288 -2.0979  2.7441
 5128SOL    HW226847   2.017   1.374   5.246  1.4371 -1.1856 -0.8110
 5129SOL     OW26848   1.126   1.286  12.413 -0.1765 -0.2176  0.0411
 5129SOL    HW126849   1.202   1.234  12.388  0.3293  0.4685  0.1678
 5129SOL    HW226850   1.068   1.267  12.338 -0.7399 -1.3838  0.7756
 5130SOL     OW26851   2.673   3.883  17.685 -0.0249 -0.0406 -0.1391
 5130SOL    HW126852   2.753   3.909   0.022  0.3509  0.7882 -1.2944
 5130SOL    HW226853   2.619   3.962  17.681  1.5378  1.0622  0.8032
 5131SOL     OW26854   3.930   1.062  10.842  0.0878  0.3138  0.4003
 5131SOL    HW126855   3.931   1.146  10.888  0.1364  0.3111  0.4039
 5131SOL    HW226856   3.835   1.053  10.833 -0.0455  0.1005  1.9983
 5132SOL     OW26857   0.334   3.924  11.179 -0.1117 -0.0852 -0.3012
 5132SOL    HW126858   0.374   4.011  11.184  2.2523 -1.1252 -1.7388
 5132SOL    HW226859   0.297   3.925  11.268  2.4429 -0.1992  0.7460
 5133SOL     OW26860   0.371   4.235   9.444 -0.7254  0.3377  0.1480
 5133SOL    HW126861   0.311   4.296   9.401  0.4146  0.0054 -1.8964
 5133SOL    HW226862   0.456   4.272   9.421  0.2635 -2.2229 -0.2991
 5134SOL     OW26863   1.892   4.661   3.956  0.0367 -0.6786 -0.3106
 5134SOL    HW126864   1.906   4.704   4.041 -0.6097 -0.9679 -0.0588
 5134SOL    HW226865   1.857   4.575   3.978 -0.0628  0.2363  3.2249
 5135SOL     OW26866   0.215   3.541   8.859 -0.1613 -0.3373  0.2163
 5135SOL    HW126867   0.130   3.583   8.874 -0.0719 -0.4548  1.0404
 5135SOL    HW226868   0.207   3.526   8.765  0.7471  1.7868 -0.1824
 5136SOL     OW26869   1.847   1.984   3.134  0.2682 -0.2574  0.2894
 5136SOL    HW126870   1.921   2.014   3.187  0.0283  0.1619  0.3869
 5136SOL    HW226871   1.870   1.894   3.110  0.5276 -0.2448  0.4948
 5137SOL     OW26872   3.405   3.286   7.887  0.0885 -0.2544 -0.6906
 5137SOL    HW126873   3.414   3.370   7.841  0.1265  0.8151  1.2787
 5137SOL    HW226874   3.417   3.318   7.976  0.3412 -1.2972 -0.3579
 5138SOL     OW26875   4.490   1.947   7.627  0.5434 -0.0704 -0.4334
 5138SOL    HW126876   4.533   1.895   7.695 -0.5251 -1.8036 -1.0901
 5138SOL    HW226877   4.562   2.000   7.591 -1.6958  2.5429 -1.0269
 5139SOL     OW26878   3.466   4.172  10.814  0.2671  0.3593  0.3834
 5139SOL    HW126879   3.398   4.189  10.749 -0.7354 -0.5304  1.1985
 5139SOL    HW226880   3.477   4.079  10.796  0.1548 -0.1151  2.8387
 5140SOL     OW26881   2.032   1.119  13.035  0.1906  0.6231  0.3929
 5140SOL    HW126882   2.029   1.212  13.009  1.1457  0.3562 -0.6890
 5140SOL    HW226883   2.064   1.094  12.948 -0.1818  0.6137  0.2568
 5141SOL     OW26884   0.467   3.668   9.154  0.1027 -0.3954 -0.9275
 5141SOL    HW126885   0.474   3.739   9.218 -1.3408 -0.6640 -0.4729
 5141SOL    HW226886   0.372   3.663   9.149 -0.0379  1.3991  0.1171
 5142SOL     OW26887   0.947   2.651   9.417  0.3132 -0.8402  0.3395
 5142SOL    HW126888   0.920   2.560   9.406  0.3187 -0.7636 -0.2912
 5142SOL    HW226889   0.986   2.669   9.332  1.3108 -1.6877  0.6051
 5143SOL     OW26890   4.009   3.616   8.785  0.1730  0.1670  0.2609
 5143SOL    HW126891   3.983   3.643   8.873 -2.9432 -1.8505 -0.0364
 5143SOL    HW226892   4.096   3.582   8.806 -0.2030 -1.0636 -0.1543
 5144SOL     OW26893   3.708   0.546  10.132 -0.0931 -0.0032  0.5682
 5144SOL    HW126894   3.613   0.550  10.120 -0.0617  1.2841  0.7495
 5144SOL    HW226895   3.728   0.491  10.056  0.1538 -0.1883  0.7706
 5145SOL     OW26896   2.380   4.556  17.591 -0.2777 -0.1307 -0.5760
 5145SOL    HW126897   2.456   4.582  17.538 -0.2699  1.9023  0.4165
 5145SOL    HW226898   2.420   4.478  17.629 -0.1960 -0.6181 -1.6592
 5146SOL     OW26899   3.394   1.420   8.421 -0.7556  0.4146  0.6039
 5146SOL    HW126900   3.359   1.332   8.440  0.4770 -0.7879 -2.6615
 5146SOL    HW226901   3.439   1.441   8.503  2.9191 -2.0592 -0.7759
 5147SOL     OW26902   3.588   1.404  12.058  0.4523  0.5996  0.2030
 5147SOL    HW126903   3.530   1.479  12.045  2.0138  1.6985 -0.4478
 5147SOL    HW226904   3.664   1.438  12.011  0.5133 -1.8169 -1.4516
 5148SOL     OW26905   2.328   2.868  15.807 -0.0719 -0.2629 -0.8273
 5148SOL    HW126906   2.236   2.884  15.825  0.2368  1.4242 -0.7634
 5148SOL    HW226907   2.368   2.904  15.886 -0.8253 -0.8024 -0.2087
 5149SOL     OW26908   1.074   2.893   3.419 -0.0341  0.2814  0.6746
 5149SOL    HW126909   1.160   2.934   3.419  0.3465 -0.5155 -1.1234
 5149SOL    HW226910   1.044   2.914   3.330  0.8316  1.6781  0.7156
 5150SOL     OW26911   2.325   3.182   4.444 -0.2898  0.6872 -0.1493
 5150SOL    HW126912   2.326   3.198   4.349  2.0188  0.5553 -0.1536
 5150SOL    HW226913   2.409   3.210   4.479 -0.1826 -0.1155  0.2384
 5151SOL     OW26914   2.095   3.422  17.706 -0.2658  0.0093  0.6488
 5151SOL    HW126915   2.150   3.491  17.669 -0.1489  1.0801  2.8387
 5151SOL    HW226916   2.157   3.350  17.692  1.1228  1.1431  0.9994
 5152SOL     OW26917   2.446   1.149   4.468  1.2057  0.5379  0.0995
 5152SOL    HW126918   2.477   1.131   4.379 -4.3685 -1.6629 -1.4118
 5152SOL    HW226919   2.355   1.175   4.451  0.5992 -0.6692  1.5395
 5153SOL     OW26920   3.262   3.667  17.441 -0.1312 -0.1953 -0.0181
 5153SOL    HW126921   3.280   3.751  17.483  1.9912 -0.9073  0.4943
 5153SOL    HW226922   3.331   3.607  17.470  1.6880  2.5324  1.2800
 5154SOL     OW26923   0.337   2.948   8.199  0.4126 -0.2133  0.0937
 5154SOL    HW126924   0.328   2.958   8.294  1.7287  2.2750 -0.0355
 5154SOL    HW226925   0.261   3.003   8.183  0.9001  0.6197  0.6311
 5155SOL     OW26926   3.005   2.110  11.850 -0.0450 -0.2523  0.0449
 5155SOL    HW126927   2.951   2.100  11.928 -0.9188 -1.6833 -0.7478
 5155SOL    HW226928   3.069   2.168  11.892  0.8326 -0.1505 -1.3998
 5156SOL     OW26929   0.558   3.859   8.960 -0.1114 -0.2970  0.0809
 5156SOL    HW126930   0.519   3.840   9.046 -0.4999 -0.8826 -0.2220
 5156SOL    HW226931   0.490   3.818   8.907 -0.0247  1.1107 -1.1083
 5157SOL     OW26932   3.862   2.435  16.385  0.3736 -0.0695 -0.0171
 5157SOL    HW126933   3.815   2.453  16.304  0.6911  1.8845  0.2345
 5157SOL    HW226934   3.878   2.525  16.412 -1.5962  0.2465  0.0863
 5158SOL     OW26935   2.143   0.064   7.266  0.2377 -0.0047  0.0756
 5158SOL    HW126936   2.234   0.035   7.264 -0.2692 -1.5088 -1.0596
 5158SOL    HW226937   2.157   0.156   7.242 -1.1447  0.3344  0.5671
 5159SOL     OW26938   2.719   1.183   9.107 -0.8946  0.3761 -0.3539
 5159SOL    HW126939   2.687   1.211   9.021 -2.6527 -0.1159  0.1339
 5159SOL    HW226940   2.768   1.103   9.084  2.4904  2.4153 -0.2823
 5160SOL     OW26941   0.464   1.633   0.648  0.0680 -0.3414  0.8220
 5160SOL    HW126942   0.428   1.565   0.705 -0.4286  0.1072  1.0435
 5160SOL    HW226943   0.409   1.709   0.665 -2.0082 -1.9424  1.1597
 5161SOL     OW26944   2.171   0.139   4.487  0.1059  0.4572 -0.7825
 5161SOL    HW126945   2.173   0.074   4.558 -2.7513 -0.1165 -1.2051
 5161SOL    HW226946   2.109   0.201   4.526 -0.2109 -0.2694 -0.1226
 5162SOL     OW26947   1.996   3.124  15.983  0.1404 -0.4558  0.1933
 5162SOL    HW126948   2.048   3.204  15.995  1.2275 -0.7531 -2.5067
 5162SOL    HW226949   1.932   3.134  16.053 -0.0571  0.7987 -0.1537
 5163SOL     OW26950   4.058   0.281  14.649  0.3864  0.1665 -0.0836
 5163SOL    HW126951   3.997   0.209  14.643  0.5382 -0.2726  3.4597
 5163SOL    HW226952   4.084   0.282  14.741 -1.2201  0.2559  0.3646
 5164SOL     OW26953   0.151   1.782   3.945 -0.3637  0.9778  0.2293
 5164SOL    HW126954   0.130   1.870   3.977  1.2324  1.2053  0.6580
 5164SOL    HW226955   0.237   1.773   3.986 -0.4647 -0.3076  0.1418
 5165SOL     OW26956   1.931   2.092  15.486 -0.1812  0.4813  0.3178
 5165SOL    HW126957   1.912   2.032  15.414 -2.1795  1.7650 -0.2281
 5165SOL    HW226958   1.849   2.140  15.479 -0.8116 -0.3187  2.2973
 5166SOL     OW26959   0.526   0.765   6.527  0.2395  1.1522  0.5417
 5166SOL    HW126960   0.610   0.804   6.501 -0.9844  2.8497 -0.8311
 5166SOL    HW226961   0.553   0.703   6.595 -0.2915 -0.5612 -0.7927
 5167SOL     OW26962   1.726   4.387   2.614  0.9492 -0.3897  0.1255
 5167SOL    HW126963   1.673   4.308   2.624 -1.7541  1.5111  0.5648
 5167SOL    HW226964   1.815   4.360   2.590  0.8989  0.3743 -0.8697
 5168SOL     OW26965   4.624   3.060   7.096 -0.7864 -0.5606 -0.0592
 5168SOL    HW126966   4.698   3.114   7.068  0.2173 -1.9924 -0.1221
 5168SOL    HW226967   4.556   3.126   7.082  0.1882 -0.1141 -2.5593
 5169SOL     OW26968   3.553   0.100  11.964 -0.5241  0.3644  0.6390
 5169SOL    HW126969   3.643   0.110  11.995 -0.5727 -1.3634  1.3573
 5169SOL    HW226970   3.507   0.094  12.048 -3.2133  1.8686 -0.7198
 5170SOL     OW26971   0.030   1.455   3.668  0.0542  0.3617  0.3268
 5170SOL    HW126972   0.111   1.498   3.642 -0.3470 -0.5462 -2.4257
 5170SOL    HW226973   0.060   1.366   3.687  0.6926  0.6324  0.6027
 5171SOL     OW26974   0.340   4.002   5.197  0.3104  0.0897  0.1266
 5171SOL    HW126975   0.245   4.015   5.202  0.1523 -0.7566 -0.5759
 5171SOL    HW226976   0.364   3.978   5.286  1.7954 -1.9912 -0.8442
 5172SOL     OW26977   1.458   0.821   2.836  0.1350  0.0214 -0.0558
 5172SOL    HW126978   1.388   0.860   2.783 -1.4603 -0.6851  1.4955
 5172SOL    HW226979   1.456   0.733   2.798  0.0835 -0.5538  1.2765
 5173SOL     OW26980   1.510   4.437   3.355 -0.0732  0.2041  0.2531
 5173SOL    HW126981   1.597   4.401   3.374 -0.6139 -0.6788  1.1088
 5173SOL    HW226982   1.513   4.519   3.404  0.6019  0.9320 -1.0390
 5174SOL     OW26983   0.754   0.745  15.972  0.0100  0.0037 -0.4423
 5174SOL    HW126984   0.784   0.828  15.937 -0.8184  1.0599  1.3415
 5174SOL    HW226985   0.807   0.748  16.052  0.4031  2.5253 -0.8023
 5175SOL     OW26986   1.906   4.140  10.888 -0.3047 -0.2281 -0.2177
 5175SOL    HW126987   1.952   4.213  10.930 -0.0335 -0.1845 -0.5924
 5175SOL    HW226988   1.823   4.147  10.934  0.2484 -2.0815  1.0371
 5176SOL     OW26989   4.138   3.290  11.917 -0.3649 -0.4368 -0.4350
 5176SOL    HW126990   4.081   3.366  11.930  0.2371 -0.1601  0.5921
 5176SOL    HW226991   4.224   3.333  11.915  0.3842 -1.8840  0.6007
 5177SOL     OW26992   2.694   4.495   3.547  0.4990 -0.0675 -0.0320
 5177SOL    HW126993   2.686   4.553   3.471 -2.0819 -0.3108  0.0832
 5177SOL    HW226994   2.630   4.427   3.528  0.2936 -0.0027  0.4385
 5178SOL     OW26995   3.371   4.608   3.301 -0.5340  0.5504  0.3660
 5178SOL    HW126996   3.337   4.603   3.212  1.7191  2.7296 -0.6031
 5178SOL    HW226997   3.285   4.631   3.337 -0.3410  0.3140  0.9893
 5179SOL     OW26998   3.651   0.238   6.780  0.2128  0.1118 -0.3535
 5179SOL    HW126999   3.614   0.326   6.788 -2.3939 -1.1162  1.3549
 5179SOL    HW227000   3.575   0.186   6.751  0.0583 -0.6823  1.4533
 5180SOL     OW27001   3.249   0.030   5.891 -0.3712  0.2061  0.5813
 5180SOL    HW127002   3.253   0.107   5.948  0.4394  2.2984 -2.3041
 5180SOL    HW227003   3.271   4.687   5.952  1.3205  0.6398  0.4611
 5181SOL     OW27004   2.205   0.074   6.265  0.0115 -0.4004 -0.6804
 5181SOL    HW127005   2.153   0.077   6.184  0.4070  1.8635 -0.8319
 5181SOL    HW227006   2.142   0.022   6.315  0.5127 -0.1669  0.1774
 5182SOL     OW27007   2.005   2.065   7.915  0.2867  0.1711 -0.5155
 5182SOL    HW127008   2.005   2.093   8.007  2.6432 -2.1500  0.2091
 5182SOL    HW227009   1.957   1.987   7.942  0.3670  0.1069 -0.5584
 5183SOL     OW27010   2.970   3.586   4.357 -0.2235  0.6420 -0.7471
 5183SOL    HW127011   2.921   3.520   4.407  1.5349  0.8999  1.3506
 5183SOL    HW227012   2.898   3.645   4.337  0.6882  2.3402  0.9771
 5184SOL     OW27013   3.543   1.224  15.562 -0.0158  0.2777 -0.0334
 5184SOL    HW127014   3.589   1.306  15.582  0.2203 -0.3204  1.9072
 5184SOL    HW227015   3.613   1.183  15.510  0.5198 -1.0464  1.6825
 5185SOL     OW27016   4.544   1.181   4.783 -0.0848  0.7308  0.2664
 5185SOL    HW127017   4.464   1.188   4.731  0.7895 -0.1370 -1.2064
 5185SOL    HW227018   4.610   1.220   4.725  0.2643  1.3721  1.1003
 5186SOL     OW27019   2.634   0.951   2.980  0.1658  0.2679 -0.1583
 5186SOL    HW127020   2.723   0.951   2.943  0.1825 -0.7098 -0.1245
 5186SOL    HW227021   2.613   1.043   2.964 -1.8559 -0.3662 -1.0819
 5187SOL     OW27022   1.108   0.395   8.843 -0.0160 -0.1242  0.0359
 5187SOL    HW127023   1.137   0.390   8.934 -1.3243 -0.9119  0.4213
 5187SOL    HW227024   1.167   0.336   8.797  1.1860  0.8301  0.3607
 5188SOL     OW27025   4.498   0.312   7.730 -0.0961 -0.0609  0.3009
 5188SOL    HW127026   4.441   0.243   7.696  1.1894 -0.8156 -0.3179
 5188SOL    HW227027   4.583   0.271   7.747 -0.6153 -1.5704 -0.7929
 5189SOL     OW27028   0.921   0.518  15.830 -0.2191  0.2266 -0.1384
 5189SOL    HW127029   0.856   0.544  15.895  0.0806  2.2576 -0.6512
 5189SOL    HW227030   0.972   0.597  15.816  0.2702 -0.3484 -1.6123
 5190SOL     OW27031   3.547   0.513   6.499  0.1586 -0.7869  0.1016
 5190SOL    HW127032   3.581   0.532   6.586 -2.1231  0.1152  0.8211
 5190SOL    HW227033   3.455   0.534   6.515  0.6799 -0.1562  2.2855
 5191SOL     OW27034   4.718   3.987   9.261  0.5813 -0.2470  0.8462
 5191SOL    HW127035   4.721   3.948   9.174 -0.1359 -1.5942  1.4219
 5191SOL    HW227036   0.058   3.936   9.307  1.1895 -1.3844 -1.3131
 5192SOL     OW27037   3.004   4.314   9.240  0.3014  0.0438 -0.3725
 5192SOL    HW127038   2.943   4.258   9.288 -1.3435  2.1341 -0.0583
 5192SOL    HW227039   3.002   4.387   9.302  1.5889  0.3528 -0.6957
 5193SOL     OW27040   3.375   0.753   0.480  0.4661  0.1777 -0.0749
 5193SOL    HW127041   3.310   0.722   0.544  1.8693 -0.4740  1.0213
 5193SOL    HW227042   3.403   0.826   0.536  1.4768 -0.7603  0.6546
 5194SOL     OW27043   1.297   4.525  15.494  0.1738 -0.5959  0.3358
 5194SOL    HW127044   1.307   4.464  15.420 -0.8282 -1.2775  0.7547
 5194SOL    HW227045   1.373   4.582  15.486 -0.4535  0.4432  2.0122
 5195SOL     OW27046   0.868   0.452  11.149 -0.3304  0.0976  0.8419
 5195SOL    HW127047   0.869   0.372  11.096  0.3987 -0.0163  1.0342
 5195SOL    HW227048   0.849   0.515  11.079  1.4657  1.4710  1.6215
 5196SOL     OW27049   4.396   2.337  12.752  0.5350  0.6213 -0.1274
 5196SOL    HW127050   4.380   2.402  12.820  1.2740 -0.4265  1.0429
 5196SOL    HW227051   4.355   2.386  12.681 -4.2717 -1.0555  1.4688
 5197SOL     OW27052   2.540   3.673   1.927  0.5170  0.2353  0.3333
 5197SOL    HW127053   2.532   3.727   2.005  0.5446 -0.2420  0.6593
 5197SOL    HW227054   2.632   3.676   1.899  0.4209 -1.9163 -0.2176
 5198SOL     OW27055   0.216   0.301   3.273  0.3048  0.0148 -0.0532
 5198SOL    HW127056   0.271   0.379   3.272 -0.3679  0.5163  1.5821
 5198SOL    HW227057   0.160   0.317   3.349 -0.2784 -0.7488 -0.3233
 5199SOL     OW27058   1.625   2.617   5.089 -0.2678 -0.3051 -0.1771
 5199SOL    HW127059   1.566   2.556   5.133 -0.1589 -0.0035  0.3992
 5199SOL    HW227060   1.654   2.661   5.169  1.0646  0.1062 -0.8862
 5200SOL     OW27061   4.180   1.900  10.029  0.3903 -0.0810  0.1238
 5200SOL    HW127062   4.184   1.996  10.027 -2.3604  0.0209  0.2703
 5200SOL    HW227063   4.111   1.885   9.964  0.6025 -0.7909  0.0663
 5201SOL     OW27064   3.831   1.978   2.044 -0.2405 -0.0240 -0.2677
 5201SOL    HW127065   3.858   1.886   2.047 -0.6782 -0.1612 -0.4999
 5201SOL    HW227066   3.789   1.964   1.959 -1.1899  2.8316 -0.2587
 5202SOL     OW27067   0.828   3.208   3.912  0.2581  0.4315  0.6363
 5202SOL    HW127068   0.888   3.250   3.974  1.5821 -0.3149 -0.1546
 5202SOL    HW227069   0.871   3.126   3.889  0.2836  0.9612 -1.2801
 5203SOL     OW27070   3.676   2.139   6.130 -0.0161  0.0767  0.0438
 5203SOL    HW127071   3.649   2.217   6.178 -0.2626 -0.5177  0.8820
 5203SOL    HW227072   3.607   2.128   6.065 -0.4686  1.0731  0.3534
 5204SOL     OW27073   1.106   4.068   7.878 -0.0430 -0.0160  0.1851
 5204SOL    HW127074   1.099   4.000   7.811 -1.4159 -1.2840  1.6287
 5204SOL    HW227075   1.198   4.065   7.905  0.6867  3.6795 -1.8568
 5205SOL     OW27076   4.589   3.910   4.270  0.4777  0.4478 -0.2880
 5205SOL    HW127077   4.562   3.819   4.265 -0.8248  0.7745  0.6446
 5205SOL    HW227078   4.675   3.910   4.312  0.5572 -0.2126 -0.4668
 5206SOL     OW27079   4.235   0.393  14.208 -0.4891 -0.2421  0.0997
 5206SOL    HW127080   4.310   0.450  14.198 -0.3405 -0.1488  1.6565
 5206SOL    HW227081   4.268   0.306  14.186 -1.4931 -0.4975 -0.3760
 5207SOL     OW27082   4.433   1.261  14.396 -0.0869  0.0169 -0.3075
 5207SOL    HW127083   4.516   1.306  14.410  0.1833 -1.4049  2.7274
 5207SOL    HW227084   4.389   1.306  14.324  1.4190 -0.0713 -1.2685
 5208SOL     OW27085   3.362   3.271   9.522  0.3934 -0.3983  0.1758
 5208SOL    HW127086   3.438   3.214   9.534  0.9742  0.5100  0.7639
 5208SOL    HW227087   3.384   3.335   9.589  1.1700  2.5582 -2.9248
 5209SOL     OW27088   1.312   3.986  17.639  0.1663 -0.1193  0.8598
 5209SOL    HW127089   1.386   3.929  17.659  1.6608  1.7906  0.6956
 5209SOL    HW227090   1.241   3.922  17.628  0.2992 -0.2287  0.6310
 5210SOL     OW27091   0.161   1.276   8.189 -0.2395 -0.5213 -0.3720
 5210SOL    HW127092   0.202   1.360   8.211 -0.0933 -0.4194 -1.0128
 5210SOL    HW227093   0.067   1.282   8.208 -0.1240  0.8373 -0.1656
 5211SOL     OW27094   0.617   3.732  15.394 -0.3940  0.1336  0.6776
 5211SOL    HW127095   0.545   3.786  15.427  0.4509  0.0021  2.7600
 5211SOL    HW227096   0.579   3.687  15.319 -0.0614  1.4338 -0.2761
 5212SOL     OW27097   3.675   0.676  17.698 -0.0184 -0.5337 -0.0764
 5212SOL    HW127098   3.659   0.635   0.075 -1.2282 -0.0399 -0.0628
 5212SOL    HW227099   3.598   0.731  17.683  0.3846 -0.4226 -1.8084
 5213SOL     OW27100   4.464   1.513   8.494 -0.0804  0.7434 -0.1845
 5213SOL    HW127101   4.523   1.560   8.434  0.2923 -0.3453 -0.6652
 5213SOL    HW227102   4.409   1.585   8.526  0.5462  1.5192 -0.8555
 5214SOL     OW27103   0.066   2.790   3.449  0.4672  0.7878  0.0754
 5214SOL    HW127104   0.117   2.808   3.529  1.8225  3.9689 -1.4728
 5214SOL    HW227105   0.082   2.874   3.405  0.3702  0.4809 -0.5464
 5215SOL     OW27106   3.467   4.482   8.071  0.2528 -0.2558 -0.5653
 5215SOL    HW127107   3.468   4.572   8.036 -0.6014  0.0925  0.3331
 5215SOL    HW227108   3.561   4.463   8.067  0.4465  0.6537 -0.2424
 5216SOL     OW27109   4.297   0.887   9.242 -0.2415 -0.5604  0.4617
 5216SOL    HW127110   4.250   0.941   9.178 -0.8868 -0.9489  0.6125
 5216SOL    HW227111   4.384   0.922   9.221 -0.2109 -1.1876 -0.4455
 5217SOL     OW27112   0.948   3.900   9.701 -0.0654  0.6690 -0.3214
 5217SOL    HW127113   0.963   3.890   9.795 -1.0174  2.8944  0.0486
 5217SOL    HW227114   0.987   3.986   9.688  2.1232 -0.3093 -0.2527
 5218SOL     OW27115   2.735   3.958   6.529 -0.3605 -0.4863  0.3671
 5218SOL    HW127116   2.673   3.921   6.465 -0.9987  0.9508  0.1477
 5218SOL    HW227117   2.815   3.907   6.520  0.2985  0.4499  0.9217
 5219SOL     OW27118   0.176   3.447  10.744  0.8264 -0.0008 -0.5504
 5219SOL    HW127119   0.185   3.471  10.652  1.8118 -0.8191 -0.6608
 5219SOL    HW227120   0.243   3.505  10.779  2.5618 -1.5091 -1.3946
 5220SOL     OW27121   1.293   2.230   5.506  0.1640 -0.4244  0.6239
 5220SOL    HW127122   1.348   2.241   5.428 -0.3590  0.3942  0.3789
 5220SOL    HW227123   1.344   2.161   5.547 -1.9112 -0.5688  2.9520
 5221SOL     OW27124   4.057   3.355   7.155 -0.2461 -0.1356  0.5329
 5221SOL    HW127125   4.110   3.279   7.179  0.2005  0.2928  0.9239
 5221SOL    HW227126   3.991   3.313   7.101 -1.3079  0.6031  1.2527
 5222SOL     OW27127   3.347   0.649  17.679  0.1666 -0.6047 -0.2155
 5222SOL    HW127128   3.313   0.712   0.034  0.4057  0.8900 -1.5708
 5222SOL    HW227129   3.391   0.589   0.030 -0.3365  0.6237  1.3806
 5223SOL     OW27130   1.182   4.559   6.081  0.3073  0.0321 -0.3930
 5223SOL    HW127131   1.166   4.467   6.101 -2.5155  0.1314 -2.2592
 5223SOL    HW227132   1.278   4.563   6.089  0.2380 -0.3656  0.5722
 5224SOL     OW27133   0.599   4.243   9.868  0.1815  0.0436 -0.5235
 5224SOL    HW127134   0.551   4.182   9.925 -0.5176  0.4450 -0.6704
 5224SOL    HW227135   0.601   4.316   9.930  1.4143 -0.6086  0.1892
 5225SOL     OW27136   2.135   1.801   3.803 -0.3448  0.2150 -0.6712
 5225SOL    HW127137   2.146   1.818   3.896 -2.3031 -1.0380 -0.1947
 5225SOL    HW227138   2.136   1.705   3.800 -0.9322  0.1844  0.0755
 5226SOL     OW27139   3.972   3.303   9.054  0.5615 -0.2075 -0.3538
 5226SOL    HW127140   3.911   3.374   9.031 -1.1310 -1.7501 -0.6643
 5226SOL    HW227141   3.947   3.287   9.145 -1.5908  1.1622 -0.6851
 5227SOL     OW27142   0.796   0.009   3.673  0.5093 -0.3252 -0.0968
 5227SOL    HW127143   0.744   4.725   3.593 -1.0845  1.2392  0.7237
 5227SOL    HW227144   0.853   0.083   3.653 -0.9227  1.4410  2.4405
 5228SOL     OW27145   1.113   3.880   0.286  0.4074  0.0076 -0.1525
 5228SOL    HW127146   1.186   3.850   0.339  1.2921  2.4173 -0.0040
 5228SOL    HW227147   1.137   3.842   0.202  1.4616  2.6988 -1.0539
 5229SOL     OW27148   4.582   1.981   3.866  0.2021 -0.0450 -0.3767
 5229SOL    HW127149   4.594   1.893   3.830 -1.9991 -0.8879  0.8957
 5229SOL    HW227150   4.657   1.992   3.924 -0.7931 -2.1876  1.3143
 5230SOL     OW27151   3.273   1.773  15.419  0.5278  0.6584  0.7640
 5230SOL    HW127152   3.290   1.867  15.411  3.2048  0.1717  0.8641
 5230SOL    HW227153   3.196   1.761  15.363  2.2957  0.6227 -1.6874
 5231SOL     OW27154   4.024   1.393   5.894  0.0209  0.4009  0.6697
 5231SOL    HW127155   4.100   1.442   5.928 -0.5107  1.4288  0.3615
 5231SOL    HW227156   4.076   1.317   5.867 -1.0815  0.7071 -2.2293
 5232SOL     OW27157   4.223   3.425   7.897  0.6508 -0.4158 -0.2320
 5232SOL    HW127158   4.311   3.428   7.934  1.5631  0.5807 -2.5151
 5232SOL    HW227159   4.235   3.475   7.816  3.9949  2.4257  1.9855
 5233SOL     OW27160   3.190   0.955  16.866  0.2549  0.3144  0.0467
 5233SOL    HW127161   3.138   1.031  16.841  1.0153  0.6062 -0.6652
 5233SOL    HW227162   3.148   0.893  16.806  0.7035 -0.4318  0.5144
 5234SOL     OW27163   4.535   1.391   4.968  0.1954 -0.2856 -0.2238
 5234SOL    HW127164   4.513   1.320   4.908 -2.0568  0.9619 -0.8611
 5234SOL    HW227165   4.472   1.460   4.950  1.0436  0.5994  0.1724
 5235SOL     OW27166   4.458   0.605   5.410  0.0505  0.1729  0.0968
 5235SOL    HW127167   4.404   0.660   5.467  0.6100 -1.0307  1.7677
 5235SOL    HW227168   4.408   0.607   5.328 -1.2773 -2.7570  0.8386
 5236SOL     OW27169   0.264   0.340   4.986 -0.4307  0.6581  0.2426
 5236SOL    HW127170   0.180   0.295   4.998 -0.6504  0.7448 -1.0265
 5236SOL    HW227171   0.302   0.320   5.072  2.5624  1.8638 -0.8091
 5237SOL     OW27172   2.142   3.123   6.187 -0.0521  0.1695  0.5614
 5237SOL    HW127173   2.094   3.203   6.210  0.9874  1.1758 -0.7157
 5237SOL    HW227174   2.154   3.076   6.269 -0.9330  0.2953  0.7635
 5238SOL     OW27175   3.029   2.826   5.160  0.5922 -0.0650  0.2484
 5238SOL    HW127176   3.051   2.909   5.119 -2.6595  0.8639  0.3697
 5238SOL    HW227177   3.112   2.779   5.159  0.6967  0.1462 -1.3734
 5239SOL     OW27178   3.150   3.617   2.900 -0.3316 -0.3250  0.0002
 5239SOL    HW127179   3.136   3.523   2.888  0.4300 -0.1604 -2.1987
 5239SOL    HW227180   3.127   3.615   2.993 -0.6863 -0.0603 -0.0792
 5240SOL     OW27181   4.091   0.517   6.083 -0.4849  0.5478 -0.4891
 5240SOL    HW127182   4.051   0.574   6.148  2.6728  1.4705  0.6901
 5240SOL    HW227183   4.039   0.530   6.005 -1.5397 -1.9517 -0.2157
 5241SOL     OW27184   2.102   1.184   0.053  0.0014  0.1487  0.1617
 5241SOL    HW127185   2.175   1.214  17.708 -1.0140 -0.3892 -1.5325
 5241SOL    HW227186   2.074   1.269   0.089 -2.5113 -0.0084 -1.4615
 5242SOL     OW27187   3.205   0.989   5.363 -0.3035 -0.0950  0.1145
 5242SOL    HW127188   3.244   1.019   5.445 -2.1730 -0.1067  0.9888
 5242SOL    HW227189   3.125   1.041   5.357 -0.0107  0.0430 -2.4046
 5243SOL     OW27190   2.304   0.322   6.130 -0.3456  0.2538 -0.6560
 5243SOL    HW127191   2.399   0.337   6.128 -0.5653  1.4145 -1.5906
 5243SOL    HW227192   2.285   0.274   6.211 -1.6312  2.1280  0.1566
 5244SOL     OW27193   2.205   4.541   7.473 -0.3288  0.3851 -0.3164
 5244SOL    HW127194   2.215   4.623   7.521 -1.6842  0.8585 -0.8529
 5244SOL    HW227195   2.198   4.578   7.385 -2.0060 -1.5498 -0.9919
 5245SOL     OW27196   0.748   0.749   7.894  0.1562  0.0703 -0.6899
 5245SOL    HW127197   0.745   0.714   7.983  0.4670 -0.1164 -0.7531
 5245SOL    HW227198   0.654   0.766   7.882  0.0448 -0.0545  0.0010
 5246SOL     OW27199   4.540   1.245   5.953  0.1687 -0.2589 -0.1811
 5246SOL    HW127200   4.607   1.233   6.020 -0.1475  1.5189  0.4430
 5246SOL    HW227201   4.463   1.235   6.009 -2.3687 -0.2777 -3.6321
 5247SOL     OW27202   2.027   0.686   3.292 -0.5693  0.5489  0.1491
 5247SOL    HW127203   2.030   0.733   3.375  1.9454 -0.0066  0.3914
 5247SOL    HW227204   2.108   0.712   3.247 -0.1297  0.0962  0.6778
 5248SOL     OW27205   3.267   1.872   6.359  0.3728 -0.3926  0.1956
 5248SOL    HW127206   3.203   1.861   6.429  0.6003 -1.7749  0.2023
 5248SOL    HW227207   3.295   1.960   6.382 -1.3585  0.4716 -1.0372
 5249SOL     OW27208   4.396   4.148   2.676 -0.1809  0.1966 -0.0717
 5249SOL    HW127209   4.362   4.237   2.666  1.0987  0.5620 -1.2257
 5249SOL    HW227210   4.316   4.101   2.653 -0.1843 -0.0079  0.3682
 5250SOL     OW27211   1.280   3.816   2.386  0.1668  0.2963  0.0274
 5250SOL    HW127212   1.201   3.761   2.389 -0.7407  1.6293  0.2039
 5250SOL    HW227213   1.322   3.782   2.307  2.8480  0.9998  1.1327
 5251SOL     OW27214   4.010   2.822   5.601  0.1982  0.2119  0.0231
 5251SOL    HW127215   4.040   2.900   5.554 -0.0607  2.7271  4.0584
 5251SOL    HW227216   4.042   2.842   5.689 -0.0111  0.8441 -0.0465
 5252SOL     OW27217   1.830   4.222   7.127 -0.1727  0.1386  0.0217
 5252SOL    HW127218   1.768   4.252   7.193 -0.3960 -1.0846  0.3621
 5252SOL    HW227219   1.839   4.129   7.147 -3.1921 -0.2225 -0.3902
 5253SOL     OW27220   2.172   2.344   2.677 -0.4561  0.3602 -0.0525
 5253SOL    HW127221   2.123   2.397   2.740 -0.3083 -2.1647  2.1677
 5253SOL    HW227222   2.107   2.335   2.607 -1.1397 -0.4611  0.6877
 5254SOL     OW27223   4.625   2.697   8.070  0.2038  0.5746  0.3492
 5254SOL    HW127224   4.688   2.769   8.073  0.6813  0.1135  1.6958
 5254SOL    HW227225   4.550   2.737   8.114  1.1014 -0.2552  2.6302
 5255SOL     OW27226   3.096   4.060   3.293 -0.5914 -0.2748 -0.0241
 5255SOL    HW127227   3.149   4.014   3.359  0.4432  1.0794  0.0921
 5255SOL    HW227228   3.161   4.120   3.256 -0.1678 -1.8081 -1.7842
 5256SOL     OW27229   3.405   3.758   6.041  0.6521  0.0011 -0.2405
 5256SOL    HW127230   3.353   3.835   6.064 -0.4120 -1.2333  1.5032
 5256SOL    HW227231   3.492   3.797   6.045  0.3992  0.3322  2.0672
 5257SOL     OW27232   1.544   2.152   0.914 -0.2717  0.1500  0.1000
 5257SOL    HW127233   1.544   2.248   0.915  0.0743  0.1531 -0.4988
 5257SOL    HW227234   1.492   2.131   0.992  0.5245  1.9438  1.1354
 5258SOL     OW27235   2.990   3.066   8.306 -0.0772 -0.2672 -0.0284
 5258SOL    HW127236   2.913   3.121   8.302  1.1522  1.4782  0.2325
 5258SOL    HW227237   3.057   3.134   8.318  1.0684 -1.5128  0.6940
 5259SOL     OW27238   3.094   1.931  10.385 -0.3556  0.0549 -0.0177
 5259SOL    HW127239   3.157   1.993  10.421 -1.9086  0.9783  1.1147
 5259SOL    HW227240   3.110   1.843  10.420  0.6181 -0.3455 -1.4755
 5260SOL     OW27241   2.197   4.094  15.962 -0.0692  1.0014  0.7654
 5260SOL    HW127242   2.257   4.145  16.016 -0.8163  0.1545  2.3926
 5260SOL    HW227243   2.167   4.148  15.889 -2.4420  0.4733  1.3332
 5261SOL     OW27244   4.136   0.601  13.851  0.7122 -0.2188 -0.3548
 5261SOL    HW127245   4.092   0.523  13.885  1.7162 -0.1846  1.0518
 5261SOL    HW227246   4.146   0.579  13.758  1.7677 -0.1675 -0.2568
 5262SOL     OW27247   0.734   3.529   0.600  0.1762  0.1322  0.2815
 5262SOL    HW127248   0.685   3.588   0.656  0.1091  0.0398  0.3212
 5262SOL    HW227249   0.797   3.595   0.571 -0.8476  1.3124  0.7620
 5263SOL     OW27250   3.293   0.274   7.489 -0.2489 -0.1899 -0.0359
 5263SOL    HW127251   3.261   0.327   7.416  0.6248 -1.7762 -1.5916
 5263SOL    HW227252   3.321   0.342   7.550 -0.7495  0.4045 -0.4662
 5264SOL     OW27253   0.343   4.141   0.074 -0.0787  0.2483  0.4370
 5264SOL    HW127254   0.338   4.076   0.004  0.2328  0.4263  0.2496
 5264SOL    HW227255   0.308   4.089   0.146 -0.7118 -1.8921 -1.3930
 5265SOL     OW27256   4.183   2.936   4.001 -0.3249 -0.5670  0.2216
 5265SOL    HW127257   4.120   2.920   4.071 -2.2520 -0.9493 -1.6049
 5265SOL    HW227258   4.250   2.982   4.052 -1.5371  1.2590  0.1671
 5266SOL     OW27259   4.572   3.486   6.458  0.3737 -0.1228 -0.1236
 5266SOL    HW127260   4.664   3.474   6.435 -0.6375 -1.6808 -3.2278
 5266SOL    HW227261   4.529   3.447   6.383  2.6338 -0.7125 -1.1164
 5267SOL     OW27262   2.962   1.630  17.118  0.2233  0.6100  0.4446
 5267SOL    HW127263   3.001   1.711  17.085  0.8423  0.4065  0.6873
 5267SOL    HW227264   2.871   1.643  17.090 -0.0498 -1.6689  0.2874
 5268SOL     OW27265   3.971   4.549   4.546  0.1335 -0.2085 -0.0368
 5268SOL    HW127266   4.005   4.590   4.625 -0.4239 -0.0901  0.1445
 5268SOL    HW227267   3.937   4.465   4.576 -0.2627 -0.0926 -0.1563
 5269SOL     OW27268   3.188   3.299   0.058 -0.7804 -0.1978  0.6041
 5269SOL    HW127269   3.149   3.217   0.028 -0.2236 -0.4820  0.6688
 5269SOL    HW227270   3.275   3.265   0.081 -0.6732  1.2158  2.2811
 5270SOL     OW27271   4.306   2.756   4.920 -0.0568 -0.2383 -0.4690
 5270SOL    HW127272   4.299   2.669   4.879 -1.5076 -0.4136  0.1489
 5270SOL    HW227273   4.258   2.810   4.856  2.0204  2.1263 -0.0115
 5271SOL     OW27274   0.282   1.693   7.052 -0.0017 -0.0186 -0.3046
 5271SOL    HW127275   0.246   1.760   6.993  0.2168  0.8988  0.6012
 5271SOL    HW227276   0.320   1.764   7.104  0.6100  0.4604 -1.3900
 5272SOL     OW27277   4.348   3.315   8.271  0.3645  0.0070 -0.2158
 5272SOL    HW127278   4.349   3.322   8.367 -0.4216  0.0688 -0.2186
 5272SOL    HW227279   4.296   3.391   8.248 -1.2303 -0.6633  1.1882
 5273SOL     OW27280   1.751   3.844  13.050 -0.5950 -0.1104  0.1056
 5273SOL    HW127281   1.679   3.900  13.021  0.2522  0.3613 -1.0668
 5273SOL    HW227282   1.757   3.780  12.979 -2.7519 -1.2133  0.9019
 5274SOL     OW27283   0.084   2.218   9.164  0.0201  0.1402  0.2173
 5274SOL    HW127284   0.180   2.215   9.166  0.0711  1.5565 -0.5012
 5274SOL    HW227285   0.057   2.148   9.104  0.0934  0.9247 -0.7292
 5275SOL     OW27286   0.130   2.817   6.823  0.5394  0.8000  0.4437
 5275SOL    HW127287   0.043   2.852   6.802  0.0358 -1.1129 -0.6159
 5275SOL    HW227288   0.113   2.727   6.851 -1.0432  1.2581  0.9621
 5276SOL     OW27289   2.484   4.306   3.516 -0.0333  0.4176 -0.3790
 5276SOL    HW127290   2.395   4.315   3.481 -0.0349 -1.4438 -0.8334
 5276SOL    HW227291   2.515   4.222   3.482  0.9411  0.3082  0.7864
 5277SOL     OW27292   4.653   1.620   8.329  0.3360  0.2681  0.5575
 5277SOL    HW127293   4.710   1.552   8.365 -0.5446 -0.9805 -0.4157
 5277SOL    HW227294   4.714   1.685   8.294 -0.5253  0.6008 -0.3124
 5278SOL     OW27295   1.660   0.341   4.889  0.4028  0.0025  0.6645
 5278SOL    HW127296   1.664   0.399   4.965  0.6035 -0.0046  0.6592
 5278SOL    HW227297   1.710   0.267   4.922 -0.2481  0.2184  2.1181
 5279SOL     OW27298   4.126   2.226   2.799  0.3957  0.1131 -0.6631
 5279SOL    HW127299   4.075   2.259   2.725  0.0140  0.2078 -0.3566
 5279SOL    HW227300   4.186   2.301   2.796 -0.0952  0.5551  1.2907
 5280SOL     OW27301   1.438   4.607   1.849  0.4513  0.2431 -0.0395
 5280SOL    HW127302   1.364   4.596   1.909  1.2404  3.0399  1.4498
 5280SOL    HW227303   1.412   4.673   1.786  0.0333 -1.1423 -1.3282
 5281SOL     OW27304   0.340   1.299   5.482  0.8353  0.0830  0.1819
 5281SOL    HW127305   0.286   1.301   5.403  0.7228 -1.2966  0.2149
 5281SOL    HW227306   0.350   1.206   5.501  0.4494  0.5412  2.5982
 5282SOL     OW27307   0.583   4.416   7.125  0.5496  0.4730 -0.0150
 5282SOL    HW127308   0.557   4.330   7.095  0.5585 -0.3066  2.2239
 5282SOL    HW227309   0.632   4.392   7.203 -1.6868 -0.6062  1.0452
 5283SOL     OW27310   0.738   0.910   1.386 -0.0763  0.2680 -0.5875
 5283SOL    HW127311   0.732   0.886   1.478 -1.5281 -1.1453 -1.0457
 5283SOL    HW227312   0.650   0.946   1.370  1.0559  2.3777 -2.1130
 5284SOL     OW27313   2.833   4.588  15.624 -0.1391 -0.4637  0.3841
 5284SOL    HW127314   2.819   4.652  15.555  2.6423  2.2128  2.2887
 5284SOL    HW227315   2.874   4.639  15.694  0.3211  3.1618 -2.5198
 5285SOL     OW27316   1.665   2.390  14.537 -0.0122 -0.1502 -0.4054
 5285SOL    HW127317   1.676   2.443  14.458  1.2697  1.1417  0.6348
 5285SOL    HW227318   1.729   2.325  14.512 -0.6444 -0.9229 -0.0252
 5286SOL     OW27319   4.610   1.214   6.488 -0.2062  0.1223  0.3177
 5286SOL    HW127320   4.698   1.212   6.527 -0.1906  2.2088  0.3744
 5286SOL    HW227321   4.608   1.307   6.465 -3.0468 -0.6079 -2.2948
 5287SOL     OW27322   2.641   3.994   5.096  0.3425 -0.9202 -0.4630
 5287SOL    HW127323   2.585   3.916   5.099 -1.4149  0.4110  0.8624
 5287SOL    HW227324   2.587   4.045   5.037 -1.1687 -1.3304  0.5801
 5288SOL     OW27325   2.856   2.613   2.711  0.2387 -0.2257  0.2862
 5288SOL    HW127326   2.899   2.678   2.655 -0.4215 -0.3473 -0.3560
 5288SOL    HW227327   2.872   2.660   2.793 -1.2149 -0.1976  0.5528
 5289SOL     OW27328   3.067   1.400   3.366 -0.6270  0.9340  0.1659
 5289SOL    HW127329   3.073   1.487   3.327  0.5574 -0.5883 -3.0130
 5289SOL    HW227330   3.161   1.391   3.383 -0.5026  0.9275 -0.5280
 5290SOL     OW27331   3.145   1.072   0.584 -0.0342  0.3071 -0.6119
 5290SOL    HW127332   3.188   0.999   0.628  0.2741  0.6965 -0.2684
 5290SOL    HW227333   3.053   1.047   0.578  0.3951 -1.6266  0.8424
 5291SOL     OW27334   2.477   0.147  17.169 -0.1764 -0.1099  0.1832
 5291SOL    HW127335   2.397   0.199  17.171  1.5494  2.4518  2.7854
 5291SOL    HW227336   2.447   0.071  17.219 -1.7276 -1.0485 -2.1653
 5292SOL     OW27337   1.026   0.528   8.347  0.2646 -0.6706 -0.2166
 5292SOL    HW127338   1.028   0.624   8.336  0.5246 -0.3307  2.8624
 5292SOL    HW227339   0.941   0.508   8.385  0.2397  0.1508  0.1860
 5293SOL     OW27340   1.401   1.203   8.543 -0.2975  0.4199 -0.2877
 5293SOL    HW127341   1.462   1.230   8.611 -0.1272 -1.7761  0.4430
 5293SOL    HW227342   1.328   1.161   8.590  0.2603  1.1647  1.2237
 5294SOL     OW27343   1.000   3.550   4.668 -0.1465  0.3342  0.1662
 5294SOL    HW127344   1.077   3.553   4.726  1.8707 -1.8669 -2.4245
 5294SOL    HW227345   0.924   3.563   4.726 -0.9064 -1.7836 -0.3870
 5295SOL     OW27346   3.071   4.115   6.333  0.7609 -0.0436 -0.3280
 5295SOL    HW127347   3.134   4.157   6.274 -0.8576  1.0583 -1.2849
 5295SOL    HW227348   3.046   4.196   6.377  1.4911  0.1415 -0.2518
 5296SOL     OW27349   3.022   1.207  17.057 -0.5581 -0.4897 -0.2368
 5296SOL    HW127350   2.958   1.265  17.097  0.5705  1.0155 -0.6328
 5296SOL    HW227351   2.958   1.145  17.021 -0.2531  0.7497 -2.9270
 5297SOL     OW27352   1.926   4.377   8.117  0.0138  0.0340 -0.0637
 5297SOL    HW127353   1.936   4.467   8.086 -0.0704 -1.1219 -3.4486
 5297SOL    HW227354   1.917   4.383   8.212 -0.9505  1.1105 -0.2141
 5298SOL     OW27355   4.105   2.023   2.613 -0.3394  0.6020 -0.0194
 5298SOL    HW127356   4.123   2.064   2.697 -2.2509  1.2004  0.1108
 5298SOL    HW227357   4.197   2.026   2.588  0.1929  0.2147  1.9123
 5299SOL     OW27358   2.329   3.059  16.473  0.1458 -0.2694  0.5876
 5299SOL    HW127359   2.254   3.094  16.425  0.2104  0.0912  0.7473
 5299SOL    HW227360   2.295   3.068  16.562 -1.7054  1.5159 -0.2972
 5300SOL     OW27361   0.650   2.143  12.765  0.2317  0.1190 -0.3888
 5300SOL    HW127362   0.721   2.083  12.787  0.2232 -0.1450 -1.0870
 5300SOL    HW227363   0.582   2.108  12.823  0.3386  0.0533 -0.3032
 5301SOL     OW27364   1.832   0.513   1.809 -0.2162 -0.0057  0.5740
 5301SOL    HW127365   1.804   0.502   1.718 -1.7369 -0.3512  1.0852
 5301SOL    HW227366   1.758   0.465   1.845 -0.6125 -0.2565 -0.5840
 5302SOL     OW27367   1.739   2.062   7.570 -0.2072  0.2976 -0.0295
 5302SOL    HW127368   1.752   2.027   7.658 -1.9584 -1.7399 -0.5767
 5302SOL    HW227369   1.762   2.153   7.587  1.2199  0.0297 -0.4909
 5303SOL     OW27370   2.433   0.454   8.343 -0.1552  0.2603  0.1235
 5303SOL    HW127371   2.445   0.525   8.406 -1.0419 -1.0921  1.7703
 5303SOL    HW227372   2.338   0.448   8.341 -0.2451  1.3761  0.8491
 5304SOL     OW27373   4.312   3.023  12.905  0.0641  0.3999  0.3508
 5304SOL    HW127374   4.226   3.051  12.874  0.0763  1.2167  1.0563
 5304SOL    HW227375   4.349   3.109  12.924  1.1279  0.1201 -0.4125
 5305SOL     OW27376   2.938   3.371  13.555  0.1096 -0.2213  0.7296
 5305SOL    HW127377   3.007   3.327  13.605  1.3869  1.2139  0.2361
 5305SOL    HW227378   2.957   3.342  13.465 -1.2357  0.7959  0.1191
 5306SOL     OW27379   0.998   3.746   5.957  0.0279  0.0218 -0.5071
 5306SOL    HW127380   1.000   3.741   6.052  0.0152 -1.0755 -0.5713
 5306SOL    HW227381   1.000   3.653   5.936 -0.7346 -0.3786  1.2882
 5307SOL     OW27382   0.546   1.311   0.861 -0.4979  0.2103 -0.1911
 5307SOL    HW127383   0.527   1.217   0.860 -2.0589  0.5516 -2.1623
 5307SOL    HW227384   0.463   1.352   0.885  0.5871  1.9954  0.4812
 5308SOL     OW27385   1.977   1.144   7.079 -0.1554  0.7902 -0.1429
 5308SOL    HW127386   1.989   1.130   6.985  1.0993  2.3352 -0.2117
 5308SOL    HW227387   2.007   1.234   7.085 -2.1419  1.4486 -0.2775
 5309SOL     OW27388   0.288   4.358   3.085 -0.4084  0.3552  0.0948
 5309SOL    HW127389   0.314   4.447   3.111  0.3152  0.6554 -1.6198
 5309SOL    HW227390   0.367   4.317   3.049 -1.3432 -0.9705 -0.4253
 5310SOL     OW27391   3.174   1.383   5.472  0.4844 -0.1421  0.0938
 5310SOL    HW127392   3.193   1.477   5.474  0.7071 -0.1680 -0.7599
 5310SOL    HW227393   3.252   1.343   5.432  0.6282  1.8240 -1.6027
 5311SOL     OW27394   4.292   1.561  10.841 -0.0329 -0.3030  0.1001
 5311SOL    HW127395   4.296   1.645  10.888 -3.1538  0.9367 -1.8753
 5311SOL    HW227396   4.306   1.588  10.750 -1.8533  1.3950  0.3201
 5312SOL     OW27397   0.084   4.013   2.102  0.0204 -0.5903  0.2829
 5312SOL    HW127398   0.136   4.064   2.039  2.6380 -1.9539  1.3180
 5312SOL    HW227399   0.165   3.967   2.126  0.5396 -0.5069 -1.2710
 5313SOL     OW27400   3.058   2.443   4.985  0.1801 -0.3929  0.0773
 5313SOL    HW127401   3.064   2.408   4.896  0.2472 -0.3434  0.0626
 5313SOL    HW227402   3.110   2.523   4.982  1.5019 -1.2175  1.1959
 5314SOL     OW27403   4.540   2.609   7.771 -1.0053 -0.3020  0.2647
 5314SOL    HW127404   4.562   2.702   7.774 -0.3333 -0.4897  1.0460
 5314SOL    HW227405   4.457   2.599   7.724 -1.6168 -1.8220  1.6420
 5315SOL     OW27406   3.345   0.914   8.424  0.3696 -0.0285  0.8808
 5315SOL    HW127407   3.293   0.913   8.343  0.8451  2.3443  0.5552
 5315SOL    HW227408   3.277   0.929   8.490 -1.0497  3.8248 -1.4966
 5316SOL     OW27409   0.201   4.635   7.991 -0.1151  0.0717  0.0800
 5316SOL    HW127410   0.166   4.630   7.902  1.3163 -0.7000 -0.4289
 5316SOL    HW227411   0.294   4.615   7.982 -0.4281 -0.4537 -1.8913
 5317SOL     OW27412   2.089   4.677   1.955 -0.7321 -0.6186  0.0504
 5317SOL    HW127413   2.076   4.721   1.871  1.1706  2.0239  1.1511
 5317SOL    HW227414   2.094   4.587   1.920 -1.2254 -0.8861  0.6699
 5318SOL     OW27415   1.545   3.180   0.211  0.4044  0.4389 -0.5034
 5318SOL    HW127416   1.635   3.154   0.191  0.3001 -0.9429  0.7742
 5318SOL    HW227417   1.495   3.114   0.162  0.5578 -0.5214  0.6383
 5319SOL     OW27418   4.642   1.269   9.780  0.9549  0.5424  0.2551
 5319SOL    HW127419   4.682   1.265   9.693  0.6089  2.4173  0.0033
 5319SOL    HW227420   4.673   1.355   9.808 -1.3750  0.9691  1.5367
 5320SOL     OW27421   0.195   0.799   4.513  0.0019 -0.2901 -0.3941
 5320SOL    HW127422   0.129   0.869   4.511 -0.8546 -1.1167 -1.0924
 5320SOL    HW227423   0.167   0.753   4.593 -0.8055 -0.0036 -0.5088
 5321SOL     OW27424   1.257   3.406   7.986 -0.2446 -0.3376  0.1054
 5321SOL    HW127425   1.243   3.499   7.968  2.0353 -0.3389 -1.7446
 5321SOL    HW227426   1.174   3.366   7.962  0.0161  0.2413 -1.7293
 5322SOL     OW27427   2.736   2.734   5.585  0.0065  0.1613  0.0739
 5322SOL    HW127428   2.680   2.667   5.624  1.4025 -1.0366 -0.0084
 5322SOL    HW227429   2.796   2.684   5.530 -0.8675 -0.1386 -0.6096
 5323SOL     OW27430   3.277   1.113  13.561 -0.2653 -0.2982 -0.3273
 5323SOL    HW127431   3.342   1.047  13.537 -0.2028 -0.0676 -0.7949
 5323SOL    HW227432   3.323   1.145  13.638 -0.4242 -0.3964 -0.1937
 5324SOL     OW27433   3.705   2.083   6.466 -0.8737 -0.7004 -0.1981
 5324SOL    HW127434   3.763   2.130   6.406 -1.9127  0.2018 -0.4855
 5324SOL    HW227435   3.740   1.993   6.469  2.7206  0.6367 -2.0168
 5325SOL     OW27436   3.994   0.606   3.284  1.1333 -0.1319  0.2435
 5325SOL    HW127437   3.990   0.694   3.322  0.2593  0.3729 -1.0425
 5325SOL    HW227438   3.920   0.559   3.322  0.1873  0.2759 -1.1286
 5326SOL     OW27439   1.889   0.969  11.975 -0.0904  0.3610  0.0412
 5326SOL    HW127440   1.978   0.933  11.974 -0.3357 -0.2251 -1.0685
 5326SOL    HW227441   1.854   0.917  11.902  1.1416 -0.7420  0.2324
 5327SOL     OW27442   0.546   4.540   3.859  0.2058  0.0158 -0.3819
 5327SOL    HW127443   0.532   4.460   3.807 -0.6126  0.0985 -0.2941
 5327SOL    HW227444   0.641   4.544   3.871 -0.1054 -0.6241  2.3499
 5328SOL     OW27445   4.402   4.446   8.701 -0.2790 -0.0555  0.2569
 5328SOL    HW127446   4.320   4.445   8.750  0.2371  2.3015  1.1677
 5328SOL    HW227447   4.390   4.531   8.657  1.8078 -0.1870 -0.5461
 5329SOL     OW27448   3.495   3.896  10.848  0.3781  0.0681  0.4325
 5329SOL    HW127449   3.414   3.856  10.817  1.0922 -0.2156 -1.0846
 5329SOL    HW227450   3.557   3.843  10.798  1.5545  2.7388 -0.9316
 5330SOL     OW27451   1.266   1.508   2.034  0.1316  0.0128 -0.2605
 5330SOL    HW127452   1.218   1.545   1.960  1.0012  3.9438  1.1198
 5330SOL    HW227453   1.347   1.473   1.998  0.5850  0.9193 -0.1145
 5331SOL     OW27454   0.658   2.536   8.620  0.7465  0.1081 -0.4217
 5331SOL    HW127455   0.615   2.584   8.550  0.9502 -0.0817 -0.6736
 5331SOL    HW227456   0.728   2.596   8.647 -0.7310  1.2421  0.9352
 5332SOL     OW27457   4.323   2.224   6.536 -0.2188 -0.0343  0.0648
 5332SOL    HW127458   4.309   2.293   6.601 -0.8696 -0.8995  0.8363
 5332SOL    HW227459   4.257   2.163   6.567  0.3194 -0.7333 -0.1583
 5333SOL     OW27460   2.908   4.135   9.411 -0.4937  0.2049 -0.1408
 5333SOL    HW127461   2.867   4.169   9.491 -0.5358 -0.0104 -0.0705
 5333SOL    HW227462   2.968   4.083   9.464 -0.9697 -0.3480 -0.1396
 5334SOL     OW27463   3.167   2.823   4.461 -0.2567  0.1770  0.1554
 5334SOL    HW127464   3.154   2.902   4.513 -2.1179 -2.3142  3.4936
 5334SOL    HW227465   3.079   2.812   4.426 -0.3931  1.0473  0.2307
 5335SOL     OW27466   1.278   1.860   4.428 -0.8565  0.0717  0.3590
 5335SOL    HW127467   1.191   1.861   4.388  0.1056  0.7163 -1.7211
 5335SOL    HW227468   1.307   1.947   4.401  1.5933 -0.8729 -0.0570
 5336SOL     OW27469   0.138   2.320   0.509  0.2838 -0.0185  0.5889
 5336SOL    HW127470   0.099   2.364   0.584  2.5424  0.2766  1.5910
 5336SOL    HW227471   0.091   2.364   0.439 -1.9398 -2.6910  0.3854
 5337SOL     OW27472   0.651   3.609   9.984 -0.8472 -0.2999  0.7183
 5337SOL    HW127473   0.643   3.693   9.940 -0.2919 -1.2153 -1.1529
 5337SOL    HW227474   0.740   3.621  10.017 -0.5187  0.4194 -0.4385
 5338SOL     OW27475   2.111   4.426   3.714  0.2543 -0.4542  0.0398
 5338SOL    HW127476   2.016   4.419   3.725  0.3656 -0.1901  1.1363
 5338SOL    HW227477   2.120   4.369   3.638  0.9921 -1.1539  0.6530
 5339SOL     OW27478   1.443   4.597   9.417  0.1657 -0.3587 -0.1181
 5339SOL    HW127479   1.390   4.533   9.371  1.8624 -0.7730 -1.4820
 5339SOL    HW227480   1.444   4.566   9.508  3.1555 -1.0552 -0.4012
 5340SOL     OW27481   1.081   2.803   9.816 -0.4613  0.2020  0.2842
 5340SOL    HW127482   1.027   2.778   9.741 -1.4665 -0.6889  1.2991
 5340SOL    HW227483   1.014   2.802   9.885 -1.3748  2.2279 -0.5702
 5341SOL     OW27484   1.041   4.548   1.729  0.6850 -0.3933 -0.4927
 5341SOL    HW127485   1.071   4.574   1.642  1.1218  1.6870  0.2642
 5341SOL    HW227486   1.019   4.633   1.769 -0.1372 -0.7791 -0.1322
 5342SOL     OW27487   0.319   1.156   1.081  0.1733 -0.2179  0.0910
 5342SOL    HW127488   0.376   1.138   1.006 -0.6186 -0.7336 -0.4007
 5342SOL    HW227489   0.387   1.178   1.144  2.4274 -2.7187 -1.4936
 5343SOL     OW27490   4.208   3.696  15.097  0.1144  0.5241 -0.2063
 5343SOL    HW127491   4.205   3.656  15.184  3.5947  1.6400  0.4267
 5343SOL    HW227492   4.281   3.756  15.111 -1.9722  2.7094  1.1414
 5344SOL     OW27493   1.739   4.280   3.372  0.1254  0.3207 -0.1047
 5344SOL    HW127494   1.713   4.191   3.348 -1.6869  0.7127  0.3992
 5344SOL    HW227495   1.790   4.312   3.298 -1.5791  2.8237 -0.1855
 5345SOL     OW27496   1.089   2.306   8.045  0.7768 -0.2475 -0.3790
 5345SOL    HW127497   1.126   2.236   7.992 -2.1309  0.7640 -3.7325
 5345SOL    HW227498   1.141   2.290   8.124  0.5464  0.8318 -0.0058
 5346SOL     OW27499   3.889   0.685  17.519 -0.2060 -0.3139 -0.8511
 5346SOL    HW127500   3.812   0.673  17.574  0.5413  0.9342  0.4423
 5346SOL    HW227501   3.935   0.605  17.543  0.7907  0.8070  0.9408
 5347SOL     OW27502   3.513   0.566  15.642 -0.3825  0.1473  0.1985
 5347SOL    HW127503   3.549   0.634  15.586  0.3739  0.9828  1.6853
 5347SOL    HW227504   3.568   0.577  15.720  0.7137  1.6193 -0.7795
 5348SOL     OW27505   4.586   3.886   3.712  0.2311  0.6792 -0.5455
 5348SOL    HW127506   4.583   3.877   3.807  1.0078 -2.0219 -0.7781
 5348SOL    HW227507   4.495   3.887   3.683  0.0909 -2.6191 -0.2096
 5349SOL     OW27508   4.026   3.897   4.442  0.5138 -0.0185 -0.2303
 5349SOL    HW127509   4.008   3.818   4.492  0.8854 -0.6628 -1.1042
 5349SOL    HW227510   4.054   3.960   4.508  1.9601 -0.0368 -0.8128
 5350SOL     OW27511   2.777   4.420   1.594  0.0213  0.6690  0.4844
 5350SOL    HW127512   2.757   4.372   1.674  1.2887 -1.8886 -0.7239
 5350SOL    HW227513   2.717   4.387   1.527 -2.8858 -0.6972  3.7767
 5351SOL     OW27514   1.478   2.688   5.692  0.1736 -0.6471  0.2889
 5351SOL    HW127515   1.396   2.711   5.735 -1.6790  0.0128 -3.5751
 5351SOL    HW227516   1.486   2.758   5.628  1.6942 -0.2156  0.9580
 5352SOL     OW27517   2.596   3.398   4.345  0.3845  0.3510 -0.2682
 5352SOL    HW127518   2.558   3.324   4.297  1.1774  0.0219 -0.3872
 5352SOL    HW227519   2.531   3.463   4.321 -1.4597 -0.5922  2.1645
 5353SOL     OW27520   1.722   0.288   9.571  0.1645 -0.2002 -0.3054
 5353SOL    HW127521   1.632   0.316   9.590  0.5462 -0.0237  1.2156
 5353SOL    HW227522   1.706   0.194   9.564 -1.0400 -0.2346  2.7349
 5354SOL     OW27523   0.425   0.411  11.759 -0.6049  0.3819  0.4711
 5354SOL    HW127524   0.457   0.479  11.700  1.0778 -1.0256 -0.2280
 5354SOL    HW227525   0.401   0.342  11.697  1.3398 -1.0535  1.3239
 5355SOL     OW27526   4.456   1.241   8.444 -0.1422 -0.0697  0.2148
 5355SOL    HW127527   4.435   1.211   8.532 -2.8555 -0.8746 -0.6816
 5355SOL    HW227528   4.458   1.336   8.456 -0.3679  0.2785 -2.4786
 5356SOL     OW27529   0.762   0.109   1.694 -1.1836 -0.3459  0.2728
 5356SOL    HW127530   0.719   0.034   1.737 -0.3141 -1.3030 -0.5158
 5356SOL    HW227531   0.694   0.173   1.714  1.1060  1.6255  1.6941
 5357SOL     OW27532   0.909   3.108  11.236 -0.4343 -0.0923  0.4476
 5357SOL    HW127533   0.865   3.079  11.316 -2.5175  0.7116 -0.4192
 5357SOL    HW227534   0.991   3.133  11.279  0.4678 -1.3775 -0.5522
 5358SOL     OW27535   4.442   0.074   3.349 -0.9886 -0.3789 -0.1959
 5358SOL    HW127536   4.410   0.156   3.387 -2.9048 -1.3528  0.2657
 5358SOL    HW227537   4.524   0.076   3.398 -1.0396  1.0413 -0.1619
 5359SOL     OW27538   4.224   0.212   6.912  0.3081 -0.3723 -0.0952
 5359SOL    HW127539   4.143   0.164   6.930 -0.7410  1.3785 -0.1074
 5359SOL    HW227540   4.284   0.137   6.919  0.5473 -0.4756 -3.0329
 5360SOL     OW27541   2.461   0.405   4.896  0.1916 -0.1397 -0.4921
 5360SOL    HW127542   2.523   0.335   4.874 -0.3695 -0.0346 -2.4169
 5360SOL    HW227543   2.517   0.469   4.941 -1.3156 -1.2149  2.8974
 5361SOL     OW27544   0.407   0.389   8.825  0.1671  0.2862 -0.0493
 5361SOL    HW127545   0.331   0.406   8.768  0.1074  2.4402  0.6679
 5361SOL    HW227546   0.399   0.466   8.880 -0.6089 -1.8712  2.8283
 5362SOL     OW27547   2.287   3.231  13.559 -0.6478 -0.1869  0.1091
 5362SOL    HW127548   2.346   3.306  13.561  0.7151 -1.2676  0.0551
 5362SOL    HW227549   2.227   3.251  13.487 -1.5092  1.3357  1.2379
 5363SOL     OW27550   2.268   1.968  17.191 -0.1307 -0.6820  0.4081
 5363SOL    HW127551   2.176   1.988  17.171 -0.3878  1.2484  3.5220
 5363SOL    HW227552   2.272   2.018  17.273 -2.5578 -0.4563  0.4128
 5364SOL     OW27553   1.982   2.332   7.836 -1.0050  0.9500 -0.6976
 5364SOL    HW127554   1.998   2.374   7.921  3.3678 -0.1579 -0.9895
 5364SOL    HW227555   1.989   2.238   7.856  0.6169  1.3243  0.4835
 5365SOL     OW27556   3.707   3.464  11.386  0.4813 -0.5104  0.3026
 5365SOL    HW127557   3.616   3.470  11.417 -0.4835  0.0194 -2.6443
 5365SOL    HW227558   3.741   3.547  11.421  0.0844 -0.5411  0.7798
 5366SOL     OW27559   4.302   0.151   7.649  0.0545  0.3235  0.2782
 5366SOL    HW127560   4.271   0.109   7.569 -2.5041 -0.2104  1.5583
 5366SOL    HW227561   4.229   0.157   7.710  0.8016  0.8726  1.1262
 5367SOL     OW27562   4.042   4.456   4.002 -0.1777 -0.4203 -0.4629
 5367SOL    HW127563   4.079   4.368   4.002 -2.2742 -1.3168  1.2093
 5367SOL    HW227564   3.975   4.463   4.070  0.7360 -1.7319  0.5635
 5368SOL     OW27565   2.831   2.952   4.728  0.3016 -0.7361 -0.3034
 5368SOL    HW127566   2.800   2.992   4.810  0.7261  1.3237 -1.1473
 5368SOL    HW227567   2.755   2.901   4.704  0.7018 -1.9483  1.0020
 5369SOL     OW27568   1.748   2.527  17.199 -0.2195 -0.4972  0.2083
 5369SOL    HW127569   1.684   2.514  17.129  0.5989  1.9308 -0.9821
 5369SOL    HW227570   1.691   2.509  17.274  2.5897 -1.8279  2.0170
 5370SOL     OW27571   0.587   0.229   2.049 -1.1906 -0.1360 -0.1064
 5370SOL    HW127572   0.630   0.312   2.069  2.1699 -2.1072  0.8146
 5370SOL    HW227573   0.522   0.257   1.984  1.4593  1.9152 -1.8842
 5371SOL     OW27574   1.310   3.596  12.421  0.5143  0.3907  0.1135
 5371SOL    HW127575   1.247   3.623  12.353  0.7108  1.2206  0.2630
 5371SOL    HW227576   1.309   3.501  12.406  0.3462  0.1760  1.5207
 5372SOL     OW27577   3.085   4.397  11.733 -0.0954 -0.2404 -0.2626
 5372SOL    HW127578   3.115   4.362  11.649  2.9075 -1.0494  1.1220
 5372SOL    HW227579   3.132   4.343  11.797  0.3392  1.2939  0.7224
 5373SOL     OW27580   2.580   3.003   3.752 -0.2665  0.4601 -0.7039
 5373SOL    HW127581   2.507   2.957   3.710 -0.7904  0.7287 -0.0817
 5373SOL    HW227582   2.618   3.050   3.678 -1.8691  0.7050 -1.3675
 5374SOL     OW27583   4.643   3.547   8.196  0.1098  0.2782  0.1563
 5374SOL    HW127584   4.721   3.602   8.186  1.4606 -1.9298 -1.4648
 5374SOL    HW227585   4.580   3.616   8.215  0.2181  0.8114 -1.3986
 5375SOL     OW27586   4.038   4.403  15.369 -0.4271 -0.3429  0.2085
 5375SOL    HW127587   4.035   4.487  15.414  0.4507  0.5157 -1.3212
 5375SOL    HW227588   4.028   4.425  15.276  1.0868  0.0855  0.1415
 5376SOL     OW27589   3.932   1.377   2.535  0.3603  0.5194 -0.4701
 5376SOL    HW127590   3.882   1.382   2.454  0.0879 -0.4469 -0.3595
 5376SOL    HW227591   4.023   1.375   2.506  0.3283  1.7612 -0.6536
 5377SOL     OW27592   1.489   1.511   5.836 -0.1665 -0.3953  0.1245
 5377SOL    HW127593   1.526   1.423   5.833 -1.9135 -1.0979 -0.9189
 5377SOL    HW227594   1.529   1.553   5.760 -1.1784  0.3111 -0.0175
 5378SOL     OW27595   4.098   1.485  10.410  0.2344  1.0418 -0.4504
 5378SOL    HW127596   4.129   1.559  10.358  0.5537 -0.3027 -2.1993
 5378SOL    HW227597   4.084   1.533  10.491  2.4997 -0.9660  1.1382
 5379SOL     OW27598   1.191   2.249   0.961  0.6588  0.3372  0.0434
 5379SOL    HW127599   1.200   2.155   0.980 -1.1611 -0.0463 -0.8616
 5379SOL    HW227600   1.156   2.288   1.041 -2.2455 -1.8506 -0.1319
 5380SOL     OW27601   0.969   2.509   7.165  0.3404 -0.0474  0.4798
 5380SOL    HW127602   1.062   2.517   7.187  0.2280  3.3809 -0.3860
 5380SOL    HW227603   0.925   2.571   7.222  1.9423  1.9660 -0.4754
 5381SOL     OW27604   1.445   2.922   9.357  0.0565 -0.0646 -0.2915
 5381SOL    HW127605   1.524   2.931   9.410 -1.2810 -2.0834  2.0521
 5381SOL    HW227606   1.481   2.915   9.269  0.4453  1.1365 -0.2408
 5382SOL     OW27607   0.075   2.963  15.048  0.5319  0.0833  0.3642
 5382SOL    HW127608   0.110   2.956  15.136  0.8660  0.7786  0.2824
 5382SOL    HW227609   0.124   3.036  15.011  0.4321 -0.9607 -1.8596
 5383SOL     OW27610   2.967   3.725   0.466  0.4756 -0.1590 -0.1021
 5383SOL    HW127611   2.949   3.709   0.558 -3.0947 -0.2475 -0.7878
 5383SOL    HW227612   2.997   3.640   0.432  0.8692  0.2607 -0.7889
 5384SOL     OW27613   2.792   3.996   1.960  0.3575  0.2065  0.0576
 5384SOL    HW127614   2.825   3.942   1.889  1.1602  0.4944  0.2103
 5384SOL    HW227615   2.700   3.996   1.932  0.4938  1.3508 -0.4156
 5385SOL     OW27616   3.988   3.397   6.450 -0.2998  0.1500 -0.2117
 5385SOL    HW127617   3.953   3.318   6.492 -0.8980  0.2982 -0.4361
 5385SOL    HW227618   3.907   3.438   6.419 -1.8523 -1.5616  1.5414
 5386SOL     OW27619   0.980   3.663   1.343  0.3174 -0.3772  0.1262
 5386SOL    HW127620   0.919   3.623   1.404  0.7530 -0.0575  0.7711
 5386SOL    HW227621   0.923   3.689   1.271  1.0093  0.1576 -0.2293
 5387SOL     OW27622   2.757   4.668   8.123 -0.7331 -0.7352  0.2356
 5387SOL    HW127623   2.733   0.021   8.076 -0.2807  0.1384  1.5236
 5387SOL    HW227624   2.832   4.700   8.172 -0.7398 -0.6823  0.2118
 5388SOL     OW27625   4.639   0.686   8.722  0.4054 -0.4014 -0.0528
 5388SOL    HW127626   4.682   0.660   8.804 -1.3157 -1.0625  0.6462
 5388SOL    HW227627   4.693   0.763   8.706  0.7932 -0.9818 -1.5194
 5389SOL     OW27628   3.245   3.098   9.349  0.0798 -0.1811  0.3231
 5389SOL    HW127629   3.171   3.096   9.410  0.0245  1.6924  0.3163
 5389SOL    HW227630   3.296   3.169   9.388 -1.1766 -0.3679  2.3242
 5390SOL     OW27631   1.444   3.157   8.975  0.6361 -0.0408 -0.1432
 5390SOL    HW127632   1.507   3.120   8.914 -0.5578 -0.6502 -0.9961
 5390SOL    HW227633   1.389   3.083   9.000  0.7410  0.1797  0.7532
 5391SOL     OW27634   3.603   1.637   6.806 -0.2928 -0.5679 -0.5020
 5391SOL    HW127635   3.659   1.567   6.773 -0.0349 -0.8420  0.5130
 5391SOL    HW227636   3.525   1.625   6.752 -0.4137 -0.9935 -0.2292
 5392SOL     OW27637   2.759   2.697   3.253 -0.1514  0.0676  0.4774
 5392SOL    HW127638   2.842   2.745   3.247 -0.5945  0.9581  1.3984
 5392SOL    HW227639   2.737   2.697   3.346 -1.4462  0.8553  0.1692
 5393SOL     OW27640   4.386   1.569  14.053  0.5416 -0.5698 -0.1911
 5393SOL    HW127641   4.368   1.663  14.051  1.4647 -0.3988 -0.6347
 5393SOL    HW227642   4.446   1.556  13.979 -0.0197  1.7831 -1.0555
 5394SOL     OW27643   4.412   0.920   0.929 -0.1409  0.1870  0.7053
 5394SOL    HW127644   4.392   0.925   1.023  0.5922 -3.3796  1.0167
 5394SOL    HW227645   4.446   1.009   0.918  0.5588 -0.1875 -0.1436
 5395SOL     OW27646   1.204   0.945   2.976  0.2820  0.1187  0.3503
 5395SOL    HW127647   1.194   1.010   2.906 -0.5633  1.2597  1.5316
 5395SOL    HW227648   1.161   0.987   3.050  1.4154 -1.1189  1.7056
 5396SOL     OW27649   2.222   3.877   7.264 -0.1867 -0.0755  0.6720
 5396SOL    HW127650   2.227   3.892   7.358  0.6333 -1.5481  0.8764
 5396SOL    HW227651   2.256   3.787   7.262 -0.0901 -0.0831  3.0017
 5397SOL     OW27652   2.414   1.660  10.694 -0.5820 -0.4712  0.5089
 5397SOL    HW127653   2.333   1.616  10.717 -2.5372  2.2449 -1.2373
 5397SOL    HW227654   2.397   1.673  10.601 -1.1562  0.4495  0.7484
 5398SOL     OW27655   3.780   0.064   8.841  0.1078 -0.3951 -0.2533
 5398SOL    HW127656   3.786   0.007   8.918  1.9394  0.3857  0.1589
 5398SOL    HW227657   3.784   0.149   8.883  0.1329 -0.2263 -0.5988
 5399SOL     OW27658   1.541   4.693   7.984 -0.0712  0.6251 -0.1624
 5399SOL    HW127659   1.529   4.667   8.075 -1.3118 -1.5915 -0.9809
 5399SOL    HW227660   1.590   0.046   8.005  1.5306 -0.4413  0.1394
 5400SOL     OW27661   4.686   0.303   9.091  0.0291 -0.0060  0.7636
 5400SOL    HW127662   0.052   0.295   9.068 -0.2312  0.4068 -0.4137
 5400SOL    HW227663   4.698   0.335   9.181 -0.2421 -0.1888  0.8632
 5401SOL     OW27664   0.541   4.357   6.831 -0.2811 -0.2190 -0.0220
 5401SOL    HW127665   0.578   4.444   6.819  1.5598 -1.2487 -1.9968
 5401SOL    HW227666   0.616   4.299   6.818  0.8660  1.3675 -0.4503
 5402SOL     OW27667   1.328   1.476   2.485  0.8288 -0.1939 -0.6496
 5402SOL    HW127668   1.371   1.549   2.440 -1.9701  0.8858 -1.5782
 5402SOL    HW227669   1.279   1.428   2.418  2.3049 -1.0651 -1.0921
 5403SOL     OW27670   3.365   3.460   9.036 -0.0839  0.2177 -0.2286
 5403SOL    HW127671   3.420   3.447   9.114  0.4445 -0.2957 -0.6842
 5403SOL    HW227672   3.273   3.449   9.060 -0.2674 -0.2526 -1.1542
 5404SOL     OW27673   4.456   0.016   4.311  0.2322  0.0655 -0.3933
 5404SOL    HW127674   4.492   0.057   4.390  0.2632  1.0416 -0.9198
 5404SOL    HW227675   4.362   0.009   4.325  0.0433  2.7192 -0.3920
 5405SOL     OW27676   0.093   3.269   5.215 -0.4477  0.0234 -0.3072
 5405SOL    HW127677   0.134   3.239   5.296 -2.4980 -3.4555 -0.5670
 5405SOL    HW227678   0.037   3.193   5.201 -3.5792  2.2634  0.1194
 5406SOL     OW27679   0.609   3.029   5.669 -0.4703  0.1136  0.4831
 5406SOL    HW127680   0.681   2.990   5.720 -0.9895 -0.8157  0.5129
 5406SOL    HW227681   0.597   2.954   5.611  1.7999  1.5567 -1.8325
 5407SOL     OW27682   4.230   1.622   3.113  0.8002 -0.2410  0.1391
 5407SOL    HW127683   4.155   1.672   3.081  1.7815  2.6965  2.4345
 5407SOL    HW227684   4.217   1.545   3.057 -0.4966 -0.2398  0.4394
 5408SOL     OW27685   2.593   2.835   3.124 -0.0140 -0.1232  0.5874
 5408SOL    HW127686   2.670   2.788   3.157  1.9210  3.1701  0.8299
 5408SOL    HW227687   2.587   2.820   3.030  0.4504 -0.2544  0.5749
 5409SOL     OW27688   4.086   3.160   5.760  0.5972 -0.1166  0.1059
 5409SOL    HW127689   4.157   3.224   5.770  1.1132 -0.5562 -0.8499
 5409SOL    HW227690   4.121   3.082   5.802  0.1450 -0.0091  0.6806
 5410SOL     OW27691   3.928   0.322  16.072  0.2713 -0.0272 -0.4355
 5410SOL    HW127692   3.959   0.282  15.991  1.7617  2.4178 -1.0549
 5410SOL    HW227693   3.943   0.415  16.057 -1.1266  0.6184  2.1064
 5411SOL     OW27694   0.934   2.649   8.575  0.1869  0.6352  0.2509
 5411SOL    HW127695   1.023   2.618   8.560 -0.7038 -0.3019 -3.1291
 5411SOL    HW227696   0.945   2.733   8.618  1.2614  0.7281 -0.2106
 5412SOL     OW27697   3.928   3.299   9.965 -0.8446  0.2368 -0.0719
 5412SOL    HW127698   3.906   3.392   9.955 -1.6783 -0.1340 -1.7496
 5412SOL    HW227699   3.847   3.262   9.999 -1.6925  2.2665  0.0916
 5413SOL     OW27700   4.547   4.074   4.872 -0.1260 -0.2884  0.1117
 5413SOL    HW127701   4.525   4.123   4.951  2.3715  0.3834  0.3949
 5413SOL    HW227702   4.570   3.994   4.919  0.8662 -1.2935 -2.0546
 5414SOL     OW27703   4.653   1.717   3.791 -0.2487 -0.1738 -0.0181
 5414SOL    HW127704   0.009   1.741   3.832 -0.2470  0.4623 -0.4020
 5414SOL    HW227705   4.679   1.629   3.762  0.2904  0.4223 -1.3197
 5415SOL     OW27706   2.201   4.105  13.540  0.3076 -0.4020  0.2728
 5415SOL    HW127707   2.149   4.170  13.587  0.8948  1.6592 -1.9568
 5415SOL    HW227708   2.149   4.025  13.530  2.7509 -2.0901  1.0000
 5416SOL     OW27709   2.133   2.263   9.485  0.5285  0.2249  0.4068
 5416SOL    HW127710   2.049   2.309   9.493  0.7291  0.3647  1.6911
 5416SOL    HW227711   2.190   2.322   9.535 -1.2364  1.9697  0.3768
 5417SOL     OW27712   3.050   4.564  12.022  0.1825  0.6260  0.3484
 5417SOL    HW127713   3.060   4.475  12.055  1.3260  0.3645 -0.6726
 5417SOL    HW227714   3.141   4.591  12.012  0.4963 -1.4407 -2.5214
 5418SOL     OW27715   1.260   0.058   4.592  0.2963  0.5370 -0.3864
 5418SOL    HW127716   1.198   0.126   4.619  1.2697  1.3029 -0.0700
 5418SOL    HW227717   1.264   4.719   4.661 -0.4549 -0.3972 -1.2359
 5419SOL     OW27718   1.700   1.503   6.668 -0.0812 -0.4651  0.0239
 5419SOL    HW127719   1.613   1.543   6.680  1.1051  1.9792  0.4622
 5419SOL    HW227720   1.726   1.492   6.759 -1.7131  0.5105  0.6180
 5420SOL     OW27721   4.077   0.661   5.725  0.3563  0.0997  0.1903
 5420SOL    HW127722   4.093   0.567   5.724  0.2122  0.1071 -2.1744
 5420SOL    HW227723   3.994   0.666   5.677  1.0197  2.4608 -0.7087
 5421SOL     OW27724   0.720   0.437   7.262  0.6102 -0.1268 -0.7456
 5421SOL    HW127725   0.684   0.497   7.196 -0.1775  0.9628  0.6906
 5421SOL    HW227726   0.796   0.491   7.283  0.4392 -0.1433 -0.0825
 5422SOL     OW27727   2.901   0.845  12.356 -0.3342 -0.1611  0.4627
 5422SOL    HW127728   2.932   0.866  12.443  0.0542 -1.6242  0.6769
 5422SOL    HW227729   2.879   0.934  12.328  0.0553 -0.2598 -0.1527
 5423SOL     OW27730   1.432   2.274   2.135 -0.1688 -0.1321 -0.1361
 5423SOL    HW127731   1.429   2.183   2.108  1.6587 -0.0848 -0.4951
 5423SOL    HW227732   1.387   2.313   2.061  1.5714  0.1289 -1.0586
 5424SOL     OW27733   0.781   4.155   1.476 -0.1180  0.1357  0.4961
 5424SOL    HW127734   0.771   4.229   1.537  2.8794  1.6218 -0.8243
 5424SOL    HW227735   0.875   4.168   1.468 -0.1005 -1.1782 -1.3667
 5425SOL     OW27736   1.231   3.313  13.270 -0.5540  0.0611 -0.1355
 5425SOL    HW127737   1.189   3.236  13.232 -1.6114 -0.2821  1.7154
 5425SOL    HW227738   1.324   3.294  13.264 -1.2213 -3.5831  0.7960
 5426SOL     OW27739   4.060   2.076   4.551  0.0011  0.0482 -0.2033
 5426SOL    HW127740   4.035   2.161   4.515  2.7816  0.7399 -0.5432
 5426SOL    HW227741   4.155   2.082   4.561 -0.3640  2.1219  2.2540
 5427SOL     OW27742   2.357   4.412   0.899  0.5143  0.7304  0.3995
 5427SOL    HW127743   2.412   4.390   0.975 -0.2837  0.0053  0.7722
 5427SOL    HW227744   2.343   4.505   0.913  1.2881  1.0698 -1.1088
 5428SOL     OW27745   1.593   2.470  16.968 -0.4030  0.2894 -0.2336
 5428SOL    HW127746   1.598   2.376  16.951  0.0771  0.1637  0.5904
 5428SOL    HW227747   1.512   2.487  17.016 -0.4221 -0.1554 -0.1077
 5429SOL     OW27748   1.300   1.415  14.876 -0.3933  0.1845  0.0612
 5429SOL    HW127749   1.305   1.478  14.805  1.0735  0.0377  0.0456
 5429SOL    HW227750   1.385   1.370  14.873  0.0629  1.1348 -1.1740
 5430SOL     OW27751   3.433   3.059   6.141 -0.3237  0.1356 -0.6762
 5430SOL    HW127752   3.447   3.049   6.235  1.2298  1.8051 -0.7209
 5430SOL    HW227753   3.358   3.001   6.133 -1.1670  1.1246  0.0481
 5431SOL     OW27754   1.661   0.266   4.458 -0.1822  0.0455  0.1793
 5431SOL    HW127755   1.608   0.225   4.389  2.2398 -1.5754 -0.7414
 5431SOL    HW227756   1.620   0.352   4.461  1.7598  0.9561  0.9016
 5432SOL     OW27757   4.089   4.337   5.510  0.5826  0.4422 -0.1299
 5432SOL    HW127758   4.155   4.321   5.578  1.7188 -2.4766 -1.9323
 5432SOL    HW227759   4.093   4.432   5.499 -0.5216  0.8442  2.8995
 5433SOL     OW27760   4.005   0.352   7.399 -0.3224 -0.0256  0.2370
 5433SOL    HW127761   3.968   0.380   7.315 -0.0362 -0.8598 -0.1743
 5433SOL    HW227762   4.059   0.426   7.426 -1.1034  0.8501 -0.6068
 5434SOL     OW27763   0.163   2.867  15.304 -0.3353  0.1998  0.2234
 5434SOL    HW127764   0.115   2.796  15.347  1.5565 -0.5935  1.0231
 5434SOL    HW227765   0.250   2.842  15.335 -0.1352  1.4917  0.6698
 5435SOL     OW27766   1.963   1.562   4.618 -0.2465  0.4997 -0.8850
 5435SOL    HW127767   1.958   1.614   4.538  1.1204  1.4861 -0.3435
 5435SOL    HW227768   1.956   1.644   4.667 -0.7576 -0.4382  0.6172
 5436SOL     OW27769   4.642   0.889   5.860  0.1246  0.6321  0.1895
 5436SOL    HW127770   4.582   0.831   5.907  3.1844 -1.7848  1.0726
 5436SOL    HW227771   4.591   0.924   5.788 -1.0570 -0.7919  0.3285
 5437SOL     OW27772   2.923   3.528  13.050 -0.2997  0.2389 -0.3241
 5437SOL    HW127773   2.930   3.433  13.058  0.5435  0.0995 -3.0579
 5437SOL    HW227774   2.851   3.544  13.112 -1.0323  1.8437 -1.5888
 5438SOL     OW27775   1.667   2.187  15.509 -0.4361 -0.6984 -0.1077
 5438SOL    HW127776   1.645   2.101  15.472 -1.0622 -0.9311  0.8014
 5438SOL    HW227777   1.595   2.239  15.473  1.3319  0.1006 -2.5153
 5439SOL     OW27778   2.851   2.649   8.844  0.4628  0.3150  0.5947
 5439SOL    HW127779   2.936   2.645   8.801  0.5767 -0.4392  0.8812
 5439SOL    HW227780   2.788   2.680   8.779  1.8747 -0.2321 -1.0128
 5440SOL     OW27781   2.908   1.339   4.618 -0.0008 -0.2726 -0.1680
 5440SOL    HW127782   2.917   1.371   4.528  0.5620  2.1435  0.7538
 5440SOL    HW227783   2.845   1.268   4.607  0.5114 -0.8909  0.8640
 5441SOL     OW27784   0.431   1.386   6.979  0.0144  0.5791  0.7641
 5441SOL    HW127785   0.373   1.433   7.039 -0.0828 -0.2093  1.2961
 5441SOL    HW227786   0.379   1.377   6.899  2.2201 -1.8897 -0.3982
 5442SOL     OW27787   0.890   4.444  10.276 -0.0577  0.0376  0.2675
 5442SOL    HW127788   0.818   4.464  10.336  1.5003  1.0454  1.8248
 5442SOL    HW227789   0.867   4.355  10.249 -1.2094  1.0180 -1.9478
 5443SOL     OW27790   1.021   0.759   8.064  0.1296 -0.4296 -0.0534
 5443SOL    HW127791   0.961   0.689   8.038  0.0832  0.3112 -1.9346
 5443SOL    HW227792   1.017   0.812   7.985 -2.5188  1.0831  1.1020
 5444SOL     OW27793   0.774   1.247   8.524  0.4317 -0.3431  0.1470
 5444SOL    HW127794   0.769   1.337   8.493  0.3258 -0.1248  0.7925
 5444SOL    HW227795   0.833   1.218   8.454  2.5443  1.5310  1.1622
 5445SOL     OW27796   0.996   4.314   7.741  0.2518 -0.7874 -0.0838
 5445SOL    HW127797   0.955   4.344   7.822  0.6036 -0.5713  0.0176
 5445SOL    HW227798   1.044   4.241   7.780  1.4461  1.0375  1.9189
 5446SOL     OW27799   1.044   4.218   1.423  0.9496  0.6050 -0.2330
 5446SOL    HW127800   1.117   4.209   1.485 -1.3605  0.4561  2.4824
 5446SOL    HW227801   1.060   4.141   1.369  0.0072  0.0568  0.2612
 5447SOL     OW27802   1.907   1.713  11.655 -0.3379 -0.0182 -0.4506
 5447SOL    HW127803   1.960   1.635  11.670 -1.9888 -1.0318  0.1639
 5447SOL    HW227804   1.842   1.696  11.587 -1.5851 -0.3537  0.8222
 5448SOL     OW27805   4.431   4.508   6.087  0.4773 -0.1481 -0.6304
 5448SOL    HW127806   4.373   4.528   6.161  0.9645 -0.4560 -0.1682
 5448SOL    HW227807   4.514   4.544   6.119  0.6369 -2.4762  1.5715
 5449SOL     OW27808   2.950   0.404   7.732  0.6976 -0.2056 -0.1623
 5449SOL    HW127809   2.866   0.404   7.778  1.2124 -0.2529  0.7867
 5449SOL    HW227810   2.981   0.495   7.734 -2.1049  0.8346 -3.5008
 5450SOL     OW27811   4.452   3.723   2.864  0.5091  0.2437  0.1645
 5450SOL    HW127812   4.461   3.707   2.958  0.7956  0.4925  0.1773
 5450SOL    HW227813   4.512   3.796   2.848 -0.2910  0.5857 -1.3155
 5451SOL     OW27814   1.400   0.246   5.424 -0.1290  0.1628 -0.0665
 5451SOL    HW127815   1.316   0.225   5.383 -0.1127  1.7373 -0.8994
 5451SOL    HW227816   1.467   0.218   5.361 -0.3281  1.0058 -0.6441
 5452SOL     OW27817   3.146   1.571   2.994  0.7624  0.2201 -0.3333
 5452SOL    HW127818   3.204   1.516   2.942  0.7205  1.1269 -1.3373
 5452SOL    HW227819   3.161   1.660   2.965  0.2546  0.7439  0.9915
 5453SOL     OW27820   1.891   1.577  17.370  0.0670 -0.3727  0.2147
 5453SOL    HW127821   1.956   1.515  17.403 -0.7689 -1.6235 -0.4382
 5453SOL    HW227822   1.930   1.598  17.285  1.8330  1.4668  1.4669
 5454SOL     OW27823   2.432   2.593  12.563  0.2644  1.4655 -0.1740
 5454SOL    HW127824   2.518   2.562  12.535 -1.0906 -0.2863 -2.4709
 5454SOL    HW227825   2.409   2.548  12.644 -1.1814  0.4416 -1.1310
 5455SOL     OW27826   4.522   3.877   8.444  0.2197  0.1537 -0.0349
 5455SOL    HW127827   4.477   3.890   8.361 -1.6270 -1.0647  0.7571
 5455SOL    HW227828   4.448   3.851   8.500  1.0084  1.1190  1.4535
 5456SOL     OW27829   0.626   3.212  17.043  0.2154  1.0548 -0.5253
 5456SOL    HW127830   0.598   3.279  16.981  1.4837  1.0330 -1.1337
 5456SOL    HW227831   0.709   3.185  17.004 -1.3499 -2.3677 -1.5046
 5457SOL     OW27832   4.485   2.720   3.947  0.4107 -0.0834  0.9456
 5457SOL    HW127833   4.458   2.713   4.039  1.2089  0.3511  1.2143
 5457SOL    HW227834   4.548   2.792   3.953 -1.9979  1.8049  3.9665
 5458SOL     OW27835   1.569   2.151   8.894 -0.1035 -0.0159  0.1736
 5458SOL    HW127836   1.558   2.063   8.856  0.7469 -0.3576  0.7352
 5458SOL    HW227837   1.644   2.183   8.844  1.2724  2.1205  3.6146
 5459SOL     OW27838   1.042   0.729   2.855  0.5337  0.0631 -0.0657
 5459SOL    HW127839   1.038   0.717   2.950 -0.1813  0.6272 -0.0218
 5459SOL    HW227840   1.104   0.803   2.858  0.4003  0.1505  0.7449
 5460SOL     OW27841   3.460   0.422  16.135  0.4125  0.0786  0.3313
 5460SOL    HW127842   3.403   0.469  16.074  1.1851 -0.3809 -0.7499
 5460SOL    HW227843   3.532   0.483  16.149 -1.3391  2.0779  0.6691
 5461SOL     OW27844   3.407   4.503   8.712  0.0447  0.3662  0.3844
 5461SOL    HW127845   3.372   4.449   8.640  3.0824 -0.7056 -0.2739
 5461SOL    HW227846   3.471   4.448   8.758 -0.3866  0.3408  0.9589
 5462SOL     OW27847   4.032   1.902   2.893  0.2064  0.2490 -0.1001
 5462SOL    HW127848   3.990   1.872   2.813  0.3787  1.1504 -0.5234
 5462SOL    HW227849   3.983   1.850   2.957 -1.1275  0.0432 -1.2932
 5463SOL     OW27850   0.074   1.556   8.894 -0.7524  0.2241 -0.0786
 5463SOL    HW127851   0.106   1.620   8.958  1.2368 -1.3243  0.4775
 5463SOL    HW227852   0.079   1.608   8.813 -1.8260 -0.2636 -0.4581
 5464SOL     OW27853   0.073   2.578  16.877  0.3070 -0.2373 -0.3131
 5464SOL    HW127854   0.132   2.621  16.939 -2.0603 -0.2110  1.9284
 5464SOL    HW227855   0.073   2.487  16.907  2.2488 -0.0272  0.3053
 5465SOL     OW27856   0.964   3.615   9.665 -0.2393 -0.1253 -0.4704
 5465SOL    HW127857   1.015   3.611   9.585  0.0388  0.3947 -0.3195
 5465SOL    HW227858   0.992   3.700   9.699 -0.0541 -0.5438  0.4268
 5466SOL     OW27859   3.315   3.774   3.701  0.4903  0.0411 -0.0325
 5466SOL    HW127860   3.236   3.782   3.754  0.5085 -1.5580  0.2364
 5466SOL    HW227861   3.380   3.742   3.764 -0.4389  0.2080  1.0094
 5467SOL     OW27862   1.715   3.068   9.326  0.6821  0.2999 -0.4647
 5467SOL    HW127863   1.725   3.121   9.246 -0.6057 -0.0519 -0.8604
 5467SOL    HW227864   1.655   3.123   9.376 -1.3758 -1.1287 -1.3526
 5468SOL     OW27865   4.307   2.073   7.975 -0.4518 -0.0130  0.7127
 5468SOL    HW127866   4.359   1.997   7.951  1.3519  1.1955  0.8282
 5468SOL    HW227867   4.359   2.140   7.931 -2.2292  1.7926  1.3651
 5469SOL     OW27868   2.250   0.157   2.241  0.5672 -0.2560  0.3588
 5469SOL    HW127869   2.299   0.217   2.185  0.4378 -0.3997  0.0905
 5469SOL    HW227870   2.299   0.157   2.322  0.9737  1.1065  0.1113
 5470SOL     OW27871   4.334   4.536   2.712  0.1456  0.4604  0.0950
 5470SOL    HW127872   4.278   4.600   2.668 -0.9881 -0.1490  0.6681
 5470SOL    HW227873   4.404   4.529   2.647 -1.6448  1.2271 -1.9032
 5471SOL     OW27874   3.974   3.625   5.155  0.3829  0.3160 -0.1977
 5471SOL    HW127875   4.018   3.598   5.075  1.3345  0.2432  0.3517
 5471SOL    HW227876   4.047   3.678   5.188  1.6479 -1.1194 -0.7053
 5472SOL     OW27877   3.115   2.564   8.779 -0.0373 -0.1964  0.3666
 5472SOL    HW127878   3.135   2.603   8.864 -0.4820 -0.8097  0.7534
 5472SOL    HW227879   3.202   2.555   8.739  0.0598 -0.5538  0.6669
 5473SOL     OW27880   0.887   1.759   2.985  0.5141 -0.0755 -0.0904
 5473SOL    HW127881   0.978   1.779   3.007  0.3229 -0.1817  0.7774
 5473SOL    HW227882   0.856   1.850   2.987 -0.7678 -0.4662 -1.8068
 5474SOL     OW27883   1.266   2.201   8.472 -0.4518 -0.6619 -0.0032
 5474SOL    HW127884   1.236   2.219   8.561  0.9963  0.4872  0.2382
 5474SOL    HW227885   1.348   2.157   8.493 -1.0795 -1.5817  0.5532
 5475SOL     OW27886   0.760   3.947   4.293  0.1699  0.7289  0.1968
 5475SOL    HW127887   0.759   4.003   4.371 -0.0102 -1.2252  1.6043
 5475SOL    HW227888   0.775   3.865   4.339 -0.3909  0.7177  0.3553
 5476SOL     OW27889   3.150   1.252  12.705 -0.1804  0.0261  0.0910
 5476SOL    HW127890   3.132   1.217  12.792 -2.5757 -2.1224 -1.2920
 5476SOL    HW227891   3.133   1.176  12.650  1.6039 -0.9671  0.9146
 5477SOL     OW27892   0.966   3.681  13.882  0.2620  0.4849 -0.1047
 5477SOL    HW127893   0.948   3.658  13.791  0.6150  3.0443 -0.8069
 5477SOL    HW227894   1.053   3.715  13.862  0.3232  1.5261  1.9272
 5478SOL     OW27895   3.532   2.498  14.293 -0.2009  0.0776  0.6610
 5478SOL    HW127896   3.456   2.453  14.331 -0.7549 -0.0607 -0.5914
 5478SOL    HW227897   3.593   2.476  14.363 -1.2821 -3.4685  0.5161
 5479SOL     OW27898   4.225   0.727  10.746 -0.4814 -0.2828 -0.5129
 5479SOL    HW127899   4.170   0.652  10.769  0.1929 -0.5443  0.2554
 5479SOL    HW227900   4.236   0.719  10.652 -3.2799  2.5533 -1.0913
 5480SOL     OW27901   4.451   4.256   3.620 -0.1671 -0.0575  0.1498
 5480SOL    HW127902   4.373   4.202   3.609 -0.7256  1.0634 -1.3298
 5480SOL    HW227903   4.421   4.320   3.685 -1.2854  1.3161 -1.7097
 5481SOL     OW27904   0.724   2.152  10.367  0.0661  0.7068 -0.1234
 5481SOL    HW127905   0.815   2.176  10.351  0.4481 -0.7913 -0.2093
 5481SOL    HW227906   0.714   2.118  10.278  1.5699 -0.8290  0.2916
 5482SOL     OW27907   3.694   1.305   7.579  0.8138  0.1017  0.1960
 5482SOL    HW127908   3.684   1.331   7.671  2.4384  2.2482 -0.2344
 5482SOL    HW227909   3.716   1.212   7.581  2.1611  0.4269  0.6870
 5483SOL     OW27910   4.127   3.288   0.226  0.1533 -0.6707 -0.2945
 5483SOL    HW127911   4.198   3.227   0.205 -0.2051 -1.3845  0.5511
 5483SOL    HW227912   4.171   3.336   0.297 -1.6718  2.8472 -1.5570
 5484SOL     OW27913   2.507   3.369   8.716  0.2401  0.2404 -0.4678
 5484SOL    HW127914   2.563   3.444   8.698  0.8264  0.0260  0.4659
 5484SOL    HW227915   2.466   3.391   8.800 -0.1140 -2.5413  0.1068
 5485SOL     OW27916   4.476   2.390   1.938  0.2841  0.5494  0.3718
 5485SOL    HW127917   4.476   2.392   1.843  0.6152  0.7522  0.3778
 5485SOL    HW227918   4.527   2.464   1.971  1.4049 -1.0353  2.1963
 5486SOL     OW27919   0.062   3.481   7.027  0.0995 -0.4309  0.3064
 5486SOL    HW127920   0.042   3.566   7.065  0.1446 -1.4111  2.4846
 5486SOL    HW227921   0.139   3.501   6.974  1.6764 -1.1032  2.3498
 5487SOL     OW27922   0.251   3.180   4.973 -0.1767  0.0890 -0.5075
 5487SOL    HW127923   0.260   3.249   5.040 -0.9829 -0.5741  0.2918
 5487SOL    HW227924   0.252   3.110   5.039 -1.3894  0.6162  0.0788
 5488SOL     OW27925   3.552   4.636  13.782 -0.1090 -0.4416  0.2489
 5488SOL    HW127926   3.516   4.703  13.723  0.9907 -0.2600 -0.2130
 5488SOL    HW227927   3.477   4.628  13.841 -0.4627 -1.2269 -0.2922
 5489SOL     OW27928   2.122   0.653   7.000 -0.7165 -0.5770 -0.4894
 5489SOL    HW127929   2.133   0.735   7.047 -1.0017  0.1227 -1.6532
 5489SOL    HW227930   2.029   0.632   7.015 -0.3351 -1.4908  0.6154
 5490SOL     OW27931   0.618   0.716  15.215  0.1241 -0.1587 -0.3584
 5490SOL    HW127932   0.531   0.719  15.175 -0.8038  1.0557  1.7553
 5490SOL    HW227933   0.598   0.733  15.307 -0.5027 -0.0997 -0.5073
 5491SOL     OW27934   0.655   1.484   9.327  0.6563  0.4844 -0.0035
 5491SOL    HW127935   0.678   1.475   9.419  2.0121 -1.0791 -0.4762
 5491SOL    HW227936   0.738   1.504   9.283  1.2760 -0.2465  0.8381
 5492SOL     OW27937   4.669   3.177   0.180  0.0221 -0.0085  0.7435
 5492SOL    HW127938   4.691   3.086   0.199  0.0411 -0.4309 -1.2651
 5492SOL    HW227939   4.671   3.207   0.271  1.5783 -0.9109  1.0066
 5493SOL     OW27940   0.550   0.318   5.943  0.1627  0.6484  0.3739
 5493SOL    HW127941   0.616   0.249   5.940  0.7980  1.3599 -1.9697
 5493SOL    HW227942   0.598   0.389   5.987  2.7009 -1.3831  0.9087
 5494SOL     OW27943   1.411   1.391   4.231 -0.5189 -0.6570 -0.3424
 5494SOL    HW127944   1.356   1.441   4.171  1.9967 -1.4156 -3.2674
 5494SOL    HW227945   1.434   1.464   4.288 -1.9125  1.2995 -2.2673
 5495SOL     OW27946   4.299   4.556  12.108 -0.3724 -0.2511 -0.1414
 5495SOL    HW127947   4.234   4.564  12.037 -1.8616 -1.6567  1.0386
 5495SOL    HW227948   4.326   4.647  12.096 -0.4720 -0.2988 -0.7283
 5496SOL     OW27949   0.645   3.854   8.603  0.5448 -0.6581  0.0191
 5496SOL    HW127950   0.630   3.834   8.696  0.6522 -2.0382 -0.2655
 5496SOL    HW227951   0.575   3.919   8.596 -0.7355 -2.2150 -1.6078
 5497SOL     OW27952   3.362   2.468   1.771 -0.3056 -0.1606 -0.3574
 5497SOL    HW127953   3.329   2.529   1.704 -0.7465  0.0516  0.0515
 5497SOL    HW227954   3.448   2.502   1.793 -0.5326 -0.9801  1.8071
 5498SOL     OW27955   1.625   3.575   9.090 -0.3586 -0.1357  0.1306
 5498SOL    HW127956   1.695   3.514   9.113 -1.8093 -2.5988 -2.0803
 5498SOL    HW227957   1.607   3.601   9.180 -3.2202 -0.7835 -0.2702
 5499SOL     OW27958   0.693   4.615   8.091  0.0919  0.3547 -0.6632
 5499SOL    HW127959   0.661   4.540   8.141  0.6233  0.3968 -0.2635
 5499SOL    HW227960   0.788   4.611   8.096  0.2821  0.2894 -4.0806
 5500SOL     OW27961   0.570   2.995  13.571 -0.0751 -0.6933 -0.3332
 5500SOL    HW127962   0.492   3.018  13.521 -0.6168  1.2579  1.4470
 5500SOL    HW227963   0.597   3.085  13.586 -0.6582 -0.8292  1.5169
 5501SOL     OW27964   3.818   4.435   3.764  0.1206  0.1158  0.4793
 5501SOL    HW127965   3.885   4.394   3.819  1.4560  1.6146 -0.0584
 5501SOL    HW227966   3.786   4.499   3.827  0.0349  0.4439  0.1023
 5502SOL     OW27967   3.844   3.095   2.816  0.4814 -0.3739 -0.1678
 5502SOL    HW127968   3.911   3.060   2.874 -0.1479 -1.4883 -0.1242
 5502SOL    HW227969   3.900   3.095   2.739 -1.8958 -0.9558 -1.8920
 5503SOL     OW27970   4.011   0.910   0.298  0.1057 -0.0133  0.0497
 5503SOL    HW127971   3.916   0.918   0.308  0.2739  0.8011  0.9326
 5503SOL    HW227972   4.016   0.909   0.202 -0.6056  4.3705 -0.0502
 5504SOL     OW27973   0.383   3.617   7.514  0.7412  0.4611  0.2650
 5504SOL    HW127974   0.348   3.633   7.427  2.6475 -1.6238 -0.8825
 5504SOL    HW227975   0.358   3.697   7.560  1.2321  0.7658 -0.0001
 5505SOL     OW27976   1.275   0.519   5.960 -0.0643 -0.5972 -0.4402
 5505SOL    HW127977   1.236   0.463   5.893  0.7533 -1.3131 -0.3146
 5505SOL    HW227978   1.365   0.522   5.927 -0.4825  0.2583 -1.4990
 5506SOL     OW27979   1.671   2.075   6.352 -0.1611 -0.3908  0.8307
 5506SOL    HW127980   1.575   2.076   6.358 -0.1958 -0.4994  0.3166
 5506SOL    HW227981   1.698   1.990   6.387  1.0628 -0.4662 -0.2755
 5507SOL     OW27982   4.277   1.390   6.853  0.1241 -0.4498 -0.4677
 5507SOL    HW127983   4.305   1.399   6.944  1.0302  0.1675 -0.8130
 5507SOL    HW227984   4.338   1.328   6.815  0.0898 -1.9419  1.8934
 5508SOL     OW27985   3.277   1.876   8.203  0.0484  0.1319 -0.5674
 5508SOL    HW127986   3.265   1.941   8.273 -0.5832 -0.6590  0.0576
 5508SOL    HW227987   3.329   1.809   8.249  0.2898 -0.0937 -1.1645
 5509SOL     OW27988   4.393   0.143   4.589 -0.0973 -0.2953  0.2792
 5509SOL    HW127989   4.385   0.124   4.682 -0.1452 -0.8673  0.1571
 5509SOL    HW227990   4.319   0.203   4.579  0.2593  0.4210  2.0306
 5510SOL     OW27991   1.779   4.657   2.856 -0.0087 -0.4698  0.2922
 5510SOL    HW127992   1.711   4.678   2.792  1.4463  1.7397 -0.5178
 5510SOL    HW227993   1.828   0.012   2.867 -1.4126  0.6524 -1.8041
 5511SOL     OW27994   3.056   1.693  15.257 -0.6225  0.2307  0.2445
 5511SOL    HW127995   2.980   1.641  15.285  0.0883 -0.1214  1.5377
 5511SOL    HW227996   3.096   1.628  15.199 -0.7096  2.6868 -2.5664
 5512SOL     OW27997   3.056   1.475   4.944 -0.0123  0.2804  0.1747
 5512SOL    HW127998   3.027   1.397   4.895  0.5183  1.4771 -2.0483
 5512SOL    HW227999   2.977   1.527   4.949 -0.7860 -0.8437 -0.2513
 5513SOL     OW28000   1.623   0.334   4.176 -0.3608 -0.1492  0.0560
 5513SOL    HW128001   1.689   0.390   4.218 -0.5245  0.3056 -0.3026
 5513SOL    HW228002   1.626   0.368   4.087 -2.9738 -2.0300 -0.7462
 5514SOL     OW28003   2.608   2.783  12.810  0.4151  0.0831  0.4090
 5514SOL    HW128004   2.678   2.799  12.747  0.9986  0.0721  1.0526
 5514SOL    HW228005   2.637   2.702  12.852  1.6724  0.4271  0.2260
 5515SOL     OW28006   3.888   2.266  17.080  0.4788  0.0895 -0.0950
 5515SOL    HW128007   3.925   2.178  17.078  1.3220  0.4258  1.0609
 5515SOL    HW228008   3.893   2.297  16.989 -1.1968 -0.2256 -0.2855
 5516SOL     OW28009   3.699   3.653   5.072 -0.2253 -0.5496  0.2190
 5516SOL    HW128010   3.794   3.643   5.076 -0.3904 -1.3800  1.8731
 5516SOL    HW228011   3.683   3.648   5.166 -0.3956  1.1374  0.2812
 5517SOL     OW28012   0.800   0.963   3.942  0.7657 -0.3433  0.5797
 5517SOL    HW128013   0.850   0.924   4.013  0.8117  1.6767  1.6506
 5517SOL    HW228014   0.860   1.016   3.890  0.4515 -1.1376 -0.6009
 5518SOL     OW28015   1.326   3.618   5.447 -0.1781 -0.5270 -0.1153
 5518SOL    HW128016   1.284   3.636   5.531  0.4583  1.4702 -0.2064
 5518SOL    HW228017   1.330   3.522   5.448  4.2334 -0.3848 -2.0515
 5519SOL     OW28018   0.409   3.378   1.556 -0.0148 -0.5225 -0.0823
 5519SOL    HW128019   0.472   3.307   1.542  1.1560  0.5052  0.0036
 5519SOL    HW228020   0.328   3.328   1.555 -1.1025  1.2558 -0.4476
 5520SOL     OW28021   4.186   3.910   5.922 -0.5966 -0.1076 -0.1047
 5520SOL    HW128022   4.267   3.876   5.960 -1.3414 -0.5946  1.0569
 5520SOL    HW228023   4.160   3.987   5.972  1.5734  0.9512 -0.6086
 5521SOL     OW28024   2.765   4.607   9.328 -0.0602  0.1444 -0.5081
 5521SOL    HW128025   2.834   4.589   9.392 -0.7805 -1.0094 -0.0634
 5521SOL    HW228026   2.708   4.530   9.332  1.0910 -0.8046 -2.1178
 5522SOL     OW28027   3.480   1.057  14.362  0.0223  0.0693 -0.0712
 5522SOL    HW128028   3.415   1.102  14.415  0.4059  0.9867 -0.3801
 5522SOL    HW228029   3.547   1.125  14.366 -1.1588  1.2519 -0.2065
 5523SOL     OW28030   3.016   4.137   1.409  0.5697 -0.5408  0.0184
 5523SOL    HW128031   2.954   4.064   1.416 -1.3043  0.9211 -1.2075
 5523SOL    HW228032   3.094   4.087   1.432  0.8479 -0.2809 -0.3703
 5524SOL     OW28033   0.420   1.873   9.169  0.7175  0.4830 -0.1370
 5524SOL    HW128034   0.441   1.783   9.195  0.1218  0.2387 -0.5113
 5524SOL    HW228035   0.490   1.926   9.206  1.1020 -0.0671 -0.0718
 5525SOL     OW28036   3.767   0.043  16.738  0.1759  0.2644  0.3540
 5525SOL    HW128037   3.859   0.055  16.762  0.1053  2.3088 -0.3230
 5525SOL    HW228038   3.771   0.005  16.650 -2.6862  0.7640 -0.0066
 5526SOL     OW28039   0.337   4.486  11.429  0.3194 -0.4192  0.0623
 5526SOL    HW128040   0.394   4.423  11.472  0.7813  0.0440  0.1362
 5526SOL    HW228041   0.388   4.516  11.354 -0.9954  2.3924  0.2662
 5527SOL     OW28042   1.798   2.812   2.557  0.2161  0.0439 -0.2083
 5527SOL    HW128043   1.816   2.723   2.526  3.8346  0.6409  0.0737
 5527SOL    HW228044   1.740   2.796   2.632  0.0076  0.3711 -0.3026
 5528SOL     OW28045   2.323   3.421   2.892 -0.3747 -0.0832 -0.4320
 5528SOL    HW128046   2.319   3.425   2.796  0.3779  1.4040 -0.4052
 5528SOL    HW228047   2.277   3.504   2.901 -1.8310 -0.6587 -2.5685
 5529SOL     OW28048   3.286   3.268  11.780  0.4764 -0.0536 -0.0559
 5529SOL    HW128049   3.308   3.189  11.729  1.0154  2.2397 -3.3671
 5529SOL    HW228050   3.299   3.333  11.711  1.6867  1.0875  1.2458
 5530SOL     OW28051   4.116   0.078  17.080 -0.1510  0.4624  0.2836
 5530SOL    HW128052   4.021   0.062  17.083 -0.4002  1.6325 -1.0132
 5530SOL    HW228053   4.129   0.094  17.173  0.4988  0.5392  0.1808
 5531SOL     OW28054   2.009   2.986   2.623 -0.5945  0.2003 -0.1709
 5531SOL    HW128055   1.914   2.980   2.608 -0.6661 -1.8572  1.0888
 5531SOL    HW228056   2.042   3.015   2.538  1.2364  1.5320  1.0109
 5532SOL     OW28057   2.411   1.637   4.161 -0.1742  0.8419  0.9625
 5532SOL    HW128058   2.494   1.629   4.113 -1.2726 -0.1294 -0.7819
 5532SOL    HW228059   2.434   1.588   4.240 -1.2984  0.9757  1.3672
 5533SOL     OW28060   3.265   3.445   5.346  0.1281  0.3384 -0.3538
 5533SOL    HW128061   3.229   3.529   5.317 -1.9784  0.7447  3.4672
 5533SOL    HW228062   3.360   3.458   5.341 -0.0710  1.8190 -0.4392
 5534SOL     OW28063   4.481   3.955   8.974 -0.2476 -0.0787 -0.5372
 5534SOL    HW128064   4.467   3.891   8.905 -0.2966 -1.2456  0.5568
 5534SOL    HW228065   4.399   3.956   9.023 -1.4937 -1.9010 -2.5893
 5535SOL     OW28066   1.248   2.460  11.779  0.6065  0.0369  0.0298
 5535SOL    HW128067   1.289   2.542  11.752  1.9796 -0.7546 -0.3440
 5535SOL    HW228068   1.320   2.398  11.764 -0.0774 -0.5518 -0.7893
 5536SOL     OW28069   0.024   2.624  10.593 -0.1525 -0.1278  0.0145
 5536SOL    HW128070   0.116   2.649  10.590  0.2416 -1.8085 -1.5013
 5536SOL    HW228071   4.719   2.696  10.648 -1.9591  0.0931 -1.3046
 5537SOL     OW28072   0.604   1.068   6.678  0.1902  0.4139 -0.3637
 5537SOL    HW128073   0.542   1.097   6.611  0.4237 -1.1098 -1.2411
 5537SOL    HW228074   0.685   1.094   6.636 -0.6433  1.4788 -1.3159
 5538SOL     OW28075   1.417   4.085   8.048 -0.4067 -0.5217  0.0556
 5538SOL    HW128076   1.345   4.140   8.080 -1.0043 -1.7961  0.8928
 5538SOL    HW228077   1.454   4.053   8.130 -0.1737 -2.1072 -0.6689
 5539SOL     OW28078   3.918   3.572   4.206 -0.2036 -0.2418  0.8818
 5539SOL    HW128079   3.953   3.661   4.208  0.6307 -0.5409 -0.7012
 5539SOL    HW228080   3.828   3.586   4.175 -0.2328 -0.2608  0.9574
 5540SOL     OW28081   3.395   1.049  14.049  0.3782 -0.6414  0.1023
 5540SOL    HW128082   3.453   0.975  14.031 -0.7559 -0.5522 -3.8355
 5540SOL    HW228083   3.424   1.064  14.139  2.4467 -1.2523 -0.4612
 5541SOL     OW28084   2.824   1.629  12.727  0.5438  0.2694 -0.0648
 5541SOL    HW128085   2.830   1.563  12.658  0.4626 -0.6688  0.8275
 5541SOL    HW228086   2.869   1.580  12.796  0.2038  0.7958  0.5366
 5542SOL     OW28087   0.042   3.048  15.704  0.0661  0.1044 -0.1054
 5542SOL    HW128088   0.094   3.067  15.627 -0.6208  0.1412 -0.5603
 5542SOL    HW228089   0.109   3.050  15.773 -2.0731 -2.6399  2.0677
 5543SOL     OW28090   0.476   1.254   4.730  0.0780  0.4042 -0.4379
 5543SOL    HW128091   0.469   1.349   4.721  0.2849  0.4730  0.1242
 5543SOL    HW228092   0.514   1.238   4.643 -1.0686 -1.1390 -0.6717
 5544SOL     OW28093   1.770   2.284  12.043 -0.2944  0.0524  0.1750
 5544SOL    HW128094   1.788   2.377  12.054 -1.8050  0.1925  1.3464
 5544SOL    HW228095   1.845   2.250  11.993  1.6791  1.4775  2.1887
 5545SOL     OW28096   2.859   3.223   5.447 -0.0249  0.0494  0.0220
 5545SOL    HW128097   2.803   3.148   5.470  2.0895 -1.4643  0.2202
 5545SOL    HW228098   2.906   3.191   5.371 -1.2640  0.1503 -0.7907
 5546SOL     OW28099   2.372   2.781   2.008  0.0588  0.1258 -0.0559
 5546SOL    HW128100   2.384   2.687   1.996 -2.0787  0.0153 -1.2922
 5546SOL    HW228101   2.278   2.788   1.998  0.8000  3.7043 -4.4315
 5547SOL     OW28102   4.008   3.066  14.196  0.2506  0.2754 -0.2122
 5547SOL    HW128103   3.941   3.006  14.232  1.1540 -0.9375 -0.5508
 5547SOL    HW228104   4.068   3.058  14.270  2.0082  1.7978 -1.4890
 5548SOL     OW28105   4.725   2.271   6.782  0.0301 -0.0691  0.3444
 5548SOL    HW128106   4.726   2.180   6.753 -2.9351 -0.2294  0.8052
 5548SOL    HW228107   0.015   2.256   6.875  0.2215  0.7816  0.4493
 5549SOL     OW28108   1.953   3.951   5.190  0.6023  0.1886  0.3405
 5549SOL    HW128109   1.978   4.017   5.125  0.1483  0.6654  0.6548
 5549SOL    HW228110   1.870   3.991   5.215 -0.3184 -1.0028 -0.7948
 5550SOL     OW28111   2.999   0.285   6.441  0.1674 -0.7694 -0.1232
 5550SOL    HW128112   2.923   0.235   6.413  0.2154  0.1586 -1.8930
 5550SOL    HW228113   2.958   0.316   6.522  0.8633  0.5642 -0.2726
 5551SOL     OW28114   1.090   1.479   6.706  0.4176 -0.0204 -0.2543
 5551SOL    HW128115   1.111   1.398   6.661  0.0792  0.7217 -1.7552
 5551SOL    HW228116   1.031   1.447   6.774  0.8003  1.1654  0.6530
 5552SOL     OW28117   4.482   4.489   6.464  0.1896 -0.2121  0.7956
 5552SOL    HW128118   4.409   4.504   6.405 -2.9815  0.1221  4.8396
 5552SOL    HW228119   4.481   4.395   6.479 -3.2586 -0.3430 -0.4762
 5553SOL     OW28120   2.496   4.683   6.519  0.1800 -0.1196  0.2120
 5553SOL    HW128121   2.512   4.719   6.432  1.2935 -0.3344  0.3217
 5553SOL    HW228122   2.571   4.625   6.534  0.0067 -0.6055 -0.8179
 5554SOL     OW28123   4.620   0.047   3.826  0.0035 -0.3063  0.5081
 5554SOL    HW128124   4.570   0.006   3.897 -1.4370 -0.5328 -0.6486
 5554SOL    HW228125   4.705   0.059   3.870 -0.3043 -0.1440  1.0596
 5555SOL     OW28126   4.712   2.035   4.403 -0.9305  0.2433  0.2971
 5555SOL    HW128127   4.619   2.018   4.389 -1.6195  3.0426  1.5271
 5555SOL    HW228128   0.018   1.946   4.398  1.1133  1.1665 -2.6072
 5556SOL     OW28129   0.994   4.510   8.955  0.0658  0.2614  0.1396
 5556SOL    HW128130   1.063   4.518   9.020  0.3644  1.8913 -0.3770
 5556SOL    HW228131   0.967   4.421   8.977  2.2394 -0.5098 -0.3267
 5557SOL     OW28132   4.641   3.345  10.709 -0.3735  0.9289  0.1904
 5557SOL    HW128133   0.002   3.371  10.738 -0.7131  0.0008  2.0664
 5557SOL    HW228134   4.601   3.423  10.748 -3.4645 -1.4350  1.7449
 5558SOL     OW28135   1.035   4.632   3.349 -0.0061 -0.1564  1.1199
 5558SOL    HW128136   0.967   4.581   3.393 -0.0229 -0.8801  0.2684
 5558SOL    HW228137   1.096   4.651   3.421 -0.8596  2.2361  1.2105
 5559SOL     OW28138   2.260   4.579   2.855 -0.4716 -0.0126  0.2448
 5559SOL    HW128139   2.177   4.565   2.809 -0.9249  0.1622  1.0132
 5559SOL    HW228140   2.310   4.510   2.812 -0.3176  0.4749 -0.3493
 5560SOL     OW28141   2.102   3.629   2.933 -0.2140 -0.0441 -0.1953
 5560SOL    HW128142   2.185   3.646   2.978  1.4752 -3.6204 -1.9356
 5560SOL    HW228143   2.054   3.582   3.001 -1.2871  0.1688 -0.8074
 5561SOL     OW28144   0.713   3.881   7.904  0.0454 -0.0768 -0.7182
 5561SOL    HW128145   0.685   3.868   7.995 -0.7174 -1.8314 -1.2008
 5561SOL    HW228146   0.786   3.939   7.926 -0.6437  0.6270 -0.2891
 5562SOL     OW28147   2.196   4.159   1.827  0.1004  0.1413  0.4203
 5562SOL    HW128148   2.241   4.074   1.819 -0.6384 -0.0443 -1.7117
 5562SOL    HW228149   2.129   4.118   1.882  0.3648 -0.9477 -0.0747
 5563SOL     OW28150   0.672   4.676   6.135  0.5896  0.2707 -0.5275
 5563SOL    HW128151   0.741   4.609   6.138  1.4625  1.1283 -1.4192
 5563SOL    HW228152   0.715   0.019   6.184  0.7077 -0.5899  0.5942
 5564SOL     OW28153   1.194   2.504   1.474  0.1570 -0.0140 -0.0336
 5564SOL    HW128154   1.284   2.507   1.506  0.6460  0.1127 -1.4023
 5564SOL    HW228155   1.176   2.410   1.478  2.1937 -0.3370  1.1957
 5565SOL     OW28156   1.287   4.286   3.346 -0.0099  0.5690 -0.4979
 5565SOL    HW128157   1.371   4.329   3.335  0.0692  0.2985 -0.9921
 5565SOL    HW228158   1.297   4.256   3.436 -0.1579  2.3334  0.1065
 5566SOL     OW28159   2.016   0.909   8.363 -0.3059 -0.4107  0.2267
 5566SOL    HW128160   1.972   0.971   8.306 -0.7578 -3.3517 -2.6496
 5566SOL    HW228161   1.938   0.867   8.401 -0.3439 -0.2023  0.3803
 5567SOL     OW28162   0.740   2.232   8.151 -0.0457  0.1562  0.1889
 5567SOL    HW128163   0.710   2.263   8.065 -0.1429  0.4073  0.3134
 5567SOL    HW228164   0.790   2.306   8.187 -0.5060  1.0136 -0.9382
 5568SOL     OW28165   2.942   1.920   6.156 -0.0740 -0.2404 -0.0278
 5568SOL    HW128166   2.873   1.862   6.126 -0.4455  0.1973 -0.0205
 5568SOL    HW228167   2.987   1.864   6.219  0.5810  0.1943 -0.1064
 5569SOL     OW28168   3.714   1.651   2.467  0.5296 -0.2977  0.2992
 5569SOL    HW128169   3.645   1.717   2.474 -2.4087 -3.3244 -0.5043
 5569SOL    HW228170   3.670   1.573   2.499  1.1890  0.0136  1.9369
 5570SOL     OW28171   2.173   4.651   4.684 -0.2610  0.1505  0.4637
 5570SOL    HW128172   2.189   4.576   4.626  2.7665  1.2116 -0.0891
 5570SOL    HW228173   2.211   4.618   4.766  3.1828 -0.7266 -1.4923
 5571SOL     OW28174   3.967   4.720   2.399  0.3348  0.0762  0.0061
 5571SOL    HW128175   4.046   0.003   2.452  2.1586 -0.9277 -2.4938
 5571SOL    HW228176   3.977   0.048   2.322 -2.1991  0.0570 -0.3348
 5572SOL     OW28177   1.469   4.599   1.438 -0.2008 -0.0545  0.4219
 5572SOL    HW128178   1.518   4.677   1.465  1.8522 -0.9861 -0.6346
 5572SOL    HW228179   1.499   4.528   1.494 -1.1026 -0.1611  0.7862
 5573SOL     OW28180   3.792   1.640  12.273 -0.5545 -0.1760 -0.2489
 5573SOL    HW128181   3.767   1.673  12.187  0.3970  0.6616 -0.1990
 5573SOL    HW228182   3.710   1.660  12.319  0.3402  1.3254  0.6988
 5574SOL     OW28183   0.989   2.635   2.131 -0.2126 -0.3276 -0.1870
 5574SOL    HW128184   1.041   2.598   2.203  0.0373 -0.0914 -0.2455
 5574SOL    HW228185   1.009   2.572   2.061 -1.5127  1.2984 -2.0101
 5575SOL     OW28186   3.480   4.654   1.978 -0.0298 -0.1400  0.0283
 5575SOL    HW128187   3.531   4.644   1.897  0.3528 -1.3724  0.4187
 5575SOL    HW228188   3.499   0.020   1.990 -0.5741 -0.5353  3.8056
 5576SOL     OW28189   0.369   0.037   3.030 -0.0906 -0.0918  0.2588
 5576SOL    HW128190   0.426   0.028   2.954 -0.8729  0.9568 -0.4558
 5576SOL    HW228191   0.281   0.041   2.993 -0.5148 -0.2514  1.2410
 5577SOL     OW28192   4.029   0.034   0.971 -1.1232 -0.6839  0.2226
 5577SOL    HW128193   4.113   0.031   1.016 -0.3747 -2.7780 -1.2796
 5577SOL    HW228194   4.057   0.067   0.885  1.0788 -0.5887  0.9817
 5578SOL     OW28195   3.027   4.561   7.873 -0.0810  0.3357  0.0782
 5578SOL    HW128196   3.096   4.502   7.904  0.2718  1.4729  1.4505
 5578SOL    HW228197   3.043   4.647   7.911 -0.2140  1.7691 -3.1330
 5579SOL     OW28198   1.869   4.274  16.417  0.1096  0.2753 -0.1597
 5579SOL    HW128199   1.930   4.342  16.389  0.2428  0.6212  0.9641
 5579SOL    HW228200   1.787   4.316  16.390  1.0704  2.4899  0.3370
 5580SOL     OW28201   1.868   1.774   4.727  0.2757 -0.0135  0.0705
 5580SOL    HW128202   1.797   1.799   4.667 -1.5269  0.5297  2.4533
 5580SOL    HW228203   1.822   1.712   4.783  0.6209 -0.0776  0.2798
 5581SOL     OW28204   3.683   1.823   7.551 -0.1236 -0.1959 -0.3334
 5581SOL    HW128205   3.650   1.779   7.628 -1.6820  3.2537  0.9679
 5581SOL    HW228206   3.718   1.909   7.577 -2.3980  0.4767  0.4617
 5582SOL     OW28207   1.744   0.760   8.035 -0.3903 -0.6369 -0.5331
 5582SOL    HW128208   1.692   0.830   8.074 -0.5917 -1.6444  1.0052
 5582SOL    HW228209   1.693   0.686   8.069  1.2892 -1.7097 -0.3802
 5583SOL     OW28210   2.721   1.637   2.233 -0.7077  0.3876 -0.3543
 5583SOL    HW128211   2.674   1.575   2.178  1.8556  0.3380 -2.4963
 5583SOL    HW228212   2.796   1.579   2.247  0.1816  1.3162 -1.2048
 5584SOL     OW28213   1.340   2.075  13.184 -0.1533  0.2344 -0.2177
 5584SOL    HW128214   1.296   1.990  13.185 -2.5543  1.4851  2.5811
 5584SOL    HW228215   1.333   2.106  13.094  1.7693  3.1944  0.6663
 5585SOL     OW28216   1.203   3.341   1.193  0.0932  0.1711 -0.3351
 5585SOL    HW128217   1.246   3.299   1.267 -2.7823  0.0737  1.3020
 5585SOL    HW228218   1.263   3.414   1.181 -0.0531  0.4080  0.3643
 5586SOL     OW28219   1.080   4.208  10.684 -0.0630 -0.3758 -0.1596
 5586SOL    HW128220   1.054   4.178  10.597  0.2250  0.1175 -0.4165
 5586SOL    HW228221   1.021   4.151  10.733 -0.1490 -1.2616 -1.2937
 5587SOL     OW28222   3.063   0.790   0.045  0.3708  0.3956 -0.3454
 5587SOL    HW128223   3.131   0.858   0.043  0.6059  0.1532 -0.6155
 5587SOL    HW228224   3.076   0.765   0.136  0.9143  0.6514 -0.3485
 5588SOL     OW28225   2.566   2.834   5.845 -0.5532  0.6273  0.0075
 5588SOL    HW128226   2.636   2.781   5.808  0.6774  0.4618  2.5163
 5588SOL    HW228227   2.528   2.780   5.915 -2.0655 -0.4963 -1.6937
 5589SOL     OW28228   0.567   4.698   4.948  0.2630  0.1691  0.0822
 5589SOL    HW128229   0.541   0.054   4.907  0.2896  1.0160  1.8193
 5589SOL    HW228230   0.564   4.637   4.873  1.2189  0.8410 -0.5064
 5590SOL     OW28231   1.713   2.405  13.726 -0.1444 -0.2234  0.1051
 5590SOL    HW128232   1.773   2.433  13.656  1.8520 -1.4250  1.3260
 5590SOL    HW228233   1.735   2.313  13.742 -0.2672 -0.1964  0.4249
 5591SOL     OW28234   3.479   1.903  10.609 -0.1757  0.2601  0.3641
 5591SOL    HW128235   3.472   1.860  10.524 -0.3615  1.5174 -0.2565
 5591SOL    HW228236   3.508   1.993  10.594 -0.0172  0.1316 -0.1075
 5592SOL     OW28237   0.713   3.201   9.090 -0.9029  0.6642  0.1889
 5592SOL    HW128238   0.674   3.269   9.036  1.6298  1.4493 -0.6561
 5592SOL    HW228239   0.759   3.250   9.158 -0.6786  0.1976  0.3784
 5593SOL     OW28240   0.976   1.574   7.375  0.1642 -0.0928 -0.2305
 5593SOL    HW128241   0.969   1.637   7.303  1.4882  0.8823  0.4761
 5593SOL    HW228242   0.951   1.491   7.334 -0.8915  0.2684 -0.3314
 5594SOL     OW28243   0.560   3.088   2.762  0.0304 -0.2582  0.2007
 5594SOL    HW128244   0.471   3.075   2.728  0.1766  1.5266 -0.8509
 5594SOL    HW228245   0.603   3.136   2.691 -1.2397 -1.9976 -1.7838
 5595SOL     OW28246   4.623   2.359   7.075 -0.2650  0.0247  0.1313
 5595SOL    HW128247   4.617   2.367   7.170  2.0018  1.8148  0.1082
 5595SOL    HW228248   4.714   2.331   7.068  0.1394  0.5236  3.3175
 5596SOL     OW28249   1.028   3.382  17.101  0.2276 -0.5910 -0.5016
 5596SOL    HW128250   1.100   3.357  17.158 -0.0114  0.8406  0.4103
 5596SOL    HW228251   0.958   3.316  17.102  0.7631 -1.1381  0.9163
 5597SOL     OW28252   4.428   2.433   3.853  0.1843  0.2773  0.4976
 5597SOL    HW128253   4.477   2.515   3.854  0.2470  0.2813 -2.9707
 5597SOL    HW228254   4.399   2.438   3.944  1.2652  1.5960  0.7762
 5598SOL     OW28255   2.264   0.297   4.060 -0.0800 -0.2017 -0.5141
 5598SOL    HW128256   2.187   0.253   4.098  0.6903  0.4985  1.8854
 5598SOL    HW228257   2.348   0.269   4.097  0.5993 -1.1841 -2.8248
 5599SOL     OW28258   3.586   2.471   8.569 -0.4933  0.0644  0.2611
 5599SOL    HW128259   3.562   2.384   8.537 -1.2620  1.1817 -2.2041
 5599SOL    HW228260   3.679   2.455   8.585 -0.1803  0.3771 -1.2217
 5600SOL     OW28261   2.620   0.973   5.969  0.0040 -0.0062  1.2133
 5600SOL    HW128262   2.574   0.910   5.913  0.2231  0.3666  0.6068
 5600SOL    HW228263   2.694   0.993   5.912 -0.3827 -2.0404  0.0040
 5601SOL     OW28264   2.971   3.208  12.719 -0.4540 -0.3051  0.5101
 5601SOL    HW128265   2.886   3.163  12.722 -0.2403 -0.6209  2.0038
 5601SOL    HW228266   3.003   3.191  12.808  0.5619  0.7965  0.3527
 5602SOL     OW28267   3.811   0.225   0.391 -0.3078  0.2409 -0.4799
 5602SOL    HW128268   3.811   0.136   0.355  0.9969 -0.1918  0.5715
 5602SOL    HW228269   3.771   0.207   0.476  1.1296  2.0484  0.5559
 5603SOL     OW28270   4.683   4.473   7.122 -0.1733  0.8172 -0.3367
 5603SOL    HW128271   4.690   4.559   7.162 -1.1230  0.6191  0.2746
 5603SOL    HW228272   4.594   4.445   7.143 -1.0290  2.7695 -1.3083
 5604SOL     OW28273   1.530   1.306   7.816 -0.1069 -0.0019  0.0113
 5604SOL    HW128274   1.481   1.387   7.834  1.0482  0.8327 -0.6578
 5604SOL    HW228275   1.601   1.340   7.762  0.8110 -0.2833  1.0506
 5605SOL     OW28276   0.112   3.685  13.070 -0.1907 -0.5387 -0.3964
 5605SOL    HW128277   0.068   3.622  13.128 -0.5297  1.1156  1.1422
 5605SOL    HW228278   0.050   3.693  12.997 -2.3790 -0.0623  1.4925
 5606SOL     OW28279   3.446   0.067   2.978  0.1753 -0.4602 -0.0693
 5606SOL    HW128280   3.520   0.055   2.918 -1.2988 -0.3987 -1.8929
 5606SOL    HW228281   3.482   0.012   3.047  0.4751  0.8734  0.8329
 5607SOL     OW28282   0.888   4.191   7.527 -0.1640  0.0912 -0.0975
 5607SOL    HW128283   0.807   4.164   7.569  0.8443 -0.6081  1.3719
 5607SOL    HW228284   0.923   4.245   7.598 -0.2196  0.2596 -0.1983
 5608SOL     OW28285   0.354   0.840   7.758 -0.7273  0.3416 -0.0262
 5608SOL    HW128286   0.278   0.830   7.816 -1.7478 -2.8938 -1.9449
 5608SOL    HW228287   0.399   0.908   7.808 -0.2174  0.6842 -0.9702
 5609SOL     OW28288   1.936   4.199   0.802 -0.3193 -0.1358 -0.2483
 5609SOL    HW128289   1.988   4.184   0.723 -1.8330  0.3058 -1.3403
 5609SOL    HW228290   1.932   4.110   0.838 -1.9022 -0.8483 -2.1482
 5610SOL     OW28291   0.151   2.390  11.388  0.0796 -0.5508 -0.2296
 5610SOL    HW128292   0.223   2.438  11.348 -1.7160  0.8371 -1.7565
 5610SOL    HW228293   0.147   2.435  11.473  1.8966 -2.1860  0.7342
 5611SOL     OW28294   0.044   2.162  11.442 -0.0439 -0.0879  0.1426
 5611SOL    HW128295   0.107   2.091  11.454  1.0400  1.0847  1.3301
 5611SOL    HW228296   0.090   2.230  11.392  1.1453 -1.6245 -0.8615
 5612SOL     OW28297   0.921   0.114   2.283 -0.4276  0.1726  0.2185
 5612SOL    HW128298   0.934   0.023   2.256 -0.0886  0.4801 -0.6473
 5612SOL    HW228299   0.874   0.101   2.366 -0.0075  1.2273  0.6257
 5613SOL     OW28300   2.940   4.251   5.856 -0.5429 -0.0050  0.3031
 5613SOL    HW128301   2.917   4.294   5.938  0.3758  0.5836  0.2501
 5613SOL    HW228302   3.026   4.291   5.846 -0.9028  0.5682 -0.5601
 5614SOL     OW28303   1.971   2.525  17.330 -0.4539 -0.0805 -0.0981
 5614SOL    HW128304   1.951   2.433  17.349 -1.9647 -0.0631 -1.5620
 5614SOL    HW228305   1.914   2.538  17.254 -1.5780  1.6713  1.0575
 5615SOL     OW28306   4.551   1.598  11.427  0.2968 -0.4263  0.0879
 5615SOL    HW128307   4.568   1.565  11.339 -0.1300  1.4683 -0.7108
 5615SOL    HW228308   4.635   1.573  11.465  0.1971 -3.8258 -1.8675
 5616SOL     OW28309   3.559   3.613  17.049  0.0738 -0.2585  0.2664
 5616SOL    HW128310   3.550   3.537  16.991  1.1778  0.0261 -0.2850
 5616SOL    HW228311   3.466   3.632  17.059 -0.2564 -0.6043 -2.1611
 5617SOL     OW28312   4.126   3.074   2.300  0.2812  0.5398 -0.2253
 5617SOL    HW128313   4.179   3.097   2.223 -0.0703 -0.2978 -0.7217
 5617SOL    HW228314   4.144   3.146   2.360 -0.6510  2.6257 -2.4374
 5618SOL     OW28315   2.070   0.397   4.736 -0.0917  0.5525 -0.2829
 5618SOL    HW128316   2.013   0.459   4.781 -0.1348  2.3363 -2.7377
 5618SOL    HW228317   2.013   0.354   4.672 -1.1934  0.1825  0.9485
 5619SOL     OW28318   0.426   0.355   8.187  0.4018  0.3136 -0.1911
 5619SOL    HW128319   0.345   0.331   8.232  0.2494  0.1715 -0.5468
 5619SOL    HW228320   0.411   0.309   8.105  4.4595 -0.9675 -0.1885
 5620SOL     OW28321   0.200   1.169   7.063 -0.5949 -0.2857  0.1599
 5620SOL    HW128322   0.233   1.152   6.975 -3.2428  0.8091 -1.0431
 5620SOL    HW228323   0.177   1.262   7.058 -1.5370 -0.5213  0.1633
 5621SOL     OW28324   0.971   0.158  15.517 -0.2844  0.2919 -0.8927
 5621SOL    HW128325   1.013   0.104  15.450 -0.1368 -0.7238  0.0316
 5621SOL    HW228326   0.884   0.168  15.477 -0.8309  0.2976  0.3102
 5622SOL     OW28327   1.679   1.355   0.694  0.2823 -0.5412  0.1441
 5622SOL    HW128328   1.771   1.327   0.703  0.0906 -0.5005  2.2196
 5622SOL    HW228329   1.639   1.272   0.667  1.2132 -1.0232  0.2326
 5623SOL     OW28330   2.964   2.377   2.864 -0.3626  0.3652  0.7410
 5623SOL    HW128331   2.999   2.313   2.925  2.8634  2.7291  1.3864
 5623SOL    HW228332   2.967   2.457   2.917  0.6731  2.6275 -2.7175
 5624SOL     OW28333   3.197   3.816   3.441 -0.1422 -0.4457  0.7810
 5624SOL    HW128334   3.215   3.808   3.535 -0.4514  0.0504  0.8851
 5624SOL    HW228335   3.225   3.732   3.405  1.7672  0.1613  0.8126
 5625SOL     OW28336   2.215   4.584   3.148  0.3499  0.2170 -0.2526
 5625SOL    HW128337   2.217   4.674   3.117  2.5950  0.3896  0.3909
 5625SOL    HW228338   2.235   4.533   3.069 -1.4289  0.7148 -1.0202
 5626SOL     OW28339   0.774   1.943   8.256 -0.1048  0.1823  0.1105
 5626SOL    HW128340   0.779   2.033   8.289  0.9865  0.5264 -0.9976
 5626SOL    HW228341   0.693   1.910   8.295 -0.8657  0.2855 -1.3679
 5627SOL     OW28342   1.052   2.644  10.244  0.2431 -0.3388  0.4406
 5627SOL    HW128343   1.039   2.566  10.190 -0.1075  1.5813 -2.2510
 5627SOL    HW228344   0.984   2.696  10.201  1.6044 -0.6748 -2.0933
 5628SOL     OW28345   4.466   1.129   2.658  0.6293 -0.1452  0.3482
 5628SOL    HW128346   4.529   1.126   2.586  0.3976 -0.5728  0.1653
 5628SOL    HW228347   4.385   1.107   2.612  0.6431  0.0806  0.2132
 5629SOL     OW28348   4.072   4.719   2.719  0.1542  0.8635 -0.3311
 5629SOL    HW128349   4.136   4.717   2.648 -0.0075 -0.7494 -0.4497
 5629SOL    HW228350   3.999   0.035   2.674 -0.4465 -0.9482 -1.1002
 5630SOL     OW28351   0.532   4.340   4.657 -0.4357  0.0779 -0.1735
 5630SOL    HW128352   0.608   4.282   4.645  0.3363  0.7737  1.3240
 5630SOL    HW228353   0.453   4.288   4.648 -1.9264  2.5515 -1.2967
 5631SOL     OW28354   3.034   0.921   1.255  0.6390  0.1716 -0.1890
 5631SOL    HW128355   2.985   1.003   1.257 -0.5352 -0.5308 -0.0482
 5631SOL    HW228356   3.067   0.913   1.345  1.3816  1.9738 -0.2986
 5632SOL     OW28357   3.494   1.958   2.104 -0.3372 -0.0298 -0.0714
 5632SOL    HW128358   3.516   2.033   2.050 -0.6845 -0.9652 -1.4999
 5632SOL    HW228359   3.555   1.971   2.176 -0.9592  2.8918 -0.0887
 5633SOL     OW28360   4.425   3.270  12.997  0.0338  0.1732  0.3281
 5633SOL    HW128361   4.443   3.360  12.968  2.0390  0.4201  2.2752
 5633SOL    HW228362   4.340   3.285  13.039 -0.6496 -0.4674 -0.8262
 5634SOL     OW28363   0.872   4.308   8.347 -0.5421 -0.0137  0.0146
 5634SOL    HW128364   0.860   4.220   8.384 -0.8490 -0.0144 -0.0895
 5634SOL    HW228365   0.787   4.330   8.310 -0.9081  1.0036  1.4689
 5635SOL     OW28366   1.977   1.788   6.052  0.0031  0.2141  0.0587
 5635SOL    HW128367   1.978   1.730   6.129  0.1122 -0.6016 -0.5532
 5635SOL    HW228368   1.885   1.805   6.035  0.0088 -1.6337 -1.8363
 5636SOL     OW28369   2.694   3.653   2.988 -0.3578  0.1682  0.1605
 5636SOL    HW128370   2.723   3.657   2.897 -0.4309  0.3958  0.1469
 5636SOL    HW228371   2.639   3.575   2.983  0.9469 -0.7752  0.3627
 5637SOL     OW28372   0.840   3.596   3.737 -0.1109 -0.3452  0.5758
 5637SOL    HW128373   0.832   3.588   3.832  0.0262  0.5183  0.6622
 5637SOL    HW228374   0.754   3.605   3.696  1.7431  3.6538 -2.3811
 5638SOL     OW28375   1.584   3.265   8.300 -0.3606  0.5024  0.2416
 5638SOL    HW128376   1.656   3.300   8.354  0.9594 -1.8105 -0.0371
 5638SOL    HW228377   1.617   3.177   8.283  0.7240  1.1277 -0.9387
 5639SOL     OW28378   1.842   3.211   2.518  0.1828  0.2069  0.4190
 5639SOL    HW128379   1.937   3.216   2.516  0.0961  0.5630 -3.3731
 5639SOL    HW228380   1.832   3.282   2.581  0.5102 -0.9751  1.7994
 5640SOL     OW28381   2.773   1.736  11.425  0.1931  0.2646  0.1189
 5640SOL    HW128382   2.815   1.805  11.476 -0.6568  0.1344  0.9840
 5640SOL    HW228383   2.681   1.750  11.447  0.5663  1.9451  0.5753
 5641SOL     OW28384   1.326   4.196   3.592  0.2967 -0.1709  0.1735
 5641SOL    HW128385   1.368   4.117   3.626 -0.8156 -1.0395 -0.4811
 5641SOL    HW228386   1.374   4.273   3.621  2.0114 -0.6730 -1.3126
 5642SOL     OW28387   1.421   1.772   1.952  0.4954 -0.1346 -0.0761
 5642SOL    HW128388   1.426   1.711   1.878  0.9815  1.0873 -1.0440
 5642SOL    HW228389   1.470   1.724   2.019 -2.1725  1.5615  3.0981
 5643SOL     OW28390   3.142   2.439  12.394  0.3335 -0.4900  0.3622
 5643SOL    HW128391   3.185   2.369  12.444 -1.4844  0.6571  3.5779
 5643SOL    HW228392   3.210   2.474  12.337 -1.0712  1.7902  0.0696
 5644SOL     OW28393   3.992   4.500   3.107  0.0799 -0.1467  0.6612
 5644SOL    HW128394   3.902   4.507   3.075  0.9045  2.4372 -1.1074
 5644SOL    HW228395   4.032   4.576   3.064 -3.2176 -0.0714 -2.3256
 5645SOL     OW28396   0.437   0.075   9.876  0.1842 -0.3116  0.1224
 5645SOL    HW128397   0.501   0.018   9.833  1.8599  0.1186  2.0392
 5645SOL    HW228398   0.475   0.084   9.963  2.5416 -0.6744 -0.8853
 5646SOL     OW28399   0.883   1.333  14.726  0.6799 -0.7736  0.0685
 5646SOL    HW128400   0.963   1.326  14.673  1.0335 -0.5735  0.5744
 5646SOL    HW228401   0.909   1.388  14.800 -2.1020 -0.4404  0.7893
 5647SOL     OW28402   2.847   3.139   4.222 -0.4591 -0.4968  0.5360
 5647SOL    HW128403   2.773   3.095   4.264 -0.7578  0.4709  1.0318
 5647SOL    HW228404   2.810   3.135   4.134 -0.5888  1.5853  0.4981
 5648SOL     OW28405   1.283   1.258   3.982  0.0157 -0.1697  0.4681
 5648SOL    HW128406   1.299   1.348   4.010  1.5518 -0.3966  0.2937
 5648SOL    HW228407   1.189   1.260   3.963  0.2017  0.7644 -0.3745
 5649SOL     OW28408   2.937   1.883   5.619  0.0229  0.4505  0.3176
 5649SOL    HW128409   2.970   1.956   5.671  1.2081 -0.5042  0.8770
 5649SOL    HW228410   2.895   1.933   5.548  1.3795 -0.0184 -0.8209
 5650SOL     OW28411   2.864   3.348   6.969 -0.3371 -0.1332  0.2926
 5650SOL    HW128412   2.947   3.316   7.006  0.5026  0.8002 -0.7852
 5650SOL    HW228413   2.872   3.443   6.959 -0.9398 -0.2210 -1.0013
 5651SOL     OW28414   4.670   3.606   4.595 -0.1561  0.2393  0.1869
 5651SOL    HW128415   4.644   3.660   4.520  2.2744  0.6843 -0.3606
 5651SOL    HW228416   0.018   3.559   4.558 -2.2396 -2.8953  0.0142
 5652SOL     OW28417   2.522   4.695   2.624 -0.2305 -0.2635 -0.2307
 5652SOL    HW128418   2.605   4.689   2.576 -1.4421 -1.1907 -2.2092
 5652SOL    HW228419   2.542   0.024   2.699  1.1618  0.1464 -0.9184
 5653SOL     OW28420   1.811   0.773   4.686 -0.3711  0.1898 -0.1711
 5653SOL    HW128421   1.762   0.829   4.626 -0.2077 -0.8493 -1.2754
 5653SOL    HW228422   1.755   0.695   4.686 -0.0437 -0.0419  1.1632
 5654SOL     OW28423   0.827   2.043   9.526  0.6692  0.4266  0.0480
 5654SOL    HW128424   0.836   2.043   9.430  0.5750  3.2437  0.0557
 5654SOL    HW228425   0.858   1.954   9.544  0.2630  0.1595 -0.5573
 5655SOL     OW28426   0.395   0.520  12.457 -0.0273  0.2700 -0.1602
 5655SOL    HW128427   0.403   0.609  12.492  1.9945  0.6071 -1.4710
 5655SOL    HW228428   0.434   0.467  12.526 -0.3873  0.2779  0.0519
 5656SOL     OW28429   4.281   1.696   8.585  0.3384 -0.0183  0.3115
 5656SOL    HW128430   4.315   1.785   8.585 -0.8328  0.4297 -1.8880
 5656SOL    HW228431   4.199   1.697   8.535 -0.3158 -0.7349  1.3515
 5657SOL     OW28432   2.570   2.495   4.944 -0.7644 -1.0946  0.0704
 5657SOL    HW128433   2.508   2.463   5.010 -3.2948 -2.2793 -2.8547
 5657SOL    HW228434   2.655   2.470   4.981 -0.2500 -1.5908 -1.4505
 5658SOL     OW28435   0.316   4.549   6.690  0.7482  0.6632 -0.6517
 5658SOL    HW128436   0.346   4.563   6.780  0.1292  3.0372 -0.8268
 5658SOL    HW228437   0.221   4.544   6.703  0.8864  0.0351  0.1744
 5659SOL     OW28438   2.895   3.551  11.883  0.2983  0.0370 -0.0792
 5659SOL    HW128439   2.841   3.495  11.827 -0.1121  2.5143 -2.1402
 5659SOL    HW228440   2.891   3.626  11.825 -0.3492 -1.5207 -2.0629
 5660SOL     OW28441   2.215   3.967   9.967  0.0327  0.3620 -0.2918
 5660SOL    HW128442   2.240   4.011   9.885 -3.6125  1.9282 -0.5671
 5660SOL    HW228443   2.193   3.878   9.940  0.3014  0.6157 -1.3588
 5661SOL     OW28444   3.254   0.779   2.190  0.5339 -0.3869 -0.0775
 5661SOL    HW128445   3.274   0.752   2.100  2.1472  0.3615  0.0422
 5661SOL    HW228446   3.214   0.701   2.229  1.1266 -0.1456  1.0324
 5662SOL     OW28447   0.945   1.528   4.804 -0.2713 -0.1013 -0.0830
 5662SOL    HW128448   0.883   1.541   4.876  0.4252 -0.8915  0.6801
 5662SOL    HW228449   0.889   1.484   4.741  0.0843 -2.8377  1.5036
 5663SOL     OW28450   0.018   2.384   9.663  0.5773  0.7037  0.1635
 5663SOL    HW128451   4.700   2.372   9.747 -0.5796 -0.9953 -0.6945
 5663SOL    HW228452   4.683   2.347   9.599  0.8635  1.9813 -0.8484
 5664SOL     OW28453   1.616   0.940   4.068 -0.2303  0.2562 -0.6353
 5664SOL    HW128454   1.632   0.846   4.066  0.1369  0.3349 -1.3324
 5664SOL    HW228455   1.522   0.954   4.056 -0.6522 -1.3672  0.7778
 5665SOL     OW28456   0.016   2.763  13.413  0.3501 -0.3193 -0.5226
 5665SOL    HW128457   4.676   2.807  13.360  1.3804 -0.4278 -1.9001
 5665SOL    HW228458   4.719   2.784  13.504  1.3482 -0.2277 -0.2870
 5666SOL     OW28459   1.791   3.240   8.012 -0.1058  0.0676  0.3481
 5666SOL    HW128460   1.854   3.199   7.952 -1.0091  0.6343 -0.9866
 5666SOL    HW228461   1.707   3.246   7.966 -1.0449  1.2310  2.2455
 5667SOL     OW28462   1.550   4.435   4.893 -0.0476  0.4010 -0.4405
 5667SOL    HW128463   1.498   4.515   4.891  0.6101  0.8356 -0.1226
 5667SOL    HW228464   1.519   4.395   4.811 -2.5449  0.0285  0.6842
 5668SOL     OW28465   1.782   4.203   9.032 -0.4790  0.1934  0.2677
 5668SOL    HW128466   1.774   4.185   8.939  2.6949 -2.2824  0.4998
 5668SOL    HW228467   1.705   4.163   9.073  0.2516 -1.5957 -0.1027
 5669SOL     OW28468   4.479   1.617   9.749  0.4063  0.2252  0.7531
 5669SOL    HW128469   4.540   1.554   9.788 -1.6669 -1.3536  1.4565
 5669SOL    HW228470   4.399   1.564   9.748  0.7885 -0.3435  0.1499
 5670SOL     OW28471   2.827   2.321   3.640 -0.1269 -0.8662 -0.3661
 5670SOL    HW128472   2.760   2.376   3.599  1.0902 -0.3597 -1.6880
 5670SOL    HW228473   2.865   2.393   3.690  1.0958 -1.8912  0.1708
 5671SOL     OW28474   0.407   1.533   1.079 -0.2107  0.0713  0.2471
 5671SOL    HW128475   0.465   1.461   1.104 -1.9186 -1.1306  0.7964
 5671SOL    HW228476   0.445   1.604   1.132  1.8139 -0.8450  0.0204
 5672SOL     OW28477   1.030   1.908   4.322 -0.1148 -0.3925  0.6084
 5672SOL    HW128478   1.027   1.997   4.357 -2.0487 -0.6300  1.0539
 5672SOL    HW228479   0.940   1.885   4.344 -1.3487  1.7306 -2.1286
 5673SOL     OW28480   0.919   2.106   4.698  0.4995  0.1062 -0.6860
 5673SOL    HW128481   0.838   2.127   4.653  0.2528 -0.5088 -0.5268
 5673SOL    HW228482   0.911   2.013   4.718  0.3091  0.0696 -0.9314
 5674SOL     OW28483   1.904   1.501   7.822 -0.0532  0.0188 -0.4698
 5674SOL    HW128484   1.909   1.580   7.768 -0.0038 -0.6920 -1.4835
 5674SOL    HW228485   1.829   1.522   7.878 -0.1004  1.2477 -0.9901
 5675SOL     OW28486   1.017   4.195   4.495  0.2740  0.0692 -0.0695
 5675SOL    HW128487   0.929   4.199   4.533  0.1780 -0.0289 -0.2836
 5675SOL    HW228488   1.015   4.245   4.414 -1.4384 -0.2526 -0.2276
 5676SOL     OW28489   1.703   0.501  10.044  0.7981 -0.3817 -0.3442
 5676SOL    HW128490   1.700   0.492  10.140  0.0997  1.1604 -0.2187
 5676SOL    HW228491   1.796   0.505  10.021  1.1034 -2.8996  0.4781
 5677SOL     OW28492   3.304   3.601   6.304 -0.2150 -0.1307  0.3199
 5677SOL    HW128493   3.302   3.616   6.210 -0.3323 -2.3882 -0.0258
 5677SOL    HW228494   3.237   3.665   6.327  0.1008  0.4611 -0.4327
 5678SOL     OW28495   1.329   2.490   9.218 -0.4002  0.6483  0.2892
 5678SOL    HW128496   1.395   2.554   9.243  0.1666 -0.6240  2.0962
 5678SOL    HW228497   1.385   2.434   9.164  1.4289  0.6422  2.2287
 5679SOL     OW28498   2.080   3.922  16.651  0.1628 -0.0655 -0.2265
 5679SOL    HW128499   2.034   3.861  16.710 -0.1233  1.7595  1.4209
 5679SOL    HW228500   2.150   3.862  16.626 -1.4935 -2.8281  1.6914
 5680SOL     OW28501   3.728   3.701   3.748  0.0546 -0.4762 -0.0805
 5680SOL    HW128502   3.662   3.767   3.769 -2.2633 -2.8720  0.1183
 5680SOL    HW228503   3.765   3.737   3.667 -0.1941  1.9043  0.8679
 5681SOL     OW28504   1.077   0.837   9.490 -0.2006 -0.3323 -0.3966
 5681SOL    HW128505   1.075   0.897   9.564 -1.6009  0.0516 -0.7622
 5681SOL    HW228506   1.171   0.817   9.494  0.0004  0.8518  0.6760
 5682SOL     OW28507   0.635   1.201   7.419 -0.0869 -0.3980 -0.2987
 5682SOL    HW128508   0.561   1.258   7.398 -2.7450 -3.0655  1.8276
 5682SOL    HW228509   0.611   1.170   7.506  0.3480  2.2192  0.7574
 5683SOL     OW28510   2.716   3.501   5.938  0.2842 -0.1252  0.3159
 5683SOL    HW128511   2.737   3.585   5.979  0.7571 -1.1261  2.1324
 5683SOL    HW228512   2.788   3.501   5.875 -0.9306  0.0042 -1.0619
 5684SOL     OW28513   1.709   2.754   5.332  0.1162 -0.0958 -0.0866
 5684SOL    HW128514   1.787   2.808   5.317 -1.0631  1.4993 -0.5293
 5684SOL    HW228515   1.732   2.707   5.412  0.4179 -0.1513 -0.2064
 5685SOL     OW28516   3.915   1.955   5.332 -0.3796 -0.1263  0.2112
 5685SOL    HW128517   3.961   1.894   5.274  1.5921 -0.7287  2.4358
 5685SOL    HW228518   3.827   1.942   5.298 -0.2867  1.1169 -0.5245
 5686SOL     OW28519   2.032   1.962   0.665 -0.0237  0.0046  0.0778
 5686SOL    HW128520   2.100   1.944   0.730 -0.4962  1.3954  0.9516
 5686SOL    HW228521   1.948   1.957   0.712  0.8962  0.1272  1.7317
 5687SOL     OW28522   4.292   2.316   8.795 -0.0703  0.2927 -0.6619
 5687SOL    HW128523   4.351   2.255   8.840 -0.6053  0.1786 -0.1091
 5687SOL    HW228524   4.314   2.306   8.703 -0.5739  1.6094 -0.9285
 5688SOL     OW28525   0.061   3.661   1.858  0.4301  0.0965  0.5170
 5688SOL    HW128526   0.123   3.713   1.808  1.2380  0.4193  1.8545
 5688SOL    HW228527   4.720   3.728   1.870 -0.6571 -0.8130 -0.4868
 5689SOL     OW28528   2.429   2.700   5.248 -0.1751 -0.0129 -0.5802
 5689SOL    HW128529   2.395   2.630   5.303  0.6644  0.5443  0.6422
 5689SOL    HW228530   2.522   2.683   5.262  0.0674  1.1160 -0.7852
 5690SOL     OW28531   4.034   3.726  10.263  0.0750  0.0426  0.1553
 5690SOL    HW128532   4.049   3.720  10.358 -0.5911 -0.8650  0.2034
 5690SOL    HW228533   3.951   3.773  10.251  0.5986  1.5122  2.1855
 5691SOL     OW28534   0.398   0.757   5.206  1.1633 -0.8556  0.2478
 5691SOL    HW128535   0.418   0.851   5.206  3.1220 -1.2800 -3.1983
 5691SOL    HW228536   0.365   0.752   5.116 -0.2348  0.3130  0.6977
 5692SOL     OW28537   2.990   2.405  10.726  0.2114  0.3516  0.5378
 5692SOL    HW128538   2.902   2.400  10.765 -0.1210 -1.6787 -0.4612
 5692SOL    HW228539   2.970   2.474  10.664 -0.9238  1.5668  2.2476
 5693SOL     OW28540   2.162   0.290   7.992  0.0372 -0.2104 -0.4681
 5693SOL    HW128541   2.180   0.370   8.041 -1.0938 -0.1753 -0.1026
 5693SOL    HW228542   2.154   0.232   8.069  0.9980  1.2748  0.7384
 5694SOL     OW28543   4.013   3.072  10.449 -0.2555 -0.0111  0.1222
 5694SOL    HW128544   4.077   3.143  10.460 -0.0529  0.1255 -1.8829
 5694SOL    HW228545   3.957   3.083  10.526 -0.3719  1.0458 -0.1154
 5695SOL     OW28546   2.106   3.977   7.033 -0.3274 -0.0422  0.7939
 5695SOL    HW128547   2.109   4.068   7.061 -1.0223 -0.1207  1.1257
 5695SOL    HW228548   2.155   3.934   7.103 -0.8805  0.2243  1.3493
 5696SOL     OW28549   3.597   0.790   3.735 -0.4436  0.2428 -0.0900
 5696SOL    HW128550   3.562   0.788   3.646  1.5211  2.7039 -0.9172
 5696SOL    HW228551   3.553   0.709   3.761 -0.4963  0.4187  0.3694
 5697SOL     OW28552   0.636   4.156   3.757  0.2068  0.1775 -0.2464
 5697SOL    HW128553   0.563   4.096   3.740  3.0792 -3.1938 -0.6297
 5697SOL    HW228554   0.581   4.235   3.753 -0.7489 -0.4497  0.3928
 5698SOL     OW28555   0.137   0.478  12.323  0.7088  0.3863 -0.2786
 5698SOL    HW128556   0.053   0.476  12.370  1.4207 -1.5193  0.9175
 5698SOL    HW228557   0.196   0.512  12.390  0.0855 -0.0074  0.4783
 5699SOL     OW28558   1.433   3.332   1.760  0.3216 -0.0814 -0.9069
 5699SOL    HW128559   1.519   3.374   1.761  0.3990 -0.2296 -3.8815
 5699SOL    HW228560   1.400   3.357   1.847  0.6739 -1.4008 -0.3938
 5700SOL     OW28561   3.675   4.576  12.130 -0.3420  0.0801 -0.0085
 5700SOL    HW128562   3.719   4.658  12.109  2.7465 -1.7469 -0.7271
 5700SOL    HW228563   3.598   4.575  12.074  0.2515 -0.6950 -0.8230
 5701SOL     OW28564   2.329   3.510   8.231  0.3533 -0.1388  0.8214
 5701SOL    HW128565   2.335   3.495   8.325  1.8049  1.1278  0.9290
 5701SOL    HW228566   2.416   3.493   8.193 -0.0911  0.0161 -0.2705
 5702SOL     OW28567   3.198   3.162  10.643  0.1469 -0.0297  0.0381
 5702SOL    HW128568   3.201   3.157  10.738  0.0223 -2.0411 -0.0652
 5702SOL    HW228569   3.269   3.100  10.625  0.4472  0.1656  0.5485
 5703SOL     OW28570   1.643   1.740   4.300  0.4156  0.1764 -1.4705
 5703SOL    HW128571   1.709   1.743   4.369 -0.4788 -0.0163 -0.6193
 5703SOL    HW228572   1.663   1.821   4.253  0.3241  0.7588 -0.5010
 5704SOL     OW28573   3.899   4.472  13.575  0.1571 -0.0312 -0.2474
 5704SOL    HW128574   3.991   4.460  13.553  0.3046 -0.5120  0.6328
 5704SOL    HW228575   3.913   4.532  13.648  1.0499 -0.2553 -0.2395
 5705SOL     OW28576   4.365   3.959   9.476  0.3300 -0.4050 -0.5903
 5705SOL    HW128577   4.426   3.903   9.428 -0.7490 -1.7184 -0.4254
 5705SOL    HW228578   4.427   4.028   9.500 -0.9712  0.6929 -0.3403
 5706SOL     OW28579   3.043   2.067   4.690 -0.0302 -0.0007  0.6118
 5706SOL    HW128580   3.107   2.018   4.742  1.2882  1.0791  0.0090
 5706SOL    HW228581   3.057   2.158   4.717  1.7305 -0.0295 -0.1808
 5707SOL     OW28582   3.485   0.319   5.035  0.5192  0.0304  0.1672
 5707SOL    HW128583   3.475   0.292   4.944  0.8741  0.3832  0.0255
 5707SOL    HW228584   3.578   0.300   5.047  1.6418  5.0024 -0.9267
 5708SOL     OW28585   2.701   3.995  11.798  0.0641 -0.5442 -0.6641
 5708SOL    HW128586   2.784   4.043  11.800  0.2511 -0.8449 -1.2033
 5708SOL    HW228587   2.684   3.979  11.891  2.1013  0.5718 -0.0720
 5709SOL     OW28588   0.161   1.245   6.500  0.6828 -0.1624 -0.1083
 5709SOL    HW128589   0.134   1.166   6.452  0.9067 -1.1078  1.3273
 5709SOL    HW228590   0.238   1.283   6.460 -0.6115  1.7805 -0.7675
 5710SOL     OW28591   3.375   2.606   8.698 -0.6512  0.0349  0.2962
 5710SOL    HW128592   3.401   2.653   8.620 -0.1581  1.8818  1.5888
 5710SOL    HW228593   3.429   2.527   8.705 -1.6498 -0.7255 -0.6068
 5711SOL     OW28594   0.507   1.507  14.218  0.1667  0.1876 -0.6543
 5711SOL    HW128595   0.470   1.419  14.213 -0.4732  0.4235 -0.0221
 5711SOL    HW228596   0.581   1.487  14.275  0.0504 -0.4699 -0.7352
 5712SOL     OW28597   1.054   2.216   7.141 -0.1928 -0.0707 -0.0207
 5712SOL    HW128598   1.028   2.308   7.135 -1.1718 -0.1076  3.6540
 5712SOL    HW228599   0.970   2.172   7.124 -0.8066  1.8758 -2.0400
 5713SOL     OW28600   2.445   3.512   3.297  0.6780 -0.2968 -0.2721
 5713SOL    HW128601   2.501   3.472   3.230  1.0364 -0.9859  0.4383
 5713SOL    HW228602   2.497   3.584   3.332  2.1503 -0.2774 -2.4999
 5714SOL     OW28603   1.570   2.835  10.695 -0.1024  0.1278  0.4358
 5714SOL    HW128604   1.612   2.919  10.679 -0.7067 -0.1294 -2.4560
 5714SOL    HW228605   1.646   2.786  10.728  2.0586  0.6229 -3.7509
 5715SOL     OW28606   2.495   0.045   3.906 -0.1921  0.1254  0.0095
 5715SOL    HW128607   2.521   4.704   3.969  1.0108  1.0904  0.5590
 5715SOL    HW228608   2.511   0.121   3.962 -0.2616 -0.8328  1.3532
 5716SOL     OW28609   2.071   0.676  11.543  0.1970  0.2258  0.1901
 5716SOL    HW128610   2.130   0.752  11.541 -0.9774  1.1833  1.3025
 5716SOL    HW228611   2.126   0.602  11.567 -2.6851 -1.9877 -0.0194
 5717SOL     OW28612   1.180   3.055   9.870 -0.1986  0.0243 -0.3917
 5717SOL    HW128613   1.253   2.996   9.889 -0.7532 -0.0595  1.4578
 5717SOL    HW228614   1.138   2.994   9.809 -1.0591  1.0470 -0.8005
 5718SOL     OW28615   2.561   0.312   8.676 -0.1416 -1.2337  0.0840
 5718SOL    HW128616   2.593   0.402   8.669 -2.5868 -0.2967  0.8354
 5718SOL    HW228617   2.644   0.274   8.703  0.9972  0.3219 -1.2612
 5719SOL     OW28618   0.369   0.480  15.267  0.6208 -0.9161  0.4412
 5719SOL    HW128619   0.359   0.569  15.234  1.1682 -0.4241  1.6078
 5719SOL    HW228620   0.287   0.438  15.240 -0.8152  2.1316  0.0883
 5720SOL     OW28621   2.457   4.011   4.331  0.0115 -0.7004 -0.1921
 5720SOL    HW128622   2.507   3.978   4.256  0.6110  1.5379 -0.7576
 5720SOL    HW228623   2.461   3.941   4.397  1.4231  1.7778  2.3629
 5721SOL     OW28624   0.379   0.193   7.978 -0.0264  0.2426  0.3686
 5721SOL    HW128625   0.413   0.214   7.891  1.0886 -3.0391  0.0142
 5721SOL    HW228626   0.371   0.100   7.960 -0.1845  0.0591  1.3691
 5722SOL     OW28627   4.706   3.872   6.590  0.0045  0.7302 -0.0517
 5722SOL    HW128628   4.689   3.962   6.617  0.4237  0.7472  0.1572
 5722SOL    HW228629   0.054   3.856   6.647 -0.1849 -0.0058 -0.0104
 5723SOL     OW28630   3.548   0.562   3.866  0.3141 -0.5899  0.0892
 5723SOL    HW128631   3.566   0.575   3.960 -1.2373  0.4510  0.2536
 5723SOL    HW228632   3.458   0.532   3.878 -0.0437  1.0202  1.5980
 5724SOL     OW28633   4.197   1.440   8.238  0.0441  0.1869  0.0838
 5724SOL    HW128634   4.222   1.507   8.175  3.1781 -1.6375 -0.5842
 5724SOL    HW228635   4.278   1.443   8.290  0.0157 -2.0664  0.2433
 5725SOL     OW28636   4.136   1.685   9.774  0.1584 -0.0285  0.0529
 5725SOL    HW128637   4.185   1.633   9.838 -0.2759 -0.8144 -0.2505
 5725SOL    HW228638   4.085   1.621   9.724  2.3680 -1.5468 -0.2166
 5726SOL     OW28639   1.008   2.100   5.148  0.0209  0.2852 -0.4584
 5726SOL    HW128640   1.056   2.020   5.127 -1.8571 -0.8351 -0.4592
 5726SOL    HW228641   0.972   2.086   5.236  0.7512 -0.1719 -0.2360
 5727SOL     OW28642   2.916   3.553   5.762  0.1806  0.2138 -0.3697
 5727SOL    HW128643   2.881   3.640   5.741 -0.0970  0.9824  3.3437
 5727SOL    HW228644   2.990   3.584   5.814 -0.1554  0.9697 -0.3363
 5728SOL     OW28645   2.007   0.049   6.909  0.0408  0.6281 -0.4355
 5728SOL    HW128646   2.087   0.101   6.907 -0.1855  0.9090 -1.8002
 5728SOL    HW228647   1.949   0.120   6.937 -1.2640 -0.1439 -1.2031
 5729SOL     OW28648   4.014   2.954  15.154 -0.2157 -0.5155 -1.0960
 5729SOL    HW128649   4.005   3.029  15.213 -0.4127  1.0632 -3.1276
 5729SOL    HW228650   4.106   2.928  15.159  0.3608  1.9746  1.9030
 5730SOL     OW28651   1.198   2.173   3.545  0.0418 -0.1908  0.2270
 5730SOL    HW128652   1.117   2.128   3.569  1.0511 -1.4502  1.2561
 5730SOL    HW228653   1.197   2.157   3.451  2.8085 -1.4730  0.4046
 5731SOL     OW28654   2.508   2.430   6.727  0.2093 -0.3401 -0.4344
 5731SOL    HW128655   2.556   2.440   6.809  1.3454  0.9666 -1.2511
 5731SOL    HW228656   2.441   2.495   6.746  0.6283 -0.6174  1.9751
 5732SOL     OW28657   2.161   2.773   5.206 -0.0312 -0.2273  0.0189
 5732SOL    HW128658   2.254   2.780   5.227  0.7376  0.8710 -3.7445
 5732SOL    HW228659   2.164   2.725   5.123 -1.9570  2.7058 -1.7606
 5733SOL     OW28660   3.443   2.613   3.441 -0.2361 -0.7213 -0.5962
 5733SOL    HW128661   3.496   2.632   3.363 -0.4757  1.2999 -0.2791
 5733SOL    HW228662   3.508   2.629   3.509 -0.4913 -0.7567 -0.3481
 5734SOL     OW28663   2.437   3.984   7.969 -0.2127 -0.3818  0.4521
 5734SOL    HW128664   2.352   3.984   8.012  0.2870  1.6811  1.4256
 5734SOL    HW228665   2.438   4.065   7.919  1.4430 -1.1185 -0.7238
 5735SOL     OW28666   2.059   3.133   1.960 -0.2931 -0.0039 -0.2470
 5735SOL    HW128667   2.075   3.179   1.878  0.5367  0.3190  0.0942
 5735SOL    HW228668   2.102   3.047   1.951  2.1771  1.2692 -0.6254
 5736SOL     OW28669   0.282   2.432   6.304 -0.3444 -0.5588  0.5751
 5736SOL    HW128670   0.264   2.470   6.390 -0.0287 -0.6286  0.6726
 5736SOL    HW228671   0.235   2.350   6.315  0.1034 -0.9964 -0.8289
 5737SOL     OW28672   3.232   2.124  10.090  0.9630  0.1073  0.8445
 5737SOL    HW128673   3.257   2.108  10.181 -0.3257 -1.1676  0.9590
 5737SOL    HW228674   3.306   2.172  10.051 -0.8043  1.1213 -1.2936
 5738SOL     OW28675   0.847   4.267   8.995 -0.5528 -0.5704  0.5521
 5738SOL    HW128676   0.828   4.180   8.959  0.6773  0.2218 -2.0531
 5738SOL    HW228677   0.768   4.289   9.044 -0.9332  1.0855 -0.8210
 5739SOL     OW28678   3.951   2.471   8.159  0.6588 -0.0451 -0.3209
 5739SOL    HW128679   3.893   2.411   8.206  2.2565  0.2550  2.0174
 5739SOL    HW228680   4.030   2.421   8.138  1.4080  0.3517  1.5889
 5740SOL     OW28681   4.616   2.134   6.204 -0.1976 -0.2323  0.1913
 5740SOL    HW128682   4.591   2.050   6.243 -0.7859  1.0772  2.6752
 5740SOL    HW228683   4.698   2.152   6.251 -0.4117  1.3925 -0.0360
 5741SOL     OW28684   3.230   1.342   6.345 -0.1028 -0.0346  0.2890
 5741SOL    HW128685   3.136   1.358   6.353  0.0513  1.2384 -0.5295
 5741SOL    HW228686   3.238   1.246   6.346  0.0509  0.0047  1.9752
 5742SOL     OW28687   0.046   4.121  11.818  0.0226 -0.2607  0.3383
 5742SOL    HW128688   0.063   4.151  11.908 -2.5650 -0.9930  1.0679
 5742SOL    HW228689   0.132   4.085  11.798 -0.1787 -0.6478  0.1653
 5743SOL     OW28690   0.586   1.123   9.565 -0.5796  0.8361  0.0498
 5743SOL    HW128691   0.671   1.164   9.549 -1.6643  3.0183 -0.1322
 5743SOL    HW228692   0.559   1.170   9.644 -0.4230  0.0421  0.5805
 5744SOL     OW28693   2.776   2.798   8.584 -0.1081 -0.1852 -0.1183
 5744SOL    HW128694   2.746   2.736   8.517 -1.2952  0.3055 -0.0465
 5744SOL    HW228695   2.866   2.808   8.552  0.0449  0.4669  0.5286
 5745SOL     OW28696   1.402   3.004   2.440  0.3726 -0.3081 -0.4431
 5745SOL    HW128697   1.385   3.014   2.346  3.2841  1.9084 -0.7462
 5745SOL    HW228698   1.451   2.922   2.439  1.3009  0.2339  0.9259
 5746SOL     OW28699   2.308   0.477   2.254 -0.0953  0.1267 -0.3277
 5746SOL    HW128700   2.349   0.414   2.194 -2.2241  0.1073 -1.7511
 5746SOL    HW228701   2.221   0.481   2.214 -0.1416 -2.5320 -0.5181
 5747SOL     OW28702   3.998   0.368   1.903 -0.1773  0.0961  0.1307
 5747SOL    HW128703   4.044   0.450   1.919  0.4277  0.2919 -2.4954
 5747SOL    HW228704   4.020   0.315   1.980  1.6297  0.8965  0.1622
 5748SOL     OW28705   0.345   0.759   3.734 -0.2511 -0.0175 -0.0463
 5748SOL    HW128706   0.427   0.808   3.740 -0.0004 -0.3431 -0.8394
 5748SOL    HW228707   0.291   0.837   3.726 -0.4007 -0.0607  0.5346
 5749SOL     OW28708   4.445   1.999   2.141  0.0129  0.1242 -0.3432
 5749SOL    HW128709   4.370   2.059   2.150  0.3798  0.4914  0.2556
 5749SOL    HW228710   4.435   1.972   2.233  1.4841 -0.9215 -0.5045
 5750SOL     OW28711   1.333   3.966  13.139 -0.1393 -0.0106  0.0852
 5750SOL    HW128712   1.383   3.941  13.061  0.8729  0.0590  0.7072
 5750SOL    HW228713   1.390   4.034  13.175  1.4918 -0.1730 -2.2073
 5751SOL     OW28714   4.028   1.377  14.066  0.6098  0.2489  0.4243
 5751SOL    HW128715   3.989   1.459  14.038 -0.1891  0.4028  1.9930
 5751SOL    HW228716   3.963   1.314  14.034  1.3966 -0.2591 -0.1853
 5752SOL     OW28717   0.950   2.842  12.291 -0.6462  0.1219 -0.3971
 5752SOL    HW128718   0.884   2.776  12.268 -1.7833  2.1212 -2.7734
 5752SOL    HW228719   0.976   2.809  12.377 -1.1210  0.4812 -0.1170
 5753SOL     OW28720   1.976   2.541  14.727 -0.0256 -0.6689 -0.2351
 5753SOL    HW128721   1.915   2.478  14.688 -1.3917  0.7204 -0.3481
 5753SOL    HW228722   1.911   2.611  14.722  0.3756 -0.2588  0.4174
 5754SOL     OW28723   0.190   0.201   2.256 -0.3403  0.5927  0.3348
 5754SOL    HW128724   0.237   0.172   2.177 -0.9274 -2.4676  1.1121
 5754SOL    HW228725   0.220   0.137   2.319  2.3749  0.3734 -1.1827
 5755SOL     OW28726   3.696   2.082   7.330 -0.3105 -0.3215  0.1190
 5755SOL    HW128727   3.672   2.058   7.241 -0.1777 -0.9508  0.2510
 5755SOL    HW228728   3.613   2.054   7.370  0.4013 -1.2743  0.9186
 5756SOL     OW28729   1.341   0.154   3.113  0.3859  0.1143  0.0953
 5756SOL    HW128730   1.386   0.080   3.073  1.3079  0.7609 -0.0647
 5756SOL    HW228731   1.375   0.220   3.053 -3.9547  0.0492 -2.4148
 5757SOL     OW28732   2.852   0.680  11.476  0.0255  0.1288  0.1603
 5757SOL    HW128733   2.875   0.598  11.520  1.8141 -0.0298 -1.0355
 5757SOL    HW228734   2.816   0.728  11.550 -0.1567  0.4837 -0.1627
 5758SOL     OW28735   3.840   0.294   0.071 -0.1082  0.3984 -0.5886
 5758SOL    HW128736   3.753   0.300   0.112  0.8173 -0.0412  1.4213
 5758SOL    HW228737   3.898   0.313   0.145 -0.5109  1.9558 -0.6795
 5759SOL     OW28738   1.353   0.776   2.404 -0.1081  1.0348 -0.0021
 5759SOL    HW128739   1.318   0.724   2.332  2.0616  0.1898 -0.4265
 5759SOL    HW228740   1.353   0.864   2.366  0.9152  0.5639 -1.0781
 5760SOL     OW28741   1.290   2.468   7.672  0.7077  0.6880 -0.0322
 5760SOL    HW128742   1.345   2.420   7.609 -1.2192 -4.1948  1.9777
 5760SOL    HW228743   1.251   2.529   7.610  1.6971  0.0589 -1.2870
 5761SOL     OW28744   1.308   4.019   4.208 -0.3496 -0.2705 -0.0936
 5761SOL    HW128745   1.252   3.960   4.157 -0.5245 -0.4998  0.3608
 5761SOL    HW228746   1.271   4.106   4.196  1.2260  0.1517 -1.9207
 5762SOL     OW28747   4.454   1.015  15.045  0.5085  0.1402  0.0539
 5762SOL    HW128748   4.359   1.004  15.038  0.2912  2.3415 -0.3775
 5762SOL    HW228749   4.458   1.100  15.088  0.7399 -0.5830  1.4447
 5763SOL     OW28750   2.953   1.572  10.191 -0.5132 -0.1810  0.3176
 5763SOL    HW128751   2.907   1.657  10.194 -2.6253 -1.2652 -1.1644
 5763SOL    HW228752   2.914   1.527  10.265 -2.4093  0.9686  0.0273
 5764SOL     OW28753   3.776   0.580  16.398 -0.6103 -0.0533 -0.2309
 5764SOL    HW128754   3.849   0.638  16.379 -1.0688  0.4542 -0.4249
 5764SOL    HW228755   3.762   0.578  16.493 -0.5863  0.4335 -0.2170
 5765SOL     OW28756   2.114   4.526  17.530 -0.1796 -0.0863  0.4989
 5765SOL    HW128757   2.206   4.533  17.558 -0.0712 -0.5310  0.2474
 5765SOL    HW228758   2.084   4.616  17.517  0.2152  0.2088  1.5886
 5766SOL     OW28759   1.405   2.260   9.481 -0.0238  0.4035  0.6044
 5766SOL    HW128760   1.349   2.337   9.489 -0.5817  0.1064 -0.5570
 5766SOL    HW228761   1.456   2.296   9.409 -0.3014 -2.9712 -1.2580
 5767SOL     OW28762   4.222   1.114   2.493  0.5291  0.1840  0.0436
 5767SOL    HW128763   4.135   1.117   2.534  0.0727  0.6062 -0.9635
 5767SOL    HW228764   4.220   1.199   2.450 -0.0327 -0.1339 -0.5730
 5768SOL     OW28765   3.053   3.533  15.435 -0.3069 -0.0746 -0.1016
 5768SOL    HW128766   3.073   3.597  15.502 -1.0942 -0.6118  0.6556
 5768SOL    HW228767   2.971   3.485  15.447 -1.2599  1.6043  0.1346
 5769SOL     OW28768   2.339   1.088   7.153  0.0051  0.2554  0.1300
 5769SOL    HW128769   2.264   1.144   7.130  0.9768  0.6332 -2.1434
 5769SOL    HW228770   2.310   1.050   7.236  0.7606  1.1446  0.8141
 5770SOL     OW28771   3.186   1.692  14.525  0.0568  0.2757  0.0524
 5770SOL    HW128772   3.217   1.756  14.588  2.6457 -0.0883 -0.8309
 5770SOL    HW228773   3.161   1.618  14.581 -0.7940 -0.9325 -1.9221
 5771SOL     OW28774   0.641   1.521  14.714 -0.0001 -0.4012  0.0687
 5771SOL    HW128775   0.709   1.454  14.716  1.0644  0.7257  1.6114
 5771SOL    HW228776   0.560   1.475  14.695 -1.6527  1.6630  2.2045
 5772SOL     OW28777   3.756   2.739   8.879  0.2242  0.3883  0.1268
 5772SOL    HW128778   3.745   2.692   8.961  0.9505 -2.5381 -1.4754
 5772SOL    HW228779   3.662   2.738   8.861  0.6104  0.2383 -1.9451
 5773SOL     OW28780   0.770   1.504   8.415  0.0671  0.1453 -0.3579
 5773SOL    HW128781   0.747   1.591   8.447  0.5416  1.3849 -3.4029
 5773SOL    HW228782   0.715   1.491   8.337  2.5685 -1.4423 -1.8619
 5774SOL     OW28783   4.431   3.370   8.548  0.3580  0.4165  0.4326
 5774SOL    HW128784   4.481   3.289   8.535 -0.6065 -0.2468  0.8576
 5774SOL    HW228785   4.354   3.329   8.586 -0.6076  0.3059 -1.6642
 5775SOL     OW28786   1.215   0.952   4.640 -0.5682 -0.2829 -0.7262
 5775SOL    HW128787   1.252   1.039   4.655 -1.7523  0.1656 -0.3375
 5775SOL    HW228788   1.134   0.968   4.689 -0.6099 -0.5846 -0.6966
 5776SOL     OW28789   0.208   0.891   5.927 -0.2900 -0.0000  0.3442
 5776SOL    HW128790   0.212   0.813   5.872 -0.1179  0.2684 -0.0219
 5776SOL    HW228791   0.116   0.912   5.912 -0.5123 -1.0934  0.1707
 5777SOL     OW28792   0.539   2.894   5.391 -0.4089 -0.3886 -0.9352
 5777SOL    HW128793   0.500   2.815   5.354 -1.0111 -1.3194  1.6610
 5777SOL    HW228794   0.630   2.874   5.371  0.1934 -0.7103  2.0874
 5778SOL     OW28795   3.063   3.652   3.731 -0.2550 -0.1780 -0.3353
 5778SOL    HW128796   3.070   3.573   3.784  3.1708  0.4332  0.1293
 5778SOL    HW228797   3.077   3.620   3.643 -1.4005  0.3257 -0.7060
 5779SOL     OW28798   3.510   0.722  11.545  0.1951  0.3168 -0.0458
 5779SOL    HW128799   3.515   0.730  11.640  0.9190 -0.6366  0.0001
 5779SOL    HW228800   3.517   0.626  11.545 -0.2237  0.2880 -0.7714
 5780SOL     OW28801   0.053   0.086   8.437 -0.6478 -0.0333 -0.2970
 5780SOL    HW128802   0.104   0.150   8.487  0.8466 -1.1348 -0.4160
 5780SOL    HW228803   0.107   0.092   8.358  3.0051  1.0785  2.2802
 5781SOL     OW28804   1.157   0.205   1.213 -0.5946 -0.3868 -0.2182
 5781SOL    HW128805   1.154   0.109   1.210 -1.5126 -0.3124 -1.3567
 5781SOL    HW228806   1.233   0.233   1.163 -0.1013 -0.0011  0.7518
 5782SOL     OW28807   2.764   4.576  14.676 -0.2882  0.1194  0.0536
 5782SOL    HW128808   2.781   4.669  14.669 -1.0377  0.2145 -0.4727
 5782SOL    HW228809   2.702   4.564  14.604 -1.2631  0.8659  0.7765
 5783SOL     OW28810   1.271   0.781   4.960 -0.2993 -0.5227  0.0371
 5783SOL    HW128811   1.191   0.825   4.986 -0.5570 -1.1602  0.3264
 5783SOL    HW228812   1.328   0.858   4.965 -0.4364 -0.4049 -0.2424
 5784SOL     OW28813   3.065   4.003  10.864 -0.1758  0.3858 -0.1523
 5784SOL    HW128814   3.073   4.002  10.768  1.0161  0.7244 -0.0567
 5784SOL    HW228815   2.971   4.015  10.880 -0.9962 -1.5861 -3.3787
 5785SOL     OW28816   4.004   0.068   1.541 -0.0711  0.4810 -0.1710
 5785SOL    HW128817   3.960   0.148   1.572  1.6389  1.1347  0.5868
 5785SOL    HW228818   4.095   0.081   1.570 -0.7270 -0.5017  2.3163
 5786SOL     OW28819   4.120   1.906   1.310  0.6235 -0.0946  0.3298
 5786SOL    HW128820   4.101   1.953   1.228 -1.4274 -3.0602 -0.8939
 5786SOL    HW228821   4.125   1.983   1.367  0.7975 -0.4880  0.8370
 5787SOL     OW28822   0.468   1.507  12.629  0.0485 -0.7412  0.2893
 5787SOL    HW128823   0.442   1.467  12.546  1.7222 -1.1548 -0.0436
 5787SOL    HW228824   0.389   1.553  12.656  0.2408  0.2033 -0.7290
 5788SOL     OW28825   2.791   4.709   0.283 -0.6981 -0.1801  0.5560
 5788SOL    HW128826   2.828   0.065   0.314  0.0075 -0.6888  1.0701
 5788SOL    HW228827   2.757   4.669   0.363  1.3512 -0.3685  1.3273
 5789SOL     OW28828   3.883   2.301   6.409  0.5480  0.1733  0.6687
 5789SOL    HW128829   3.960   2.307   6.353 -0.9808  1.1199 -1.3129
 5789SOL    HW228830   3.923   2.270   6.491  0.7679 -0.5510  0.2867
 5790SOL     OW28831   0.077   4.200   7.642  0.2520 -0.4913  0.0661
 5790SOL    HW128832   0.008   4.234   7.699  0.3384  0.1832 -0.2313
 5790SOL    HW228833   0.107   4.288   7.619 -0.5278 -0.4099 -0.6168
 5791SOL     OW28834   2.175   4.026   8.597  0.9826 -0.4299  0.0695
 5791SOL    HW128835   2.132   4.005   8.679  3.6384 -0.7731  1.3727
 5791SOL    HW228836   2.180   4.121   8.599  2.5631 -0.5309  1.1643
 5792SOL     OW28837   1.073   3.477   9.897  0.1081 -0.1761 -0.0186
 5792SOL    HW128838   1.035   3.520   9.820 -0.3838 -2.0083 -0.7935
 5792SOL    HW228839   1.119   3.407   9.852  0.3607 -0.1542  0.2035
 5793SOL     OW28840   4.008   1.591   6.777  0.1756  0.8761 -0.0808
 5793SOL    HW128841   3.970   1.675   6.753 -1.6813 -0.3611 -1.4411
 5793SOL    HW228842   3.947   1.525   6.747  2.4387 -0.0791 -2.5925
 5794SOL     OW28843   4.280   2.001   5.868  0.3880  0.3057  0.7938
 5794SOL    HW128844   4.261   1.915   5.829  0.1782 -0.0904  1.7829
 5794SOL    HW228845   4.287   2.044   5.783  1.4929  1.9693  1.7409
 5795SOL     OW28846   2.419   4.264   5.313 -0.6196  0.3937 -0.1179
 5795SOL    HW128847   2.403   4.303   5.399  1.8543 -1.0638  0.9814
 5795SOL    HW228848   2.490   4.203   5.330 -0.4439  0.3785 -0.8758
 5796SOL     OW28849   1.083   0.541   0.222  0.4677 -0.1799  0.5787
 5796SOL    HW128850   1.025   0.467   0.204 -1.9601  1.7513  0.4337
 5796SOL    HW228851   1.113   0.553   0.132  0.8762 -1.3610  0.5597
 5797SOL     OW28852   3.549   2.647   7.867 -0.2349  0.3106 -0.2813
 5797SOL    HW128853   3.566   2.600   7.948 -1.2549 -0.9745 -0.8113
 5797SOL    HW228854   3.471   2.605   7.831  0.2428 -0.6011 -0.2330
 5798SOL     OW28855   0.489   1.116   7.076  0.4911  0.0994 -0.4002
 5798SOL    HW128856   0.490   1.208   7.051 -1.4120 -0.2844 -1.8635
 5798SOL    HW228857   0.401   1.117   7.114  1.3289  1.4683  1.4718
 5799SOL     OW28858   0.782   2.763   5.318  0.2366 -0.3878  0.6137
 5799SOL    HW128859   0.804   2.672   5.339  1.8713 -0.1131  0.0113
 5799SOL    HW228860   0.810   2.796   5.403 -0.3632  0.6553  0.4051
 5800SOL     OW28861   4.155   4.453   8.873  0.4986  0.0596 -0.1906
 5800SOL    HW128862   4.177   4.542   8.898 -1.3703  0.1322  1.1780
 5800SOL    HW228863   4.155   4.407   8.957  1.1109  0.2021 -0.1170
 5801SOL     OW28864   4.023   1.703   4.278  0.2502 -0.0238  0.8083
 5801SOL    HW128865   4.065   1.784   4.249  0.8268 -0.9020 -0.8064
 5801SOL    HW228866   3.982   1.726   4.362 -2.2235 -3.7125  0.6107
 5802SOL     OW28867   2.449   4.261   1.768 -0.1638 -0.5433 -0.0291
 5802SOL    HW128868   2.464   4.232   1.678  0.2767  2.5465 -0.9784
 5802SOL    HW228869   2.363   4.235   1.799  1.1897 -1.4133  3.0261
 5803SOL     OW28870   0.373   4.509   1.413 -0.7266 -0.0397 -0.7885
 5803SOL    HW128871   0.320   4.562   1.472  0.7553 -0.8672  1.2677
 5803SOL    HW228872   0.370   4.553   1.328 -0.4276 -1.4471 -1.5291
 5804SOL     OW28873   0.098   4.561   4.397 -0.0872  0.0233  0.3493
 5804SOL    HW128874   0.173   4.618   4.413  0.4923 -0.6630  0.0479
 5804SOL    HW228875   0.063   4.541   4.484  0.9181 -0.3379  0.6765
 5805SOL     OW28876   1.100   0.716   9.137 -0.1321  0.4886 -0.2992
 5805SOL    HW128877   1.177   0.772   9.130  0.2813  0.4941  3.9103
 5805SOL    HW228878   1.135   0.628   9.123 -0.7757  0.4833 -1.8362
 5806SOL     OW28879   0.466   2.065   1.508 -0.7078  0.0169 -0.4646
 5806SOL    HW128880   0.525   1.995   1.536 -0.6697 -0.7655 -2.5032
 5806SOL    HW228881   0.427   2.016   1.436  1.4237  0.5205 -1.9558
 5807SOL     OW28882   0.017   1.616   4.173  0.4711  0.0821 -0.1446
 5807SOL    HW128883   0.013   1.562   4.095 -0.7240 -1.0634  0.7150
 5807SOL    HW228884   4.653   1.642   4.161  1.2414  2.8361  0.0147
 5808SOL     OW28885   2.604   2.569   7.970  0.0155 -0.0228  0.2921
 5808SOL    HW128886   2.605   2.495   8.030 -2.2390  1.0137  1.6058
 5808SOL    HW228887   2.607   2.645   8.028 -1.2103 -0.4196  0.8677
 5809SOL     OW28888   0.584   1.262  14.948 -0.3616  0.4812  1.0804
 5809SOL    HW128889   0.678   1.276  14.956 -0.5882  3.1597 -0.8394
 5809SOL    HW228890   0.573   1.233  14.858 -0.0683  0.3401  1.0928
 5810SOL     OW28891   2.854   2.287  11.025 -0.0372  0.6385  0.5143
 5810SOL    HW128892   2.826   2.371  10.988  0.4032  0.6195  0.1413
 5810SOL    HW228893   2.949   2.289  11.012 -0.1577 -2.1590 -0.8283
 5811SOL     OW28894   3.509   1.715   5.992 -0.3225 -0.3123  0.1342
 5811SOL    HW128895   3.504   1.639   6.049 -0.8142 -1.1653 -1.0338
 5811SOL    HW228896   3.454   1.680   5.922 -2.4624 -0.0600  1.7022
 5812SOL     OW28897   3.987   0.766   5.485  0.0712  0.9619  0.3379
 5812SOL    HW128898   4.011   0.829   5.417  0.9295  1.0948  0.7666
 5812SOL    HW228899   3.937   0.705   5.431 -0.6876  1.7875  0.0964
 5813SOL     OW28900   2.041   1.856   0.400  0.3632  0.1497 -0.3071
 5813SOL    HW128901   2.041   1.872   0.494 -0.4716  0.2710 -0.3264
 5813SOL    HW228902   1.975   1.915   0.365  1.3385  0.0205 -2.3878
 5814SOL     OW28903   0.548   1.961   5.237 -0.1808 -0.7530  0.7377
 5814SOL    HW128904   0.471   1.948   5.182  2.0344 -1.6255 -2.1562
 5814SOL    HW228905   0.522   1.919   5.319 -1.3185 -1.0034  0.2442
 5815SOL     OW28906   3.331   1.447   0.419 -0.2443 -0.4850 -0.0823
 5815SOL    HW128907   3.354   1.385   0.488  1.6633  0.9185  0.5445
 5815SOL    HW228908   3.422   1.451   0.389  0.3959  0.4532  1.9846
 5816SOL     OW28909   1.427   3.568  15.283  0.5845 -0.0561  0.3619
 5816SOL    HW128910   1.403   3.654  15.317  1.4354  0.1527  0.4535
 5816SOL    HW228911   1.463   3.522  15.359 -1.2274 -0.2130  1.1141
 5817SOL     OW28912   2.488   1.649   7.742  0.5048  0.5246  0.3582
 5817SOL    HW128913   2.405   1.693   7.727  0.5369  1.3124  2.4750
 5817SOL    HW228914   2.528   1.650   7.655 -2.4998  2.3702 -1.0147
 5818SOL     OW28915   0.641   3.073   3.688 -0.1380  0.0668 -0.0127
 5818SOL    HW128916   0.736   3.068   3.676 -0.1112  2.1737 -0.6572
 5818SOL    HW228917   0.617   3.163   3.710  0.4528 -0.5036  2.9752
 5819SOL     OW28918   3.171   3.878   6.454  0.0907 -0.4871  0.5977
 5819SOL    HW128919   3.149   3.970   6.436 -0.3663 -0.6095  0.5393
 5819SOL    HW228920   3.266   3.883   6.443 -0.1124 -0.5290 -1.2269
 5820SOL     OW28921   1.281   3.276   9.181 -0.0756  0.0054 -0.0659
 5820SOL    HW128922   1.343   3.247   9.114  0.1227  0.8674 -0.2486
 5820SOL    HW228923   1.203   3.250   9.132 -0.8219  1.0284  0.5707
 5821SOL     OW28924   0.352   3.760  15.506  0.0415 -0.5691 -0.0046
 5821SOL    HW128925   0.386   3.686  15.556  1.7422  0.1848 -0.0341
 5821SOL    HW228926   0.267   3.768  15.550 -0.3491  1.0530 -1.0504
 5822SOL     OW28927   4.497   2.662   6.777 -0.6581 -0.3526 -0.3326
 5822SOL    HW128928   4.474   2.580   6.820  2.1007  0.3733  2.4827
 5822SOL    HW228929   4.434   2.718   6.823 -0.0426  0.2171 -0.1788
 5823SOL     OW28930   0.395   1.565   5.070 -0.2802  0.2604  0.0382
 5823SOL    HW128931   0.480   1.554   5.026 -1.0312  1.6097 -1.7736
 5823SOL    HW228932   0.344   1.613   5.004 -2.8443  1.8739  3.1944
 5824SOL     OW28933   4.336   4.456  12.552 -0.0885  0.0679 -0.4073
 5824SOL    HW128934   4.372   4.453  12.641 -1.3637  0.4232  0.1170
 5824SOL    HW228935   4.383   4.525  12.504  0.0069  0.2167 -0.1006
 5825SOL     OW28936   2.191   0.437  14.642 -0.2676 -0.3138 -0.2313
 5825SOL    HW128937   2.189   0.431  14.738 -0.4816 -0.4111 -0.2409
 5825SOL    HW228938   2.276   0.397  14.621 -0.5856 -1.2294  0.2234
 5826SOL     OW28939   1.404   1.746   2.419  0.6814  0.3035 -0.2759
 5826SOL    HW128940   1.482   1.759   2.366  1.7574  0.6147  1.4030
 5826SOL    HW228941   1.358   1.828   2.403  0.9534  0.6615  0.8142
 5827SOL     OW28942   1.444   3.500   4.042 -0.0654 -0.6565  0.7804
 5827SOL    HW128943   1.395   3.520   3.962  0.2567  1.3179  1.0685
 5827SOL    HW228944   1.469   3.586   4.076  1.0707 -0.4912 -0.4608
 5828SOL     OW28945   1.699   2.712   7.695 -0.3308  0.0701  0.3953
 5828SOL    HW128946   1.778   2.681   7.650 -1.3193 -0.9757 -0.6030
 5828SOL    HW228947   1.724   2.686   7.784 -0.3792 -0.4192  0.2655
 5829SOL     OW28948   4.294   0.430   9.949  0.0360 -0.8891 -0.0194
 5829SOL    HW128949   4.306   0.392   9.861  0.5980  3.1413 -1.6918
 5829SOL    HW228950   4.347   0.509   9.939  0.3608 -1.1988 -0.7391
 5830SOL     OW28951   3.157   1.784   4.788  0.4952 -0.2072  0.2786
 5830SOL    HW128952   3.198   1.829   4.714 -0.7455 -0.4023 -0.5202
 5830SOL    HW228953   3.110   1.713   4.745  1.2150 -0.5117 -0.0126
 5831SOL     OW28954   1.772   2.932   4.123  0.3644 -0.4436 -0.2033
 5831SOL    HW128955   1.692   2.967   4.163  0.2562  0.7701 -1.5074
 5831SOL    HW228956   1.755   2.930   4.029  1.3570 -2.0136 -0.3549
 5832SOL     OW28957   3.007   0.079  15.012  0.1919  0.1965  0.1453
 5832SOL    HW128958   2.955   0.005  15.045 -0.1698  1.1150  1.5997
 5832SOL    HW228959   3.066   0.024  14.960  1.2978  0.0888  1.5418
 5833SOL     OW28960   2.871   4.660   3.306  0.3473  0.4894 -0.8057
 5833SOL    HW128961   2.888   4.706   3.224  2.9913  0.8164 -0.0796
 5833SOL    HW228962   2.809   4.713   3.355 -0.6808 -1.1462 -0.3389
 5834SOL     OW28963   4.622   4.388   4.024 -0.2760  0.4101  0.2973
 5834SOL    HW128964   4.597   4.414   4.113 -0.2013  0.3820  0.3267
 5834SOL    HW228965   4.714   4.412   4.020 -0.4219  0.9669  0.2607
 5835SOL     OW28966   2.682   3.299   1.671 -0.2176 -0.1497 -0.2131
 5835SOL    HW128967   2.687   3.204   1.677  1.1638 -0.2600 -3.0876
 5835SOL    HW228968   2.701   3.338   1.756  0.5342 -0.6198 -0.1689
 5836SOL     OW28969   0.852   3.603   4.027 -0.2327 -0.1170 -0.3487
 5836SOL    HW128970   0.916   3.569   4.090 -0.6977  0.6874  0.5530
 5836SOL    HW228971   0.858   3.698   4.038 -0.0001 -0.5308  2.9891
 5837SOL     OW28972   3.468   2.656  13.546  0.0192  0.3460  0.5814
 5837SOL    HW128973   3.487   2.576  13.594  0.5534  0.6596  0.8896
 5837SOL    HW228974   3.413   2.694  13.614  0.8443  1.8771  0.4117
 5838SOL     OW28975   2.418   1.941   3.560  0.0385  0.7055 -0.7602
 5838SOL    HW128976   2.333   1.983   3.572 -0.9209 -2.1786  2.8645
 5838SOL    HW228977   2.477   2.016   3.553  1.9860 -0.5488  2.1586
 5839SOL     OW28978   2.239   2.749   4.356 -0.1961  0.1388 -0.1855
 5839SOL    HW128979   2.163   2.702   4.323  1.3345 -2.3838 -0.0687
 5839SOL    HW228980   2.264   2.796   4.276  0.9655  0.3132  0.2818
 5840SOL     OW28981   0.185   1.924   8.549 -0.4404  0.1732  0.1952
 5840SOL    HW128982   0.261   1.979   8.532 -1.6282  2.3486  1.9710
 5840SOL    HW228983   0.126   1.955   8.480 -1.4959  0.5726  1.2790
 5841SOL     OW28984   1.326   1.967   3.306 -0.2676  0.0809 -0.2730
 5841SOL    HW128985   1.320   1.906   3.379  1.2989 -0.9857 -1.0300
 5841SOL    HW228986   1.407   1.931   3.268 -0.5357 -2.2525  1.3738
 5842SOL     OW28987   0.629   0.194   3.376  0.0430 -0.2649  0.3315
 5842SOL    HW128988   0.553   0.185   3.318  1.2750 -1.9322 -1.0507
 5842SOL    HW228989   0.700   0.200   3.312 -0.3546 -2.0813 -0.2800
 5843SOL     OW28990   4.513   2.953   3.601  0.1721  0.3379 -0.4709
 5843SOL    HW128991   4.470   3.006   3.668 -3.1385 -1.4270 -1.1856
 5843SOL    HW228992   4.563   3.023   3.560 -0.6398  2.6514  2.5153
 5844SOL     OW28993   4.065   3.059   5.508  0.2239 -0.0258  0.6564
 5844SOL    HW128994   4.076   3.110   5.588 -3.0406  2.1699 -0.3009
 5844SOL    HW228995   4.156   3.042   5.484 -0.3068 -1.3399 -0.4662
 5845SOL     OW28996   1.110   2.282   3.788  0.0721 -0.4102  0.2089
 5845SOL    HW128997   1.156   2.353   3.833 -0.7753  0.9320 -1.0413
 5845SOL    HW228998   1.117   2.303   3.695 -0.9925  0.7055  0.3765
 5846SOL     OW28999   0.177   3.713   9.182 -0.2637  0.3175  0.0640
 5846SOL    HW129000   0.136   3.711   9.269 -1.2996  2.5163 -0.3538
 5846SOL    HW229001   0.102   3.672   9.138 -0.2103 -0.5935  0.8268
 5847SOL     OW29002   0.436   4.374   7.421  0.1483  0.0905 -0.1708
 5847SOL    HW129003   0.403   4.366   7.332  0.1105 -1.7604  0.0270
 5847SOL    HW229004   0.478   4.290   7.440 -0.4100  0.5107  2.9437
 5848SOL     OW29005   1.131   3.280   6.105 -0.0318 -0.2256 -0.2849
 5848SOL    HW129006   1.090   3.342   6.044 -2.7783 -0.1917  1.5928
 5848SOL    HW229007   1.217   3.321   6.111 -0.1423 -0.3122  1.7943
 5849SOL     OW29008   3.940   3.759   9.408 -0.1412 -0.5841 -0.5833
 5849SOL    HW129009   3.851   3.783   9.381 -0.1261  0.7501  0.5396
 5849SOL    HW229010   3.988   3.837   9.437  3.3546 -1.8694 -2.9267
 5850SOL     OW29011   1.897   3.552   2.393 -0.3317 -0.1922 -0.4009
 5850SOL    HW129012   1.844   3.578   2.318  0.1949 -0.2683 -0.8019
 5850SOL    HW229013   1.953   3.493   2.343 -0.2323  0.7881 -1.4446
 5851SOL     OW29014   1.919   0.028   4.699 -0.1772  0.0791 -0.2876
 5851SOL    HW129015   2.003   4.714   4.719  0.9847  2.0154 -1.2823
 5851SOL    HW229016   1.865   4.684   4.734  0.3371  0.8506  2.0697
 5852SOL     OW29017   2.828   2.821   9.673  0.4941  0.4009  0.1824
 5852SOL    HW129018   2.787   2.907   9.669  0.5222  0.4835  1.8399
 5852SOL    HW229019   2.778   2.783   9.745  1.1282 -0.5614  0.1174
 5853SOL     OW29020   3.757   3.296   5.158 -0.7259 -0.6761 -0.2678
 5853SOL    HW129021   3.823   3.292   5.089 -0.1046 -0.7348  0.3291
 5853SOL    HW229022   3.807   3.324   5.235 -1.4873  1.9052 -0.7075
 5854SOL     OW29023   0.078   2.683   0.569 -0.2155  0.0992  0.2352
 5854SOL    HW129024   0.128   2.760   0.598 -2.8610  2.1897 -0.7363
 5854SOL    HW229025   0.115   2.618   0.628  1.6266  2.4790  1.7235
 5855SOL     OW29026   0.429   1.052   5.201  0.1227  0.0766  0.3091
 5855SOL    HW129027   0.441   1.137   5.244  0.2923  0.8013 -1.1600
 5855SOL    HW229028   0.335   1.063   5.187 -0.1690 -1.4811  1.0929
 5856SOL     OW29029   0.402   1.574   2.273  0.1292 -0.5684 -0.2362
 5856SOL    HW129030   0.451   1.552   2.193  3.0917 -1.1416  1.7427
 5856SOL    HW229031   0.334   1.506   2.273 -0.5687  0.1200 -1.1662
 5857SOL     OW29032   2.480   0.065   3.575  0.4517 -0.0256  0.1858
 5857SOL    HW129033   2.452   0.121   3.648 -0.3054  1.6104 -1.3385
 5857SOL    HW229034   2.408   0.002   3.566 -0.8206  1.3093  0.9560
 5858SOL     OW29035   2.834   1.022   7.173  0.4370  0.4939  0.1850
 5858SOL    HW129036   2.746   0.996   7.148  0.3897  1.2850 -0.4850
 5858SOL    HW229037   2.852   1.080   7.099 -1.6355  0.9410  0.0416
 5859SOL     OW29038   4.575   0.520   8.995  0.0677  0.1733 -0.0152
 5859SOL    HW129039   4.537   0.444   9.040  0.1883  0.7508  1.0669
 5859SOL    HW229040   4.669   0.503   9.002 -0.2728 -1.3844  0.6767
 5860SOL     OW29041   3.975   3.540   7.355 -0.2189 -0.2793  0.2422
 5860SOL    HW129042   3.883   3.514   7.349 -1.1524  2.3632  3.2993
 5860SOL    HW229043   4.011   3.454   7.337 -1.4923 -0.7195 -0.1998
 5861SOL     OW29044   1.558   4.138   6.766  0.6392  0.3394  0.2790
 5861SOL    HW129045   1.557   4.046   6.794  1.0996 -0.3090 -1.8579
 5861SOL    HW229046   1.508   4.139   6.684 -1.2327  1.8603  1.4130
 5862SOL     OW29047   1.844   4.420   6.444 -0.2533  0.0620 -0.4674
 5862SOL    HW129048   1.883   4.349   6.494  0.4365  1.1720  0.5534
 5862SOL    HW229049   1.751   4.395   6.449 -0.8785  2.7910  1.3665
 5863SOL     OW29050   3.533   2.131   3.750 -0.2801 -0.0131 -0.6701
 5863SOL    HW129051   3.438   2.126   3.747 -0.1354  0.3775 -4.9954
 5863SOL    HW229052   3.543   2.200   3.816  0.1094 -1.6507  0.9860
 5864SOL     OW29053   2.466   3.243   5.450  0.2831  0.3630  0.4595
 5864SOL    HW129054   2.480   3.336   5.467  2.7813  0.1538 -0.4215
 5864SOL    HW229055   2.533   3.234   5.383 -1.0844  2.1977 -1.1147
 5865SOL     OW29056   4.476   4.611  11.579  0.3294  0.1735  0.0258
 5865SOL    HW129057   4.413   4.637  11.512 -1.0777 -1.8598  0.5345
 5865SOL    HW229058   4.562   4.641  11.551  0.7512  0.1770  1.2900
 5866SOL     OW29059   0.662   1.141   3.011 -0.1881  0.0559 -0.0228
 5866SOL    HW129060   0.716   1.077   3.058 -1.2898 -0.7346  0.1619
 5866SOL    HW229061   0.626   1.084   2.943 -1.8975  1.1648 -0.0396
 5867SOL     OW29062   3.036   3.295   2.289 -0.0580 -0.1731 -0.2937
 5867SOL    HW129063   3.072   3.215   2.329  0.2089 -0.2540 -0.7004
 5867SOL    HW229064   3.117   3.339   2.264 -0.5276 -0.0941 -1.6508
 5868SOL     OW29065   4.523   2.917   8.179  0.5582 -0.3582 -0.6350
 5868SOL    HW129066   4.561   2.968   8.108  1.7476  2.0938  1.7736
 5868SOL    HW229067   4.435   2.953   8.188  0.4428 -0.9580  0.7207
 5869SOL     OW29068   2.665   4.703   3.016  0.0392 -1.1908  0.0650
 5869SOL    HW129069   2.705   4.619   2.993  2.2039 -0.3788  0.8786
 5869SOL    HW229070   2.729   0.020   3.071  0.4551  0.5732 -1.8111
 5870SOL     OW29071   1.813   0.606   9.269  0.2431 -0.1471 -0.1648
 5870SOL    HW129072   1.732   0.657   9.271 -1.3079 -2.7230  2.5581
 5870SOL    HW229073   1.776   0.523   9.237 -0.2049  0.0863 -0.2526
 5871SOL     OW29074   2.173   3.414  16.526 -0.0933 -0.5877  0.7393
 5871SOL    HW129075   2.085   3.378  16.522  0.1814 -1.1776  0.0145
 5871SOL    HW229076   2.149   3.494  16.574 -1.6201 -0.7216  0.2008
 5872SOL     OW29077   1.041   2.359   5.512  0.3448  0.5251  0.3473
 5872SOL    HW129078   1.041   2.400   5.599  0.7610  0.0414  0.5755
 5872SOL    HW229079   1.128   2.318   5.513 -1.2215 -2.7600 -0.4584
 5873SOL     OW29080   0.893   4.675   5.734 -0.1794 -0.7004 -0.3721
 5873SOL    HW129081   0.884   4.675   5.638 -2.0436 -0.6661 -0.1893
 5873SOL    HW229082   0.813   4.630   5.760  1.6527 -1.5944  3.6374
 5874SOL     OW29083   1.187   1.922   6.582  0.1724 -0.2990 -0.3884
 5874SOL    HW129084   1.256   1.956   6.525  1.3350 -0.0440  1.1989
 5874SOL    HW229085   1.235   1.865   6.642 -1.2624 -1.6749 -0.5136
 5875SOL     OW29086   1.619   1.909   7.355 -0.5006  0.3319 -0.7867
 5875SOL    HW129087   1.567   1.890   7.433  0.2243 -0.0770 -0.3989
 5875SOL    HW229088   1.710   1.893   7.383 -0.5334  0.0775 -0.8225
 5876SOL     OW29089   1.125   2.949   6.886  0.2120  0.1732  0.4127
 5876SOL    HW129090   1.078   2.995   6.955 -0.6729 -0.1578  0.0294
 5876SOL    HW229091   1.052   2.917   6.832 -0.0002  1.1152  0.1457
 5877SOL     OW29092   3.193   4.229   6.123  0.1735 -0.1646  0.4218
 5877SOL    HW129093   3.118   4.287   6.111 -0.1468 -0.6485  0.0995
 5877SOL    HW229094   3.262   4.295   6.114 -2.5586  2.6064 -0.1911
 5878SOL     OW29095   1.075   1.841  10.680 -0.2833 -0.1632 -0.3733
 5878SOL    HW129096   1.008   1.871  10.741 -0.0354 -0.4703  0.0478
 5878SOL    HW229097   1.079   1.919  10.624  0.0446 -1.0770 -1.6127
 5879SOL     OW29098   1.817   3.322   6.661 -0.2631 -0.0656 -0.5024
 5879SOL    HW129099   1.824   3.296   6.753 -0.1203  1.8667  0.0367
 5879SOL    HW229100   1.817   3.417   6.670 -0.6498  0.0072 -1.2615
 5880SOL     OW29101   1.473   2.000   5.561  0.5480 -0.1619 -0.5643
 5880SOL    HW129102   1.488   1.951   5.642  0.4662 -0.9622 -1.0364
 5880SOL    HW229103   1.556   2.041   5.540  1.1163 -0.2573  1.4811
 5881SOL     OW29104   0.931   0.293  16.048  0.0508 -0.3281 -0.7883
 5881SOL    HW129105   0.910   0.294  15.955  0.1256 -1.3430 -0.8167
 5881SOL    HW229106   0.858   0.348  16.076  1.5281  0.5355  1.3742
 5882SOL     OW29107   2.177   1.786   3.449 -0.1988  0.0186  0.3958
 5882SOL    HW129108   2.141   1.710   3.495  0.4035 -1.2647 -1.2218
 5882SOL    HW229109   2.201   1.843   3.521 -1.4814 -0.3882  1.1422
 5883SOL     OW29110   3.487   2.210   5.522  0.4076 -0.6397  0.0437
 5883SOL    HW129111   3.480   2.219   5.427  2.1587  1.2418  0.0966
 5883SOL    HW229112   3.420   2.271   5.554  0.7024 -0.2849 -0.0231
 5884SOL     OW29113   4.059   2.392  10.240  0.2996  0.7608 -0.1993
 5884SOL    HW129114   4.000   2.440  10.298 -1.2917 -2.1010  0.5088
 5884SOL    HW229115   4.119   2.361  10.309  1.3556  2.8958 -0.1505
 5885SOL     OW29116   3.737   3.043  13.606 -0.0569 -0.0338  0.1040
 5885SOL    HW129117   3.783   2.983  13.665  0.4500 -0.2123 -0.4808
 5885SOL    HW229118   3.685   2.977  13.560  1.7592 -0.2625 -1.5886
 5886SOL     OW29119   0.065   1.284   0.994  0.1475  0.3702 -0.8476
 5886SOL    HW129120   0.064   1.380   0.991  1.7199  0.3330 -2.0850
 5886SOL    HW229121   0.156   1.259   1.005 -0.5680 -2.1070 -0.7300
 5887SOL     OW29122   1.466   4.641   2.694 -0.2837 -0.4105  0.0877
 5887SOL    HW129123   1.478   4.555   2.655  0.7718  0.5569 -1.7421
 5887SOL    HW229124   1.371   4.651   2.691  0.0474  3.0770  0.3310
 5888SOL     OW29125   1.044   3.802   3.732 -0.2482  0.3578  0.6127
 5888SOL    HW129126   1.066   3.796   3.638  0.9606 -0.9952  0.9687
 5888SOL    HW229127   0.973   3.738   3.738 -0.2361  0.2657 -0.2240
 5889SOL     OW29128   2.766   4.485   9.706  0.7475  0.1933  0.4177
 5889SOL    HW129129   2.695   4.486   9.771 -0.0681 -0.5192 -0.4691
 5889SOL    HW229130   2.773   4.568   9.659 -2.0923  0.2885  0.1275
 5890SOL     OW29131   0.995   2.510   4.522  0.0680  0.6651  0.1356
 5890SOL    HW129132   0.952   2.578   4.470  0.3340 -0.1876 -1.2139
 5890SOL    HW229133   0.923   2.465   4.565 -0.0603  0.3816 -0.3702
 5891SOL     OW29134   4.654   3.190   4.048 -0.3544 -0.3356  0.2218
 5891SOL    HW129135   0.014   3.155   4.068  1.4926  2.6873 -2.5585
 5891SOL    HW229136   4.668   3.267   3.993 -1.0556 -0.1349  0.3261
 5892SOL     OW29137   3.307   4.638   6.482  0.1031 -0.2229 -0.2583
 5892SOL    HW129138   3.393   4.653   6.443  0.1729  0.6108  0.2289
 5892SOL    HW229139   3.328   4.640   6.575 -1.7742  2.8799  0.0793
 5893SOL     OW29140   1.723   3.324  16.384  0.2526 -0.0199  0.5420
 5893SOL    HW129141   1.718   3.368  16.469 -0.2469  2.3853 -0.7511
 5893SOL    HW229142   1.635   3.320  16.348  0.0059  2.4858  0.8668
 5894SOL     OW29143   1.728   1.520   4.150 -0.5696  0.1507  0.0452
 5894SOL    HW129144   1.818   1.546   4.170 -0.8809  0.6251  0.8115
 5894SOL    HW229145   1.686   1.599   4.185  1.3005  1.1953 -0.0569
 5895SOL     OW29146   3.848   4.558   9.634 -0.2852  0.1928 -0.3803
 5895SOL    HW129147   3.842   4.562   9.730 -1.7910 -1.3286 -0.4244
 5895SOL    HW229148   3.860   4.463   9.632 -0.1574  0.1785  0.9497
 5896SOL     OW29149   0.372   2.564   4.243  0.7892 -0.1898  0.0182
 5896SOL    HW129150   0.297   2.560   4.184 -0.5437  1.2119  1.6057
 5896SOL    HW229151   0.352   2.498   4.309  0.7397  0.1487  0.3437
 5897SOL     OW29152   0.992   0.068   1.824  0.5933 -0.0359 -0.5249
 5897SOL    HW129153   0.910   0.095   1.783 -0.5361  3.1106  3.7913
 5897SOL    HW229154   0.998   0.121   1.903  0.5722 -0.5262 -0.1961
 5898SOL     OW29155   3.841   0.880   3.859 -0.2992  0.4869  0.5770
 5898SOL    HW129156   3.893   0.800   3.869 -1.0957 -0.4339 -2.4539
 5898SOL    HW229157   3.760   0.847   3.820 -1.1120  1.5338  1.3667
 5899SOL     OW29158   1.563   1.534  17.298 -0.4632  0.1447  0.2523
 5899SOL    HW129159   1.592   1.443  17.301  2.2271  0.9708 -0.3863
 5899SOL    HW229160   1.602   1.563  17.380 -0.0298  0.7680 -0.1785
 5900SOL     OW29161   2.088   2.319   3.259  0.0515  0.3581 -0.0148
 5900SOL    HW129162   2.110   2.247   3.200  1.0249  1.3025 -0.8010
 5900SOL    HW229163   2.004   2.294   3.298  0.9096 -0.2679  1.4278
 5901SOL     OW29164   2.163   4.258   1.124 -0.2741  1.0604 -0.1329
 5901SOL    HW129165   2.098   4.225   1.062 -0.0137 -1.5232  0.9829
 5901SOL    HW229166   2.186   4.344   1.087 -0.3055  1.9662  1.9230
 5902SOL     OW29167   0.376   2.387   6.644  0.3580 -0.5528 -0.3835
 5902SOL    HW129168   0.365   2.392   6.738  0.0556 -0.6762 -0.4119
 5902SOL    HW229169   0.313   2.448   6.607  0.5313  0.1185  0.4481
 5903SOL     OW29170   4.478   0.596   1.116  0.0512 -0.1235 -0.2308
 5903SOL    HW129171   4.572   0.577   1.117  0.2705  0.9203 -1.3187
 5903SOL    HW229172   4.473   0.643   1.199  2.6790 -1.3082  0.5908
 5904SOL     OW29173   0.463   3.950   1.010 -0.0499  0.1414 -0.0060
 5904SOL    HW129174   0.525   4.002   1.062  0.6509 -1.0569  0.3609
 5904SOL    HW229175   0.461   3.870   1.064  0.7396  0.7040  0.8689
 5905SOL     OW29176   0.963   0.635   9.368  0.2549 -0.4177 -0.1708
 5905SOL    HW129177   0.977   0.714   9.421  0.0646 -1.4148  1.3584
 5905SOL    HW229178   1.027   0.650   9.298  1.6943 -0.6480  1.0777
 5906SOL     OW29179   0.876   2.529  15.335  0.0923  0.9120 -0.0554
 5906SOL    HW129180   0.917   2.516  15.420 -0.7592  0.2828  0.2601
 5906SOL    HW229181   0.864   2.439  15.304 -0.8058  0.0048  2.9326
 5907SOL     OW29182   2.846   0.965   8.068 -0.5661  0.0036 -0.3343
 5907SOL    HW129183   2.822   0.988   8.158 -1.9840 -1.8930 -0.2198
 5907SOL    HW229184   2.785   1.028   8.029 -0.3075 -0.4323 -1.4292
 5908SOL     OW29185   4.098   2.474   8.510 -0.1216  0.3705 -0.2340
 5908SOL    HW129186   4.158   2.537   8.472  1.8585 -1.5004 -0.1816
 5908SOL    HW229187   4.150   2.395   8.522 -5.1929 -2.5969  2.6210
 5909SOL     OW29188   2.517   2.027   2.222 -0.1304 -0.5080 -0.0045
 5909SOL    HW129189   2.449   1.984   2.171 -1.2268  2.7717 -1.3260
 5909SOL    HW229190   2.513   2.117   2.189 -2.6134  0.2211  2.2285
 5910SOL     OW29191   3.978   2.934   5.014  0.5525  0.1689  0.4731
 5910SOL    HW129192   3.928   2.992   4.957  1.3170  2.1955  1.8533
 5910SOL    HW229193   3.916   2.931   5.088  1.4984  0.8245  1.2869
 5911SOL     OW29194   1.470   0.360  14.740  0.1302 -0.0924  0.0154
 5911SOL    HW129195   1.410   0.424  14.779 -0.0319 -2.4552  3.5734
 5911SOL    HW229196   1.422   0.310  14.674 -0.3028  2.9067 -1.9347
 5912SOL     OW29197   2.437   3.240   7.024  0.3801  0.0765  0.9489
 5912SOL    HW129198   2.411   3.327   6.995  0.1773  0.0768  1.1343
 5912SOL    HW229199   2.522   3.225   6.983 -0.2861  1.3502 -0.9194
 5913SOL     OW29200   3.122   1.739   0.198  0.2072  0.7596  0.1186
 5913SOL    HW129201   3.113   1.644   0.196  0.7112  0.6862  0.9850
 5913SOL    HW229202   3.031   1.766   0.192  0.1840 -0.2354 -3.7052
 5914SOL     OW29203   0.312   4.303  12.993  0.6588 -0.1723  0.1638
 5914SOL    HW129204   0.344   4.220  12.958 -1.6522 -0.6410 -0.8408
 5914SOL    HW229205   0.367   4.324  13.068  0.5718  0.6128  0.0106
 5915SOL     OW29206   1.959   1.441   5.092  0.3848 -0.1975  0.5425
 5915SOL    HW129207   1.977   1.535   5.092 -0.0430 -0.1187  1.0498
 5915SOL    HW229208   1.876   1.435   5.044 -0.4498  0.4491  1.9300
 5916SOL     OW29209   2.987   3.361  14.500  0.5429 -0.2068 -0.0245
 5916SOL    HW129210   2.908   3.391  14.455  0.5633  2.8529  1.9741
 5916SOL    HW229211   3.016   3.279  14.459 -1.3152 -0.5176 -0.7202
 5917SOL     OW29212   1.914   2.497  12.276 -0.5611  0.2262  0.0890
 5917SOL    HW129213   1.940   2.589  12.269  2.6950 -0.7006 -0.0898
 5917SOL    HW229214   1.822   2.506  12.301 -1.0983 -2.1654 -0.9786
 5918SOL     OW29215   1.048   2.960   0.591 -0.3207  0.1781 -0.0821
 5918SOL    HW129216   1.104   3.001   0.658 -2.5139  3.3723 -0.2106
 5918SOL    HW229217   1.030   2.873   0.627  1.4288  0.4318  1.4352
 5919SOL     OW29218   1.066   4.494   9.589  0.2088 -0.2063 -0.8746
 5919SOL    HW129219   1.079   4.473   9.497 -2.1514 -2.0289 -0.7811
 5919SOL    HW229220   1.124   4.433   9.637 -1.5451  1.3777  3.2362
 5920SOL     OW29221   4.634   4.020  15.872 -0.0213  0.1333  0.3330
 5920SOL    HW129222   4.690   4.088  15.909  1.3181 -0.1740 -1.1463
 5920SOL    HW229223   4.647   4.032  15.778 -0.3632 -2.8580 -0.1010
 5921SOL     OW29224   2.868   1.142   4.103 -0.3020  0.1514 -0.0148
 5921SOL    HW129225   2.936   1.090   4.147 -0.7052  1.0386  1.6694
 5921SOL    HW229226   2.920   1.213   4.066 -1.2599 -0.4540 -2.4626
 5922SOL     OW29227   1.442   3.109   6.613 -0.0396  0.4255 -0.3166
 5922SOL    HW129228   1.493   3.096   6.693  0.5650 -0.1236 -0.7965
 5922SOL    HW229229   1.363   3.058   6.631 -1.9060  2.9628 -1.2375
 5923SOL     OW29230   1.131   1.311   7.828  0.7310  0.0889 -0.2366
 5923SOL    HW129231   1.161   1.291   7.739 -0.7381 -0.0702 -0.6890
 5923SOL    HW229232   1.048   1.337   7.789  0.9469 -0.3286 -0.9943
 5924SOL     OW29233   1.644   4.035   3.947  0.2903 -0.8404 -0.0968
 5924SOL    HW129234   1.648   4.066   4.038  0.4180  0.1752 -0.4421
 5924SOL    HW229235   1.589   4.105   3.912  0.0474 -1.7479 -1.5349
 5925SOL     OW29236   0.381   1.376  15.121 -0.3026 -0.1776  0.0160
 5925SOL    HW129237   0.451   1.338  15.068  0.5124  2.2254 -0.6115
 5925SOL    HW229238   0.442   1.426  15.175 -1.6906 -0.6664  2.0858
 5926SOL     OW29239   2.176   3.745   4.645  0.5863  0.4608 -0.5368
 5926SOL    HW129240   2.224   3.664   4.662 -0.9457  0.2196  2.6938
 5926SOL    HW229241   2.148   3.733   4.554  0.7998  0.7944 -0.6470
 5927SOL     OW29242   4.495   2.238   2.368 -0.3052  0.5766 -0.1732
 5927SOL    HW129243   4.547   2.241   2.288 -1.0839 -0.1552 -0.7048
 5927SOL    HW229244   4.407   2.244   2.331 -0.3886  0.2641 -0.0215
 5928SOL     OW29245   1.242   2.128   7.628  0.0294 -0.5683  0.5877
 5928SOL    HW129246   1.296   2.187   7.577 -2.4787  0.4996 -0.8075
 5928SOL    HW229247   1.154   2.162   7.614  0.9507  0.6958 -2.0751
 5929SOL     OW29248   0.425   2.544   6.067  0.4202  0.4494 -0.0315
 5929SOL    HW129249   0.396   2.635   6.064 -0.6505  0.1970  2.5552
 5929SOL    HW229250   0.356   2.514   6.126  2.3975 -3.2772  0.3830
 5930SOL     OW29251   3.991   4.091  15.373  0.1620 -0.0246  0.2674
 5930SOL    HW129252   4.006   4.180  15.405  0.1787 -0.1390  0.5793
 5930SOL    HW229253   3.945   4.058  15.450  0.5463  1.2115  1.0268
 5931SOL     OW29254   3.928   2.852   9.363 -0.7660 -0.0405  0.2815
 5931SOL    HW129255   3.958   2.794   9.433 -2.4989 -1.6718 -0.3271
 5931SOL    HW229256   3.834   2.856   9.380 -0.5578  3.4689  0.6044
 5932SOL     OW29257   2.273   0.340  17.119  0.4463 -0.8809 -0.0315
 5932SOL    HW129258   2.252   0.394  17.042  0.9283 -2.0379 -0.9784
 5932SOL    HW229259   2.255   0.400  17.192 -2.5972  0.5070 -1.8962
 5933SOL     OW29260   3.329   0.553   8.436 -0.0051  0.7789  0.3005
 5933SOL    HW129261   3.313   0.641   8.470 -0.5294  0.4190  0.9685
 5933SOL    HW229262   3.393   0.517   8.498  1.4179  2.2376 -0.3268
 5934SOL     OW29263   1.331   0.145   1.810 -0.1416 -0.7680  0.4433
 5934SOL    HW129264   1.294   0.097   1.884 -1.4831  1.1106  0.9866
 5934SOL    HW229265   1.260   0.206   1.789  0.8652 -0.1710 -1.1713
 5935SOL     OW29266   0.399   0.318   6.823  0.7635 -0.5879  0.2952
 5935SOL    HW129267   0.317   0.280   6.854 -0.0695  1.6864  0.8782
 5935SOL    HW229268   0.392   0.297   6.730  0.2033 -1.0292  0.4347
 5936SOL     OW29269   1.846   0.350   2.130 -0.4047 -0.4487 -0.4501
 5936SOL    HW129270   1.817   0.438   2.151  1.6826  0.2074 -0.3562
 5936SOL    HW229271   1.763   0.302   2.142 -0.4308  0.7768  4.3843
 5937SOL     OW29272   3.377   3.006   8.340  0.1130 -0.1552 -0.5045
 5937SOL    HW129273   3.365   3.100   8.328  1.2468  0.0568  0.0401
 5937SOL    HW229274   3.357   2.965   8.256 -1.0112  0.1800 -0.3951
 5938SOL     OW29275   1.226   0.548   3.637 -0.1744 -0.3612  0.1925
 5938SOL    HW129276   1.233   0.575   3.729 -0.3328  1.3139 -0.2949
 5938SOL    HW229277   1.207   0.454   3.638  1.3132 -0.6861 -2.0258
 5939SOL     OW29278   2.379   3.506   8.490 -0.0268 -0.1475 -0.1572
 5939SOL    HW129279   2.474   3.517   8.486 -0.2212  1.0953 -1.5051
 5939SOL    HW229280   2.348   3.592   8.520 -0.8852  0.8895 -3.9960
 5940SOL     OW29281   0.529   1.713   2.956 -0.0807 -0.3917 -0.3868
 5940SOL    HW129282   0.571   1.782   3.007  0.4364 -2.2282  1.6478
 5940SOL    HW229283   0.438   1.726   2.981 -0.3079 -1.4129 -0.6557
 5941SOL     OW29284   4.418   4.596   5.540 -0.4278 -0.1322  0.4117
 5941SOL    HW129285   4.413   4.590   5.635  0.6029  0.5673  0.5043
 5941SOL    HW229286   4.513   4.599   5.542 -0.4113  1.0445 -1.3563
 5942SOL     OW29287   4.492   2.933   2.444 -0.7823  0.3350  0.0904
 5942SOL    HW129288   4.535   3.008   2.404  0.5725 -0.2908  0.3851
 5942SOL    HW229289   4.522   2.937   2.535  0.6487 -0.7693 -0.3516
 5943SOL     OW29290   2.398   1.346   2.075  0.2322  0.3273 -0.0813
 5943SOL    HW129291   2.404   1.253   2.055  0.2541  0.2668  0.2063
 5943SOL    HW229292   2.420   1.348   2.168 -0.5567  4.3328  0.0221
 5944SOL     OW29293   0.899   0.304   1.220 -0.5933 -0.2521 -0.3931
 5944SOL    HW129294   0.877   0.237   1.285  3.7384 -1.3873 -0.1063
 5944SOL    HW229295   0.991   0.285   1.203 -0.5141 -0.9521  0.8193
 5945SOL     OW29296   3.246   1.841   2.930  0.1181  0.1490  0.7797
 5945SOL    HW129297   3.320   1.844   2.869 -0.0872  1.2054  0.5917
 5945SOL    HW229298   3.185   1.895   2.880  1.7725  2.8250  1.6476
 5946SOL     OW29299   1.512   4.477   1.200 -0.1044 -0.7037  0.0792
 5946SOL    HW129300   1.501   4.548   1.264  0.0353 -0.9863  0.4201
 5946SOL    HW229301   1.512   4.400   1.257 -1.2734 -0.7424  0.0338
 5947SOL     OW29302   2.233   1.537   3.730  0.0133 -0.6579  0.7531
 5947SOL    HW129303   2.210   1.523   3.638  1.4224  1.6425  0.0391
 5947SOL    HW229304   2.303   1.601   3.734 -2.2999  1.8131  2.0131
 5948SOL     OW29305   0.078   1.813  12.127  0.3718 -0.2755 -0.3412
 5948SOL    HW129306   0.090   1.872  12.053  1.0471 -0.9576 -0.7779
 5948SOL    HW229307   0.006   1.857  12.172 -0.4652 -0.7998 -1.1618
 5949SOL     OW29308   4.339   0.196   0.621  0.0039 -0.2273 -0.0694
 5949SOL    HW129309   4.426   0.231   0.643  0.9713 -1.1994 -2.3962
 5949SOL    HW229310   4.364   0.138   0.550 -0.5813  0.0405 -0.4853
 5950SOL     OW29311   0.942   0.514   7.414 -0.1815 -0.0455 -0.1491
 5950SOL    HW129312   0.899   0.429   7.423 -0.7096  0.4083  1.7368
 5950SOL    HW229313   0.947   0.549   7.503  0.4873 -0.0173 -0.2004
 5951SOL     OW29314   3.466   1.310   3.083 -0.2275  0.1529  0.3237
 5951SOL    HW129315   3.480   1.219   3.109 -0.5933 -0.1399 -0.4928
 5951SOL    HW229316   3.504   1.355   3.158  2.1816  1.3803 -1.6166
 5952SOL     OW29317   0.080   2.861   7.619 -0.1843 -0.1793  0.2522
 5952SOL    HW129318   0.078   2.933   7.556 -0.1680 -1.7051 -1.4879
 5952SOL    HW229319   4.719   2.872   7.655 -0.3101 -0.9112  0.1771
 5953SOL     OW29320   3.362   4.182   2.169  0.2643  0.2074 -0.4078
 5953SOL    HW129321   3.418   4.130   2.112  0.4796  0.3542 -0.3298
 5953SOL    HW229322   3.324   4.244   2.106  0.6429  0.2089 -0.6317
 5954SOL     OW29323   3.680   3.834   9.622  0.3212 -0.3536  0.8001
 5954SOL    HW129324   3.746   3.784   9.669  1.7926  0.5673 -0.2830
 5954SOL    HW229325   3.607   3.774   9.634 -0.2750  0.1484 -0.2314
 5955SOL     OW29326   3.077   3.338   3.130 -0.4879 -0.7705  0.0764
 5955SOL    HW129327   3.043   3.305   3.047  2.7371  0.8027 -1.9014
 5955SOL    HW229328   3.009   3.402   3.151  1.3504  1.8843 -2.0031
 5956SOL     OW29329   2.256   1.510   5.862  0.0125  0.2049 -0.0392
 5956SOL    HW129330   2.255   1.431   5.808 -0.6938  1.6213 -2.0894
 5956SOL    HW229331   2.171   1.508   5.907 -0.7243  1.7640 -1.3286
 5957SOL     OW29332   1.795   4.127   8.727  0.0782  0.3573  0.5045
 5957SOL    HW129333   1.804   4.032   8.720 -1.4257  0.2262  0.3647
 5957SOL    HW229334   1.717   4.141   8.675 -0.3190 -1.9427  0.4711
 5958SOL     OW29335   1.107   1.948   4.057 -0.3202 -0.0787 -0.1440
 5958SOL    HW129336   1.121   2.043   4.063 -0.0883 -0.1548  0.5457
 5958SOL    HW229337   1.084   1.927   4.148  0.0229  0.7760  0.1421
 5959SOL     OW29338   1.091   3.730   2.013  0.1003  0.6670 -0.0086
 5959SOL    HW129339   1.081   3.807   1.956 -1.2878  0.6914  0.2662
 5959SOL    HW229340   1.148   3.680   1.954  2.4489  1.6236  1.4446
 5960SOL     OW29341   0.562   0.520   3.473 -0.5285 -0.3008 -0.0104
 5960SOL    HW129342   0.507   0.442   3.469  0.6603 -1.1018 -0.6804
 5960SOL    HW229343   0.532   0.565   3.394  2.1132 -2.1055 -2.0347
 5961SOL     OW29344   2.327   4.520  15.056 -0.1648  0.1480  0.6259
 5961SOL    HW129345   2.232   4.519  15.069 -0.1550 -0.6295  0.6561
 5961SOL    HW229346   2.346   4.613  15.058  1.2470 -0.1547  1.1287
 5962SOL     OW29347   1.725   2.960  15.832 -0.3414  0.2736  0.0240
 5962SOL    HW129348   1.778   2.889  15.868 -0.4675  0.8621  1.3597
 5962SOL    HW229349   1.747   2.960  15.739  1.5640 -0.1014  0.4596
 5963SOL     OW29350   3.451   1.948   3.414  0.6238 -0.5547 -0.0299
 5963SOL    HW129351   3.432   1.943   3.321 -0.2742 -0.9505  0.1818
 5963SOL    HW229352   3.368   1.992   3.434  1.0852 -0.2510  1.2555
 5964SOL     OW29353   1.103   2.609   1.745 -0.1010 -0.1220  0.3198
 5964SOL    HW129354   1.053   2.586   1.666 -1.5676 -1.3958  1.6043
 5964SOL    HW229355   1.076   2.698   1.767  1.6688  0.5037 -0.1083
 5965SOL     OW29356   3.167   0.751   2.521  1.3426 -0.3097  0.5752
 5965SOL    HW129357   3.147   0.722   2.610 -0.1730 -0.6036  0.1294
 5965SOL    HW229358   3.170   0.666   2.476 -0.7274  0.4618 -1.0190
 5966SOL     OW29359   1.733   4.367   0.874 -0.2102  0.2728  0.5255
 5966SOL    HW129360   1.717   4.387   0.782  0.6158 -2.3508 -0.1502
 5966SOL    HW229361   1.815   4.318   0.871  1.1049  2.4719  0.4102
 5967SOL     OW29362   1.101   0.821   6.306 -0.1115 -0.4649 -0.3467
 5967SOL    HW129363   1.079   0.782   6.390  2.6550 -0.6777  0.2667
 5967SOL    HW229364   1.099   0.745   6.247 -0.9470  1.5009 -2.8677
 5968SOL     OW29365   4.055   1.624   1.216 -0.4183  0.3671  0.0367
 5968SOL    HW129366   4.057   1.598   1.308 -0.5571 -3.6075 -1.0962
 5968SOL    HW229367   4.098   1.709   1.223  0.1849 -0.0810  1.7277
 5969SOL     OW29368   0.171   2.402  16.408 -0.0370  0.1949  0.2633
 5969SOL    HW129369   0.082   2.402  16.445 -0.6038 -1.6318 -1.0577
 5969SOL    HW229370   0.214   2.398  16.493  0.0301  2.3241  0.3228
 5970SOL     OW29371   3.233   3.966   7.820  0.4000  0.4013 -0.2517
 5970SOL    HW129372   3.141   3.992   7.821  0.4277  0.4778  0.3353
 5970SOL    HW229373   3.264   3.996   7.906 -2.7928 -2.0058  1.7407
 5971SOL     OW29374   0.937   3.399   7.897 -0.1459 -0.4063 -0.5195
 5971SOL    HW129375   0.924   3.480   7.848 -0.7867 -0.1939  0.0115
 5971SOL    HW229376   0.847   3.379   7.921 -0.0295 -0.4922 -0.1512
 5972SOL     OW29377   3.875   4.150  12.218 -0.3468  0.8902  0.0680
 5972SOL    HW129378   3.828   4.228  12.247 -1.6460  0.5122 -1.0124
 5972SOL    HW229379   3.909   4.120  12.302  2.0900  1.9483 -0.5360
 5973SOL     OW29380   1.188   1.688   2.656  0.2114  0.7885  0.4348
 5973SOL    HW129381   1.240   1.676   2.736  1.6869 -1.4618 -0.8386
 5973SOL    HW229382   1.211   1.610   2.604 -1.9857  0.7068 -0.4061
 5974SOL     OW29383   4.412   0.890   9.805  0.3102  0.0243 -0.8132
 5974SOL    HW129384   4.441   0.958   9.866 -0.2562  0.2767 -0.8207
 5974SOL    HW229385   4.438   0.931   9.723  1.9051 -1.5440 -1.1015
 5975SOL     OW29386   3.711   4.279   7.319 -0.2712  0.2453 -0.3069
 5975SOL    HW129387   3.693   4.341   7.249  1.5961  1.9439  0.7124
 5975SOL    HW229388   3.702   4.335   7.396 -0.7084  2.2728 -1.8220
 5976SOL     OW29389   3.178   4.170   5.198  0.1694  0.4115  0.0362
 5976SOL    HW129390   3.120   4.230   5.151 -1.3618  1.1456  2.8253
 5976SOL    HW229391   3.226   4.235   5.249 -1.4487  1.7170 -0.0849
 5977SOL     OW29392   2.284   1.639  16.634 -0.7585  0.7375 -0.5743
 5977SOL    HW129393   2.332   1.623  16.553 -1.2103 -2.0903 -0.2632
 5977SOL    HW229394   2.346   1.687  16.689  0.4966 -1.3346 -0.1713
 5978SOL     OW29395   2.210   1.642   2.144  0.1050  0.1095 -0.0736
 5978SOL    HW129396   2.215   1.579   2.072 -1.9495 -0.0238 -0.0984
 5978SOL    HW229397   2.221   1.585   2.220  2.3805 -0.8840 -1.1603
 5979SOL     OW29398   2.874   3.471   2.146 -0.3108  0.4385  0.1670
 5979SOL    HW129399   2.834   3.419   2.076  0.8308 -3.2571  2.2752
 5979SOL    HW229400   2.929   3.403   2.184 -1.9339 -0.4308  0.9711
 5980SOL     OW29401   4.257   1.535   5.628  0.1094 -0.2194 -0.0533
 5980SOL    HW129402   4.328   1.515   5.567 -0.7804 -1.9309 -0.5139
 5980SOL    HW229403   4.184   1.501   5.576  0.7086 -0.4250 -0.7647
 5981SOL     OW29404   3.347   1.307   3.922  0.0963 -0.2431 -0.4508
 5981SOL    HW129405   3.333   1.216   3.949 -0.2836 -0.2920 -0.8201
 5981SOL    HW229406   3.305   1.305   3.837  0.1890 -0.6053 -0.4883
 5982SOL     OW29407   3.019   0.548   4.289 -0.1367  0.0483 -0.1484
 5982SOL    HW129408   2.941   0.603   4.282 -0.7281 -0.2753  3.7536
 5982SOL    HW229409   3.080   0.619   4.308 -0.8700  0.4452  0.7620
 5983SOL     OW29410   1.221   4.703   3.550 -0.1334 -0.2987 -0.1493
 5983SOL    HW129411   1.259   4.693   3.637  0.7096  0.8035 -0.3822
 5983SOL    HW229412   1.292   4.672   3.493 -1.8693 -0.5766 -2.1787
 5984SOL     OW29413   0.081   2.480  12.969 -0.6518 -0.0424  0.9825
 5984SOL    HW129414   0.014   2.411  12.963  0.9013 -1.2984 -1.9925
 5984SOL    HW229415   0.141   2.443  13.034  0.0684  0.3647  0.5507
 5985SOL     OW29416   0.724   1.421   4.668 -0.0661 -0.1174  0.0431
 5985SOL    HW129417   0.781   1.348   4.645 -0.5575 -0.2066 -0.9108
 5985SOL    HW229418   0.728   1.477   4.590 -3.1285  0.1807  0.0707
 5986SOL     OW29419   3.401   1.716   8.389 -0.0336  0.2118  0.0607
 5986SOL    HW129420   3.322   1.721   8.442  1.2119  0.3201  1.8943
 5986SOL    HW229421   3.452   1.639   8.415 -0.5304  0.0224  0.4642
 5987SOL     OW29422   3.403   0.166   5.589  0.7186 -0.0259 -0.5055
 5987SOL    HW129423   3.452   0.142   5.511  0.3062 -2.0017 -0.1523
 5987SOL    HW229424   3.470   0.134   5.649  0.2974 -2.4646 -1.3328
 5988SOL     OW29425   0.935   2.446   6.644  0.0244 -0.0745  0.1057
 5988SOL    HW129426   0.891   2.443   6.729  0.7542 -2.6124  0.4115
 5988SOL    HW229427   1.027   2.441   6.671  0.3921 -0.5413 -1.1967
 5989SOL     OW29428   4.642   2.272  15.508 -0.6344  0.5823 -0.4059
 5989SOL    HW129429   4.568   2.216  15.533  0.2915 -0.5456 -0.1604
 5989SOL    HW229430   4.661   2.260  15.415  2.5353  0.3655  0.2452
 5990SOL     OW29431   3.553   0.614   7.074 -0.3724  0.0277  0.3921
 5990SOL    HW129432   3.538   0.703   7.106 -0.0933  0.0691  0.4113
 5990SOL    HW229433   3.520   0.567   7.150 -0.1548 -2.1007 -0.8483
 5991SOL     OW29434   1.332   2.863   7.782  0.7061 -0.0096  0.3190
 5991SOL    HW129435   1.276   2.878   7.706 -0.8996 -0.2231  1.4597
 5991SOL    HW229436   1.301   2.929   7.844  0.1946  0.0793 -0.0333
 5992SOL     OW29437   1.785   2.024   0.844 -0.0967 -0.5359  0.5108
 5992SOL    HW129438   1.693   2.052   0.843  0.4718  1.3147  0.4603
 5992SOL    HW229439   1.813   2.039   0.934  0.0977  0.8253  0.2213
 5993SOL     OW29440   0.063   0.453   7.148  0.2305  0.0583 -0.1419
 5993SOL    HW129441   4.703   0.443   7.108  0.2548 -1.4994  0.1824
 5993SOL    HW229442   0.040   0.458   7.240 -0.2795  0.2282 -0.2806
 5994SOL     OW29443   3.858   3.769  10.702  0.2971  0.2564  0.2828
 5994SOL    HW129444   3.849   3.788  10.796  0.9676 -1.0105  0.5933
 5994SOL    HW229445   3.769   3.743  10.677  0.7997  0.3526 -1.6184
 5995SOL     OW29446   2.846   3.473   8.482  0.7632  0.6798  0.1191
 5995SOL    HW129447   2.904   3.546   8.460 -0.3556  1.5726  0.0714
 5995SOL    HW229448   2.914   3.411   8.507  1.9889  1.4419 -1.3373
 5996SOL     OW29449   3.274   0.899   5.110  0.1686 -0.1868 -0.5375
 5996SOL    HW129450   3.309   0.985   5.089  1.9306 -1.2178 -1.8429
 5996SOL    HW229451   3.237   0.903   5.198 -2.5512  0.1952 -1.6981
 5997SOL     OW29452   1.304   2.397  16.988  0.3206 -0.0843  0.0311
 5997SOL    HW129453   1.215   2.378  17.018 -0.3136  2.1543 -0.5005
 5997SOL    HW229454   1.295   2.489  17.013  0.5160  0.4380 -1.8627
 5998SOL     OW29455   0.160   3.744   4.717 -0.6187  0.4357  0.2499
 5998SOL    HW129456   0.107   3.677   4.674 -0.8220  1.9419 -1.8848
 5998SOL    HW229457   0.239   3.735   4.665 -0.7591  0.2032  0.0753
 5999SOL     OW29458   1.409   0.895   7.010 -0.4814  0.2947 -0.7611
 5999SOL    HW129459   1.321   0.919   7.039  0.2521  1.3922  0.5801
 5999SOL    HW229460   1.459   0.928   7.085 -2.1357  2.1009 -0.4459
 6000SOL     OW29461   2.000   4.461   5.006 -0.9638  0.5375 -0.3189
 6000SOL    HW129462   1.921   4.467   4.951 -2.0752  2.5169  1.5407
 6000SOL    HW229463   2.071   4.433   4.948  0.2434  0.4811  1.2013
 6001SOL     OW29464   1.773   1.490   8.783 -0.0087  0.2838  0.1859
 6001SOL    HW129465   1.792   1.445   8.865 -0.4756  1.1083  0.7349
 6001SOL    HW229466   1.853   1.465   8.737 -1.0957 -2.6183 -0.1252
 6002SOL     OW29467   1.989   2.018   2.186  0.5838 -0.2858  0.4543
 6002SOL    HW129468   1.989   1.969   2.267  1.2856  0.3988  0.8659
 6002SOL    HW229469   1.937   1.971   2.120  1.6162 -1.0206  0.1600
 6003SOL     OW29470   2.050   4.495   2.703 -0.1221 -0.5380 -0.2662
 6003SOL    HW129471   2.044   4.551   2.626  0.0153  1.4077  1.1238
 6003SOL    HW229472   2.054   4.406   2.668  1.3377 -1.1474  1.4242
 6004SOL     OW29473   0.344   0.006   4.435  0.2231  0.0352 -0.3033
 6004SOL    HW129474   0.353   0.066   4.509  0.2617 -0.9010  0.4422
 6004SOL    HW229475   0.326   0.062   4.359  1.6531  0.7037 -0.1443
 6005SOL     OW29476   1.884   1.422  17.652  0.4024 -0.0319  0.0349
 6005SOL    HW129477   1.971   1.447  17.622 -0.0208 -0.7122 -1.7346
 6005SOL    HW229478   1.866   1.360  17.581  1.9840 -2.0831  1.4199
 6006SOL     OW29479   3.224   1.698  11.474  0.1568 -0.4226  0.3119
 6006SOL    HW129480   3.289   1.668  11.410  0.9053  1.5893  0.1344
 6006SOL    HW229481   3.148   1.653  11.436  1.7879 -2.1209 -0.9763
 6007SOL     OW29482   0.438   4.591   9.423 -1.0931  0.3039 -0.1239
 6007SOL    HW129483   0.355   4.569   9.464 -1.4402  0.1385 -0.9213
 6007SOL    HW229484   0.459   4.669   9.475 -0.2992 -0.3951  0.6215
 6008SOL     OW29485   4.283   2.416   6.709  0.1695  0.3512 -0.1733
 6008SOL    HW129486   4.229   2.395   6.786  2.8798  0.2467  1.6677
 6008SOL    HW229487   4.359   2.445   6.758  0.2163  0.1481 -0.1275
 6009SOL     OW29488   2.251   0.114  12.332  0.4551  0.3623  0.1380
 6009SOL    HW129489   2.178   0.153  12.381 -0.2120 -1.5372  0.6392
 6009SOL    HW229490   2.327   0.141  12.385 -0.5315  0.7802  1.3471
 6010SOL     OW29491   3.304   2.886   6.620 -0.0471  0.2513 -0.5174
 6010SOL    HW129492   3.295   2.796   6.652  0.5587 -0.4763 -2.4250
 6010SOL    HW229493   3.388   2.916   6.653  0.0273 -0.6894  0.1721
 6011SOL     OW29494   1.515   3.118   6.339 -0.2106 -0.1532  0.1531
 6011SOL    HW129495   1.482   3.100   6.427  0.2856  1.1941  0.6251
 6011SOL    HW229496   1.606   3.130   6.365 -0.1279 -0.1791 -0.1331
 6012SOL     OW29497   0.245   3.188   9.234 -0.2468 -0.3107  0.3589
 6012SOL    HW129498   0.287   3.221   9.314  1.2176  0.2894 -0.6456
 6012SOL    HW229499   0.283   3.250   9.171  1.0407  0.1423  1.5665
 6013SOL     OW29500   2.187   3.795   4.330  0.5937 -0.3554  0.2293
 6013SOL    HW129501   2.200   3.802   4.236  1.4655  1.5820  0.5005
 6013SOL    HW229502   2.158   3.882   4.357 -1.6148 -0.7505 -0.8554
 6014SOL     OW29503   3.756   4.095   8.021 -0.3862 -0.0363  0.3603
 6014SOL    HW129504   3.819   4.046   7.968 -1.0326  1.5283 -1.8740
 6014SOL    HW229505   3.724   4.158   7.956 -1.7743  0.2019  1.2605
 6015SOL     OW29506   2.997   0.612   0.562  0.3898  0.4185 -0.3487
 6015SOL    HW129507   2.971   0.612   0.654 -0.3008 -2.3488 -0.5497
 6015SOL    HW229508   2.999   0.522   0.530  0.4097  0.3559 -0.1706
 6016SOL     OW29509   2.021   3.917   7.706 -0.2841 -0.0835 -0.1147
 6016SOL    HW129510   2.104   3.870   7.694  0.2505  0.7637  0.2862
 6016SOL    HW229511   2.013   3.972   7.628  0.1041  1.2984  0.8243
 6017SOL     OW29512   3.432   3.547   7.779  0.6543  0.1184  0.6171
 6017SOL    HW129513   3.387   3.558   7.696 -0.0351 -3.2187  0.5353
 6017SOL    HW229514   3.476   3.631   7.790  1.8687 -0.3428 -0.7651
 6018SOL     OW29515   2.146   3.801   2.044  0.4294 -0.0709 -0.3252
 6018SOL    HW129516   2.179   3.718   2.080 -1.7920  0.0037  1.9039
 6018SOL    HW229517   2.106   3.836   2.124  1.1540  0.7898 -0.3473
 6019SOL     OW29518   0.358   2.901   4.545  0.2168  0.1532 -0.1066
 6019SOL    HW129519   0.372   2.833   4.611 -2.3385 -1.2208 -0.9749
 6019SOL    HW229520   0.421   2.870   4.479 -0.6144 -0.0626 -0.8032
 6020SOL     OW29521   2.053   2.771  17.529  1.0004 -0.1750  0.4651
 6020SOL    HW129522   2.068   2.679  17.551  1.3343 -0.7203 -2.0953
 6020SOL    HW229523   2.129   2.792  17.474  1.2055 -0.0659  0.7877
 6021SOL     OW29524   1.471   4.391   8.748 -0.6264  0.3682  0.6856
 6021SOL    HW129525   1.525   4.351   8.680 -2.0831  0.9549 -0.8211
 6021SOL    HW229526   1.530   4.446   8.800  0.4928 -1.1769  1.0613
 6022SOL     OW29527   2.065   3.898   6.231  0.8260 -0.3961 -0.4632
 6022SOL    HW129528   2.034   3.984   6.204 -1.5627 -1.0539  0.1464
 6022SOL    HW229529   2.091   3.855   6.149 -0.0910 -0.2133 -0.8415
 6023SOL     OW29530   1.612   4.630   6.460  0.0353  0.1809 -0.2455
 6023SOL    HW129531   1.595   4.539   6.485  0.4351  0.4534  1.0120
 6023SOL    HW229532   1.640   4.623   6.369  0.5836 -2.9653  0.1604
 6024SOL     OW29533   1.575   0.363   6.366  0.2000 -0.1385  0.2313
 6024SOL    HW129534   1.661   0.373   6.406  1.1763 -0.9306 -1.6888
 6024SOL    HW229535   1.571   0.442   6.313  2.3837 -0.9448 -1.1342
 6025SOL     OW29536   4.464   0.045  10.205 -0.1203  0.1020 -0.1277
 6025SOL    HW129537   4.416   0.092  10.273 -0.5582 -0.2094 -0.2265
 6025SOL    HW229538   4.438   0.091  10.125  0.2944 -0.0489 -0.3479
 6026SOL     OW29539   0.600   3.494   9.324  0.1441 -0.3609 -0.3701
 6026SOL    HW129540   0.531   3.509   9.259  0.7837 -0.5272 -1.0794
 6026SOL    HW229541   0.557   3.516   9.406 -1.5970 -2.5217 -0.6948
 6027SOL     OW29542   1.498   2.161   7.307 -0.0607 -0.1415  0.0513
 6027SOL    HW129543   1.525   2.069   7.303 -0.6805 -0.3320  0.3181
 6027SOL    HW229544   1.406   2.150   7.284 -0.1411  2.1849 -0.7467
 6028SOL     OW29545   1.913   3.934   0.846 -0.9497  0.3411 -0.3933
 6028SOL    HW129546   1.875   3.861   0.797  1.5561 -0.7761 -0.6893
 6028SOL    HW229547   1.872   3.930   0.933 -0.1230 -0.1703 -0.0191
 6029SOL     OW29548   3.094   4.184  16.231 -0.5394  0.0299 -0.4541
 6029SOL    HW129549   3.059   4.261  16.187  0.0157  0.9673  0.7615
 6029SOL    HW229550   3.181   4.174  16.193 -0.5126 -3.4339  0.5276
 6030SOL     OW29551   0.667   3.875  10.577 -0.3426  0.2737 -0.5860
 6030SOL    HW129552   0.661   3.961  10.536  1.4749 -0.0548 -1.5009
 6030SOL    HW229553   0.695   3.814  10.509 -0.0518 -0.1561 -0.0888
 6031SOL     OW29554   3.923   1.708   4.025  0.1955  0.0905  0.1107
 6031SOL    HW129555   3.957   1.673   4.107  1.2088  2.2189  0.5928
 6031SOL    HW229556   3.981   1.662   3.964  0.4888 -0.0938  0.5283
 6032SOL     OW29557   3.316   0.207   7.947 -0.4542 -0.0540 -0.1842
 6032SOL    HW129558   3.349   0.152   8.017  0.3800 -0.8425 -1.2034
 6032SOL    HW229559   3.394   0.223   7.893  0.4158 -0.3360  1.0009
 6033SOL     OW29560   0.672   1.680  14.926  0.0316 -1.2323  0.3101
 6033SOL    HW129561   0.630   1.641  14.849 -0.8468  1.0389 -0.3556
 6033SOL    HW229562   0.604   1.740  14.956  1.0050  0.3653 -0.7129
 6034SOL     OW29563   4.517   1.632   1.543 -0.1243 -0.2038 -0.1327
 6034SOL    HW129564   4.489   1.560   1.599 -0.8475  0.5238  0.4410
 6034SOL    HW229565   4.598   1.599   1.503  1.5037  1.1553  1.9947
 6035SOL     OW29566   4.358   2.088   2.662 -0.3210 -0.0181 -0.4387
 6035SOL    HW129567   4.370   2.174   2.703 -1.5651 -1.7606  3.5836
 6035SOL    HW229568   4.443   2.046   2.671 -1.4977 -2.4488 -0.4840
 6036SOL     OW29569   0.547   2.005   7.454 -0.7691  0.5460 -0.2991
 6036SOL    HW129570   0.584   1.955   7.526  0.3428  1.5053 -0.2077
 6036SOL    HW229571   0.611   2.077   7.454  1.2216 -1.2289 -0.5333
 6037SOL     OW29572   3.902   2.579   4.436  0.1139  0.0809  0.7827
 6037SOL    HW129573   3.909   2.571   4.341  1.6616  1.4196  0.7810
 6037SOL    HW229574   3.824   2.635   4.438  2.0640  2.8062  1.1063
 6038SOL     OW29575   3.745   3.689   7.626  0.3170  0.2658  0.0712
 6038SOL    HW129576   3.689   3.647   7.560 -0.0534  0.9623 -0.0534
 6038SOL    HW229577   3.710   3.778   7.627  0.5138  0.3339  0.8760
 6039SOL     OW29578   3.090   1.657   3.253 -0.1947 -0.4075 -0.0712
 6039SOL    HW129579   3.038   1.735   3.234  0.5261 -0.4552 -2.1939
 6039SOL    HW229580   3.115   1.639   3.163 -1.9469  1.4739 -0.9583
 6040SOL     OW29581   2.343   0.338   3.475  0.3399  0.3335  0.3847
 6040SOL    HW129582   2.329   0.429   3.500  1.9111  0.2037  1.7026
 6040SOL    HW229583   2.353   0.309   3.566  2.0347 -0.8248 -0.1684
 6041SOL     OW29584   2.881   0.310   3.065  0.3044  0.2724  0.4719
 6041SOL    HW129585   2.939   0.307   3.141  2.0291 -0.8950 -0.8978
 6041SOL    HW229586   2.883   0.218   3.038  0.7605  0.8107 -1.2901
 6042SOL     OW29587   1.363   3.970  13.678  0.0078 -0.1954  0.5599
 6042SOL    HW129588   1.443   4.021  13.690 -0.1879 -0.1960  1.9306
 6042SOL    HW229589   1.302   4.039  13.652  1.6047  0.8827 -0.3040
 6043SOL     OW29590   0.249   4.409  10.030  0.3488 -0.2961  0.4402
 6043SOL    HW129591   0.184   4.373  10.090 -1.2684 -0.2459 -1.2678
 6043SOL    HW229592   0.241   4.345   9.959 -1.0934 -0.1809  0.5077
 6044SOL     OW29593   3.867   2.309   4.766  0.3114 -0.1780  0.2619
 6044SOL    HW129594   3.836   2.339   4.852 -0.4956 -0.8256  0.1985
 6044SOL    HW229595   3.789   2.315   4.712  1.6155 -0.6564 -1.6645
 6045SOL     OW29596   3.312   3.892  17.111  0.3719 -0.5679 -0.1956
 6045SOL    HW129597   3.318   3.814  17.057  2.6591 -0.0045 -0.7595
 6045SOL    HW229598   3.347   3.858  17.194 -0.6497  3.2071  1.8030
 6046SOL     OW29599   3.905   3.400   3.017  0.0207  0.8696 -0.1878
 6046SOL    HW129600   3.994   3.432   3.029  0.0307  0.2511  1.3797
 6046SOL    HW229601   3.906   3.373   2.925 -1.4546  2.1441 -0.5860
 6047SOL     OW29602   0.403   3.386   7.106  0.3906  0.1074  0.1641
 6047SOL    HW129603   0.373   3.457   7.163 -0.9355  1.1793 -1.8760
 6047SOL    HW229604   0.498   3.398   7.115  0.3620 -0.7510  1.5459
 6048SOL     OW29605   4.289   2.201  11.950  0.0481 -0.4270  0.0288
 6048SOL    HW129606   4.323   2.252  11.877 -0.8403 -0.4764 -0.4166
 6048SOL    HW229607   4.281   2.261  12.024  1.1353  1.1049 -1.0900
 6049SOL     OW29608   4.132   4.563   6.834 -0.5800  0.7460  0.2983
 6049SOL    HW129609   4.066   4.577   6.766 -0.4095 -0.9043 -0.1989
 6049SOL    HW229610   4.091   4.500   6.892 -0.3809 -0.0430 -0.4104
 6050SOL     OW29611   1.812   3.276  10.655  0.1139 -0.4628 -0.5634
 6050SOL    HW129612   1.827   3.284  10.561 -0.0553  3.4930 -0.2585
 6050SOL    HW229613   1.900   3.257  10.687 -1.2281 -1.4944  2.4525
 6051SOL     OW29614   2.685   3.930   7.288  0.6152 -0.6293  0.6652
 6051SOL    HW129615   2.755   3.995   7.283 -0.4500  0.6125  1.9190
 6051SOL    HW229616   2.735   3.849   7.302 -0.4871 -1.4482 -0.1247
 6052SOL     OW29617   3.094   0.917   3.210 -0.7010  0.1579 -0.1425
 6052SOL    HW129618   3.133   0.984   3.154  0.2807 -0.5226 -0.2731
 6052SOL    HW229619   3.174   0.874   3.241 -1.2934 -0.6615  0.2241
 6053SOL     OW29620   1.244   3.081   3.798  0.4646  0.0023 -0.1410
 6053SOL    HW129621   1.307   3.044   3.860 -0.1833  1.6436  1.5087
 6053SOL    HW229622   1.301   3.143   3.754 -0.8815  0.8699 -0.6706
 6054SOL     OW29623   2.908   1.911  11.592  0.0641  0.2638 -0.2628
 6054SOL    HW129624   2.931   1.890  11.683  3.6275 -0.8608 -1.4258
 6054SOL    HW229625   2.986   1.906  11.537  0.0579 -3.5630  0.0510
 6055SOL     OW29626   3.423   4.441  14.042  0.6880  0.0722  0.3219
 6055SOL    HW129627   3.513   4.472  14.055  1.0500 -1.1247  0.7372
 6055SOL    HW229628   3.425   4.373  13.974 -0.5391 -0.3358  0.6980
 6056SOL     OW29629   3.861   3.275   7.511  0.6648 -0.7442 -0.2887
 6056SOL    HW129630   3.872   3.181   7.516 -1.2212 -0.8702  1.6159
 6056SOL    HW229631   3.891   3.299   7.599 -0.3243  1.9688 -0.6811
 6057SOL     OW29632   4.497   0.994   2.893 -0.0725 -0.4678  0.1376
 6057SOL    HW129633   4.408   1.000   2.928 -0.4181 -2.7086 -0.3884
 6057SOL    HW229634   4.478   1.035   2.808  0.3523  0.6423  0.5756
 6058SOL     OW29635   2.134   1.369  17.434  0.1967  0.1534 -0.7389
 6058SOL    HW129636   2.170   1.331  17.515  1.6127  0.5883 -1.1693
 6058SOL    HW229637   2.210   1.368  17.376 -0.2202 -1.9799 -1.2499
 6059SOL     OW29638   1.023   0.325   5.944  0.3488 -0.3893  0.2042
 6059SOL    HW129639   1.081   0.285   6.009  0.9625  0.2330  0.0329
 6059SOL    HW229640   1.088   0.323   5.873  0.1928  2.5953 -0.0079
 6060SOL     OW29641   2.980   3.895   4.235  0.6411  0.3826  0.0418
 6060SOL    HW129642   2.908   3.841   4.268  1.5877 -0.6692  0.4085
 6060SOL    HW229643   2.989   3.845   4.154  0.3628  2.7485 -1.4360
 6061SOL     OW29644   3.855   3.854  14.291 -0.5923 -0.2667 -0.4710
 6061SOL    HW129645   3.910   3.822  14.220 -0.4999  1.7445 -1.2910
 6061SOL    HW229646   3.904   3.819  14.365 -1.5964 -0.2249  0.2234
 6062SOL     OW29647   3.889   2.087   0.529  0.2747  0.3337  0.2860
 6062SOL    HW129648   3.795   2.090   0.549  0.4725 -1.1728  1.4082
 6062SOL    HW229649   3.885   2.076   0.434  0.9910 -0.4452  0.3524
 6063SOL     OW29650   0.775   3.864  14.437  0.4569  0.0334 -0.1138
 6063SOL    HW129651   0.795   3.942  14.386 -1.5097 -0.5581 -1.7970
 6063SOL    HW229652   0.812   3.889  14.521 -2.2153  0.1438  1.0417
 6064SOL     OW29653   2.974   3.061   9.524  0.4229 -0.5977 -0.0823
 6064SOL    HW129654   2.884   3.078   9.550  0.3614 -2.0202  0.6505
 6064SOL    HW229655   2.983   2.968   9.548 -0.1388 -0.8563 -0.8842
 6065SOL     OW29656   3.853   4.085   7.510  0.3427 -0.2700 -0.2939
 6065SOL    HW129657   3.803   4.164   7.492  0.3271 -0.1253  0.3791
 6065SOL    HW229658   3.899   4.071   7.427  1.4842 -1.4679  0.5418
 6066SOL     OW29659   4.368   0.307   3.496 -1.0673 -0.3580  0.2581
 6066SOL    HW129660   4.369   0.402   3.509 -1.3387 -0.5304  1.6009
 6066SOL    HW229661   4.336   0.278   3.582 -1.1938 -0.4636  0.1754
 6067SOL     OW29662   2.682   4.615   4.961 -0.3895  0.5524  0.4730
 6067SOL    HW129663   2.694   4.617   5.056  0.4525 -1.9697  0.4254
 6067SOL    HW229664   2.725   4.696   4.936  1.0425  0.0638  1.3876
 6068SOL     OW29665   4.699   4.141   7.345  0.2566  0.5421  0.4779
 6068SOL    HW129666   4.642   4.215   7.366 -1.6580 -0.4649 -1.1056
 6068SOL    HW229667   4.706   4.093   7.428  0.9956  1.5906  1.0216
 6069SOL     OW29668   2.226   4.217   5.782 -0.1292 -0.2713  0.3740
 6069SOL    HW129669   2.252   4.211   5.690 -1.1575  0.9813 -0.0037
 6069SOL    HW229670   2.144   4.168   5.789 -0.0884 -0.4190 -0.1553
 6070SOL     OW29671   4.312   4.625  17.028  0.1929 -0.2470  0.0450
 6070SOL    HW129672   4.255   4.698  17.052  3.3513  1.5883  1.9418
 6070SOL    HW229673   4.255   4.552  17.051 -0.6880  0.5433  0.3742
 6071SOL     OW29674   0.502   0.840   9.572  0.1879  0.3329 -0.2690
 6071SOL    HW129675   0.509   0.934   9.587  3.5528  0.2005 -1.0979
 6071SOL    HW229676   0.593   0.819   9.591  0.0860  1.1280  1.0343
 6072SOL     OW29677   3.279   1.182   6.682  0.5089  0.7029  0.8447
 6072SOL    HW129678   3.343   1.141   6.740  1.5834  0.0979 -0.7989
 6072SOL    HW229679   3.332   1.245   6.633 -0.5513  0.9626  0.0048
 6073SOL     OW29680   3.337   1.812   7.580  0.1965 -0.4343 -0.3893
 6073SOL    HW129681   3.263   1.845   7.631  1.8150 -0.7596  2.1900
 6073SOL    HW229682   3.298   1.730   7.552  1.7341 -1.7784  1.4169
 6074SOL     OW29683   2.812   0.899   4.501  0.1459 -0.4413 -0.5864
 6074SOL    HW129684   2.808   0.989   4.468  0.6038 -0.3582 -0.4249
 6074SOL    HW229685   2.723   0.871   4.520 -0.3013  0.2121 -1.7544
 6075SOL     OW29686   1.553   0.092   9.356 -0.4748 -0.0456 -0.4663
 6075SOL    HW129687   1.499   0.022   9.391 -1.4056 -0.3887 -2.6281
 6075SOL    HW229688   1.640   0.054   9.367  0.3753  1.7461 -0.9782
 6076SOL     OW29689   0.160   4.415  14.692 -0.4976 -0.1875 -0.4912
 6076SOL    HW129690   0.151   4.509  14.709  0.2130 -0.6404  2.3150
 6076SOL    HW229691   0.172   4.394  14.785 -0.2327 -1.2986 -0.7703
 6077SOL     OW29692   1.560   3.429  10.988 -0.3403  0.4232 -0.2996
 6077SOL    HW129693   1.534   3.388  10.906 -0.6857  3.0504 -1.5299
 6077SOL    HW229694   1.601   3.358  11.037 -2.3465 -1.0670 -0.8092
 6078SOL     OW29695   4.566   2.692   3.587  0.0972 -0.4011  0.1576
 6078SOL    HW129696   4.650   2.721   3.552  1.3294 -1.9637  1.8204
 6078SOL    HW229697   4.542   2.773   3.632 -1.5798 -0.8993  0.1839
 6079SOL     OW29698   4.653   2.821  11.619  0.3483 -0.2475  0.1419
 6079SOL    HW129699   4.618   2.755  11.560  0.8420  0.3780 -0.8350
 6079SOL    HW229700   4.651   2.778  11.705 -0.7611 -1.2463 -0.3783
 6080SOL     OW29701   2.935   4.063   7.296  0.3275 -0.6036 -0.3828
 6080SOL    HW129702   3.012   4.026   7.339  1.5141  4.5493  1.8140
 6080SOL    HW229703   2.899   4.109   7.372 -0.1264 -1.6972  0.0745
 6081SOL     OW29704   3.372   2.460   2.894  0.3208  0.2391 -0.0347
 6081SOL    HW129705   3.432   2.387   2.875 -0.2644  0.4380 -2.6673
 6081SOL    HW229706   3.421   2.539   2.870 -2.0127  1.5246 -0.5469
 6082SOL     OW29707   3.945   0.314   1.636  0.1000  0.5879 -0.5232
 6082SOL    HW129708   3.984   0.342   1.719  0.8672 -0.4381 -0.5348
 6082SOL    HW229709   3.857   0.351   1.638  0.1658  0.5872  1.6336
 6083SOL     OW29710   2.208   2.834   3.816 -0.2630 -0.0894  0.1802
 6083SOL    HW129711   2.205   2.745   3.851 -1.4705 -0.1099  0.0163
 6083SOL    HW229712   2.184   2.874   3.900 -1.0759 -0.1095 -0.0397
 6084SOL     OW29713   2.566   3.436  10.106 -0.5071 -0.6024 -0.5430
 6084SOL    HW129714   2.641   3.438  10.046  1.5134 -1.9480  1.9553
 6084SOL    HW229715   2.491   3.474  10.060 -1.3020 -2.5395 -0.8742
 6085SOL     OW29716   1.168   3.305   8.294  0.6258 -0.1315 -0.6288
 6085SOL    HW129717   1.139   3.275   8.209  2.3188 -0.8661 -0.9530
 6085SOL    HW229718   1.246   3.358   8.278  2.0458 -1.8527  0.6129
 6086SOL     OW29719   1.804   2.357   3.992  0.3132  0.1948  0.0925
 6086SOL    HW129720   1.850   2.273   3.989  0.8749  0.5388 -0.9182
 6086SOL    HW229721   1.751   2.365   3.913  0.2161 -3.1885 -0.1681
 6087SOL     OW29722   0.067   3.878   4.416 -0.3273  0.0575 -0.0955
 6087SOL    HW129723   0.149   3.837   4.389  0.0617  1.5198 -1.0965
 6087SOL    HW229724   0.102   3.965   4.435 -1.1599 -0.3464  3.3323
 6088SOL     OW29725   3.475   0.063  14.076  0.0945  0.2649  0.0811
 6088SOL    HW129726   3.543   4.723  14.067  0.3796  0.8742 -2.2297
 6088SOL    HW229727   3.509   0.140  14.030  1.1824 -0.4071 -0.2474
 6089SOL     OW29728   1.006   3.000   3.912  0.2913 -0.0597 -0.2994
 6089SOL    HW129729   1.082   3.019   3.857 -0.2677  0.9894 -0.6954
 6089SOL    HW229730   0.952   2.954   3.848 -0.4250  0.8997 -0.3795
 6090SOL     OW29731   0.776   3.638   1.965  0.3468 -0.2988  0.0681
 6090SOL    HW129732   0.815   3.572   1.908 -0.3355 -1.8487  1.3584
 6090SOL    HW229733   0.709   3.667   1.904  1.8427  0.0014 -1.4173
 6091SOL     OW29734   3.371   1.828   1.891 -0.4811 -0.4511 -0.7238
 6091SOL    HW129735   3.279   1.855   1.891 -0.5036 -0.5253 -0.8395
 6091SOL    HW229736   3.413   1.868   1.968 -0.7126 -1.3778 -0.1213
 6092SOL     OW29737   4.719   1.068   1.903  0.2439  0.0821 -0.1173
 6092SOL    HW129738   0.028   1.067   1.815  0.8751 -0.0374  0.1365
 6092SOL    HW229739   4.718   0.974   1.915  2.3081  0.2596  1.4304
 6093SOL     OW29740   4.267   2.776   3.790 -0.2495 -0.3430  0.1016
 6093SOL    HW129741   4.354   2.772   3.830  0.0269  1.6291 -0.2572
 6093SOL    HW229742   4.216   2.816   3.860  0.8666 -0.9197  1.2432
 6094SOL     OW29743   1.856   0.551   8.887  0.1892 -0.5801 -0.2382
 6094SOL    HW129744   1.927   0.597   8.932 -0.3452  0.0045 -0.0019
 6094SOL    HW229745   1.786   0.614   8.871  0.5049 -0.4252 -1.0043
 6095SOL     OW29746   2.174   3.479   4.448  0.0415  0.1942  0.1588
 6095SOL    HW129747   2.235   3.480   4.521  0.1021 -1.3836  0.1301
 6095SOL    HW229748   2.087   3.498   4.483  0.4127  3.1354 -0.5337
 6096SOL     OW29749   4.013   3.746  14.506 -0.5322 -0.0949 -0.3499
 6096SOL    HW129750   4.034   3.657  14.534 -0.5471 -0.0994 -0.3531
 6096SOL    HW229751   3.973   3.791  14.581  0.3403  0.5460 -0.2694
 6097SOL     OW29752   2.807   1.218   0.927 -0.1424 -0.4856 -0.5822
 6097SOL    HW129753   2.767   1.205   0.842 -0.1004  2.9829 -1.1056
 6097SOL    HW229754   2.883   1.268   0.897 -1.2476  1.9123  0.6621
 6098SOL     OW29755   3.150   0.929  10.859  0.2158  0.4532 -0.1756
 6098SOL    HW129756   3.123   0.977  10.937  0.0106 -1.6135  1.0348
 6098SOL    HW229757   3.088   0.855  10.859  0.1981  0.4895  3.0224
 6099SOL     OW29758   1.978   2.668   6.423 -0.1507 -0.4087 -0.2924
 6099SOL    HW129759   1.972   2.733   6.493  0.2588 -0.1056 -0.5356
 6099SOL    HW229760   1.929   2.595   6.461  2.5418 -0.8530  2.2995
 6100SOL     OW29761   2.370   0.611   3.039 -0.1710  0.0711  0.3476
 6100SOL    HW129762   2.460   0.619   3.009  0.4041  1.7280  2.5678
 6100SOL    HW229763   2.342   0.701   3.022 -1.4195 -0.2410  0.6757
 6101SOL     OW29764   1.720   1.928   7.809  0.9718  0.2736 -0.1921
 6101SOL    HW129765   1.650   1.865   7.787  2.7726 -1.6844 -0.3249
 6101SOL    HW229766   1.766   1.906   7.890  2.1072  0.5475 -0.7607
 6102SOL     OW29767   1.593   1.945   3.258 -0.0645  0.0282 -0.2241
 6102SOL    HW129768   1.550   2.021   3.220  0.1729  0.7413  0.9263
 6102SOL    HW229769   1.667   1.934   3.199  0.3476 -0.2320  0.3332
 6103SOL     OW29770   2.275   4.361   7.941  0.2218  0.2050  0.4743
 6103SOL    HW129771   2.253   4.352   7.848  1.7440 -0.2017  0.1591
 6103SOL    HW229772   2.267   4.456   7.939  1.4598  0.2896 -1.4911
 6104SOL     OW29773   3.615   3.903  10.419  0.1016 -0.8695 -0.0704
 6104SOL    HW129774   3.583   3.910  10.329  1.2828  0.3784 -0.3992
 6104SOL    HW229775   3.566   3.835  10.465 -1.2280 -0.1933 -0.4874
 6105SOL     OW29776   1.099   2.734  12.486  0.4005 -0.0797 -0.0275
 6105SOL    HW129777   1.106   2.639  12.491  0.7316 -0.1894 -3.1238
 6105SOL    HW229778   1.183   2.753  12.445  0.6656 -1.0944  0.0473
 6106SOL     OW29779   4.117   3.479  14.876  0.0044 -0.3260 -0.3267
 6106SOL    HW129780   4.206   3.475  14.912 -0.9420 -1.1487  1.9261
 6106SOL    HW229781   4.069   3.518  14.950  2.3489  1.2567  0.3702
 6107SOL     OW29782   1.974   0.688   1.954 -0.6998  0.1455  0.2233
 6107SOL    HW129783   1.907   0.704   2.021 -1.4072  1.3435 -0.7823
 6107SOL    HW229784   1.919   0.630   1.901 -2.0093  2.1672 -0.6500
 6108SOL     OW29785   1.278   1.263  10.655  0.1531 -0.1913  0.2998
 6108SOL    HW129786   1.275   1.245  10.749  0.5315  0.4226  0.4283
 6108SOL    HW229787   1.205   1.326  10.658  0.3597  0.2006 -2.8035
 6109SOL     OW29788   3.296   2.606   9.260 -0.5338  0.0253 -0.1996
 6109SOL    HW129789   3.244   2.550   9.318 -0.7132  1.5042  1.0900
 6109SOL    HW229790   3.387   2.592   9.284 -0.5594  0.4737  0.1587
 6110SOL     OW29791   3.742   0.636  16.679 -0.6046  0.5952  0.2124
 6110SOL    HW129792   3.811   0.619  16.743 -0.2455  2.5292  0.3598
 6110SOL    HW229793   3.744   0.732  16.678 -0.1689  0.5844 -0.4311
 6111SOL     OW29794   0.319   0.110  13.653  0.0367  0.1196 -0.1745
 6111SOL    HW129795   0.342   0.203  13.647  0.7980 -0.2861 -3.7856
 6111SOL    HW229796   0.290   0.106  13.744 -0.6209  1.3335 -0.3270
 6112SOL     OW29797   2.069   3.006   3.147  0.0432  0.0980  0.0331
 6112SOL    HW129798   2.097   3.084   3.195  0.4488  1.0213 -1.7122
 6112SOL    HW229799   2.073   3.039   3.058  2.4357  0.9964  0.4916
 6113SOL     OW29800   3.069   1.538   2.633  0.0149  0.3696  0.4361
 6113SOL    HW129801   3.153   1.497   2.616  0.8755  1.8941  1.0878
 6113SOL    HW229802   3.023   1.460   2.665 -0.0159  0.1306 -0.1848
 6114SOL     OW29803   1.158   3.567   9.466 -0.3642 -0.3518  0.9008
 6114SOL    HW129804   1.253   3.578   9.469 -0.3049 -1.3151  2.6000
 6114SOL    HW229805   1.141   3.474   9.452  2.6154 -0.8747  0.7846
 6115SOL     OW29806   2.983   1.333   1.483 -0.3338 -0.4341 -0.1747
 6115SOL    HW129807   2.932   1.410   1.507  1.0809  0.1727  0.8656
 6115SOL    HW229808   2.995   1.347   1.389  0.7877 -0.5426 -0.0502
 6116SOL     OW29809   2.441   3.378   7.654  0.1031  0.2162  0.3090
 6116SOL    HW129810   2.386   3.454   7.637 -0.1580 -0.1843 -0.6037
 6116SOL    HW229811   2.507   3.386   7.585  0.8781 -0.5943  0.9508
 6117SOL     OW29812   1.134   4.428   4.935 -0.0588 -0.3708 -0.0751
 6117SOL    HW129813   1.075   4.356   4.913  0.3512 -1.1133  1.2693
 6117SOL    HW229814   1.077   4.494   4.974  1.7309  2.0742 -1.5498
 6118SOL     OW29815   0.094   0.357   2.447 -0.9162  0.5569 -0.4164
 6118SOL    HW129816   0.001   0.335   2.440 -1.2807  2.2874 -0.9597
 6118SOL    HW229817   0.138   0.290   2.395 -1.5365  0.9613 -1.4545
 6119SOL     OW29818   3.500   3.806   6.997 -0.0984  0.0907  0.0192
 6119SOL    HW129819   3.545   3.775   7.076  2.4170 -0.3603 -1.5880
 6119SOL    HW229820   3.562   3.870   6.963  1.8098 -1.6406  0.2249
 6120SOL     OW29821   2.734   3.826  12.612 -0.2278 -0.3447 -0.6652
 6120SOL    HW129822   2.677   3.782  12.675 -1.3139  0.5671 -1.0183
 6120SOL    HW229823   2.779   3.885  12.672 -0.0956 -0.2723 -0.8355
 6121SOL     OW29824   4.187   4.341   2.881  0.0887  0.3779  0.5434
 6121SOL    HW129825   4.239   4.394   2.820 -0.4085 -1.0680 -1.1343
 6121SOL    HW229826   4.110   4.398   2.875  0.9510  1.1246 -3.1314
 6122SOL     OW29827   2.988   3.936  17.552  0.3037  0.2327 -0.4110
 6122SOL    HW129828   2.969   3.968  17.641 -0.9617 -0.5055 -0.4115
 6122SOL    HW229829   3.083   3.937  17.552  0.3232 -1.6852 -0.6742
 6123SOL     OW29830   3.153   1.849  11.942 -0.4985  0.3480  0.0959
 6123SOL    HW129831   3.064   1.857  11.909 -0.2334  0.2579 -0.6456
 6123SOL    HW229832   3.199   1.901  11.877  2.0110 -2.8013 -0.6728
 6124SOL     OW29833   0.566   2.241  16.303 -0.0539 -0.8784  0.2539
 6124SOL    HW129834   0.653   2.246  16.344  0.2808 -0.5382 -0.4981
 6124SOL    HW229835   0.546   2.330  16.276  2.8082 -0.7125 -1.3629
 6125SOL     OW29836   0.138   1.015   1.235  0.8268  0.4291 -0.0551
 6125SOL    HW129837   0.191   1.076   1.185  2.0021 -0.5598 -0.0146
 6125SOL    HW229838   0.182   0.938   1.199  3.0296  1.2267  0.9290
 6126SOL     OW29839   2.972   3.213   5.809  0.2618  0.0935 -0.6690
 6126SOL    HW129840   2.891   3.224   5.859  0.3489  0.9138 -0.7063
 6126SOL    HW229841   3.041   3.206   5.876  0.8804 -0.7649 -1.4042
 6127SOL     OW29842   1.182   2.309   6.365 -0.1204 -0.5186  0.0703
 6127SOL    HW129843   1.202   2.394   6.403 -0.0060 -0.0534 -1.0378
 6127SOL    HW229844   1.147   2.329   6.278  0.1000 -0.6759 -0.0559
 6128SOL     OW29845   1.233   1.028   6.471 -0.1163  0.2887  0.2224
 6128SOL    HW129846   1.177   0.980   6.410  2.0831 -0.8096 -0.9416
 6128SOL    HW229847   1.288   0.963   6.515  1.2906  1.0701 -0.3625
 6129SOL     OW29848   3.945   4.701   7.616 -0.2209  0.3951  0.3315
 6129SOL    HW129849   3.856   0.010   7.610  0.0633  1.1783  0.7743
 6129SOL    HW229850   3.935   4.618   7.662  2.7855  0.7494  1.6294
 6130SOL     OW29851   3.850   0.236   9.680 -0.0225 -0.0475  0.3923
 6130SOL    HW129852   3.930   0.245   9.732 -0.4363  1.6874  0.7194
 6130SOL    HW229853   3.801   0.179   9.740 -1.3479  2.0739  1.3028
 6131SOL     OW29854   0.077   3.566  17.479 -0.3837  0.7587 -0.2263
 6131SOL    HW129855   0.003   3.511  17.453 -0.1483  0.2734  0.1328
 6131SOL    HW229856   0.034   3.651  17.478 -3.1832 -0.6969 -1.6619
 6132SOL     OW29857   3.539   4.440   2.253 -0.1289 -0.3269 -0.0642
 6132SOL    HW129858   3.530   4.346   2.267  0.8487 -0.3862  0.1838
 6132SOL    HW229859   3.632   4.451   2.276 -0.7168  0.6693  1.8858
 6133SOL     OW29860   4.470   0.152   1.473  0.2731  1.0594 -0.2901
 6133SOL    HW129861   4.413   0.079   1.446  1.2302  0.1161  0.2736
 6133SOL    HW229862   4.458   0.176   1.565 -2.4604 -0.1036 -0.3257
 6134SOL     OW29863   1.458   1.045   2.486  0.2621 -0.2980 -0.2293
 6134SOL    HW129864   1.498   0.958   2.485 -0.4754 -0.6167 -2.1554
 6134SOL    HW229865   1.540   1.094   2.494  0.5296 -0.6283 -0.8824
 6135SOL     OW29866   1.048   0.242   4.029 -0.3547  0.1237  0.5382
 6135SOL    HW129867   1.079   0.202   4.109  0.3691  0.0064  0.2028
 6135SOL    HW229868   0.961   0.203   4.021 -1.0712  1.4988  1.7391
 6136SOL     OW29869   3.930   4.169   4.241 -0.3087 -0.3755  0.3508
 6136SOL    HW129870   4.006   4.168   4.183 -0.5063 -1.0062  0.1121
 6136SOL    HW229871   3.889   4.254   4.221  1.7211  0.4044 -0.5076
 6137SOL     OW29872   2.005   0.220  10.477  0.3770  0.0589  0.4006
 6137SOL    HW129873   1.954   0.278  10.533  1.4641  0.5281  0.8986
 6137SOL    HW229874   1.956   0.227  10.395 -1.1212  2.2248  1.4835
 6138SOL     OW29875   1.833   3.486  16.147  0.0196  0.3961  0.1106
 6138SOL    HW129876   1.829   3.390  16.140 -0.1274  0.5203 -1.6417
 6138SOL    HW229877   1.866   3.509  16.233  1.4870 -1.3004  0.0040
 6139SOL     OW29878   0.058   3.864  13.256  0.0987 -0.1146 -0.1204
 6139SOL    HW129879   0.091   3.952  13.274  0.8270  0.0902 -2.4424
 6139SOL    HW229880   0.116   3.830  13.188 -0.7508 -1.0449 -0.3777
 6140SOL     OW29881   3.552   0.726   3.093 -0.3399 -0.0170  0.2303
 6140SOL    HW129882   3.565   0.633   3.074 -1.0314 -0.4504  1.9459
 6140SOL    HW229883   3.624   0.750   3.034 -0.8412 -1.2019 -0.8775
 6141SOL     OW29884   1.098   2.482  13.732  0.4145  0.1420  0.1398
 6141SOL    HW129885   1.118   2.492  13.638 -0.8323 -2.9526 -0.4480
 6141SOL    HW229886   1.083   2.574  13.753  2.8657  0.5552  0.0297
 6142SOL     OW29887   2.229   3.386   6.426 -0.3147  1.3411  0.3254
 6142SOL    HW129888   2.175   3.323   6.475 -0.4328 -0.0683 -1.5948
 6142SOL    HW229889   2.278   3.429   6.495  0.1961  1.0574  0.1353
 6143SOL     OW29890   2.761   3.796   1.104 -0.5754  0.6361  0.1004
 6143SOL    HW129891   2.698   3.839   1.046 -2.1742  0.9804  2.0718
 6143SOL    HW229892   2.713   3.713   1.113  0.2457  0.4230  2.4280
 6144SOL     OW29893   3.582   3.887  11.740  0.3667 -0.1213 -0.1953
 6144SOL    HW129894   3.648   3.929  11.685  0.9346  1.0703  1.3866
 6144SOL    HW229895   3.503   3.921  11.698 -0.2177  0.1748  1.1309
 6145SOL     OW29896   3.081   2.020   2.096 -0.2674 -0.8719  0.3155
 6145SOL    HW129897   3.024   1.954   2.135  0.1301 -0.9955  0.6857
 6145SOL    HW229898   3.032   2.092   2.136  2.4273  0.2548  1.5657
 6146SOL     OW29899   2.859   2.919   0.544 -0.0392 -0.1629 -0.3174
 6146SOL    HW129900   2.824   2.976   0.613 -0.0816  0.1415 -0.5927
 6146SOL    HW229901   2.790   2.854   0.559 -0.6549  1.0410  2.0655
 6147SOL     OW29902   1.589   0.756   3.217 -0.8110  0.1450  0.6814
 6147SOL    HW129903   1.664   0.806   3.185 -1.8325  2.7537  2.4348
 6147SOL    HW229904   1.612   0.744   3.309 -1.6183 -0.6865  0.7814
 6148SOL     OW29905   2.739   1.473   2.510  0.2000 -0.9015  0.1534
 6148SOL    HW129906   2.706   1.560   2.533 -1.0212 -1.5419  0.8444
 6148SOL    HW229907   2.832   1.478   2.532  0.3815  0.6701 -0.9333
 6149SOL     OW29908   1.678   1.698  17.502 -0.5074 -0.1883  0.4815
 6149SOL    HW129909   1.749   1.641  17.472 -0.7879 -0.4869  0.3827
 6149SOL    HW229910   1.730   1.766  17.544  1.2016  0.4160 -2.5595
 6150SOL     OW29911   4.398   1.504   4.334  0.4034 -0.0836  0.6260
 6150SOL    HW129912   4.418   1.562   4.261  1.5290 -0.8480  0.3334
 6150SOL    HW229913   4.334   1.451   4.286  2.8087 -1.2950 -1.2885
 6151SOL     OW29914   1.902   1.872   7.438  0.2297  0.2249 -0.5393
 6151SOL    HW129915   1.979   1.888   7.383  0.8366  1.1055  0.5434
 6151SOL    HW229916   1.875   1.959   7.468 -3.3171 -0.6612 -1.1899
 6152SOL     OW29917   3.096   0.266  15.844 -0.2523  0.0519 -0.2480
 6152SOL    HW129918   3.160   0.308  15.786  2.0081 -0.5211  1.8656
 6152SOL    HW229919   3.089   0.326  15.918  1.6890  0.4400 -0.3617
 6153SOL     OW29920   2.850   4.006   5.907 -0.1386  0.0898 -0.7886
 6153SOL    HW129921   2.813   4.006   5.996  0.0466 -0.7396 -0.7141
 6153SOL    HW229922   2.870   4.099   5.899  2.1611 -0.4362 -1.0855
 6154SOL     OW29923   4.239   0.575   6.454 -0.0508 -0.2196  0.0441
 6154SOL    HW129924   4.179   0.607   6.386 -0.3365 -0.9658 -0.0479
 6154SOL    HW229925   4.240   0.654   6.509 -1.0498  0.7884 -1.3968
 6155SOL     OW29926   1.106   3.673   6.189 -0.1276 -0.8044  0.3973
 6155SOL    HW129927   1.147   3.650   6.273 -0.0919 -0.6898  0.4117
 6155SOL    HW229928   1.156   3.617   6.130 -0.6697  0.7091 -1.5077
 6156SOL     OW29929   0.211   2.661   3.079  0.2052  0.3945  0.0414
 6156SOL    HW129930   0.126   2.617   3.077  2.0212 -3.0465 -1.6664
 6156SOL    HW229931   0.223   2.692   2.989  1.4662 -0.9844 -0.2638
 6157SOL     OW29932   1.608   3.146   2.823  0.7628  0.5134 -0.4844
 6157SOL    HW129933   1.567   3.194   2.751 -1.3755  1.0991  1.1340
 6157SOL    HW229934   1.645   3.222   2.868  1.3435  0.3027 -0.6082
 6158SOL     OW29935   4.266   0.168   6.116 -0.1435  0.1935  0.2054
 6158SOL    HW129936   4.302   0.121   6.041 -0.2754 -0.7578  0.7423
 6158SOL    HW229937   4.194   0.213   6.070  0.9661  0.1600 -1.5709
 6159SOL     OW29938   1.913   1.102   8.152 -0.0202 -0.2261  0.1423
 6159SOL    HW129939   1.930   1.157   8.076 -1.9775  0.6909  0.3524
 6159SOL    HW229940   1.853   1.152   8.208 -0.3295  0.4224 -0.7595
 6160SOL     OW29941   4.611   1.123   3.149 -0.0598  0.3402 -0.5429
 6160SOL    HW129942   4.614   1.113   3.054  1.7282  2.4093 -0.6927
 6160SOL    HW229943   4.572   1.209   3.159 -1.1373 -0.1586 -0.4012
 6161SOL     OW29944   3.405   4.010   6.365 -0.3251  0.0851 -0.0192
 6161SOL    HW129945   3.463   3.936   6.385 -0.8265 -0.2787  0.0792
 6161SOL    HW229946   3.451   4.058   6.296 -0.3716  1.8343  1.1442
 6162SOL     OW29947   0.027   1.087   0.816 -0.1840 -0.0340  0.3554
 6162SOL    HW129948   0.094   1.119   0.756  0.2268  0.2656  0.9822
 6162SOL    HW229949   0.014   1.165   0.869  1.0198 -0.6705  1.5743
 6163SOL     OW29950   2.805   1.656   8.272 -0.1064  0.6449  0.2328
 6163SOL    HW129951   2.744   1.726   8.251 -0.1381  0.5246 -0.0681
 6163SOL    HW229952   2.821   1.659   8.367  1.0494 -0.8075  0.0913
 6164SOL     OW29953   1.854   2.743  15.940 -0.1180 -0.5447 -0.3189
 6164SOL    HW129954   1.910   2.756  15.864 -0.4622  1.4424 -0.2285
 6164SOL    HW229955   1.856   2.647  15.937  2.6410 -0.4515 -1.0465
 6165SOL     OW29956   1.864   1.104   5.871  0.1732 -0.4807 -0.1485
 6165SOL    HW129957   1.841   1.014   5.851 -0.8524 -0.3204  0.3122
 6165SOL    HW229958   1.922   1.087   5.945 -0.1309  0.3271  0.2818
 6166SOL     OW29959   3.471   0.642   6.114  0.4113  0.4939 -0.2433
 6166SOL    HW129960   3.472   0.736   6.100  0.6568  0.1978 -2.2860
 6166SOL    HW229961   3.446   0.610   6.027 -1.9188  1.9115 -0.0731
 6167SOL     OW29962   2.759   3.228   9.096 -0.5532 -0.5490 -0.0601
 6167SOL    HW129963   2.815   3.207   9.171 -1.2737 -4.7292 -0.6569
 6167SOL    HW229964   2.705   3.150   9.109 -0.8700 -0.0589  1.5323
 6168SOL     OW29965   0.964   3.980   9.217  0.2961  0.0368  0.6824
 6168SOL    HW129966   1.001   4.010   9.134  0.3007 -1.1340  0.2652
 6168SOL    HW229967   0.883   4.031   9.212  0.2896 -0.1509 -1.1984
 6169SOL     OW29968   3.947   2.632   1.056 -0.4841  0.0438 -0.0408
 6169SOL    HW129969   4.024   2.577   1.048  0.0707  0.7598  0.3212
 6169SOL    HW229970   3.923   2.619   1.148 -0.9847  0.6435 -0.0851
 6170SOL     OW29971   1.348   2.467   7.001  0.7365  0.0830  0.0330
 6170SOL    HW129972   1.320   2.512   7.081  2.0799 -0.3058  0.7153
 6170SOL    HW229973   1.428   2.516   6.986  1.0029  0.0125  1.1741
 6171SOL     OW29974   2.398   2.863   7.825 -0.1179 -0.3862 -0.5744
 6171SOL    HW129975   2.396   2.949   7.782 -1.5273  0.6744  1.6034
 6171SOL    HW229976   2.441   2.891   7.906  2.1917 -1.7227 -1.3548
 6172SOL     OW29977   3.717   4.114   2.906  0.0679 -0.1249 -0.5874
 6172SOL    HW129978   3.676   4.185   2.856  1.3929 -0.1305 -1.7047
 6172SOL    HW229979   3.805   4.131   2.873 -1.1564  4.1084 -1.7296
 6173SOL     OW29980   1.889   4.647   3.146  0.1907 -0.2137 -0.4842
 6173SOL    HW129981   1.936   4.653   3.229 -0.7465  1.5286 -0.0902
 6173SOL    HW229982   1.946   4.685   3.079 -2.2339  0.9156 -1.8865
 6174SOL     OW29983   1.335   2.689   0.879  0.0352 -0.3141 -0.1310
 6174SOL    HW129984   1.350   2.595   0.864 -2.3296 -0.7222  0.1306
 6174SOL    HW229985   1.323   2.717   0.788 -0.1755 -0.8155 -0.2580
 6175SOL     OW29986   4.451   0.770   7.080 -0.5523 -0.0537  0.1930
 6175SOL    HW129987   4.414   0.808   7.160 -0.0079  2.3647 -0.6924
 6175SOL    HW229988   4.385   0.796   7.016  0.5289  0.1476 -0.8532
 6176SOL     OW29989   2.968   4.515   2.993 -0.4455 -0.5243 -0.0898
 6176SOL    HW129990   2.949   4.456   2.920 -0.1544 -3.1519  1.9813
 6176SOL    HW229991   2.959   4.451   3.064  0.7612  0.1313  0.6575
 6177SOL     OW29992   1.667   4.349   9.419 -0.2699  0.2639  0.7334
 6177SOL    HW129993   1.609   4.281   9.455 -0.6672 -0.0124 -0.4296
 6177SOL    HW229994   1.695   4.384   9.504  2.2549  0.1380 -0.0708
 6178SOL     OW29995   2.049   1.133  15.937  0.3184 -0.0141 -0.0160
 6178SOL    HW129996   2.075   1.157  16.026 -2.3884 -0.0164  0.7913
 6178SOL    HW229997   2.022   1.214  15.893  2.0374  0.5783  0.0164
 6179SOL     OW29998   0.409   1.653   3.254  0.0294  0.0946 -0.0876
 6179SOL    HW129999   0.342   1.585   3.259  0.3511 -0.3058 -1.1962
 6179SOL    HW230000   0.351   1.709   3.202 -0.1384 -2.7025 -2.8683
 6180SOL     OW30001   0.115   0.667   8.907  0.5141  0.3790  0.2124
 6180SOL    HW130002   0.088   0.748   8.949  0.0644  0.3659 -0.0431
 6180SOL    HW230003   0.153   0.633   8.988 -1.7201 -0.6056  0.8615
 6181SOL     OW30004   2.362   4.402   5.914  0.5645 -0.1046 -1.5998
 6181SOL    HW130005   2.361   4.472   5.848 -1.0536  0.8543 -0.5372
 6181SOL    HW230006   2.316   4.338   5.860 -0.8422  0.5519 -1.1618
 6182SOL     OW30007   1.061   1.900   2.524 -0.1506 -0.5047  1.0577
 6182SOL    HW130008   1.151   1.923   2.498 -0.3962 -2.0315 -1.1107
 6182SOL    HW230009   1.080   1.818   2.569 -1.3884 -1.7056 -0.6505
 6183SOL     OW30010   0.759   4.320   7.326  0.0313  0.5366  0.1475
 6183SOL    HW130011   0.809   4.402   7.325  0.8377  0.0498  0.5640
 6183SOL    HW230012   0.797   4.277   7.403  1.4742  2.3290  0.4300
 6184SOL     OW30013   1.092   1.067   9.207  0.1214 -0.0628  0.0379
 6184SOL    HW130014   1.041   1.148   9.213  0.0209  0.0068 -1.7522
 6184SOL    HW230015   1.109   1.041   9.297  1.3000  1.3248  0.2139
 6185SOL     OW30016   1.484   2.361   6.662  1.0109 -0.4355 -0.1772
 6185SOL    HW130017   1.485   2.270   6.691  0.7367 -0.4704 -0.2856
 6185SOL    HW230018   1.393   2.389   6.663  0.4788 -2.1597 -0.3987
 6186SOL     OW30019   4.076   4.592  10.455 -0.1822  0.3320  0.1683
 6186SOL    HW130020   4.152   4.606  10.512  0.2838 -2.5803  0.3133
 6186SOL    HW230021   4.004   4.631  10.503 -2.2835 -4.1654  0.7003
 6187SOL     OW30022   0.402   2.037   1.798  0.2393  0.6610 -0.0814
 6187SOL    HW130023   0.475   2.073   1.848 -0.6138 -0.9785  2.3356
 6187SOL    HW230024   0.412   2.072   1.709 -0.0920  0.4046 -0.2178
 6188SOL     OW30025   2.106   1.248  16.166 -0.0914 -0.5093  0.4025
 6188SOL    HW130026   2.076   1.214  16.251 -2.0336 -1.8062 -0.7893
 6188SOL    HW230027   2.167   1.318  16.189  1.6021 -1.3230 -1.5860
 6189SOL     OW30028   4.620   1.398  12.789 -0.0333  0.2857  0.2443
 6189SOL    HW130029   4.569   1.372  12.866 -1.9350 -1.7448 -1.7189
 6189SOL    HW230030   4.653   1.315  12.755  0.2846  0.6177 -0.2533
 6190SOL     OW30031   3.599   2.004  12.212 -0.3762  0.4703 -0.2657
 6190SOL    HW130032   3.600   1.972  12.121 -2.1276 -2.0123  0.5797
 6190SOL    HW230033   3.692   2.029  12.219 -0.1561 -0.2893 -0.4582
 6191SOL     OW30034   1.489   2.196  17.067 -0.1974 -0.4534 -0.7680
 6191SOL    HW130035   1.404   2.213  17.024  1.6841  2.3506 -3.4109
 6191SOL    HW230036   1.537   2.161  16.992  1.1209 -1.3076  0.4695
 6192SOL     OW30037   2.020   3.335   2.781  0.1889  0.2238  0.3883
 6192SOL    HW130038   2.086   3.329   2.712 -0.0442  1.7138  0.0195
 6192SOL    HW230039   1.972   3.414   2.754  0.0346 -1.3143 -3.7851
 6193SOL     OW30040   3.276   3.155  15.883 -0.1246 -0.5455  0.7948
 6193SOL    HW130041   3.268   3.189  15.972  0.3602  1.8424 -0.0913
 6193SOL    HW230042   3.265   3.237  15.837  0.8834 -1.0185 -0.2852
 6194SOL     OW30043   1.277   2.161   5.127  0.1834  0.5118  0.2504
 6194SOL    HW130044   1.195   2.149   5.176 -0.4031  0.6396 -0.7107
 6194SOL    HW230045   1.246   2.223   5.062 -0.5907 -1.8012 -1.5953
 6195SOL     OW30046   0.317   2.478  15.809 -0.1494  0.6577 -0.4898
 6195SOL    HW130047   0.327   2.564  15.770  0.6022  0.9983  0.4601
 6195SOL    HW230048   0.249   2.447  15.748  0.6911  0.2885 -1.2431
 6196SOL     OW30049   4.502   3.656   4.331  0.3602 -0.5982 -0.2917
 6196SOL    HW130050   4.461   3.615   4.255  0.8707  0.5963 -1.2320
 6196SOL    HW230051   4.589   3.620   4.316  0.9737  0.1902  1.3043
 6197SOL     OW30052   0.903   2.355   8.648 -0.2698  0.1536 -0.6571
 6197SOL    HW130053   0.913   2.440   8.606 -3.2888  1.2147  0.7387
 6197SOL    HW230054   0.995   2.346   8.673 -0.4229 -1.1816 -0.5570
 6198SOL     OW30055   2.569   0.292   6.190 -0.4241  0.0341  0.5321
 6198SOL    HW130056   2.641   0.259   6.243 -0.8717 -1.6710  0.1046
 6198SOL    HW230057   2.605   0.369   6.147 -0.6465 -0.1208  0.0692
 6199SOL     OW30058   3.490   3.137   2.638 -0.0549  0.1483 -0.0956
 6199SOL    HW130059   3.549   3.065   2.617 -0.0165  0.4290 -0.9129
 6199SOL    HW230060   3.431   3.088   2.696 -0.4953 -0.6844 -1.2576
 6200SOL     OW30061   1.659   1.788   6.864 -0.4709  0.3212 -0.3278
 6200SOL    HW130062   1.699   1.710   6.901  0.3847  0.1531 -1.6230
 6200SOL    HW230063   1.665   1.851   6.937  0.9810 -0.1099 -0.0778
 6201SOL     OW30064   1.898   0.499  14.654  0.3815  0.4328  0.2842
 6201SOL    HW130065   1.846   0.419  14.642  0.0572  0.4826  1.4159
 6201SOL    HW230066   1.992   0.479  14.648  0.0934 -1.9933  3.5614
 6202SOL     OW30067   0.926   1.468   3.092 -0.1203  0.4216 -0.0735
 6202SOL    HW130068   0.920   1.404   3.163 -2.3665  0.1399 -0.4935
 6202SOL    HW230069   0.981   1.428   3.025 -0.1315  0.0973  0.1123
 6203SOL     OW30070   4.106   3.525   5.812 -0.1752  0.1894  0.3576
 6203SOL    HW130071   4.058   3.536   5.894 -1.2053  1.1230 -0.3775
 6203SOL    HW230072   4.198   3.524   5.840 -0.1717 -1.4313  0.3213
 6204SOL     OW30073   1.656   3.580   1.154 -0.5714 -0.3109  0.2862
 6204SOL    HW130074   1.745   3.610   1.174 -0.2036 -0.9754 -0.4202
 6204SOL    HW230075   1.646   3.583   1.059 -0.1099  1.5347  0.2873
 6205SOL     OW30076   2.536   2.307   2.848  0.4108  0.1193  0.5255
 6205SOL    HW130077   2.602   2.272   2.907  0.0546 -1.7797 -0.2142
 6205SOL    HW230078   2.592   2.332   2.776 -1.5242 -0.9230 -1.3482
 6206SOL     OW30079   3.328   1.617   5.807 -0.5144 -0.2589  0.1422
 6206SOL    HW130080   3.335   1.619   5.711  2.4307  0.2608  0.3612
 6206SOL    HW230081   3.243   1.577   5.822 -0.2664 -1.5317 -1.7742
 6207SOL     OW30082   4.063   0.099  10.240  0.5920  0.0752  0.4175
 6207SOL    HW130083   4.004   0.141  10.177  0.4207  0.9623  1.1765
 6207SOL    HW230084   4.024   0.012  10.247 -0.0110  0.0528 -2.8708
 6208SOL     OW30085   1.430   3.956   1.264 -0.3885  0.8039 -0.1697
 6208SOL    HW130086   1.370   3.968   1.190 -1.3228  1.1934  0.6648
 6208SOL    HW230087   1.360   3.959   1.329 -0.8066  0.0499 -0.5864
 6209SOL     OW30088   2.911   0.896   4.769 -0.0971 -0.6362  0.2794
 6209SOL    HW130089   2.911   0.900   4.674  0.2254 -1.7109  0.2350
 6209SOL    HW230090   2.943   0.806   4.778 -3.7832 -1.7055  2.7944
 6210SOL     OW30091   0.422   2.467   1.043  0.0409  0.1977  0.0543
 6210SOL    HW130092   0.439   2.392   1.099 -0.9218 -1.7003 -2.1752
 6210SOL    HW230093   0.357   2.430   0.983 -0.2478  1.4812 -0.4192
 6211SOL     OW30094   2.114   0.979   5.028  0.1539 -0.2442 -0.3878
 6211SOL    HW130095   2.171   0.917   5.073 -0.5489 -0.9080 -0.4118
 6211SOL    HW230096   2.035   0.926   5.019 -0.8655  1.1277  0.6282
 6212SOL     OW30097   2.895   4.448   8.997 -0.4685  0.5944 -0.5362
 6212SOL    HW130098   2.917   4.386   9.066 -0.2566  0.9636 -0.2714
 6212SOL    HW230099   2.972   4.447   8.940 -0.1411 -0.2027 -0.0823
 6213SOL     OW30100   2.944   4.107  11.744  0.8831  0.1971 -0.6130
 6213SOL    HW130101   3.016   4.074  11.798 -0.4151 -1.8903 -0.1373
 6213SOL    HW230102   2.965   4.199  11.734 -1.0726  0.5551 -1.4344
 6214SOL     OW30103   1.814   3.725   7.457 -0.1936 -0.8625 -0.5074
 6214SOL    HW130104   1.751   3.780   7.503  1.6216  1.2869 -0.5553
 6214SOL    HW230105   1.884   3.726   7.522 -1.4489 -0.1236  0.8422
 6215SOL     OW30106   2.384   4.033   5.587  0.3498  0.2613 -0.4747
 6215SOL    HW130107   2.412   4.117   5.552  0.8586  0.1227 -0.4126
 6215SOL    HW230108   2.373   3.978   5.509  1.6744  0.6158 -0.9203
 6216SOL     OW30109   3.620   1.283   6.804 -0.4041 -0.1448 -0.6676
 6216SOL    HW130110   3.540   1.310   6.850 -0.7658 -2.7846  0.3046
 6216SOL    HW230111   3.655   1.217   6.864 -0.0503  0.2042 -0.4897
 6217SOL     OW30112   1.387   3.851  15.337  0.0900  0.1836 -0.5793
 6217SOL    HW130113   1.423   3.926  15.290 -0.3827 -0.1293 -1.4440
 6217SOL    HW230114   1.448   3.851  15.410 -1.0013 -2.1452  0.3373
 6218SOL     OW30115   1.881   4.487   3.485 -0.3921 -0.5009  0.0057
 6218SOL    HW130116   1.844   4.407   3.447 -1.1691  0.6630 -1.6786
 6218SOL    HW230117   1.807   4.524   3.532  2.0235  2.8836  1.1342
 6219SOL     OW30118   0.231   0.178   1.980  0.1253  0.2679  0.1521
 6219SOL    HW130119   0.298   0.121   1.940 -2.1376 -1.9305 -0.5154
 6219SOL    HW230120   0.161   0.113   1.987  0.8467 -0.5019  0.2265
 6220SOL     OW30121   1.606   2.195   2.628  0.0610 -0.4376  0.0682
 6220SOL    HW130122   1.562   2.176   2.546 -1.1726  2.0442  0.1483
 6220SOL    HW230123   1.550   2.145   2.687  0.2212 -1.0860 -0.3234
 6221SOL     OW30124   1.805   1.470  11.512  0.4609  0.1096 -0.0489
 6221SOL    HW130125   1.866   1.428  11.573  1.6498  2.8836  0.6667
 6221SOL    HW230126   1.850   1.454  11.429  1.3415 -1.3301  0.6937
 6222SOL     OW30127   3.780   1.960   1.776 -0.1275  0.0513 -0.3567
 6222SOL    HW130128   3.722   1.885   1.769 -1.8380  1.4738 -1.4818
 6222SOL    HW230129   3.823   1.963   1.690  0.5810 -2.0129 -0.0639
 6223SOL     OW30130   4.181   3.645   8.480 -0.0317  0.0335  0.1998
 6223SOL    HW130131   4.183   3.559   8.523 -1.5913  0.5064  1.2123
 6223SOL    HW230132   4.086   3.655   8.470  0.2220  1.0549 -1.2250
 6224SOL     OW30133   3.443   1.118   7.988 -0.4328  0.1076 -0.0010
 6224SOL    HW130134   3.438   1.042   7.930  1.6990 -1.2750  1.6502
 6224SOL    HW230135   3.509   1.081   8.046  0.8572  0.4962 -1.2264
 6225SOL     OW30136   1.273   3.174   0.255 -0.4262 -0.2724  0.2997
 6225SOL    HW130137   1.368   3.181   0.242 -0.4647 -0.4196 -0.0516
 6225SOL    HW230138   1.264   3.224   0.336  0.4494 -0.6808  0.6523
 6226SOL     OW30139   3.712   2.906   0.262 -0.0443 -0.3395  0.1864
 6226SOL    HW130140   3.755   2.954   0.333 -3.8761  0.7933  1.7381
 6226SOL    HW230141   3.730   2.966   0.189 -0.1856 -0.0173  0.4145
 6227SOL     OW30142   3.765   3.732  11.515  0.3440 -0.5589  0.3185
 6227SOL    HW130143   3.787   3.820  11.545  3.3237 -1.3776  0.5075
 6227SOL    HW230144   3.814   3.721  11.433 -2.0488  0.1251 -1.1834
 6228SOL     OW30145   0.472   2.745   0.962  0.5273  0.1326  0.0309
 6228SOL    HW130146   0.563   2.742   0.935  0.1937  1.0141 -1.1900
 6228SOL    HW230147   0.458   2.658   0.999  2.4045 -1.5191 -3.2065
 6229SOL     OW30148   0.110   2.349  13.652  0.1156 -0.0995 -0.2845
 6229SOL    HW130149   0.092   2.367  13.560  0.4506  0.4141 -0.2488
 6229SOL    HW230150   0.175   2.417  13.670 -0.3521  0.2508  0.0943
 6230SOL     OW30151   3.091   2.976   0.079  0.1697 -0.0116  0.3434
 6230SOL    HW130152   3.183   2.990   0.055  0.5109  0.3852  1.8825
 6230SOL    HW230153   3.092   2.894   0.128 -2.6291 -0.2542  0.0156
 6231SOL     OW30154   3.872   3.442   4.789  0.0910 -0.6100 -0.2975
 6231SOL    HW130155   3.809   3.496   4.742  1.0192 -0.2215 -1.1184
 6231SOL    HW230156   3.813   3.390   4.843  0.6369 -0.4073  0.4981
 6232SOL     OW30157   3.210   2.414  11.258  0.4769 -0.1645 -0.1527
 6232SOL    HW130158   3.299   2.381  11.247  0.1744 -0.5138 -1.5045
 6232SOL    HW230159   3.236   2.504  11.283 -1.0072  0.5622 -1.2682
 6233SOL     OW30160   1.083   1.055   3.194 -0.6950 -0.2293 -0.1586
 6233SOL    HW130161   1.068   1.141   3.232  0.3371 -0.0946 -0.0625
 6233SOL    HW230162   0.999   1.022   3.163  0.5009 -4.0677  0.6571
 6234SOL     OW30163   2.649   2.756  15.816  0.3405  0.2875 -0.0179
 6234SOL    HW130164   2.740   2.751  15.788  0.6938  0.5465  1.0640
 6234SOL    HW230165   2.617   2.828  15.762  0.5628  0.3118 -0.1157
 6235SOL     OW30166   3.030   3.805   2.717  0.5963 -0.5119  0.3535
 6235SOL    HW130167   3.044   3.726   2.665  3.7777  0.7951 -0.7885
 6235SOL    HW230168   3.091   3.793   2.789  1.0083 -0.3613  0.0303
 6236SOL     OW30169   2.089   0.784   3.558  0.6399  0.1032  0.4615
 6236SOL    HW130170   2.127   0.869   3.534  0.0091  0.4288  0.6336
 6236SOL    HW230171   2.070   0.804   3.649  0.4226 -0.8583  0.6224
 6237SOL     OW30172   4.466   1.601   6.468 -0.4841 -0.1706 -0.1958
 6237SOL    HW130173   4.439   1.637   6.552 -1.8902 -2.1463  0.1813
 6237SOL    HW230174   4.388   1.563   6.428 -1.4782  1.6930 -0.0288
 6238SOL     OW30175   3.105   3.239   7.089  0.2417 -0.3220 -0.0257
 6238SOL    HW130176   3.056   3.172   7.136  1.6920 -0.4033  1.3783
 6238SOL    HW230177   3.144   3.279   7.166  0.9580  1.0884 -1.1121
 6239SOL     OW30178   2.575   1.904  11.034 -0.4539 -0.8720  0.2292
 6239SOL    HW130179   2.621   1.904  11.118 -1.6669  2.8619  0.9243
 6239SOL    HW230180   2.486   1.892  11.069  0.1674 -0.2362  2.0324
 6240SOL     OW30181   1.479   0.622   2.663  0.1216  0.1465 -0.3675
 6240SOL    HW130182   1.440   0.676   2.594  0.4379 -0.4073 -0.9836
 6240SOL    HW230183   1.465   0.536   2.623 -0.5953  0.5976 -1.0648
 6241SOL     OW30184   1.609   3.748   1.974 -0.4423 -0.8306 -0.0973
 6241SOL    HW130185   1.638   3.658   1.990  1.0696 -0.3352 -0.0251
 6241SOL    HW230186   1.604   3.748   1.878 -0.0625  3.4020 -0.1147
 6242SOL     OW30187   1.316   0.668  10.083  0.1116 -0.7002 -0.0945
 6242SOL    HW130188   1.375   0.605  10.040  1.5385  1.8560 -1.8628
 6242SOL    HW230189   1.375   0.717  10.140 -0.9426  0.3976  0.0341
 6243SOL     OW30190   0.889   4.107  14.332  0.1378  0.3313 -0.2998
 6243SOL    HW130191   0.975   4.139  14.359  0.9096 -2.4295  0.4977
 6243SOL    HW230192   0.865   4.187  14.285 -1.1342  0.2389  0.1822
 6244SOL     OW30193   1.161   2.940   6.193 -0.3825  0.5570  0.2128
 6244SOL    HW130194   1.105   3.016   6.177 -1.6581 -0.2788  0.6625
 6244SOL    HW230195   1.250   2.952   6.160 -0.7383  0.7474 -0.6723
 6245SOL     OW30196   4.115   3.635   2.402 -0.2129  0.5459 -0.0838
 6245SOL    HW130197   4.199   3.653   2.359  0.0667  0.7556  0.5654
 6245SOL    HW230198   4.108   3.542   2.380 -1.2319  0.7085 -0.4204
 6246SOL     OW30199   2.145   1.658   0.228 -0.1233 -0.1986  0.4923
 6246SOL    HW130200   2.231   1.668   0.268 -2.0170  3.2961  3.6850
 6246SOL    HW230201   2.091   1.702   0.293 -0.8008 -1.8638  1.0469
 6247SOL     OW30202   2.234   0.905   2.554 -0.1396 -0.0875 -0.0244
 6247SOL    HW130203   2.195   0.904   2.467 -1.1647 -1.5808  0.4395
 6247SOL    HW230204   2.158   0.865   2.598  1.5806 -2.4384  0.8165
 6248SOL     OW30205   3.553   3.383   9.962 -0.1174 -0.0286 -0.1510
 6248SOL    HW130206   3.542   3.293   9.993 -0.6477 -0.0028 -0.2654
 6248SOL    HW230207   3.511   3.385   9.876  0.3569  0.1957 -0.3741
 6249SOL     OW30208   1.755   3.686   3.921 -0.2290 -0.1152  0.9685
 6249SOL    HW130209   1.663   3.664   3.906 -0.1337 -0.0238  0.2417
 6249SOL    HW230210   1.790   3.682   3.832  0.9929 -0.8104  1.4817
 6250SOL     OW30211   3.729   2.524   3.015 -0.2298 -0.0248  0.2513
 6250SOL    HW130212   3.774   2.439   3.015  0.9642  0.6107  2.6219
 6250SOL    HW230213   3.801   2.583   3.034  0.5052 -1.5862  2.4603
 6251SOL     OW30214   1.856   0.644  15.142  0.7561 -0.1022 -0.3275
 6251SOL    HW130215   1.862   0.581  15.070  0.1493 -1.1416  0.5525
 6251SOL    HW230216   1.783   0.615  15.196  0.3436 -0.1947 -0.9281
 6252SOL     OW30217   0.297   1.208  12.510  0.3239  0.6316 -0.3008
 6252SOL    HW130218   0.277   1.288  12.460 -3.5013  1.2254  2.2430
 6252SOL    HW230219   0.387   1.199  12.476 -0.4968 -1.8498 -1.7581
 6253SOL     OW30220   4.132   1.269  10.264  0.0494 -0.1714 -0.5013
 6253SOL    HW130221   4.118   1.347  10.318 -0.4543  0.4867 -1.5865
 6253SOL    HW230222   4.159   1.213  10.337 -0.3009  2.1975  1.4530
 6254SOL     OW30223   1.940   3.554   2.654  0.2534  0.5687  0.7075
 6254SOL    HW130224   1.885   3.631   2.664 -0.3242  0.2950 -0.4078
 6254SOL    HW230225   1.936   3.533   2.561 -1.1049  1.8798  0.4699
 6255SOL     OW30226   0.696   2.399   2.397  0.4648 -0.0653  0.0226
 6255SOL    HW130227   0.651   2.456   2.459  0.7404  1.9873 -1.6682
 6255SOL    HW230228   0.682   2.317   2.444 -1.1814 -0.2823 -0.8200
 6256SOL     OW30229   2.087   0.639  14.297 -0.4638  0.2639  0.3877
 6256SOL    HW130230   2.095   0.543  14.299  0.4491  0.3745  2.0255
 6256SOL    HW230231   2.073   0.649  14.203  0.8627  0.3002  0.2027
 6257SOL     OW30232   4.087   0.263   9.823 -0.2798 -0.2473 -0.1694
 6257SOL    HW130233   4.127   0.211   9.892  1.6502 -0.3344 -1.3804
 6257SOL    HW230234   4.155   0.272   9.757 -0.9334  0.3510 -0.7674
 6258SOL     OW30235   1.842   4.044  10.329  0.4063  0.1610  0.4105
 6258SOL    HW130236   1.897   4.033  10.252  2.8491 -0.1877  2.1843
 6258SOL    HW230237   1.756   4.058  10.291 -0.2369  0.0278  1.8009
 6259SOL     OW30238   0.708   2.549   6.468 -1.0267 -0.4721  0.4525
 6259SOL    HW130239   0.764   2.619   6.435  1.0497 -1.7316  1.3248
 6259SOL    HW230240   0.757   2.514   6.542 -1.1509 -1.3151  0.1404
 6260SOL     OW30241   4.035   2.582   3.018  0.2936  0.0179 -0.2784
 6260SOL    HW130242   4.020   2.612   2.929 -0.2719  1.0623  0.1715
 6260SOL    HW230243   4.123   2.601   3.051 -0.2620 -0.2843  1.3979
 6261SOL     OW30244   0.737   3.887   1.225 -0.3792  0.1175  0.0206
 6261SOL    HW130245   0.692   3.971   1.212  0.3416  0.7181  1.3462
 6261SOL    HW230246   0.681   3.858   1.296 -0.8361 -0.5922 -0.6358
 6262SOL     OW30247   3.940   3.127   6.551 -0.0316  0.0971  0.2037
 6262SOL    HW130248   4.035   3.126   6.542 -0.2778 -2.5732 -1.7906
 6262SOL    HW230249   3.913   3.078   6.474 -2.0613  0.7419  0.4943
 6263SOL     OW30250   2.181   1.879   1.668  0.1853  0.2990  0.1418
 6263SOL    HW130251   2.112   1.875   1.602  1.0405 -0.0152 -0.7319
 6263SOL    HW230252   2.200   1.971   1.682  2.7582 -0.1896 -0.1167
 6264SOL     OW30253   2.122   0.425   3.846 -0.3149 -0.4638  0.4951
 6264SOL    HW130254   2.058   0.366   3.886 -0.5755 -1.5278 -1.4431
 6264SOL    HW230255   2.197   0.416   3.905 -0.1112  1.0619  0.4578
 6265SOL     OW30256   0.838   0.719   2.661  0.2717  0.0649 -0.0210
 6265SOL    HW130257   0.916   0.715   2.715 -1.7210 -2.2441  2.7035
 6265SOL    HW230258   0.866   0.797   2.614  0.7944 -0.3674 -0.4195
 6266SOL     OW30259   4.672   1.832   7.804  0.0097 -0.4833  0.0533
 6266SOL    HW130260   4.642   1.843   7.894 -2.5629 -2.6972 -0.5402
 6266SOL    HW230261   4.637   1.745   7.788 -0.2875 -0.3065 -0.2699
 6267SOL     OW30262   0.946   2.080   3.578  0.5905 -0.8044  0.1788
 6267SOL    HW130263   0.878   2.091   3.511  0.4736 -0.5143  0.3466
 6267SOL    HW230264   0.959   1.987   3.598 -0.8257 -1.0216  0.0955
 6268SOL     OW30265   1.445   3.914   8.265 -0.2491  0.0978 -0.2099
 6268SOL    HW130266   1.379   3.846   8.257 -1.0751  1.1015 -1.9124
 6268SOL    HW230267   1.486   3.895   8.350 -2.5462  1.6695  1.2460
 6269SOL     OW30268   0.235   3.332  13.173 -0.2696 -0.0279 -0.2670
 6269SOL    HW130269   0.246   3.396  13.243  0.1422  0.1451 -0.4896
 6269SOL    HW230270   0.241   3.384  13.093 -0.1386  2.1529  1.1773
 6270SOL     OW30271   4.292   3.244   8.960 -0.0807  0.6441  0.1135
 6270SOL    HW130272   4.197   3.234   8.947 -0.3930  2.2305  1.1970
 6270SOL    HW230273   4.317   3.151   8.962  0.4352  0.8205  1.5948
 6271SOL     OW30274   3.290   0.161  16.689 -0.3709 -0.1793  0.5300
 6271SOL    HW130275   3.251   0.167  16.777  0.0003 -0.0795  0.6855
 6271SOL    HW230276   3.373   0.200  16.716 -1.0746  1.6175  0.0740
 6272SOL     OW30277   3.273   2.865   5.844  0.3319 -0.8867 -0.1173
 6272SOL    HW130278   3.330   2.843   5.770  2.4081  2.4005  0.5131
 6272SOL    HW230279   3.282   2.959   5.861  2.3572 -1.5704  2.4938
 6273SOL     OW30280   1.600   4.155  13.172 -0.0677 -0.0802  0.4055
 6273SOL    HW130281   1.547   4.210  13.114  0.5288 -0.2718 -0.3121
 6273SOL    HW230282   1.692   4.172  13.154 -0.3438  0.1093 -0.8270
 6274SOL     OW30283   1.200   2.784   1.101 -0.2604 -0.6963  0.3001
 6274SOL    HW130284   1.187   2.875   1.074  0.9814 -0.9551 -1.1615
 6274SOL    HW230285   1.245   2.757   1.021  0.9546 -2.6751  1.6311
 6275SOL     OW30286   2.648   2.029  16.374  0.8226  0.2439 -0.6782
 6275SOL    HW130287   2.673   1.953  16.321 -0.7269 -0.1626 -0.8238
 6275SOL    HW230288   2.608   2.092  16.313 -2.3620 -0.8217  0.3298
 6276SOL     OW30289   0.042   2.187  12.655  0.1535 -0.2003  0.1541
 6276SOL    HW130290   0.091   2.105  12.644  0.9493  0.0341  2.0406
 6276SOL    HW230291   0.109   2.250  12.683 -0.5640  1.2492 -1.3544
 6277SOL     OW30292   2.580   3.374   7.385  0.0527  0.1199 -0.0844
 6277SOL    HW130293   2.637   3.378   7.462  2.7794 -2.8651 -1.9509
 6277SOL    HW230294   2.565   3.466   7.363  2.5476  0.2287 -1.3918
 6278SOL     OW30295   1.950   0.952  17.704  0.3929 -0.5550  0.3414
 6278SOL    HW130296   2.039   0.952  17.668 -0.3108 -0.2084 -1.4303
 6278SOL    HW230297   1.949   1.028   0.054  3.7874 -0.0697 -0.2384
 6279SOL     OW30298   2.743   3.327   4.826  0.3311  0.3384  0.9410
 6279SOL    HW130299   2.704   3.252   4.871  0.9037  0.4096  1.5540
 6279SOL    HW230300   2.690   3.400   4.857 -0.1719  0.8916 -1.2176
 6280SOL     OW30301   3.063   2.051   5.137  0.0621 -0.1908 -0.3617
 6280SOL    HW130302   3.151   2.024   5.162 -1.4827 -4.1523  0.7064
 6280SOL    HW230303   3.035   1.966   5.104  1.2321 -1.2721  1.3670
 6281SOL     OW30304   4.238   2.821   2.375 -0.2234  0.7937 -0.3098
 6281SOL    HW130305   4.209   2.895   2.322 -0.5211  0.3059 -0.8325
 6281SOL    HW230306   4.312   2.857   2.424  2.8772 -2.4964 -2.6297
 6282SOL     OW30307   1.352   0.971   5.555  0.3755 -0.3770 -0.3082
 6282SOL    HW130308   1.280   0.926   5.600 -0.5469  2.2140  0.7836
 6282SOL    HW230309   1.372   1.039   5.619 -0.8617  1.3765 -1.8092
 6283SOL     OW30310   0.570   2.175   1.978  0.5597  0.3025  0.4321
 6283SOL    HW130311   0.568   2.246   2.041 -2.5444  1.3782 -0.8301
 6283SOL    HW230312   0.546   2.111   2.044  0.4468  0.0001  0.1024
 6284SOL     OW30313   2.120   1.594   6.543  0.1446  0.0325  0.0564
 6284SOL    HW130314   2.100   1.678   6.584  2.5777  0.7277 -0.1745
 6284SOL    HW230315   2.121   1.531   6.615  0.2371 -0.9422 -0.7961
 6285SOL     OW30316   0.255   4.394   9.265  0.2775 -0.9454  0.1036
 6285SOL    HW130317   0.250   4.342   9.184 -0.1397 -0.5615 -0.1137
 6285SOL    HW230318   0.300   4.475   9.241 -0.9636 -0.9898 -2.3584
 6286SOL     OW30319   2.296   0.858   9.905  0.1048 -0.0153 -0.0945
 6286SOL    HW130320   2.356   0.850   9.980  0.8798  0.9417 -0.6186
 6286SOL    HW230321   2.345   0.898   9.834  2.5131 -0.6891  1.1742
 6287SOL     OW30322   3.391   3.873   8.403  0.2133  0.0147 -0.4472
 6287SOL    HW130323   3.475   3.901   8.438 -0.6066  1.5833  0.3162
 6287SOL    HW230324   3.352   3.826   8.477  0.8730 -1.0543 -0.7777
 6288SOL     OW30325   4.725   1.512   6.808 -0.1507 -0.1744  0.4989
 6288SOL    HW130326   4.680   1.433   6.778  1.9198 -0.6569 -1.4130
 6288SOL    HW230327   0.033   1.481   6.892  0.1995  0.5477  0.6154
 6289SOL     OW30328   0.183   4.196   9.835  0.1996  0.5071  0.3917
 6289SOL    HW130329   0.123   4.244   9.778  1.1813  1.6604  0.3272
 6289SOL    HW230330   0.256   4.185   9.774  0.9687 -0.0402  1.4218
 6290SOL     OW30331   1.115   4.057   8.956  0.0099 -0.0380  0.2233
 6290SOL    HW130332   1.066   4.138   8.942  0.7141  0.2521 -0.5771
 6290SOL    HW230333   1.066   3.983   8.918 -0.1536 -0.8092  1.9622
 6291SOL     OW30334   2.006   2.463   2.866 -0.9535  0.4321 -0.2936
 6291SOL    HW130335   2.056   2.498   2.939 -0.2236  2.2636 -1.6753
 6291SOL    HW230336   1.944   2.402   2.907 -0.3728  0.3140  0.4039
 6292SOL     OW30337   4.031   0.062  16.805 -0.1702 -0.1725 -0.8150
 6292SOL    HW130338   4.088   0.112  16.747 -2.1384  1.3617 -1.4196
 6292SOL    HW230339   4.064   0.088  16.891  0.9101 -0.4627 -1.1346
 6293SOL     OW30340   4.157   1.856  16.230  0.0102  0.3756  0.1023
 6293SOL    HW130341   4.147   1.849  16.135  0.1655  0.1652  0.1016
 6293SOL    HW230342   4.226   1.793  16.251  0.0822  1.0205  1.7969
 6294SOL     OW30343   4.161   4.044   2.569  0.0197  0.3018 -0.0294
 6294SOL    HW130344   4.102   3.969   2.576  0.6676 -0.1136  1.0440
 6294SOL    HW230345   4.114   4.104   2.511  0.9329  0.0239 -1.0612
 6295SOL     OW30346   0.173   1.554   5.232 -0.6103 -0.4472 -0.3439
 6295SOL    HW130347   0.174   1.592   5.320  0.0978  0.4303 -0.7290
 6295SOL    HW230348   0.252   1.595   5.196 -0.4044 -1.7135 -1.3037
 6296SOL     OW30349   3.990   4.565   8.552 -0.2030 -0.1106 -0.3210
 6296SOL    HW130350   3.974   4.658   8.570 -4.2222 -0.4287 -2.2548
 6296SOL    HW230351   4.025   4.533   8.636  0.1328 -0.5667 -0.6351
 6297SOL     OW30352   3.541   0.210   4.771  0.3988 -0.5787  0.7360
 6297SOL    HW130353   3.603   0.214   4.698 -0.8367 -0.3986 -0.3266
 6297SOL    HW230354   3.486   0.287   4.753  0.7675 -0.7982 -1.3678
 6298SOL     OW30355   0.607   2.180   2.923  0.1623 -0.1514 -0.5007
 6298SOL    HW130356   0.566   2.230   2.994 -1.7892  0.9902 -2.4470
 6298SOL    HW230357   0.540   2.136   2.870  1.2822 -1.5823 -0.7384
 6299SOL     OW30358   2.615   0.105   5.679  0.1422 -0.0071 -0.1018
 6299SOL    HW130359   2.709   0.099   5.660  0.1442  1.2688 -0.5445
 6299SOL    HW230360   2.593   0.148   5.596 -0.4528 -1.0254 -0.4668
 6300SOL     OW30361   0.158   1.745   6.123 -0.0867 -0.0359 -0.5710
 6300SOL    HW130362   0.129   1.775   6.209  3.6876 -1.3359  1.1044
 6300SOL    HW230363   0.095   1.774   6.056  0.3723 -0.1723 -1.0626
 6301SOL     OW30364   2.898   4.375   7.160 -0.4766  0.1216  0.2243
 6301SOL    HW130365   2.905   4.288   7.201  1.9340  0.9334  1.5535
 6301SOL    HW230366   2.836   4.349   7.092  1.2896 -1.4319 -0.7868
 6302SOL     OW30367   2.585   0.802   0.067 -0.5233  0.3095  0.2871
 6302SOL    HW130368   2.499   0.841   0.060  0.1752  1.6189 -1.0894
 6302SOL    HW230369   2.605   0.772   0.156  0.6462 -1.7651 -0.6599
 6303SOL     OW30370   2.839   1.649   4.449 -0.3851  0.2359 -0.1620
 6303SOL    HW130371   2.801   1.730   4.416  0.8235  0.9790  0.2763
 6303SOL    HW230372   2.773   1.617   4.510 -1.3046 -2.1822 -2.3827
 6304SOL     OW30373   0.289   4.344   2.073 -0.6019  0.9514 -0.6077
 6304SOL    HW130374   0.333   4.328   2.156 -0.2585 -0.0540 -0.9803
 6304SOL    HW230375   0.206   4.382   2.101  0.1506  1.4647  0.9082
 6305SOL     OW30376   4.200   1.172   3.866 -0.4656  0.2305  0.1177
 6305SOL    HW130377   4.251   1.248   3.894 -1.7823  0.1594  2.7359
 6305SOL    HW230378   4.202   1.176   3.771 -0.7411 -1.2311  0.0377
 6306SOL     OW30379   3.614   0.589   2.007 -0.9274  0.1130  0.5825
 6306SOL    HW130380   3.690   0.642   2.032 -1.5784  1.0188  0.6301
 6306SOL    HW230381   3.589   0.551   2.092 -0.9717 -2.5693 -0.6155
 6307SOL     OW30382   1.701   4.023   1.205  0.1563  0.2602 -0.3818
 6307SOL    HW130383   1.614   3.997   1.234 -0.3047 -0.2587 -2.2098
 6307SOL    HW230384   1.674   4.097   1.152  0.8632  2.1968  1.9608
 6308SOL     OW30385   3.446   4.274  13.808 -0.6091 -0.4888  0.0848
 6308SOL    HW130386   3.491   4.293  13.726  0.0142 -2.6874 -0.0787
 6308SOL    HW230387   3.510   4.208  13.836  0.3877  0.7167  0.6256
 6309SOL     OW30388   2.767   4.306  16.125  0.5892  0.3583 -0.2550
 6309SOL    HW130389   2.747   4.383  16.177  2.0473  0.7042 -0.1981
 6309SOL    HW230390   2.856   4.330  16.098 -0.8581  1.6190 -3.9092
 6310SOL     OW30391   3.135   0.485   7.987 -0.0505  0.3392  0.2373
 6310SOL    HW130392   3.180   0.400   7.986 -1.2422 -0.3214  2.8246
 6310SOL    HW230393   3.133   0.515   7.896 -1.4700  2.1201  0.8672
 6311SOL     OW30394   4.024   0.389   8.218  0.7042 -0.9372  0.1391
 6311SOL    HW130395   3.952   0.353   8.166  0.3207  1.2801 -0.8319
 6311SOL    HW230396   4.022   0.342   8.301 -1.5874 -1.9146 -0.4715
 6312SOL     OW30397   1.248   4.206   7.246 -0.0918  0.2806  0.1584
 6312SOL    HW130398   1.275   4.291   7.281 -0.8542  0.1457  1.0923
 6312SOL    HW230399   1.332   4.166   7.226 -1.4829 -2.6136  0.1417
 6313SOL     OW30400   3.653   0.082   3.503  0.1085 -0.2080 -0.1081
 6313SOL    HW130401   3.739   0.111   3.470  0.8300 -1.4417  0.7103
 6313SOL    HW230402   3.614   0.167   3.522  1.6068 -0.1001  2.4987
 6314SOL     OW30403   3.723   0.489   1.272 -0.1097 -0.5641  0.6625
 6314SOL    HW130404   3.778   0.508   1.196 -0.0763  1.5499  1.1990
 6314SOL    HW230405   3.793   0.455   1.328  0.2075 -1.3106 -0.1947
 6315SOL     OW30406   0.932   3.045   2.916  0.3584  0.0980  0.4633
 6315SOL    HW130407   0.868   3.082   2.977  0.1102  0.0394  0.2412
 6315SOL    HW230408   1.016   3.079   2.945  0.2766  1.2197 -0.6546
 6316SOL     OW30409   4.010   0.705  16.327  0.3661 -0.0044  0.3250
 6316SOL    HW130410   4.054   0.736  16.407  0.1635  1.3750 -0.1060
 6316SOL    HW230411   4.083   0.699  16.265 -0.0745 -0.0246 -0.1894
 6317SOL     OW30412   4.108   2.226   0.447 -0.5711 -0.1594 -0.6176
 6317SOL    HW130413   4.073   2.313   0.465 -0.1973 -0.0014 -0.6627
 6317SOL    HW230414   4.021   2.185   0.448 -0.2063 -0.8901  1.0045
 6318SOL     OW30415   2.347   1.218   5.831  0.0832  0.3919 -0.3222
 6318SOL    HW130416   2.381   1.198   5.918 -0.7543 -0.5017 -0.1993
 6318SOL    HW230417   2.277   1.153   5.831  0.0218  0.4747  1.0273
 6319SOL     OW30418   2.489   4.204   8.529 -0.4519  0.0460  0.0574
 6319SOL    HW130419   2.480   4.289   8.571  1.0125  0.9495 -1.4753
 6319SOL    HW230420   2.564   4.216   8.472  0.1742 -1.3469  0.5682
 6320SOL     OW30421   2.131   2.546   3.086  0.1332  0.0169 -0.4564
 6320SOL    HW130422   2.106   2.609   3.154 -1.0349  0.2438 -1.1069
 6320SOL    HW230423   2.136   2.465   3.137 -1.1715  1.0139  1.2440
 6321SOL     OW30424   2.913   0.345   5.447  0.5219 -0.0170  0.2550
 6321SOL    HW130425   2.869   0.301   5.374 -0.6471 -0.4000  1.2087
 6321SOL    HW230426   2.987   0.284   5.453  0.5684  0.1288  1.1102
 6322SOL     OW30427   2.364   2.431   2.496 -0.0654  0.2166 -0.2918
 6322SOL    HW130428   2.364   2.346   2.453 -0.1855 -0.5067  1.1079
 6322SOL    HW230429   2.293   2.410   2.558  0.4797 -1.2604 -0.1942
 6323SOL     OW30430   2.608   1.954   8.481 -0.7442 -0.4778 -0.1034
 6323SOL    HW130431   2.682   1.931   8.537  0.5444  0.3010 -1.4967
 6323SOL    HW230432   2.531   1.933   8.535 -0.1573 -0.9572  0.5426
 6324SOL     OW30433   0.879   1.053   1.190 -0.2801  0.3858  0.6311
 6324SOL    HW130434   0.819   1.009   1.250 -0.1914 -1.1516 -0.4080
 6324SOL    HW230435   0.910   0.984   1.132  0.6617  0.2231  1.3201
 6325SOL     OW30436   1.738   1.711   5.165  0.1413 -0.5582  0.1287
 6325SOL    HW130437   1.763   1.788   5.113 -1.6064 -0.6826 -0.8803
 6325SOL    HW230438   1.820   1.692   5.212  1.0661  0.7628 -0.9471
 6326SOL     OW30439   1.637   4.446  17.087 -0.6263 -0.1558  0.5617
 6326SOL    HW130440   1.655   4.390  17.011  0.8094 -1.6930  2.0544
 6326SOL    HW230441   1.693   4.405  17.152  0.3509 -0.2656 -0.3595
 6327SOL     OW30442   1.426   3.879   9.219 -0.5479  0.5434 -0.1827
 6327SOL    HW130443   1.506   3.849   9.262 -1.0246 -1.2309 -0.5162
 6327SOL    HW230444   1.361   3.820   9.258 -1.2905  0.8944 -0.8724
 6328SOL     OW30445   0.291   1.487   0.854 -0.2415 -0.2067  0.1120
 6328SOL    HW130446   0.325   1.528   0.934  1.7050  0.9994 -1.3149
 6328SOL    HW230447   0.207   1.532   0.848  0.6624  1.2558 -1.5864
 6329SOL     OW30448   4.080   2.091  16.939 -0.6192 -0.6023 -0.0721
 6329SOL    HW130449   4.130   2.041  16.874 -1.0332 -4.9869  3.0340
 6329SOL    HW230450   4.135   2.073  17.016 -0.2949 -0.6103 -0.3037
 6330SOL     OW30451   4.698   1.178   4.148  0.3739 -0.4491  0.3744
 6330SOL    HW130452   0.043   1.239   4.130  0.7911 -0.9025  0.4928
 6330SOL    HW230453   4.666   1.205   4.234 -0.2224 -1.1400  0.3693
 6331SOL     OW30454   3.933   2.733   6.801 -0.0255  0.0347  0.4070
 6331SOL    HW130455   3.973   2.666   6.855  0.2261 -1.5567 -1.7599
 6331SOL    HW230456   3.853   2.688   6.772 -0.1785  1.8579 -2.0513
 6332SOL     OW30457   1.125   2.200  10.957 -0.7515  0.5196 -0.3204
 6332SOL    HW130458   1.111   2.152  10.875  1.2914  1.0842 -0.9966
 6332SOL    HW230459   1.212   2.238  10.943 -1.2171  1.8878  0.5733
 6333SOL     OW30460   2.613   1.444   3.864  0.8157  0.5504  0.2711
 6333SOL    HW130461   2.653   1.499   3.796  2.4402 -1.7965 -0.6479
 6333SOL    HW230462   2.603   1.506   3.936  2.0726  2.1670 -0.9408
 6334SOL     OW30463   3.467   3.666   2.459  0.2160 -0.0864 -0.3643
 6334SOL    HW130464   3.480   3.644   2.551 -0.8641  0.1665 -0.1483
 6334SOL    HW230465   3.543   3.623   2.419  1.1102  0.5793  0.6263
 6335SOL     OW30466   1.821   2.664   6.057 -0.0773 -0.5737  0.2035
 6335SOL    HW130467   1.760   2.723   6.013  1.8179 -0.0729 -1.7661
 6335SOL    HW230468   1.822   2.591   5.994 -0.9970  0.5437 -1.0954
 6336SOL     OW30469   0.768   4.381  14.291  0.2685  0.4164  0.2614
 6336SOL    HW130470   0.848   4.432  14.303 -0.3070  1.4867 -0.4447
 6336SOL    HW230471   0.714   4.420  14.359 -0.0388 -0.0091  0.2659
 6337SOL     OW30472   1.268   3.761  10.080  0.3424  0.6112 -0.1301
 6337SOL    HW130473   1.256   3.712  10.162 -0.2561  0.7708 -0.1196
 6337SOL    HW230474   1.282   3.851  10.107 -0.6646  1.4020 -2.2122
 6338SOL     OW30475   2.918   2.205   2.266  0.1620  0.4115 -0.4520
 6338SOL    HW130476   2.852   2.266   2.233 -0.7515 -1.0070 -1.2028
 6338SOL    HW230477   2.867   2.153   2.328  0.8839  1.2244  0.8334
 6339SOL     OW30478   3.993   1.036  15.660 -0.8837  0.2694 -0.3420
 6339SOL    HW130479   3.917   1.027  15.603 -0.1227 -1.5427 -1.0571
 6339SOL    HW230480   3.999   1.132  15.660  0.5132  0.1957  2.2757
 6340SOL     OW30481   0.583   0.909   4.989  0.3316  0.3785  0.2932
 6340SOL    HW130482   0.520   0.957   5.042  0.5839  0.4325  0.5433
 6340SOL    HW230483   0.627   0.973   4.933 -0.9424  0.2793 -0.8319
 6341SOL     OW30484   4.516   3.647   7.324  0.3252  1.0439  0.3347
 6341SOL    HW130485   4.460   3.722   7.342 -1.3586  0.1144 -1.0720
 6341SOL    HW230486   4.525   3.605   7.410 -2.2628 -0.3504 -0.1002
 6342SOL     OW30487   2.228   2.585   3.948 -0.1889 -0.4595 -0.3179
 6342SOL    HW130488   2.291   2.560   4.016 -1.5972 -4.3271 -0.4711
 6342SOL    HW230489   2.268   2.552   3.867 -1.4542 -1.2370 -0.6113
 6343SOL     OW30490   3.805   4.522   5.755 -0.1616 -0.5172  0.4176
 6343SOL    HW130491   3.861   4.518   5.833  2.6102 -0.1222 -1.5375
 6343SOL    HW230492   3.862   4.460   5.709  1.8559  2.4414 -1.1021
 6344SOL     OW30493   2.132   4.237   2.788  0.2977 -0.1104 -0.0782
 6344SOL    HW130494   2.058   4.176   2.786 -0.3968  0.7219  0.0444
 6344SOL    HW230495   2.196   4.183   2.742  2.3741 -0.8593  3.7409
 6345SOL     OW30496   1.649   1.817   8.203 -0.1001 -0.2347 -0.1128
 6345SOL    HW130497   1.568   1.868   8.205  1.4810  2.2321  0.5220
 6345SOL    HW230498   1.624   1.759   8.275  0.4575 -0.4359 -0.0836
 6346SOL     OW30499   1.470   4.051  14.729 -0.5086 -0.1577  0.6311
 6346SOL    HW130500   1.501   4.069  14.641  1.8989 -1.3152  1.2502
 6346SOL    HW230501   1.441   3.960  14.720  2.5255 -1.2312  1.7517
 6347SOL     OW30502   2.111   1.924   0.932 -0.1171 -0.0241  0.1752
 6347SOL    HW130503   2.020   1.903   0.953  0.0598 -1.1930 -0.2509
 6347SOL    HW230504   2.122   2.009   0.973 -3.6846  1.6008 -2.1934
 6348SOL     OW30505   2.058   0.826   4.546 -0.2179 -0.0003 -0.3744
 6348SOL    HW130506   1.984   0.804   4.603  0.9315  0.1182  1.1426
 6348SOL    HW230507   2.114   0.866   4.612 -1.1999  2.1524 -0.8573
 6349SOL     OW30508   0.448   1.456   7.416  1.2959  0.2647  0.3367
 6349SOL    HW130509   0.381   1.509   7.373 -0.0428  0.0007  2.0676
 6349SOL    HW230510   0.527   1.495   7.378  0.7473  1.4468  0.4170
 6350SOL     OW30511   1.099   3.348   3.794 -0.0303 -0.7013  0.2473
 6350SOL    HW130512   1.069   3.311   3.878  0.4971  1.4692  1.3805
 6350SOL    HW230513   1.025   3.324   3.738 -1.7172  1.9159  1.3505
 6351SOL     OW30514   2.184   0.148   3.286 -0.0386  0.2213 -0.2125
 6351SOL    HW130515   2.250   0.157   3.354  0.2185  0.5283 -0.5034
 6351SOL    HW230516   2.121   0.089   3.328 -0.3372  1.2296  0.7526
 6352SOL     OW30517   1.980   1.203   3.324  0.0838 -0.0021 -0.1546
 6352SOL    HW130518   1.999   1.209   3.417  0.9659 -0.3007 -0.3189
 6352SOL    HW230519   2.044   1.137   3.299 -0.7903 -0.0678 -2.2477
 6353SOL     OW30520   1.253   1.023   8.246 -0.4056 -0.1506 -0.0168
 6353SOL    HW130521   1.221   1.100   8.292 -0.5649 -0.3738  0.2460
 6353SOL    HW230522   1.196   1.037   8.170 -2.1475 -0.0074  1.3294
 6354SOL     OW30523   0.445   0.770   1.272 -0.0832  0.1857 -0.0449
 6354SOL    HW130524   0.517   0.789   1.213  0.2505  0.5037  0.4629
 6354SOL    HW230525   0.385   0.796   1.202 -1.7494  0.4841  1.4784
 6355SOL     OW30526   0.254   3.377   7.542 -0.2205 -0.0816 -0.4602
 6355SOL    HW130527   0.294   3.349   7.624  1.6948  1.3339 -0.9317
 6355SOL    HW230528   0.288   3.461   7.511 -0.1090  0.0543  0.0460
 6356SOL     OW30529   0.371   2.783  13.640  0.9668  0.1104  0.1043
 6356SOL    HW130530   0.352   2.778  13.547 -0.4344  2.6668  0.2391
 6356SOL    HW230531   0.442   2.848  13.647  1.7485 -0.8594  1.2421
 6357SOL     OW30532   2.191   1.345  10.084 -0.7019 -0.0830 -0.2141
 6357SOL    HW130533   2.121   1.369  10.023 -0.1897  1.0979 -0.3213
 6357SOL    HW230534   2.178   1.250  10.077 -0.0091 -0.0982 -1.2706
 6358SOL     OW30535   0.971   0.722   2.309  0.0846 -0.2084 -0.1733
 6358SOL    HW130536   0.930   0.746   2.226  1.3288  2.0065 -0.1619
 6358SOL    HW230537   1.054   0.694   2.271  1.0048  0.6067  1.2365
 6359SOL     OW30538   0.395   3.680   9.636 -0.4877 -0.2487 -0.0574
 6359SOL    HW130539   0.418   3.588   9.623 -1.0083 -0.4334  0.3204
 6359SOL    HW230540   0.307   3.651   9.662 -1.3900  2.7471  0.2526
 6360SOL     OW30541   2.261   2.318  13.100 -0.1764  0.2775  0.1399
 6360SOL    HW130542   2.168   2.316  13.075  0.2460  1.8134 -1.5298
 6360SOL    HW230543   2.295   2.251  13.041 -0.9156  1.6941 -1.8970
 6361SOL     OW30544   4.326   1.834   7.406 -0.3437 -0.0110  0.1808
 6361SOL    HW130545   4.366   1.858   7.490 -0.0091  0.0592  0.0004
 6361SOL    HW230546   4.237   1.853   7.436 -0.7483 -0.3701 -0.8217
 6362SOL     OW30547   0.081   3.648   4.986  0.0120  0.4412  0.0817
 6362SOL    HW130548   0.088   3.692   4.901 -0.0702  0.5018  0.1064
 6362SOL    HW230549   0.151   3.698   5.028 -1.0821  1.4550  0.7180
 6363SOL     OW30550   0.724   3.936  12.985  0.3157  0.2210 -0.4468
 6363SOL    HW130551   0.711   4.025  12.951 -2.6474  0.2213  0.6724
 6363SOL    HW230552   0.730   3.881  12.907  0.2417  0.7603 -0.8385
 6364SOL     OW30553   1.633   4.342   3.931 -0.1552  0.3136  0.8356
 6364SOL    HW130554   1.678   4.372   4.010 -1.5210  2.0099  0.9667
 6364SOL    HW230555   1.548   4.315   3.965 -1.8403  3.1094 -1.1439
 6365SOL     OW30556   1.773   0.710   8.387  0.2859  0.1818  0.2208
 6365SOL    HW130557   1.700   0.670   8.342  0.9361 -0.3742 -0.3403
 6365SOL    HW230558   1.815   0.632   8.423  1.8450  0.5966 -0.7066
 6366SOL     OW30559   0.220   2.299   0.870 -0.3218 -0.1497  0.0429
 6366SOL    HW130560   0.128   2.293   0.844  0.3285  1.0650 -2.4906
 6366SOL    HW230561   0.229   2.212   0.910  1.4801 -0.4428 -1.0488
 6367SOL     OW30562   3.250   4.617   6.860  0.4272  0.1460 -1.3914
 6367SOL    HW130563   3.311   4.557   6.815  1.6609  0.5439 -0.2566
 6367SOL    HW230564   3.205   4.556   6.918  1.5182  0.6602 -0.0217
 6368SOL     OW30565   0.305   0.740   3.293 -0.0996 -0.2509  0.0260
 6368SOL    HW130566   0.343   0.663   3.250 -0.0050 -0.1903  0.0016
 6368SOL    HW230567   0.269   0.698   3.371  0.6760 -0.0855  0.4681
 6369SOL     OW30568   4.253   0.032   8.773  0.4442  0.0300  0.4287
 6369SOL    HW130569   4.193   0.042   8.847  0.4987 -1.9435  0.7300
 6369SOL    HW230570   4.307   0.112   8.772 -0.3473  0.5439 -2.0770
 6370SOL     OW30571   4.393   4.216   6.518  0.2490  0.4630 -0.1089
 6370SOL    HW130572   4.307   4.248   6.546 -0.0761 -1.4209  1.0754
 6370SOL    HW230573   4.405   4.141   6.576 -1.6118  0.6061  0.4490
 6371SOL     OW30574   0.288   2.934   5.161  0.0749 -0.1870 -0.3770
 6371SOL    HW130575   0.345   2.862   5.187 -1.8631 -2.3155 -1.9393
 6371SOL    HW230576   0.205   2.885   5.159  0.1842 -0.4778  3.1336
 6372SOL     OW30577   3.824   4.146   2.503  0.4072  0.2424  0.7050
 6372SOL    HW130578   3.870   4.147   2.586  0.5240  2.0261  0.6274
 6372SOL    HW230579   3.813   4.240   2.490 -3.2120 -0.0175  1.8572
 6373SOL     OW30580   0.353   2.255   1.282 -0.5421 -0.1691  0.3089
 6373SOL    HW130581   0.396   2.201   1.349 -0.0412 -0.2144 -0.0450
 6373SOL    HW230582   0.271   2.267   1.328 -1.2441  0.2994 -1.0628
 6374SOL     OW30583   3.048   0.654   7.775 -0.0468  0.5257 -0.4036
 6374SOL    HW130584   3.064   0.660   7.681 -3.8355  3.9547 -0.8202
 6374SOL    HW230585   2.996   0.734   7.779 -0.5461  0.3183 -3.2922
 6375SOL     OW30586   2.488   3.795   8.830  0.0563 -0.2316  0.2934
 6375SOL    HW130587   2.567   3.785   8.882 -0.1116  1.0549  0.7754
 6375SOL    HW230588   2.480   3.890   8.826 -0.7031 -0.3046  0.0263
 6376SOL     OW30589   2.479   4.430   2.742 -0.2597  0.0497 -0.0500
 6376SOL    HW130590   2.472   4.382   2.659  1.3857 -2.3572  1.1895
 6376SOL    HW230591   2.485   4.519   2.709 -1.9801  0.1956  0.0601
 6377SOL     OW30592   3.469   0.450   8.120 -0.3112  0.1624 -0.0951
 6377SOL    HW130593   3.444   0.400   8.198  2.2983  0.2087  0.7746
 6377SOL    HW230594   3.470   0.536   8.163  2.8629  1.0579 -1.9470
 6378SOL     OW30595   4.611   3.723   7.908  0.3319  0.3062 -0.1140
 6378SOL    HW130596   4.675   3.654   7.895 -0.2948 -0.7040  2.2259
 6378SOL    HW230597   4.637   3.788   7.842  0.3524 -0.3449 -0.7545
 6379SOL     OW30598   3.401   1.767  11.677 -0.6174 -0.4899  0.5252
 6379SOL    HW130599   3.363   1.854  11.684  0.8967  0.0536  1.8987
 6379SOL    HW230600   3.343   1.727  11.612  0.3678  0.8823 -1.1935
 6380SOL     OW30601   1.334   2.196   9.944  0.2100 -0.1667  0.1677
 6380SOL    HW130602   1.314   2.287   9.968 -2.1867 -0.4435 -0.7539
 6380SOL    HW230603   1.404   2.174  10.005 -0.2754  0.9669  1.1358
 6381SOL     OW30604   0.571   2.466  10.959  0.9782 -0.0087  0.0753
 6381SOL    HW130605   0.519   2.472  10.879  2.0811  3.2209 -0.3899
 6381SOL    HW230606   0.662   2.453  10.934  0.2748 -1.1999 -1.9129
 6382SOL     OW30607   3.364   4.047   4.820  0.0827  0.1525 -0.2021
 6382SOL    HW130608   3.405   3.985   4.760 -0.9351  0.6204 -1.3659
 6382SOL    HW230609   3.354   3.986   4.893  1.7300 -2.0553 -1.8261
 6383SOL     OW30610   3.562   1.423   7.200  0.2675 -0.1450 -0.2347
 6383SOL    HW130611   3.542   1.408   7.293 -0.7517  0.6485 -0.3322
 6383SOL    HW230612   3.657   1.428   7.190  0.0264  0.8690 -1.8908
 6384SOL     OW30613   3.129   3.437  14.739  0.1685 -0.3602  0.2357
 6384SOL    HW130614   3.210   3.447  14.689 -0.0214  2.9033  0.6101
 6384SOL    HW230615   3.065   3.408  14.674 -1.5477  0.9869  1.3250
 6385SOL     OW30616   1.686   1.884  13.788 -0.5343  0.0578 -0.1221
 6385SOL    HW130617   1.600   1.842  13.787 -0.4119 -0.1964  0.0744
 6385SOL    HW230618   1.749   1.813  13.771  1.3187  1.5081  0.6013
 6386SOL     OW30619   1.740   3.237   8.636  0.3216 -0.1343  0.1379
 6386SOL    HW130620   1.646   3.226   8.617  0.1204 -0.1841  1.1717
 6386SOL    HW230621   1.733   3.253   8.730  0.6404 -2.8149  0.6153
 6387SOL     OW30622   0.544   3.695  14.532 -0.1170  1.0914 -0.1387
 6387SOL    HW130623   0.554   3.622  14.471  0.5554  0.1895  1.0506
 6387SOL    HW230624   0.628   3.731  14.504  1.4531 -1.9024  0.7298
 6388SOL     OW30625   3.521   0.928   2.522  0.4296  0.6304 -0.2141
 6388SOL    HW130626   3.561   0.981   2.591 -1.1034  2.3296 -0.6177
 6388SOL    HW230627   3.599   0.877   2.499 -0.0066 -1.4393  2.9395
 6389SOL     OW30628   0.511   2.404   7.991 -0.0175  0.2596 -0.2589
 6389SOL    HW130629   0.513   2.374   7.900  1.9586  1.4948 -0.6140
 6389SOL    HW230630   0.510   2.497   7.968  0.3980 -0.0535 -1.5283
 6390SOL     OW30631   4.098   2.261   8.069 -0.1863  0.7919  0.1944
 6390SOL    HW130632   4.038   2.187   8.081  1.9616 -0.9143  0.4377
 6390SOL    HW230633   4.179   2.232   8.027  0.1753  0.3758  1.1785
 6391SOL     OW30634   4.208   0.609   7.322 -0.1516  0.0069 -0.4683
 6391SOL    HW130635   4.281   0.670   7.326 -0.8804  0.7398  1.7451
 6391SOL    HW230636   4.175   0.624   7.233 -0.3848 -0.2256 -0.4219
 6392SOL     OW30637   1.711   0.251   8.362 -0.2851  0.4867 -0.1622
 6392SOL    HW130638   1.630   0.293   8.389 -0.4755 -0.3638  0.5917
 6392SOL    HW230639   1.751   0.244   8.449 -0.1816  2.2446 -0.0690
 6393SOL     OW30640   1.326   0.112   7.543  0.4015  0.1736  0.0316
 6393SOL    HW130641   1.381   0.073   7.611 -0.0324 -2.9505 -1.4060
 6393SOL    HW230642   1.365   0.198   7.528 -0.4760  0.5307 -0.1413
 6394SOL     OW30643   4.338   0.415   3.176 -0.6178 -0.0114 -0.0496
 6394SOL    HW130644   4.288   0.352   3.125  0.9277 -0.9402 -0.4201
 6394SOL    HW230645   4.393   0.353   3.224  1.3912  0.7544 -1.3745
 6395SOL     OW30646   4.268   4.282  13.693 -0.7451 -0.5987  0.2209
 6395SOL    HW130647   4.312   4.361  13.725  0.4849 -0.4138 -2.0035
 6395SOL    HW230648   4.232   4.298  13.606 -0.7950 -0.0444  0.3430
 6396SOL     OW30649   4.329   0.373  14.579  0.2822 -0.1008  0.4093
 6396SOL    HW130650   4.313   0.372  14.674  0.8317  0.4438  0.5053
 6396SOL    HW230651   4.414   0.330  14.574  0.0716 -0.5665  0.8246
 6397SOL     OW30652   0.603   0.484   7.944 -0.7020  0.2028 -0.5820
 6397SOL    HW130653   0.511   0.463   7.927 -1.3895  0.8578  2.3493
 6397SOL    HW230654   0.643   0.485   7.857 -0.9868  2.2609 -0.6754
 6398SOL     OW30655   2.719   3.304  14.411 -0.6968 -0.1388  0.1812
 6398SOL    HW130656   2.680   3.226  14.451 -3.0545  0.3254 -1.2381
 6398SOL    HW230657   2.648   3.366  14.423 -0.7373 -0.0734 -0.4281
 6399SOL     OW30658   0.314   3.351   5.559 -0.0374  0.7766  0.2938
 6399SOL    HW130659   0.267   3.275   5.526  1.2275  0.5221 -0.9528
 6399SOL    HW230660   0.363   3.308   5.629 -1.4604  2.0840  2.0762
 6400SOL     OW30661   4.347   4.460   7.136 -1.4322  0.2382  0.0516
 6400SOL    HW130662   4.308   4.525   7.194 -1.5704  0.2101 -0.0113
 6400SOL    HW230663   4.280   4.404   7.097 -0.1604 -0.5471 -1.0331
 6401SOL     OW30664   2.968   3.188   3.742 -0.0933  0.3845  0.4983
 6401SOL    HW130665   2.945   3.145   3.824  1.5265  1.2153  1.4005
 6401SOL    HW230666   2.935   3.129   3.675  1.6390 -0.1251  0.0773
 6402SOL     OW30667   3.280   2.663   0.517 -0.2494 -0.5191 -0.1270
 6402SOL    HW130668   3.256   2.589   0.572  1.3077 -0.8572  0.0959
 6402SOL    HW230669   3.362   2.629   0.481 -0.0891 -0.6743  0.3825
 6403SOL     OW30670   3.537   4.706   6.341 -0.6918 -0.0863  0.0160
 6403SOL    HW130671   3.532   0.075   6.350  1.0749  0.1058 -1.0705
 6403SOL    HW230672   3.603   4.698   6.272 -0.4759  1.3585  0.0547
 6404SOL     OW30673   3.107   1.814   6.614 -0.0456 -0.4513 -0.0191
 6404SOL    HW130674   3.157   1.781   6.688 -0.1685  0.0880  0.3080
 6404SOL    HW230675   3.070   1.897   6.645  0.9541 -0.3528  0.9192
 6405SOL     OW30676   2.118   3.284   4.822 -0.2018  0.0824  0.3466
 6405SOL    HW130677   2.048   3.220   4.819  0.7024 -0.9067  0.4046
 6405SOL    HW230678   2.151   3.267   4.734 -0.4099 -1.0423  0.4923
 6406SOL     OW30679   1.997   4.131   5.011 -0.0301  0.2275  0.0781
 6406SOL    HW130680   1.992   4.136   4.915 -0.1666 -0.6397  0.0312
 6406SOL    HW230681   2.033   4.213   5.045 -1.8779  1.0668  0.0121
 6407SOL     OW30682   0.503   2.608   2.963  0.1646  0.0904 -0.1994
 6407SOL    HW130683   0.522   2.674   3.030  0.1898 -0.7424  0.6175
 6407SOL    HW230684   0.571   2.629   2.898  1.4750  1.6711  1.6649
 6408SOL     OW30685   0.223   0.899   0.809  0.0270  0.0944  0.2392
 6408SOL    HW130686   0.150   0.955   0.835  0.2881 -0.9577  3.2084
 6408SOL    HW230687   0.175   0.816   0.808  0.8356 -0.3690 -0.0289
 6409SOL     OW30688   3.571   1.202   3.774 -0.6132 -0.4420 -0.3164
 6409SOL    HW130689   3.514   1.237   3.843 -1.1308  0.1172 -1.0324
 6409SOL    HW230690   3.549   1.110   3.790  0.4717 -0.5079  0.7566
 6410SOL     OW30691   1.480   0.626   6.369 -0.6041 -0.2066 -0.0022
 6410SOL    HW130692   1.524   0.595   6.448 -0.9957 -0.4037  0.1387
 6410SOL    HW230693   1.554   0.662   6.319  0.1752 -0.9390  0.6145
 6411SOL     OW30694   3.131   0.750   8.909  0.7397  0.1325 -0.5540
 6411SOL    HW130695   3.176   0.779   8.989 -0.0065  1.6652 -0.6830
 6411SOL    HW230696   3.044   0.763   8.948  1.3968  0.8952  0.6587
 6412SOL     OW30697   3.486   1.363   6.493  0.0439  0.0975  0.1926
 6412SOL    HW130698   3.544   1.288   6.490  0.9721  0.6993  2.6915
 6412SOL    HW230699   3.419   1.347   6.426  2.2944 -0.7034 -1.8659
 6413SOL     OW30700   2.535   3.159   4.638  0.1442 -0.1020 -0.0456
 6413SOL    HW130701   2.494   3.217   4.703  1.7566  0.7246  0.2221
 6413SOL    HW230702   2.612   3.129   4.686  0.2058 -0.7122 -0.5306
 6414SOL     OW30703   3.668   0.546   2.674 -0.0942  0.0293  0.3466
 6414SOL    HW130704   3.756   0.511   2.659 -0.1012 -0.7802  2.1779
 6414SOL    HW230705   3.630   0.467   2.713 -0.2661  1.3240  2.8315
 6415SOL     OW30706   3.199   4.645   2.225  0.1613 -0.1169  0.2604
 6415SOL    HW130707   3.165   4.707   2.289 -0.3194  0.3592 -0.4590
 6415SOL    HW230708   3.157   4.676   2.144  0.4342 -1.4825 -0.4041
 6416SOL     OW30709   3.969   2.897   4.440 -0.4138 -0.5652  0.0091
 6416SOL    HW130710   4.005   2.965   4.498 -0.5972  0.0468 -0.5979
 6416SOL    HW230711   3.885   2.883   4.483 -0.9367 -0.8935 -1.1472
 6417SOL     OW30712   3.145   3.852  11.686 -0.0137  0.0333  0.4497
 6417SOL    HW130713   3.053   3.847  11.660  0.5305 -0.3641 -1.4715
 6417SOL    HW230714   3.188   3.800  11.617 -1.3637 -1.2025  0.5548
 6418SOL     OW30715   2.649   3.044   4.381  0.1912 -0.1579 -0.1425
 6418SOL    HW130716   2.581   2.978   4.370 -0.2300  0.2865 -0.2132
 6418SOL    HW230717   2.607   3.089   4.454 -2.1428 -0.9619 -0.9881
 6419SOL     OW30718   0.343   2.208   9.109 -0.3372 -0.1016  0.0739
 6419SOL    HW130719   0.406   2.138   9.126 -0.1894 -0.3410 -1.5469
 6419SOL    HW230720   0.357   2.283   9.167  1.0519 -1.1974  1.1746
 6420SOL     OW30721   1.756   1.502   6.410 -0.0591  0.3049 -0.6011
 6420SOL    HW130722   1.738   1.518   6.502 -0.5511  1.1729 -0.8515
 6420SOL    HW230723   1.819   1.430   6.418  0.0563  0.5255  0.3734
 6421SOL     OW30724   0.444   1.487   0.392  0.4812  0.0625  0.1381
 6421SOL    HW130725   0.432   1.512   0.484 -1.9732  2.6881 -0.9137
 6421SOL    HW230726   0.382   1.545   0.350 -0.1776 -2.4493 -2.3335
 6422SOL     OW30727   2.447   0.798   0.785  0.0260  0.1198 -0.0438
 6422SOL    HW130728   2.398   0.822   0.706 -2.6862  2.3507  2.2613
 6422SOL    HW230729   2.429   0.704   0.790  1.6690 -0.1646  0.3342
 6423SOL     OW30730   2.959   3.229   2.910 -0.1053  0.2105 -0.3140
 6423SOL    HW130731   2.937   3.136   2.904 -3.0326  0.7063  3.1107
 6423SOL    HW230732   2.884   3.282   2.884  0.6146  1.7371  0.7081
 6424SOL     OW30733   2.646   0.848   8.425 -0.2854  0.1730  0.5538
 6424SOL    HW130734   2.704   0.922   8.408  0.8730 -1.3536 -2.1667
 6424SOL    HW230735   2.595   0.879   8.500  0.4651  2.2996  0.2013
 6425SOL     OW30736   2.011   2.779   0.598 -0.3685  0.2193 -0.2062
 6425SOL    HW130737   1.923   2.741   0.600 -1.5979  3.3066  3.6683
 6425SOL    HW230738   2.027   2.812   0.686  0.5774 -2.9858  0.8333
 6426SOL     OW30739   3.721   3.723  13.177 -0.4331  0.1304 -0.4349
 6426SOL    HW130740   3.770   3.805  13.187  0.1884 -0.3771  0.7255
 6426SOL    HW230741   3.637   3.742  13.218  0.6769  1.5147  1.2032
 6427SOL     OW30742   2.704   1.051   0.152  0.3902  0.1108  0.0929
 6427SOL    HW130743   2.671   0.972   0.110  0.1373  0.1054  0.3026
 6427SOL    HW230744   2.701   1.123   0.089  0.7479 -1.4978 -1.7408
 6428SOL     OW30745   3.709   2.705  16.351  0.2144 -0.0822 -0.3031
 6428SOL    HW130746   3.652   2.756  16.407  0.4590 -1.7661  1.4690
 6428SOL    HW230747   3.778   2.767  16.325  1.7006 -1.0272  1.3438
 6429SOL     OW30748   3.224   3.709   7.635 -0.1291 -0.4904 -0.1519
 6429SOL    HW130749   3.158   3.779   7.633  0.5648  0.1958  0.7332
 6429SOL    HW230750   3.286   3.752   7.694 -0.2949 -1.8351  1.0053
 6430SOL     OW30751   0.183   2.991   8.634  0.5690  0.2639 -0.0449
 6430SOL    HW130752   0.153   2.902   8.654 -0.4295  1.3308  3.1194
 6430SOL    HW230753   0.128   3.040   8.696 -1.9008  0.0505 -2.0478
 6431SOL     OW30754   2.000   0.427   2.859 -0.5436 -0.6845  0.0717
 6431SOL    HW130755   2.015   0.429   2.953 -0.4056  0.8239  0.0182
 6431SOL    HW230756   2.091   0.422   2.829 -0.9198 -2.9314 -0.6949
 6432SOL     OW30757   0.956   0.318   7.657  0.0729  0.6400 -0.1236
 6432SOL    HW130758   1.030   0.257   7.658 -1.4060 -1.1338  0.6568
 6432SOL    HW230759   0.937   0.310   7.751  1.0323  0.2297  0.0352
 6433SOL     OW30760   2.898   0.638  11.913  0.0307 -0.2218 -0.0947
 6433SOL    HW130761   2.843   0.715  11.899 -1.0334 -0.9721 -0.0994
 6433SOL    HW230762   2.852   0.575  11.857 -0.0751  0.7138 -1.0449
 6434SOL     OW30763   0.128   3.845  15.064 -0.3525  0.1023  0.0899
 6434SOL    HW130764   0.179   3.786  15.008  3.8935  2.1757  1.8060
 6434SOL    HW230765   0.185   3.877  15.134 -1.2063  1.2896  0.2607
 6435SOL     OW30766   1.175   3.277   9.745  0.0529  0.1892  0.5368
 6435SOL    HW130767   1.167   3.201   9.803  1.1443  1.1075  1.9231
 6435SOL    HW230768   1.270   3.268   9.730 -0.3203  0.5969 -2.0510
 6436SOL     OW30769   0.132   0.630   3.911  0.1441  0.6393 -0.2288
 6436SOL    HW130770   0.177   0.549   3.886 -2.3749 -1.1885  1.2201
 6436SOL    HW230771   0.087   0.664   3.835 -1.4533 -2.7145 -0.7882
 6437SOL     OW30772   3.908   2.196  13.753  0.2614 -0.2477 -0.3274
 6437SOL    HW130773   3.941   2.261  13.815  0.0665  0.1459 -0.6381
 6437SOL    HW230774   3.979   2.133  13.745  0.6224 -0.1523  1.9831
 6438SOL     OW30775   3.535   0.437   7.582  0.0071 -0.2222 -0.3740
 6438SOL    HW130776   3.528   0.467   7.673  0.0903  0.4339 -0.5853
 6438SOL    HW230777   3.620   0.392   7.585 -1.2711 -2.5572  1.5263
 6439SOL     OW30778   1.535   0.609   8.319  0.0187  0.5159 -0.9384
 6439SOL    HW130779   1.481   0.577   8.247 -0.0576 -0.1846 -0.5659
 6439SOL    HW230780   1.525   0.536   8.380  0.0400  0.1087 -1.4223
 6440SOL     OW30781   1.539   4.141  15.065 -0.5826  0.2416 -0.0693
 6440SOL    HW130782   1.558   4.059  15.021  0.2505 -0.1765  1.0606
 6440SOL    HW230783   1.500   4.111  15.148  2.0351  0.7263  1.3164
 6441SOL     OW30784   0.556   2.040   5.714 -0.2811  0.0435 -0.2485
 6441SOL    HW130785   0.530   2.107   5.778  1.9187 -0.0933  0.7793
 6441SOL    HW230786   0.541   1.966   5.773 -0.2740 -1.4798 -2.1766
 6442SOL     OW30787   0.131   1.078   6.717  0.7597  0.1298 -0.3956
 6442SOL    HW130788   0.180   1.149   6.675  2.9339  1.0422  3.6650
 6442SOL    HW230789   0.185   1.002   6.697  0.4401 -0.6178  1.6023
 6443SOL     OW30790   3.413   4.619   2.419 -0.1774 -0.2681  0.2740
 6443SOL    HW130791   3.461   4.568   2.353 -0.4922  0.4213 -0.4928
 6443SOL    HW230792   3.329   4.619   2.373 -0.7494 -0.8805  1.3266
 6444SOL     OW30793   4.581   0.685  12.678 -0.2964 -0.1201  0.1053
 6444SOL    HW130794   4.676   0.697  12.675 -0.1824 -1.0856 -0.0535
 6444SOL    HW230795   4.555   0.775  12.699 -0.9134  0.3633 -2.7311
 6445SOL     OW30796   1.509   4.139   1.770 -0.8232 -0.1275 -0.7609
 6445SOL    HW130797   1.509   4.229   1.740 -0.3326  0.3652  0.6991
 6445SOL    HW230798   1.453   4.086   1.713 -0.8452 -1.9849  0.9845
 6446SOL     OW30799   3.893   2.423   4.138 -0.0261 -0.0040  0.0515
 6446SOL    HW130800   3.921   2.502   4.092 -0.7360 -0.0950 -0.5191
 6446SOL    HW230801   3.946   2.354   4.097  0.7552 -0.1300  1.2506
 6447SOL     OW30802   2.906   1.545  11.836 -0.4971  0.3212 -0.1246
 6447SOL    HW130803   2.934   1.510  11.920 -1.2749 -0.5207 -0.2169
 6447SOL    HW230804   2.936   1.474  11.779 -1.8686 -0.7070  0.4085
 6448SOL     OW30805   4.276   2.203   2.212  0.4205  0.0011  0.2805
 6448SOL    HW130806   4.193   2.168   2.244 -0.0922  0.3415 -0.6947
 6448SOL    HW230807   4.242   2.278   2.163  0.3846  1.3808  2.4062
 6449SOL     OW30808   0.316   2.936   5.584  0.0562  0.0800 -0.2024
 6449SOL    HW130809   0.329   2.849   5.545 -0.3915 -0.4476  0.8163
 6449SOL    HW230810   0.401   2.961   5.621 -0.4626  0.6668  0.5906
 6450SOL     OW30811   1.622   1.295   4.028 -0.6229 -0.4756 -0.0456
 6450SOL    HW130812   1.532   1.292   4.059 -1.0949  0.7048 -1.3099
 6450SOL    HW230813   1.665   1.356   4.088  1.5536 -0.5867 -1.4879
 6451SOL     OW30814   3.535   2.613   9.421  0.9400  0.0260  0.5654
 6451SOL    HW130815   3.540   2.685   9.483  0.7736 -0.3963  1.0629
 6451SOL    HW230816   3.476   2.558   9.473  1.1783  1.7437  2.6507
 6452SOL     OW30817   0.295   4.014   2.275  0.0327 -0.4331  0.4034
 6452SOL    HW130818   0.366   4.026   2.212  1.3178 -0.1212  1.8807
 6452SOL    HW230819   0.311   4.083   2.341  4.2917 -2.0753  1.1010
 6453SOL     OW30820   0.635   1.380   2.891 -0.4242 -0.6400  0.9038
 6453SOL    HW130821   0.621   1.320   2.965 -1.8058  0.4493  1.5370
 6453SOL    HW230822   0.681   1.320   2.832  0.8823  1.1356  0.1453
 6454SOL     OW30823   4.486   3.969   2.265 -0.3691  0.2391  0.1342
 6454SOL    HW130824   4.541   3.892   2.282  0.7166  1.0278  0.1473
 6454SOL    HW230825   4.402   3.924   2.255 -0.1891  0.1530 -0.9527
 6455SOL     OW30826   3.365   1.526   3.600  0.0243 -0.1212 -0.0855
 6455SOL    HW130827   3.395   1.599   3.654 -0.1250  1.4981 -2.1790
 6455SOL    HW230828   3.336   1.580   3.527 -1.1066 -0.6386 -0.0303
 6456SOL     OW30829   2.030   2.650  15.569 -0.0301  0.2220 -0.2528
 6456SOL    HW130830   1.951   2.603  15.542 -0.7485  0.6628  1.0950
 6456SOL    HW230831   2.090   2.582  15.600  1.1903  1.9845  1.2928
 6457SOL     OW30832   4.417   1.596   7.263  0.0477 -0.1063  0.4593
 6457SOL    HW130833   4.380   1.672   7.308  1.6369  0.4163  0.8947
 6457SOL    HW230834   4.338   1.546   7.244 -0.5339  1.8829 -2.5070
 6458SOL     OW30835   4.044   2.668   9.077 -0.2707  0.6799  0.1967
 6458SOL    HW130836   4.086   2.627   9.002  0.9240 -0.9100  1.7483
 6458SOL    HW230837   3.964   2.617   9.082 -0.2303  0.6208  0.2370
 6459SOL     OW30838   2.216   4.653  13.316 -0.1236  0.0379  0.4065
 6459SOL    HW130839   2.133   4.631  13.273  0.6474 -2.2358  0.0593
 6459SOL    HW230840   2.238   4.573  13.365  0.2854 -2.1072 -3.2858
 6460SOL     OW30841   1.427   1.305   2.681 -0.7885  0.0434  0.4346
 6460SOL    HW130842   1.379   1.349   2.610 -0.1182 -0.7300 -0.5130
 6460SOL    HW230843   1.482   1.246   2.629 -2.0195  0.9708 -1.9169
 6461SOL     OW30844   1.546   1.373   7.278 -0.6027 -0.0268 -0.1528
 6461SOL    HW130845   1.484   1.329   7.220  2.2562 -3.8520 -0.3175
 6461SOL    HW230846   1.534   1.307   7.345 -3.9416  0.5215 -0.1985
 6462SOL     OW30847   0.320   3.519   3.550 -0.4245  0.1836 -0.0329
 6462SOL    HW130848   0.266   3.597   3.557 -1.5448 -0.5226 -0.8269
 6462SOL    HW230849   0.285   3.484   3.468  0.6500  1.9973 -1.2735
 6463SOL     OW30850   0.192   3.068  14.663 -0.2382  0.1257  0.8343
 6463SOL    HW130851   0.274   3.083  14.615 -0.0139 -0.3537  1.0699
 6463SOL    HW230852   0.185   3.154  14.704  0.1287  0.0312  1.0960
 6464SOL     OW30853   0.623   0.665  17.259 -0.4798  0.2784 -0.3707
 6464SOL    HW130854   0.553   0.660  17.194 -1.0656  1.8805  0.1274
 6464SOL    HW230855   0.574   0.697  17.335  1.8472  1.5398  0.5958
 6465SOL     OW30856   0.824   4.587   3.890  0.4324  0.0089  0.5763
 6465SOL    HW130857   0.891   4.521   3.873 -1.2375 -1.9469  1.5651
 6465SOL    HW230858   0.839   4.646   3.816 -0.7304  2.0139  1.9553
 6466SOL     OW30859   4.369   1.128   8.051 -0.2172  0.1152  0.1571
 6466SOL    HW130860   4.283   1.140   8.011 -0.2720  1.6496  0.7425
 6466SOL    HW230861   4.409   1.214   8.061 -0.4473  0.1346  0.9038
 6467SOL     OW30862   3.805   1.452  16.288 -0.1972  0.4932  0.5518
 6467SOL    HW130863   3.813   1.537  16.244 -1.6625  0.3260 -0.0307
 6467SOL    HW230864   3.712   1.434  16.273 -0.2278  2.6531 -1.8487
 6468SOL     OW30865   3.319   0.776   2.990  0.0304 -0.2376  0.0261
 6468SOL    HW130866   3.350   0.861   2.959  1.4458 -0.6105  0.4053
 6468SOL    HW230867   3.387   0.761   3.056 -0.4524 -2.4226  0.0219
 6469SOL     OW30868   0.011   2.626   2.536 -0.5853  0.1576 -0.2659
 6469SOL    HW130869   4.658   2.585   2.503 -0.1957 -0.2316 -0.7417
 6469SOL    HW230870   0.071   2.624   2.461  0.7247  1.2854  0.7675
 6470SOL     OW30871   3.689   2.234   2.430  0.0280 -0.1923 -0.6308
 6470SOL    HW130872   3.610   2.181   2.426 -0.1829  0.0741  0.0484
 6470SOL    HW230873   3.712   2.236   2.337  1.6651 -1.7961 -0.2767
 6471SOL     OW30874   4.173   3.646   9.013 -0.1763 -0.3521  0.0614
 6471SOL    HW130875   4.171   3.736   9.044 -0.3213 -0.1075 -0.6635
 6471SOL    HW230876   4.149   3.606   9.097  1.3164 -1.8602 -0.2222
 6472SOL     OW30877   1.116   3.571  12.191 -0.1386 -0.0236 -0.1559
 6472SOL    HW130878   1.165   3.568  12.109  0.5788  0.3006  0.2580
 6472SOL    HW230879   1.032   3.528  12.174  1.3670 -2.4631 -1.4303
 6473SOL     OW30880   2.118   3.321   8.855 -0.2559 -0.3137 -0.0133
 6473SOL    HW130881   2.192   3.371   8.820  0.9145 -1.4167  0.8683
 6473SOL    HW230882   2.161   3.239   8.879  1.2209  0.1369 -1.1396
 6474SOL     OW30883   2.915   0.884  17.247 -0.5694 -0.1843  0.0472
 6474SOL    HW130884   3.004   0.850  17.251 -0.7166 -0.6632 -0.6715
 6474SOL    HW230885   2.883   0.839  17.168 -0.4551 -1.5281  0.7745
 6475SOL     OW30886   2.327   0.617   3.559 -0.3375 -0.3064  0.3275
 6475SOL    HW130887   2.240   0.648   3.583 -0.8629 -1.0370 -0.6309
 6475SOL    HW230888   2.339   0.667   3.478  2.7563  0.5779  1.3381
 6476SOL     OW30889   1.186   3.028   2.626 -0.4240  0.0121  0.3960
 6476SOL    HW130890   1.219   2.947   2.665  2.0125  0.8693  0.1435
 6476SOL    HW230891   1.256   3.049   2.563  0.0146  0.0333  0.8878
 6477SOL     OW30892   3.035   1.135  10.999 -0.5192 -0.0174  0.5418
 6477SOL    HW130893   2.989   1.219  10.994  0.9808  0.8137  0.7351
 6477SOL    HW230894   3.127   1.159  10.988 -0.7912  2.4278  3.3783
 6478SOL     OW30895   1.111   3.057  12.780  0.1818 -0.5298  0.4773
 6478SOL    HW130896   1.136   3.142  12.816  0.0896 -0.5057  0.4838
 6478SOL    HW230897   1.163   2.993  12.830 -0.2450 -0.9256  0.4167
 6479SOL     OW30898   1.279   1.083   1.060  0.4240 -0.3733 -0.5330
 6479SOL    HW130899   1.209   1.019   1.073 -0.2455  0.2075 -1.2377
 6479SOL    HW230900   1.261   1.132   0.979  0.8663 -1.7390 -1.4585
 6480SOL     OW30901   3.323   4.571   4.289 -0.0205 -0.1999  0.2215
 6480SOL    HW130902   3.317   4.637   4.358 -1.1947 -0.5998  0.5063
 6480SOL    HW230903   3.241   4.521   4.300 -0.9198  1.8824  2.8460
 6481SOL     OW30904   2.654   3.276   5.245 -0.4156  0.2607 -0.4992
 6481SOL    HW130905   2.680   3.367   5.230  0.5023  0.0979  0.1311
 6481SOL    HW230906   2.735   3.236   5.275  0.3750  2.0895 -0.1768
 6482SOL     OW30907   2.805   4.594  15.931 -0.6496 -0.2700 -0.1551
 6482SOL    HW130908   2.881   4.647  15.904  0.1840 -2.0579 -1.2901
 6482SOL    HW230909   2.799   4.519  15.872 -2.5014  0.8067 -1.3445
 6483SOL     OW30910   0.992   0.898  17.517  0.2656 -0.0775  0.0694
 6483SOL    HW130911   0.963   0.913  17.607  1.2478 -0.2819  0.4144
 6483SOL    HW230912   1.084   0.881  17.537  0.5253  1.3087  0.0492
 6484SOL     OW30913   0.169   4.203   1.101  0.5168  0.2034  0.1884
 6484SOL    HW130914   0.132   4.208   1.189 -1.1956 -2.5376 -0.3590
 6484SOL    HW230915   0.161   4.291   1.065 -0.0741 -1.0102 -2.6996
 6485SOL     OW30916   3.063   2.811  17.293 -0.3358 -0.0951  0.3496
 6485SOL    HW130917   3.156   2.793  17.275  0.2404 -1.3797  4.6603
 6485SOL    HW230918   3.033   2.723  17.315 -1.7296  0.5788  1.1020
 6486SOL     OW30919   3.089   0.668   3.373  0.8918  0.6426  0.4380
 6486SOL    HW130920   3.071   0.617   3.452  3.1732  2.2637  2.0007
 6486SOL    HW230921   3.149   0.618   3.317  0.1745  0.8849 -0.5568
 6487SOL     OW30922   4.640   1.017   6.895  0.1477 -0.1135  0.2544
 6487SOL    HW130923   4.656   0.949   6.961  2.0971  0.0270 -0.0954
 6487SOL    HW230924   4.722   1.021   6.846 -1.3933  1.8535 -2.1612
 6488SOL     OW30925   0.864   2.185   3.848 -0.3810 -0.3229 -0.1398
 6488SOL    HW130926   0.959   2.193   3.844 -0.2582 -0.6537  2.3052
 6488SOL    HW230927   0.840   2.114   3.908 -1.3505 -2.1697 -2.7317
 6489SOL     OW30928   3.961   1.680   1.741 -0.3027  0.4034  0.6263
 6489SOL    HW130929   4.023   1.744   1.775 -0.9423  1.4960 -0.2674
 6489SOL    HW230930   3.884   1.736   1.730 -1.2846 -1.4451 -1.8951
 6490SOL     OW30931   2.256   2.957   4.844 -0.6174  0.0024  0.5493
 6490SOL    HW130932   2.330   2.920   4.894 -0.2280  0.7272  0.5151
 6490SOL    HW230933   2.281   2.935   4.754 -0.0132  0.9429  0.4876
 6491SOL     OW30934   2.980   0.943   7.654  0.2588  0.0837  0.0118
 6491SOL    HW130935   2.903   0.966   7.706  0.2599  2.7728 -1.2114
 6491SOL    HW230936   2.981   1.013   7.589  2.0617  1.3438  1.4188
 6492SOL     OW30937   1.712   1.981  14.099  0.3384  0.0015  0.0561
 6492SOL    HW130938   1.728   1.966  14.006 -0.1442 -3.9774  0.6081
 6492SOL    HW230939   1.754   2.065  14.115  0.8385 -0.2860  0.2304
 6493SOL     OW30940   2.546   2.930   5.145 -0.0230  0.1753  0.6398
 6493SOL    HW130941   2.627   2.901   5.186  0.3042 -0.6457 -0.5982
 6493SOL    HW230942   2.483   2.872   5.188  1.5319 -1.6393  0.4740
 6494SOL     OW30943   3.442   1.030   2.861 -0.2945  0.0383 -0.1010
 6494SOL    HW130944   3.506   1.093   2.826 -0.5880 -0.9775 -2.5069
 6494SOL    HW230945   3.489   0.947   2.850 -1.8371 -1.1398  2.3531
 6495SOL     OW30946   3.658   3.344   2.210 -0.7034 -0.3433 -0.2067
 6495SOL    HW130947   3.614   3.276   2.158  0.4772 -0.6068 -0.8637
 6495SOL    HW230948   3.748   3.323   2.183 -0.9874 -0.3384 -1.1516
 6496SOL     OW30949   1.301   1.701   8.235  0.0569  0.0121  0.0472
 6496SOL    HW130950   1.310   1.796   8.227 -4.1243  0.5237  1.4452
 6496SOL    HW230951   1.221   1.678   8.187  0.4073 -1.0277 -0.0547
 6497SOL     OW30952   0.657   2.842   2.393  0.2738 -0.2491  0.0592
 6497SOL    HW130953   0.723   2.792   2.442  0.0894  0.1397  0.7070
 6497SOL    HW230954   0.709   2.913   2.356 -0.5636 -0.9832 -2.5644
 6498SOL     OW30955   1.080   3.386   1.537 -0.2313  0.2156 -0.1641
 6498SOL    HW130956   1.113   3.310   1.489 -0.0714  0.0679  0.1810
 6498SOL    HW230957   1.107   3.464   1.489 -1.7590  1.0930  0.3853
 6499SOL     OW30958   4.211   0.608   3.552  0.4991  0.6121  0.3479
 6499SOL    HW130959   4.148   0.668   3.510  1.1625 -1.2061 -3.2188
 6499SOL    HW230960   4.285   0.623   3.494 -0.8794  0.1161 -1.5310
 6500SOL     OW30961   2.877   1.814  11.842  0.5794  0.4440  0.3563
 6500SOL    HW130962   2.794   1.801  11.889 -0.7220  0.5760 -1.8765
 6500SOL    HW230963   2.899   1.723  11.821 -2.2140  0.1497 -1.4126
 6501SOL     OW30964   3.298   2.789   7.696  0.1835  0.0018 -0.0020
 6501SOL    HW130965   3.281   2.696   7.706  2.2564 -0.1701  1.6855
 6501SOL    HW230966   3.371   2.813   7.753 -0.5761  2.7954 -0.1548
 6502SOL     OW30967   3.214   0.876   3.744 -0.7735 -0.5720  0.2675
 6502SOL    HW130968   3.188   0.821   3.817 -0.2610  0.0736  0.9302
 6502SOL    HW230969   3.247   0.814   3.679 -1.2174 -0.4522 -0.0777
 6503SOL     OW30970   4.221   3.752   0.765  0.0463  0.3684 -0.3231
 6503SOL    HW130971   4.290   3.741   0.700  0.5086  2.8679 -0.2337
 6503SOL    HW230972   4.144   3.767   0.710  0.9636 -1.7417 -2.1855
 6504SOL     OW30973   0.817   3.076   2.007 -0.0622 -0.1451  0.3615
 6504SOL    HW130974   0.894   3.026   2.034 -0.4793  0.5662  2.7752
 6504SOL    HW230975   0.742   3.020   2.024 -1.1605  1.1703 -0.1248
 6505SOL     OW30976   0.018   3.715  10.693 -0.2699 -0.1002 -0.2898
 6505SOL    HW130977   4.727   3.643  10.753  0.3443 -0.7392 -0.8703
 6505SOL    HW230978   0.111   3.710  10.671 -0.2275  2.0659 -0.6439
 6506SOL     OW30979   4.564   2.331   8.312  0.4731  0.2520  1.0321
 6506SOL    HW130980   4.509   2.380   8.250 -0.4593 -2.1888 -0.1033
 6506SOL    HW230981   4.523   2.364   8.392  0.0818 -0.5646  1.1666
 6507SOL     OW30982   0.346   0.013   5.114  0.4676  0.0212  0.2653
 6507SOL    HW130983   0.302   4.675   5.059 -0.9607  0.9419  0.3393
 6507SOL    HW230984   0.428   0.020   5.065  0.3669  0.8328  0.2179
 6508SOL     OW30985   3.557   0.664   9.528  0.1636 -0.1058 -0.2737
 6508SOL    HW130986   3.607   0.584   9.543 -1.6691 -1.0154  0.9806
 6508SOL    HW230987   3.513   0.658   9.613  2.8453  2.1004  1.2781
 6509SOL     OW30988   3.816   2.629   7.124 -0.0104 -0.1532  0.4205
 6509SOL    HW130989   3.894   2.601   7.076  0.3878  0.2993  0.8085
 6509SOL    HW230990   3.859   2.694   7.180  1.9941  2.2704 -3.9548
 6510SOL     OW30991   3.961   2.389   0.783  0.1064  0.1829 -0.6870
 6510SOL    HW130992   3.918   2.389   0.697 -4.4700 -0.0097  1.5884
 6510SOL    HW230993   3.929   2.469   0.825 -2.2200 -1.1053 -0.0034
 6511SOL     OW30994   1.439   1.664   1.304 -0.6960  0.2822 -0.3228
 6511SOL    HW130995   1.429   1.745   1.254  0.4389  0.1181 -0.8174
 6511SOL    HW230996   1.534   1.664   1.292 -0.7415  2.5908 -0.5721
 6512SOL     OW30997   3.400   3.339   6.168  0.0175  0.3786 -0.1339
 6512SOL    HW130998   3.437   3.251   6.166 -0.2768  0.2036  2.1661
 6512SOL    HW230999   3.309   3.327   6.194 -0.8231  1.4887 -2.5122
 6513SOL     OW31000   4.419   1.919   2.398 -0.3392  0.0309 -0.1776
 6513SOL    HW131001   4.504   1.886   2.429  1.3906  1.2311 -3.6471
 6513SOL    HW231002   4.403   1.999   2.447  0.7008  1.4714 -2.1775
 6514SOL     OW31003   0.494   1.289   9.068 -0.6864 -0.1310  0.2938
 6514SOL    HW131004   0.534   1.252   8.989  0.5025 -0.5398  1.0944
 6514SOL    HW231005   0.559   1.293   9.137  0.5116 -0.9214 -0.7930
 6515SOL     OW31006   2.050   1.295   9.710 -0.0191 -0.1364 -0.0279
 6515SOL    HW131007   2.029   1.330   9.797 -1.1208 -0.2925 -0.2301
 6515SOL    HW231008   2.122   1.239   9.740  0.1194  1.5577  2.8004
 6516SOL     OW31009   1.344   2.746   1.759 -0.6286  0.5808  0.1451
 6516SOL    HW131010   1.280   2.812   1.785 -1.0046  0.5793 -0.7686
 6516SOL    HW231011   1.275   2.686   1.731 -0.4365  1.1908 -1.6475
 6517SOL     OW31012   3.629   3.985   6.824  0.0872 -0.7264  0.0715
 6517SOL    HW131013   3.691   3.994   6.897 -0.8680 -0.0362  0.8001
 6517SOL    HW231014   3.563   4.052   6.840  0.7293  0.0570 -0.5900
 6518SOL     OW31015   2.399   4.705   4.834  0.7172  0.4949  0.4993
 6518SOL    HW131016   2.489   4.703   4.865  1.4980 -0.6085 -1.7834
 6518SOL    HW231017   2.398   0.025   4.751 -0.2074  0.7870  0.6702
 6519SOL     OW31018   2.513   2.978   8.353  0.4385 -0.0141  0.0248
 6519SOL    HW131019   2.531   2.932   8.435  0.5505  1.2762  0.7309
 6519SOL    HW231020   2.450   3.044   8.380 -1.6173 -1.5336 -1.0635
 6520SOL     OW31021   4.550   1.070   5.031  0.3218 -0.1031 -0.4114
 6520SOL    HW131022   4.554   1.098   4.940  3.8364 -1.1559 -0.5897
 6520SOL    HW231023   4.505   1.144   5.070 -0.4240 -0.6338 -0.2776
 6521SOL     OW31024   4.316   1.528   4.590 -0.3692  0.0843  0.3827
 6521SOL    HW131025   4.242   1.475   4.562  0.4098 -0.7910 -0.0203
 6521SOL    HW231026   4.366   1.530   4.508  0.1495 -0.1350  0.6923
 6522SOL     OW31027   0.600   1.363   5.576 -0.0577 -0.1988 -0.1526
 6522SOL    HW131028   0.512   1.332   5.554  0.7407 -1.3147 -1.7728
 6522SOL    HW231029   0.567   1.401   5.657 -0.3632  1.8090 -1.2232
 6523SOL     OW31030   4.269   2.855   4.658 -0.4637  0.5844 -0.3610
 6523SOL    HW131031   4.296   2.936   4.615 -1.6282  1.4150  0.4832
 6523SOL    HW231032   4.338   2.799   4.621  0.3662  2.3732 -1.5029
 6524SOL     OW31033   0.302   2.598   7.469  0.3725 -1.6279  0.1343
 6524SOL    HW131034   0.344   2.586   7.383 -1.0386  1.4792 -1.0083
 6524SOL    HW231035   0.334   2.522   7.517 -0.0279 -1.8520  0.0482
 6525SOL     OW31036   2.697   4.646   5.252  0.0511 -0.1811 -0.1459
 6525SOL    HW131037   2.648   4.717   5.295  1.3431 -1.4320  3.3957
 6525SOL    HW231038   2.754   4.611   5.320 -1.7645 -1.1147  0.8923
 6526SOL     OW31039   0.628   2.635   4.634  0.5371  0.0214 -0.5751
 6526SOL    HW131040   0.537   2.640   4.665  0.9826  0.4143  0.6754
 6526SOL    HW231041   0.639   2.727   4.608  0.6634  0.1794  0.0436
 6527SOL     OW31042   0.529   0.078   4.021  0.2716  0.0231  0.2816
 6527SOL    HW131043   0.485   0.155   3.985  2.5746  1.6136  0.8796
 6527SOL    HW231044   0.554   0.026   3.945  1.3173 -1.5559  1.7063
 6528SOL     OW31045   3.101   3.183   8.846  0.1641 -0.1957  0.1224
 6528SOL    HW131046   3.125   3.196   8.937  1.3454  1.3987 -0.4098
 6528SOL    HW231047   3.017   3.137   8.854 -0.1564  0.6441  1.4107
 6529SOL     OW31048   4.623   3.440   5.781 -0.7929 -0.2438  0.2192
 6529SOL    HW131049   4.675   3.388   5.720 -0.0856  0.7048  0.0199
 6529SOL    HW231050   4.655   3.413   5.867  0.9515  0.9913 -0.0431
 6530SOL     OW31051   1.211   0.350   8.194 -0.0912  0.2107 -0.4922
 6530SOL    HW131052   1.153   0.411   8.240  0.1564 -0.3365  0.5332
 6530SOL    HW231053   1.221   0.291   8.269 -1.5741  0.6050  0.0224
 6531SOL     OW31054   0.302   4.102   7.736 -0.1588  0.2419  0.1342
 6531SOL    HW131055   0.227   4.150   7.700 -0.6798  0.2634  1.2526
 6531SOL    HW231056   0.304   4.134   7.826  0.0125 -0.8083  0.4974
 6532SOL     OW31057   0.753   2.440   1.910  0.3846 -0.1522  0.1482
 6532SOL    HW131058   0.735   2.527   1.875  1.3282  0.0614  0.1795
 6532SOL    HW231059   0.712   2.439   1.996  0.8969  3.5183  0.4345
 6533SOL     OW31060   3.289   3.245   5.120 -0.4522  0.3929  0.2577
 6533SOL    HW131061   3.298   3.340   5.106 -1.0349  0.3441 -0.4993
 6533SOL    HW231062   3.282   3.248   5.215  0.7242  0.5476  0.3377
 6534SOL     OW31063   0.362   0.248   6.489  0.2154 -0.6591  0.3108
 6534SOL    HW131064   0.282   0.196   6.487 -0.7375  0.6389  4.0395
 6534SOL    HW231065   0.375   0.249   6.394 -2.1425  0.3358 -0.0160
 6535SOL     OW31066   1.134   3.988   6.063  0.6704  0.4206  0.1190
 6535SOL    HW131067   1.043   4.016   6.063  0.9144  1.2160 -0.9451
 6535SOL    HW231068   1.121   3.901   6.025  1.7655 -0.0810  0.8839
 6536SOL     OW31069   3.698   4.607   6.836 -0.1469  0.2207  0.3018
 6536SOL    HW131070   3.621   4.630   6.889  0.3359 -0.9236  1.4929
 6536SOL    HW231071   3.694   4.513   6.823  1.0522  0.5022 -2.0228
 6537SOL     OW31072   3.529   0.475   1.504  0.2833 -0.5108 -0.7055
 6537SOL    HW131073   3.483   0.394   1.481  1.9561 -1.9453  1.0043
 6537SOL    HW231074   3.574   0.493   1.421 -0.0071 -0.6763 -0.9027
 6538SOL     OW31075   2.493   2.189   7.004  0.2081 -0.0730  0.2156
 6538SOL    HW131076   2.468   2.096   7.000 -0.7571  0.2507 -1.3240
 6538SOL    HW231077   2.524   2.202   6.915 -1.4937 -1.0278 -0.5208
 6539SOL     OW31078   4.713   1.344   0.482 -0.1291 -0.1490 -0.3927
 6539SOL    HW131079   0.058   1.335   0.420 -1.3988  0.6840 -1.9948
 6539SOL    HW231080   0.019   1.408   0.545 -2.0896  0.2027  0.3003
 6540SOL     OW31081   4.057   0.843   3.418  0.0880  0.2393 -0.7886
 6540SOL    HW131082   4.052   0.882   3.505 -0.0381 -0.3761 -0.5187
 6540SOL    HW231083   3.989   0.889   3.369 -0.1261  0.3044 -0.4350
 6541SOL     OW31084   1.362   0.484   5.528  0.0198 -0.0486 -0.1942
 6541SOL    HW131085   1.446   0.517   5.498 -0.3251  1.9495  1.0544
 6541SOL    HW231086   1.362   0.393   5.499  0.5812 -0.7774  2.0818
 6542SOL     OW31087   3.310   0.868  17.523 -0.1326  0.2848  0.4787
 6542SOL    HW131088   3.235   0.843  17.469 -2.1369  0.6958  3.0631
 6542SOL    HW231089   3.333   0.787  17.568  2.6976  1.7009  1.6224
 6543SOL     OW31090   4.595   2.058   3.036  0.2516 -0.3715 -0.2697
 6543SOL    HW131091   4.595   2.124   2.968 -0.4184  0.1840  0.2636
 6543SOL    HW231092   4.502   2.034   3.043 -0.2038  1.3754 -0.3346
 6544SOL     OW31093   3.452   2.098   5.945 -0.4462  0.2866  0.0422
 6544SOL    HW131094   3.408   2.047   6.012 -1.5525  1.1290 -0.0429
 6544SOL    HW231095   3.383   2.144   5.899 -1.0136  0.5032  1.1103
 6545SOL     OW31096   0.562   3.692  11.841 -0.0839 -0.6308  0.6117
 6545SOL    HW131097   0.584   3.624  11.905  0.6905 -0.0046  1.0186
 6545SOL    HW231098   0.492   3.662  11.784 -1.1503  0.0771  1.5352
 6546SOL     OW31099   3.602   3.991   7.603  0.5241 -0.0346  0.6981
 6546SOL    HW131100   3.690   3.999   7.567  0.8420 -0.0860  1.4590
 6546SOL    HW231101   3.560   4.053   7.544  1.9256  0.4853  0.2600
 6547SOL     OW31102   0.395   3.892  12.740  0.3607 -0.2165  0.3237
 6547SOL    HW131103   0.360   3.859  12.823  0.4591  0.6258  0.7071
 6547SOL    HW231104   0.403   3.814  12.685 -2.3821  0.1367 -0.5807
 6548SOL     OW31105   0.939   4.447   1.966 -0.2150  0.2938  0.7387
 6548SOL    HW131106   0.936   4.354   1.943 -2.6153 -0.0873  2.5900
 6548SOL    HW231107   0.987   4.491   1.896 -1.7991 -2.0876 -1.8548
 6549SOL     OW31108   1.130   4.431  17.509  0.2738  0.1571 -0.3945
 6549SOL    HW131109   1.040   4.454  17.490 -0.3706 -1.7046  0.4161
 6549SOL    HW231110   1.174   4.441  17.424  1.5524 -1.1052  0.1147
 6550SOL     OW31111   3.757   0.848  14.530  0.2858  0.4065 -0.1079
 6550SOL    HW131112   3.758   0.931  14.578 -0.3034  0.6733 -0.5564
 6550SOL    HW231113   3.667   0.831  14.505 -0.2503  0.8259  1.5498
 6551SOL     OW31114   4.165   3.594  15.337 -0.2605  0.3579 -0.0912
 6551SOL    HW131115   4.082   3.586  15.383  1.2554  1.7622  2.9056
 6551SOL    HW231116   4.230   3.573  15.404 -0.7324 -3.1113 -0.7086
 6552SOL     OW31117   1.484   0.868   8.790 -0.5312  0.3988  0.5273
 6552SOL    HW131118   1.404   0.824   8.764 -0.1946 -0.0747  0.2927
 6552SOL    HW231119   1.459   0.936   8.853 -2.4394  1.1550 -1.0395
 6553SOL     OW31120   1.303   2.528  12.494 -0.1493  0.0933  0.1508
 6553SOL    HW131121   1.395   2.554  12.503  0.1088 -0.7347 -0.0437
 6553SOL    HW231122   1.304   2.433  12.509 -2.5629  0.2029  1.0142
 6554SOL     OW31123   3.331   2.941   0.540 -0.5964  0.5392 -0.7929
 6554SOL    HW131124   3.287   2.858   0.560  0.0468  0.8353  1.8079
 6554SOL    HW231125   3.269   2.977   0.477  0.1044  2.7469 -0.2118
 6555SOL     OW31126   3.717   1.625   6.373 -0.0279  0.6818  0.3154
 6555SOL    HW131127   3.626   1.625   6.400  0.5883  1.4334  2.4079
 6555SOL    HW231128   3.710   1.691   6.305  3.5778 -2.0724 -2.7422
 6556SOL     OW31129   2.896   2.529   0.873  0.0783  0.0730 -0.4444
 6556SOL    HW131130   2.852   2.460   0.923  0.4213  0.1937  0.0156
 6556SOL    HW231131   2.973   2.544   0.928 -1.1262 -0.9957  1.5481
 6557SOL     OW31132   0.204   3.206   8.861  0.0390 -0.8506  0.0137
 6557SOL    HW131133   0.234   3.247   8.942 -0.7342  0.0477 -0.1556
 6557SOL    HW231134   0.238   3.117   8.870  1.1880 -0.5819 -1.4834
 6558SOL     OW31135   0.891   4.499   2.699 -0.3625 -0.0469  0.1448
 6558SOL    HW131136   0.931   4.425   2.745 -0.1835 -0.4441 -0.6396
 6558SOL    HW231137   0.848   4.552   2.766 -1.1522 -0.4631 -0.0342
 6559SOL     OW31138   3.039   1.375  16.273 -0.1553 -0.3809  0.3080
 6559SOL    HW131139   3.076   1.351  16.188 -3.9987 -1.0359 -1.1849
 6559SOL    HW231140   3.103   1.325  16.323 -1.7047 -2.4929  0.2020
 6560SOL     OW31141   2.037   1.450   6.027  0.3926 -0.4379 -0.6204
 6560SOL    HW131142   1.982   1.521   5.993 -0.1490 -0.0752  1.0090
 6560SOL    HW231143   1.979   1.391   6.076  2.8096 -1.3415  1.1504
 6561SOL     OW31144   3.382   4.276  16.151 -0.3881  0.3628  0.0644
 6561SOL    HW131145   3.336   4.280  16.067  1.2755  1.5831 -0.8031
 6561SOL    HW231146   3.365   4.364  16.184  0.6451  0.6563 -0.2020
 6562SOL     OW31147   0.187   3.688   0.015  0.2084  0.0572 -0.0219
 6562SOL    HW131148   0.134   3.646  17.656  1.6961 -0.2782 -0.9855
 6562SOL    HW231149   0.202   3.618   0.080  0.0924  1.7482  1.8294
 6563SOL     OW31150   0.327   4.311  15.918 -0.1795  0.5857  0.1917
 6563SOL    HW131151   0.328   4.246  15.848 -1.2539  0.4955  0.2629
 6563SOL    HW231152   0.256   4.275  15.973 -0.4843  3.4464  1.6593
 6564SOL     OW31153   1.462   3.117  14.261 -0.0035  0.0045 -0.1362
 6564SOL    HW131154   1.378   3.121  14.214 -0.1581 -2.0202 -0.0098
 6564SOL    HW231155   1.518   3.160  14.196  1.5514 -0.6123  0.8035
 6565SOL     OW31156   0.508   1.239  13.560  0.1527 -0.9497  0.4766
 6565SOL    HW131157   0.594   1.198  13.565 -0.1265 -1.6635 -0.6318
 6565SOL    HW231158   0.474   1.205  13.477 -3.2735  1.0816  1.0224
 6566SOL     OW31159   4.229   2.870   8.633  0.3591  0.2649  0.0700
 6566SOL    HW131160   4.267   2.802   8.689 -0.3909  0.6739  1.0733
 6566SOL    HW231161   4.145   2.879   8.678  0.3215 -0.9571  0.2599
 6567SOL     OW31162   2.377   3.051   1.212  0.0585  0.2828  0.3378
 6567SOL    HW131163   2.356   3.028   1.303  1.3154  1.3933  0.8913
 6567SOL    HW231164   2.287   3.043   1.179 -0.3508 -0.2294  1.5776
 6568SOL     OW31165   2.428   0.053   4.365 -0.4032 -0.1433 -0.0149
 6568SOL    HW131166   2.383   0.082   4.445  2.4279  0.0621  1.5224
 6568SOL    HW231167   2.468   0.137   4.342  0.5688 -0.6161 -0.0463
 6569SOL     OW31168   1.294   2.888   6.673  0.2379 -0.7558  0.1917
 6569SOL    HW131169   1.255   2.914   6.756  1.3160 -1.0506  0.8022
 6569SOL    HW231170   1.343   2.808   6.692 -0.2007 -0.8953  0.7147
 6570SOL     OW31171   4.524   3.533  15.290 -0.6478  0.2420 -0.3134
 6570SOL    HW131172   4.469   3.548  15.367  0.2092  1.4974  0.0475
 6570SOL    HW231173   4.552   3.624  15.278  1.0968 -0.2684  0.0153
 6571SOL     OW31174   3.453   1.176  11.913  0.1749  0.1213  0.4078
 6571SOL    HW131175   3.523   1.215  11.966  0.2125 -1.5809  1.6236
 6571SOL    HW231176   3.392   1.248  11.903  0.2096  0.0601 -0.2693
 6572SOL     OW31177   0.737   1.246   9.181  0.1742  1.1566  0.3989
 6572SOL    HW131178   0.782   1.324   9.214 -1.9749  1.7868  1.8276
 6572SOL    HW231179   0.791   1.227   9.104  0.0628  0.4526  0.5002
 6573SOL     OW31180   3.898   2.996   7.502 -0.0728  0.0258 -0.0701
 6573SOL    HW131181   3.927   2.905   7.494  1.1352  0.2584  1.5457
 6573SOL    HW231182   3.812   2.974   7.537  0.0443  1.4351  1.0981
 6574SOL     OW31183   0.328   3.664  15.241 -0.1577  0.0459 -0.0113
 6574SOL    HW131184   0.266   3.593  15.255 -0.1106  0.3402  1.6899
 6574SOL    HW231185   0.312   3.707  15.325 -0.9036  1.1439 -0.7075
 6575SOL     OW31186   1.378   3.278  11.288  0.3414  0.2947 -0.4052
 6575SOL    HW131187   1.293   3.322  11.294 -0.1423 -0.5504 -1.1628
 6575SOL    HW231188   1.430   3.337  11.343  1.7479 -0.6215 -0.7700
 6576SOL     OW31189   2.262   0.266   6.468 -0.2125  0.2925 -0.7671
 6576SOL    HW131190   2.235   0.231   6.553 -0.3110  0.9986 -0.5051
 6576SOL    HW231191   2.248   0.182   6.425  1.5204 -1.5431  2.2328
 6577SOL     OW31192   1.918   3.394   0.195 -0.4586  0.4829 -0.0612
 6577SOL    HW131193   1.978   3.364   0.127  1.4863 -0.9748  2.3067
 6577SOL    HW231194   1.874   3.312   0.216  1.5868 -0.1669  1.5819
 6578SOL     OW31195   1.424   3.543   6.859  0.0660  0.2987 -0.4102
 6578SOL    HW131196   1.427   3.493   6.777 -0.2176  0.1062 -0.3016
 6578SOL    HW231197   1.438   3.474   6.924 -0.7740 -0.2615 -0.8231
 6579SOL     OW31198   2.448   2.947   6.835 -0.2945 -0.5359 -0.5649
 6579SOL    HW131199   2.403   2.995   6.765  0.4749  0.8316 -0.1121
 6579SOL    HW231200   2.487   3.023   6.878 -0.8539 -0.3030 -0.4706
 6580SOL     OW31201   4.195   1.731   5.044 -0.0655 -0.2565 -0.0387
 6580SOL    HW131202   4.111   1.775   5.032  0.9417  1.3620 -1.1853
 6580SOL    HW231203   4.186   1.643   5.007 -1.9171  0.1135 -0.4468
 6581SOL     OW31204   0.597   2.449   5.206 -0.2261  0.7581  0.1372
 6581SOL    HW131205   0.619   2.371   5.257  1.4820  1.0434 -0.1660
 6581SOL    HW231206   0.670   2.434   5.146  1.4749  1.0357  2.1224
 6582SOL     OW31207   1.721   0.061   7.173  0.4682 -0.3271  0.3971
 6582SOL    HW131208   1.774   4.709   7.169  1.0377  0.0247  1.0691
 6582SOL    HW231209   1.657   0.038   7.241 -0.7597 -1.7810 -1.2490
 6583SOL     OW31210   2.391   4.172   1.247  0.5052 -0.3297 -0.7378
 6583SOL    HW131211   2.319   4.191   1.187 -0.1571  0.7223  0.3724
 6583SOL    HW231212   2.447   4.244   1.217 -0.9152  0.2850 -1.9251
 6584SOL     OW31213   0.500   1.898  10.401 -0.1152 -0.9170 -0.4521
 6584SOL    HW131214   0.475   1.918  10.492  2.2482  1.4413 -0.3179
 6584SOL    HW231215   0.527   1.807  10.412  3.2858  0.1138 -0.3349
 6585SOL     OW31216   2.440   1.709   3.721 -0.0216 -0.7622 -0.3648
 6585SOL    HW131217   2.526   1.671   3.703  0.3166 -0.1479 -0.0418
 6585SOL    HW231218   2.453   1.786   3.666  0.3383 -0.4639  0.1397
 6586SOL     OW31219   2.436   4.581   7.152 -0.1421  0.1960 -0.5572
 6586SOL    HW131220   2.421   4.519   7.081  1.4822  0.7218 -1.3506
 6586SOL    HW231221   2.491   4.533   7.215  0.9552 -1.0794 -2.4848
 6587SOL     OW31222   3.065   1.097   9.360  0.2770  0.0324 -0.3693
 6587SOL    HW131223   3.091   1.138   9.442 -2.4245 -0.1819  0.5949
 6587SOL    HW231224   2.970   1.086   9.369  0.6725 -1.5016  1.8215
 6588SOL     OW31225   0.161   4.318   8.102 -0.2488  0.4449  0.1949
 6588SOL    HW131226   0.078   4.364   8.087  0.5122  1.2834 -1.3710
 6588SOL    HW231227   0.217   4.395   8.104 -1.2188  1.1132  2.1036
 6589SOL     OW31228   0.002   4.025  14.363  0.3639  0.2113  0.2387
 6589SOL    HW131229   0.025   4.118  14.357  0.6654 -0.1080 -3.3071
 6589SOL    HW231230   0.033   4.015  14.453  1.1530 -1.6060 -0.2294
 6590SOL     OW31231   4.006   4.057   3.174  0.3031 -0.5661  0.3433
 6590SOL    HW131232   4.051   3.994   3.229  0.2987 -0.1247  0.8555
 6590SOL    HW231233   4.083   4.108   3.148  2.0879 -2.3800  2.1295
 6591SOL     OW31234   1.729   4.656   6.197 -0.1016 -0.4816 -0.4277
 6591SOL    HW131235   1.740   0.021   6.220  1.6984 -0.8444  0.1215
 6591SOL    HW231236   1.789   4.639   6.124  1.9731  0.4531  1.0654
 6592SOL     OW31237   4.120   2.742   4.271 -0.4218  0.3179  0.2786
 6592SOL    HW131238   4.197   2.701   4.310  0.0744  2.2869  1.4101
 6592SOL    HW231239   4.072   2.779   4.345 -3.4365 -1.0770 -0.9636
 6593SOL     OW31240   0.409   4.216  11.598 -0.1302 -0.1049 -0.4542
 6593SOL    HW131241   0.365   4.183  11.676 -1.8754 -4.5331 -3.3043
 6593SOL    HW231242   0.474   4.147  11.584  0.8701  1.1954 -2.2935
 6594SOL     OW31243   2.113   2.287  12.318  0.2311 -0.5507  0.5172
 6594SOL    HW131244   2.179   2.300  12.250  1.5122  0.3800  1.9445
 6594SOL    HW231245   2.045   2.354  12.310  0.2821 -0.6040 -0.4506
 6595SOL     OW31246   1.686   1.319   4.581  0.5234 -0.8708 -0.3917
 6595SOL    HW131247   1.639   1.269   4.514  0.6796  0.0729 -1.1949
 6595SOL    HW231248   1.628   1.393   4.599 -1.4227 -2.4703 -0.1374
 6596SOL     OW31249   1.130   0.465   0.866 -0.0082 -0.4125  0.2865
 6596SOL    HW131250   1.153   0.487   0.957 -3.5643 -1.5239  1.4735
 6596SOL    HW231251   1.102   0.549   0.830  0.4609 -0.6559 -0.6277
 6597SOL     OW31252   2.066   1.358   0.570 -0.0676 -0.3579  0.3727
 6597SOL    HW131253   2.119   1.278   0.567 -0.7516 -0.8871  2.2020
 6597SOL    HW231254   2.061   1.375   0.664 -1.3265 -1.5402  0.5324
 6598SOL     OW31255   2.286   1.269   3.254  0.2339 -0.4878  0.1990
 6598SOL    HW131256   2.290   1.248   3.347 -1.3592 -1.2150  0.0931
 6598SOL    HW231257   2.370   1.238   3.220  1.3597  0.8414  1.7761
 6599SOL     OW31258   1.831   1.066   6.650  0.2067 -0.0091  0.2752
 6599SOL    HW131259   1.741   1.090   6.674 -0.6140 -3.2128  0.4715
 6599SOL    HW231260   1.823   0.970   6.647 -1.9134  0.1539  0.2961
 6600SOL     OW31261   3.432   2.035  10.271 -0.2582 -0.0949 -0.7793
 6600SOL    HW131262   3.402   2.067  10.355 -1.4217 -0.1603 -1.1720
 6600SOL    HW231263   3.446   1.943  10.292  0.4908 -0.2822 -2.0706
 6601SOL     OW31264   1.175   2.533   8.572 -0.2269 -0.0644 -0.4893
 6601SOL    HW131265   1.186   2.496   8.485 -3.6626  0.2153 -1.0590
 6601SOL    HW231266   1.262   2.513   8.606  0.3894  0.3586 -1.8230
 6602SOL     OW31267   2.377   3.038   2.995  0.3030 -0.0673 -0.1974
 6602SOL    HW131268   2.341   2.967   3.048 -2.4535  0.0657 -1.8867
 6602SOL    HW231269   2.290   3.067   2.968  0.4915 -1.6113 -2.5323
 6603SOL     OW31270   3.394   2.160   2.493 -0.0986 -0.0306  0.1703
 6603SOL    HW131271   3.308   2.121   2.510  0.7785 -0.8498  2.7357
 6603SOL    HW231272   3.382   2.192   2.404 -0.2274  0.6753  0.4388
 6604SOL     OW31273   2.723   2.927   2.276 -0.0739 -0.0084  0.1871
 6604SOL    HW131274   2.690   3.007   2.235  0.2190  0.5228  0.9673
 6604SOL    HW231275   2.649   2.907   2.334  1.4912 -1.4265  1.6853
 6605SOL     OW31276   3.479   4.371   1.863  0.4214 -0.4804 -0.3726
 6605SOL    HW131277   3.564   4.368   1.907  0.4488  0.1547 -0.3807
 6605SOL    HW231278   3.425   4.382   1.941  1.7596  2.6746  0.0987
 6606SOL     OW31279   0.485   1.950   6.439 -0.1901  0.4807 -0.1209
 6606SOL    HW131280   0.456   1.860   6.426 -0.8639  0.8566 -1.2131
 6606SOL    HW231281   0.576   1.948   6.410  0.1047  0.0492  0.8227
 6607SOL     OW31282   3.408   0.469   1.164 -0.1022 -0.2111 -0.4138
 6607SOL    HW131283   3.495   0.432   1.177  0.7594  0.9304 -2.9754
 6607SOL    HW231284   3.356   0.422   1.230  1.4245  0.4284  1.2195
 6608SOL     OW31285   2.638   4.444   0.748  0.8893 -0.0856 -0.1785
 6608SOL    HW131286   2.668   4.443   0.838  0.2378  1.3659  0.0449
 6608SOL    HW231287   2.602   4.356   0.735 -0.0824  0.5198 -1.6252
 6609SOL     OW31288   2.256   0.575   8.001 -0.1250 -0.1841 -0.5172
 6609SOL    HW131289   2.175   0.573   8.052  1.3945 -1.2726  1.8696
 6609SOL    HW231290   2.216   0.594   7.917  1.8049 -0.9227 -1.6033
 6610SOL     OW31291   3.283   2.469   2.068  0.0359  0.8871  0.5055
 6610SOL    HW131292   3.290   2.477   1.973 -1.4619 -1.3059  0.2265
 6610SOL    HW231293   3.369   2.501   2.094  0.8839 -2.0860  1.3649
 6611SOL     OW31294   3.004   4.562   7.587  0.2532  0.1922 -0.5135
 6611SOL    HW131295   3.028   4.596   7.673 -2.3629 -1.1869  0.7599
 6611SOL    HW231296   2.923   4.512   7.602  0.2836  0.5740  0.8389
 6612SOL     OW31297   4.007   0.544  15.959 -0.0868 -0.0856  0.4217
 6612SOL    HW131298   4.071   0.606  15.992  1.6213 -1.1926 -0.8011
 6612SOL    HW231299   3.996   0.577  15.869 -1.8103  3.5027  1.9421
 6613SOL     OW31300   0.885   4.245   5.856 -0.0127 -0.2555  0.5130
 6613SOL    HW131301   0.899   4.329   5.902  0.5710  0.8023 -1.6209
 6613SOL    HW231302   0.798   4.263   5.820  0.1511  2.0757  1.2352
 6614SOL     OW31303   2.244   0.214  12.926 -0.6431  0.2718 -0.5393
 6614SOL    HW131304   2.187   0.290  12.935  0.0549  0.7919 -0.5505
 6614SOL    HW231305   2.286   0.231  12.842  0.3610 -1.9854 -0.5037
 6615SOL     OW31306   0.795   2.716   5.029 -0.4005 -0.2027  0.3700
 6615SOL    HW131307   0.822   2.805   5.010  1.4346 -0.7703  0.3061
 6615SOL    HW231308   0.783   2.719   5.124 -2.2383 -1.5451  0.1797
 6616SOL     OW31309   2.964   4.098   3.985  0.1214 -0.0158  0.5399
 6616SOL    HW131310   2.955   4.068   4.076  0.0021  3.0785  1.5613
 6616SOL    HW231311   2.895   4.057   3.934 -0.9160  1.8043  0.4706
 6617SOL     OW31312   0.118   1.299   7.784  0.8626  0.0339  0.0303
 6617SOL    HW131313   0.194   1.335   7.739  1.3214  0.7889  1.3918
 6617SOL    HW231314   0.063   1.288   7.707  2.6552  1.6182 -1.4687
 6618SOL     OW31315   1.073   3.215   8.992  0.1037  0.6823 -0.1454
 6618SOL    HW131316   1.047   3.298   8.953 -0.0026  1.0098  0.6273
 6618SOL    HW231317   0.999   3.163   8.961  1.8601 -0.5744 -2.2705
 6619SOL     OW31318   4.304   2.391  12.139 -0.4168 -0.4682 -0.1650
 6619SOL    HW131319   4.281   2.465  12.195  0.6153  1.8386 -2.7237
 6619SOL    HW231320   4.297   2.322  12.204 -0.7089  0.2029  0.5143
 6620SOL     OW31321   2.064   1.885   8.664  0.1391  0.2487  0.3481
 6620SOL    HW131322   2.045   1.853   8.752 -1.8167 -2.6251 -1.1207
 6620SOL    HW231323   2.121   1.961   8.678 -0.8869  1.1037 -0.1251
 6621SOL     OW31324   1.517   2.759  12.520  0.0701  0.2031 -0.2278
 6621SOL    HW131325   1.435   2.796  12.486  0.5325  2.1825  0.8059
 6621SOL    HW231326   1.569   2.753  12.440 -1.3933 -0.2510 -1.1435
 6622SOL     OW31327   4.170   2.033  16.436 -0.1685 -0.2967 -0.5098
 6622SOL    HW131328   4.139   2.107  16.383  1.0886  0.4854 -0.1730
 6622SOL    HW231329   4.153   1.959  16.378  0.6282 -1.6185  0.9513
 6623SOL     OW31330   3.604   1.432   5.586 -0.1880 -0.0106 -0.3211
 6623SOL    HW131331   3.693   1.437   5.619 -1.2008  0.2716  2.3530
 6623SOL    HW231332   3.595   1.520   5.550  2.0401  0.6958  0.8984
 6624SOL     OW31333   1.041   2.771   5.992 -0.6506  0.2788  1.0527
 6624SOL    HW131334   1.038   2.846   6.052 -1.5950  1.2372 -0.1842
 6624SOL    HW231335   1.012   2.808   5.909 -0.8954  1.6627  1.7429
 6625SOL     OW31336   4.191   1.450   8.702  0.1354  0.7653 -1.2462
 6625SOL    HW131337   4.271   1.421   8.745 -0.1653 -0.7527 -1.7082
 6625SOL    HW231338   4.212   1.542   8.685  0.3168  0.5413 -2.2678
 6626SOL     OW31339   4.316   4.639   8.173 -0.0652  0.1264  0.1868
 6626SOL    HW131340   4.309   4.725   8.132  1.0738  0.1270 -0.0056
 6626SOL    HW231341   4.407   4.617   8.154 -0.2413  0.1876 -0.7402
 6627SOL     OW31342   1.580   3.986  13.395  0.7701 -0.0315  0.6438
 6627SOL    HW131343   1.501   4.024  13.433 -0.5708 -0.5002 -1.7092
 6627SOL    HW231344   1.576   4.033  13.312  1.6965 -2.3805 -0.7486
 6628SOL     OW31345   2.933   4.524   0.748  0.0070  0.4384 -0.1737
 6628SOL    HW131346   2.924   4.449   0.688 -1.7849  0.9309 -0.5233
 6628SOL    HW231347   2.910   4.485   0.832 -0.6279  0.5227 -0.3034
 6629SOL     OW31348   2.664   0.394   7.520  0.1095 -0.2688 -0.0360
 6629SOL    HW131349   2.726   0.463   7.541 -0.2660  0.4108 -1.1880
 6629SOL    HW231350   2.584   0.447   7.512  1.3056  1.5957  0.4960
 6630SOL     OW31351   4.632   4.593   8.475 -0.1164 -0.5037 -0.4953
 6630SOL    HW131352   4.679   4.676   8.466 -0.2990 -0.3333  0.1316
 6630SOL    HW231353   4.542   4.624   8.472  0.5145  1.3665  0.1854
 6631SOL     OW31354   0.588   4.454  10.051 -0.0027  0.8766  0.1777
 6631SOL    HW131355   0.597   4.549  10.056 -1.4258  1.0867 -1.0134
 6631SOL    HW231356   0.497   4.433  10.029  1.7216 -2.3818 -3.8408
 6632SOL     OW31357   0.417   2.291  13.016  0.2605  0.5500 -0.6984
 6632SOL    HW131358   0.447   2.206  12.984 -0.7968 -0.4529  0.9959
 6632SOL    HW231359   0.484   2.302  13.083  0.5423  1.6637 -1.1691
 6633SOL     OW31360   3.669   4.472   4.732 -0.1442  0.1865  0.5466
 6633SOL    HW131361   3.610   4.528   4.782 -1.4219  0.3901 -1.1981
 6633SOL    HW231362   3.747   4.467   4.787 -0.9452 -2.4491  1.4918
 6634SOL     OW31363   2.195   4.599   5.549 -0.3392  0.1936  0.5659
 6634SOL    HW131364   2.246   4.650   5.486 -0.1623  0.0973  0.6282
 6634SOL    HW231365   2.147   4.543   5.488 -1.9525  1.8649  0.3228
 6635SOL     OW31366   4.437   2.012   4.352  0.7039  0.1239 -0.2409
 6635SOL    HW131367   4.414   1.983   4.441 -1.5772 -0.9053 -1.1674
 6635SOL    HW231368   4.352   2.016   4.310  0.7625  1.2081 -0.2622
 6636SOL     OW31369   4.474   3.929   6.930  0.3288  0.2857 -0.2282
 6636SOL    HW131370   4.420   4.001   6.963  0.2861  0.4808 -0.7192
 6636SOL    HW231371   4.552   3.942   6.984  1.6410 -0.1532 -1.9937
 6637SOL     OW31372   3.283   4.581   4.923  0.2516 -0.1721  0.2723
 6637SOL    HW131373   3.188   4.574   4.915 -0.0881  2.1059  2.2125
 6637SOL    HW231374   3.302   4.490   4.903 -1.2715 -0.4998  0.3426
 6638SOL     OW31375   3.021   1.740   8.121  0.5209  0.1218 -0.5411
 6638SOL    HW131376   2.960   1.703   8.186 -1.2247 -0.1004 -2.3161
 6638SOL    HW231377   3.098   1.759   8.175 -0.2444 -2.4708  1.5162
 6639SOL     OW31378   1.828   2.190   2.762  0.5510  0.0348 -0.4991
 6639SOL    HW131379   1.823   2.244   2.840  1.1071 -0.4731 -0.1086
 6639SOL    HW231380   1.747   2.204   2.713 -0.4381 -0.2493  1.0719
 6640SOL     OW31381   0.960   0.060   5.187 -0.5717  0.5584 -0.3622
 6640SOL    HW131382   0.916   0.118   5.125  0.6634  0.9320 -0.8782
 6640SOL    HW231383   0.950   4.701   5.148 -1.1678  0.7437 -0.6238
 6641SOL     OW31384   0.599   4.125   1.219 -0.1200 -0.6989  0.0950
 6641SOL    HW131385   0.514   4.138   1.262 -1.0644 -0.1442 -1.9522
 6641SOL    HW231386   0.652   4.143   1.297  0.5035  1.2641 -0.7744
 6642SOL     OW31387   2.785   0.456   2.258 -0.2257  0.5345 -0.2306
 6642SOL    HW131388   2.744   0.374   2.285 -0.4658  0.6983 -0.0917
 6642SOL    HW231389   2.717   0.523   2.251 -1.3459 -0.4565  1.0557
 6643SOL     OW31390   2.689   1.615   3.668 -0.4031 -0.1764 -0.1835
 6643SOL    HW131391   2.712   1.556   3.597  0.6193 -0.3397  0.2956
 6643SOL    HW231392   2.768   1.667   3.681  1.3807 -2.8265 -0.5515
 6644SOL     OW31393   2.253   0.062  10.055  0.0141  0.0403 -0.3010
 6644SOL    HW131394   2.280   0.021  10.137  0.6338  1.7649  0.3466
 6644SOL    HW231395   2.158   0.050  10.056  0.0047  0.1810  0.2486
 6645SOL     OW31396   2.014   1.804  16.947 -0.0682 -0.2848  0.1207
 6645SOL    HW131397   2.071   1.878  16.924  0.7083 -0.7919  0.4156
 6645SOL    HW231398   1.960   1.840  17.017  0.1404 -0.6219  0.4528
 6646SOL     OW31399   1.097   3.426  13.486  0.4268  0.4177 -0.2294
 6646SOL    HW131400   1.126   3.411  13.396 -0.2800 -0.0226 -0.3815
 6646SOL    HW231401   1.167   3.386  13.539 -1.1756 -1.6021  0.3482
 6647SOL     OW31402   3.357   3.206   8.587 -0.4594 -0.7257  0.5133
 6647SOL    HW131403   3.419   3.134   8.596  1.2781  0.5584 -1.1673
 6647SOL    HW231404   3.360   3.249   8.672  0.5038  2.5740 -1.2189
 6648SOL     OW31405   2.222   1.032  17.342  0.6259  0.5509 -0.1030
 6648SOL    HW131406   2.275   1.084  17.282  2.4135  1.5230  2.3484
 6648SOL    HW231407   2.156   0.997  17.281  0.3168  1.4536 -0.2897
 6649SOL     OW31408   0.790   4.342   0.296 -1.0541 -0.5132 -0.2347
 6649SOL    HW131409   0.845   4.382   0.229 -1.6528 -1.1610 -1.1225
 6649SOL    HW231410   0.704   4.372   0.266 -0.9215 -0.7270 -0.8172
 6650SOL     OW31411   1.282   0.443   6.317  0.0447 -0.1792  0.8469
 6650SOL    HW131412   1.353   0.505   6.303  1.2384 -1.8240 -0.5062
 6650SOL    HW231413   1.213   0.503   6.344 -0.7547 -0.2023 -1.1175
 6651SOL     OW31414   2.381   3.481   2.605 -0.1056  0.1148  0.0920
 6651SOL    HW131415   2.377   3.569   2.566 -0.7760 -0.7543 -1.8169
 6651SOL    HW231416   2.471   3.456   2.585 -0.5618 -0.8248 -0.7939
 6652SOL     OW31417   2.751   0.119  14.665 -0.0026  0.8664  0.2876
 6652SOL    HW131418   2.731   0.154  14.578 -0.0734 -0.0684 -0.0644
 6652SOL    HW231419   2.754   0.204  14.710  0.8379  0.8454  0.2630
 6653SOL     OW31420   4.016   2.657   4.931  0.1534 -0.5050  0.2691
 6653SOL    HW131421   4.005   2.751   4.945  0.1808  0.0027 -3.1105
 6653SOL    HW231422   4.006   2.654   4.836 -0.1502  0.8107  0.2511
 6654SOL     OW31423   0.326   2.912   9.548 -0.4502  0.0997  0.7887
 6654SOL    HW131424   0.402   2.855   9.538  0.3968  0.7938  3.4663
 6654SOL    HW231425   0.254   2.848   9.553 -0.6669  0.4444  2.0776
 6655SOL     OW31426   1.321   4.096   5.748 -0.1388 -0.5434 -0.6406
 6655SOL    HW131427   1.226   4.102   5.744 -0.3091 -0.9504  2.5074
 6655SOL    HW231428   1.328   4.188   5.774  1.3926 -0.7177 -0.4026
 6656SOL     OW31429   0.126   3.827  14.152  0.1176 -0.2702 -0.0580
 6656SOL    HW131430   0.074   3.888  14.205 -0.4228 -2.7210  2.2901
 6656SOL    HW231431   0.180   3.879  14.093  0.3616 -0.3587  0.0851
 6657SOL     OW31432   3.870   2.504   8.624  0.5858 -0.5352  0.6070
 6657SOL    HW131433   3.904   2.526   8.710  3.5024  1.9406 -1.1922
 6657SOL    HW231434   3.951   2.495   8.573  0.5428 -1.7436  0.7396
 6658SOL     OW31435   3.141   3.287   7.663 -0.7586  0.3871 -0.7255
 6658SOL    HW131436   3.113   3.199   7.636 -2.1702  0.6601 -0.1755
 6658SOL    HW231437   3.134   3.283   7.758 -3.0495  1.2786 -0.8451
 6659SOL     OW31438   1.752   0.817   3.430 -0.1100  0.3530  0.3374
 6659SOL    HW131439   1.785   0.882   3.492 -1.9970  1.8288 -0.2153
 6659SOL    HW231440   1.799   0.847   3.352 -0.4789  0.3065  0.0982
 6660SOL     OW31441   3.666   0.941   6.221 -0.2773 -0.8419  0.0721
 6660SOL    HW131442   3.704   1.021   6.184 -0.8856 -1.4172 -1.7768
 6660SOL    HW231443   3.740   0.881   6.231  0.8377  0.4509 -0.4322
 6661SOL     OW31444   2.331   2.121  12.162 -0.5569 -0.6109 -0.0575
 6661SOL    HW131445   2.267   2.072  12.110 -1.3032 -0.7661  0.9927
 6661SOL    HW231446   2.412   2.102  12.115 -1.0189 -0.5639 -0.8689
 6662SOL     OW31447   3.757   2.264   5.579 -0.0437  0.1300  0.0120
 6662SOL    HW131448   3.742   2.239   5.670 -0.0610  0.3925  0.0802
 6662SOL    HW231449   3.668   2.254   5.545  0.7073 -0.1358 -1.8498
 6663SOL     OW31450   4.541   4.175   1.184  0.2131  0.3019  0.0764
 6663SOL    HW131451   4.608   4.209   1.243 -0.5337  0.8856  0.5797
 6663SOL    HW231452   4.562   4.082   1.171 -0.5207  0.3928 -1.8557
 6664SOL     OW31453   1.032   4.578   9.985 -0.5190 -0.1791  0.3900
 6664SOL    HW131454   1.011   4.547  10.073  0.8783  1.7622  1.4156
 6664SOL    HW231455   1.019   4.496   9.937  0.3820  0.8397 -1.5764
 6665SOL     OW31456   3.142   0.905   4.101 -0.2700 -0.6857  0.6963
 6665SOL    HW131457   3.099   0.941   4.178  0.0001  2.2130 -0.5236
 6665SOL    HW231458   3.187   0.834   4.146  1.9962  0.9797  1.0212
 6666SOL     OW31459   1.092   0.970   5.318 -0.5188 -0.1325 -0.1963
 6666SOL    HW131460   1.013   0.925   5.349 -0.5067 -0.0730 -0.0796
 6666SOL    HW231461   1.064   1.059   5.337  0.5912 -0.0867  1.2197
 6667SOL     OW31462   1.195   0.264   3.614 -0.6683  0.2103  0.3672
 6667SOL    HW131463   1.105   0.247   3.643 -0.8012 -0.4736 -0.4557
 6667SOL    HW231464   1.231   0.178   3.637 -0.4139  0.8050  2.1566
 6668SOL     OW31465   2.450   3.905   3.591 -0.8114 -0.0983 -0.0696
 6668SOL    HW131466   2.507   3.959   3.536  0.3996  1.0475  2.3029
 6668SOL    HW231467   2.364   3.925   3.553 -0.5638 -0.4948 -0.8447
 6669SOL     OW31468   1.493   2.317   5.280 -0.2559  0.2131  0.2416
 6669SOL    HW131469   1.448   2.283   5.203  1.8675  0.2519 -1.0160
 6669SOL    HW231470   1.472   2.410   5.277 -0.1035  0.2373 -0.1142
 6670SOL     OW31471   3.172   4.317  16.456 -0.3968 -0.2453 -0.5910
 6670SOL    HW131472   3.226   4.375  16.402 -0.8008  2.0064  1.4405
 6670SOL    HW231473   3.147   4.250  16.392 -2.3749 -1.7996  1.8228
 6671SOL     OW31474   1.336   4.666   2.401  0.4178  0.8849  0.2870
 6671SOL    HW131475   1.424   4.628   2.399 -0.2083 -0.4856 -1.1332
 6671SOL    HW231476   1.299   4.603   2.464 -2.0551  1.4849 -0.5699
 6672SOL     OW31477   0.678   2.713  14.636  0.1271 -0.1491 -0.6720
 6672SOL    HW131478   0.661   2.619  14.627  0.2679 -0.3194  0.7958
 6672SOL    HW231479   0.588   2.737  14.659  0.8918  0.6370  1.5117
 6673SOL     OW31480   0.474   2.196   5.924 -0.0953  0.1389  0.1419
 6673SOL    HW131481   0.453   2.146   6.003  0.8512  0.4957  0.6183
 6673SOL    HW231482   0.538   2.263   5.947  1.1076 -0.6347 -0.9414
 6674SOL     OW31483   2.688   2.775  15.456 -0.2858  0.4988  0.4496
 6674SOL    HW131484   2.652   2.832  15.387  1.9839 -0.2139 -1.3222
 6674SOL    HW231485   2.687   2.699  15.398  1.7021  1.5606 -0.9819
 6675SOL     OW31486   1.196   2.414   8.314 -0.2190  0.0199  0.0921
 6675SOL    HW131487   1.191   2.334   8.366 -2.7261  1.0301  1.4282
 6675SOL    HW231488   1.290   2.427   8.302 -0.3015  0.2855 -0.2903
 6676SOL     OW31489   3.823   1.526   3.741  0.3537 -0.6524 -0.1176
 6676SOL    HW131490   3.795   1.616   3.726 -1.2165 -1.0687  0.3322
 6676SOL    HW231491   3.912   1.549   3.768  0.5784 -0.1068 -1.3094
 6677SOL     OW31492   2.967   0.011   8.550 -0.6670 -0.5733  0.0477
 6677SOL    HW131493   3.000   0.047   8.468  0.7218  1.1510  1.3801
 6677SOL    HW231494   3.026   0.050   8.615 -1.3830  2.1461 -0.9246
 6678SOL     OW31495   0.312   4.695  16.514 -0.5771  0.1311 -0.0352
 6678SOL    HW131496   0.281   0.052  16.547 -0.4506  0.3321 -0.4231
 6678SOL    HW231497   0.405   4.717  16.510  0.0310 -2.1587  1.5035
 6679SOL     OW31498   0.297   2.803   6.054  0.0034  0.0180 -0.5220
 6679SOL    HW131499   0.256   2.860   6.120 -0.4655  0.3767 -1.1255
 6679SOL    HW231500   0.381   2.847   6.037  0.8148  0.0836  3.5316
 6680SOL     OW31501   0.924   2.892   3.668 -0.0604  0.0426  0.2712
 6680SOL    HW131502   0.972   2.898   3.585  2.4175  0.0447  1.6899
 6680SOL    HW231503   0.871   2.817   3.642 -1.7962  0.9460  1.2894
 6681SOL     OW31504   1.464   1.799   6.163  0.2115 -0.2102  0.5024
 6681SOL    HW131505   1.405   1.725   6.150  2.2053 -1.3970 -1.8155
 6681SOL    HW231506   1.520   1.768   6.235  1.0461 -1.9577 -0.9128
 6682SOL     OW31507   1.987   0.697   5.661  0.4120  0.2394  0.3267
 6682SOL    HW131508   2.065   0.665   5.706 -0.0949 -0.4837  0.6910
 6682SOL    HW231509   1.995   0.792   5.649  1.1114  0.0090 -1.0974
 6683SOL     OW31510   3.496   0.459   1.787 -0.0468 -0.4028 -0.5372
 6683SOL    HW131511   3.545   0.485   1.709 -0.6591 -0.3121 -0.8936
 6683SOL    HW231512   3.508   0.531   1.849  1.0023 -0.9969 -0.0542
 6684SOL     OW31513   2.445   4.063   8.832  0.5696  0.8081  0.1120
 6684SOL    HW131514   2.427   4.121   8.759  0.0147  1.0821  0.4677
 6684SOL    HW231515   2.366   4.070   8.886 -0.3246 -1.3350 -0.9151
 6685SOL     OW31516   2.682   0.208  14.429 -0.3507 -0.4203 -0.3378
 6685SOL    HW131517   2.674   0.169  14.342 -2.8835  0.2014 -0.4016
 6685SOL    HW231518   2.592   0.187  14.454  0.0271 -0.6632  0.8272
 6686SOL     OW31519   0.276   4.101   6.297  0.4088  0.0213  0.5779
 6686SOL    HW131520   0.360   4.110   6.252  0.0772 -0.9953 -0.2449
 6686SOL    HW231521   0.224   4.135   6.224 -0.4068 -0.3574  0.9927
 6687SOL     OW31522   2.064   2.591   9.828  0.0543  0.1495  0.2572
 6687SOL    HW131523   2.050   2.575   9.922 -2.6347  2.3245  0.2240
 6687SOL    HW231524   2.143   2.644   9.837 -0.2996  0.4890  1.4170
 6688SOL     OW31525   1.631   3.190   3.485  0.0798  0.7365 -0.1061
 6688SOL    HW131526   1.596   3.117   3.436  0.0328  0.1030  0.8633
 6688SOL    HW231527   1.677   3.136   3.550  0.1802  1.3809  0.3708
 6689SOL     OW31528   0.137   2.624   4.517 -0.1636 -0.3510 -0.0859
 6689SOL    HW131529   0.090   2.546   4.546  1.4672 -0.3019  2.7904
 6689SOL    HW231530   0.115   2.681   4.591  0.0734  0.5129 -0.6816
 6690SOL     OW31531   3.977   2.666   9.561  0.0399 -0.5796 -0.1107
 6690SOL    HW131532   4.047   2.713   9.606 -0.3817  0.6243 -0.6972
 6690SOL    HW231533   3.973   2.575   9.590 -0.4837 -0.6938 -0.5224
 6691SOL     OW31534   4.016   3.454   4.453  0.4458 -0.0591 -0.1530
 6691SOL    HW131535   3.998   3.509   4.377 -0.0881 -0.2097 -0.1390
 6691SOL    HW231536   4.076   3.508   4.505 -0.0715 -0.4743  0.8962
 6692SOL     OW31537   4.595   2.378   6.555  0.0180 -0.2652  0.0272
 6692SOL    HW131538   4.629   2.342   6.637 -2.7227 -1.5713  0.5648
 6692SOL    HW231539   4.504   2.351   6.558  0.4990 -2.0320 -1.3366
 6693SOL     OW31540   4.012   0.756  10.976  0.5114 -0.3644 -0.1606
 6693SOL    HW131541   3.958   0.744  11.053  0.7465 -0.1458  0.0391
 6693SOL    HW231542   4.034   0.668  10.946 -1.8935 -1.2367  0.7035
 6694SOL     OW31543   4.488   4.191   6.252 -0.6810 -0.4744  0.0853
 6694SOL    HW131544   4.573   4.234   6.260 -1.3045  0.3695  2.0506
 6694SOL    HW231545   4.436   4.229   6.322 -2.1973  0.1127 -1.3686
 6695SOL     OW31546   3.192   3.996   2.349  0.4548 -0.3114  0.4712
 6695SOL    HW131547   3.210   4.060   2.279  1.7243  0.9889  1.9722
 6695SOL    HW231548   3.246   3.926   2.313  1.7487  0.6871  0.4615
 6696SOL     OW31549   4.264   2.618   7.075 -0.5615 -0.4673  0.1990
 6696SOL    HW131550   4.307   2.681   7.017  0.2673 -0.9915  0.2383
 6696SOL    HW231551   4.298   2.654   7.157  1.1099 -0.3805 -0.5281
 6697SOL     OW31552   4.501   0.434   6.820 -0.3081 -0.3884 -0.6296
 6697SOL    HW131553   4.518   0.473   6.735 -2.1266  0.1769 -0.7454
 6697SOL    HW231554   4.522   0.345   6.793  1.3582 -0.2860  0.3371
 6698SOL     OW31555   4.655   4.033   3.230  0.1640 -0.0666  0.5592
 6698SOL    HW131556   4.566   4.024   3.195  0.4687  0.4784 -0.3262
 6698SOL    HW231557   4.679   4.104   3.172 -1.7241 -0.8760 -1.1988
 6699SOL     OW31558   3.722   0.358   5.427  0.2004  0.2255  0.3476
 6699SOL    HW131559   3.807   0.379   5.389 -1.5855  0.0847 -3.7490
 6699SOL    HW231560   3.694   0.315   5.346 -0.1327  1.8642 -0.3976
 6700SOL     OW31561   4.283   3.574  12.655  0.7493 -0.1320 -0.1796
 6700SOL    HW131562   4.205   3.549  12.704 -0.6316  1.0201 -1.7778
 6700SOL    HW231563   4.349   3.537  12.713  2.5183  1.2116 -1.3269
 6701SOL     OW31564   2.676   2.490   6.960  0.5293 -0.4825 -0.0244
 6701SOL    HW131565   2.711   2.402   6.977  1.3099  0.3355  2.5122
 6701SOL    HW231566   2.679   2.531   7.046 -2.5905 -1.2672  0.4467
 6702SOL     OW31567   2.560   0.425   5.222  0.2376 -0.0582  0.1619
 6702SOL    HW131568   2.505   0.363   5.175 -0.4136  0.7627 -0.1603
 6702SOL    HW231569   2.514   0.509   5.221  0.5578  0.0939 -1.1245
 6703SOL     OW31570   0.468   2.054   8.577 -0.4296 -0.0154 -0.0651
 6703SOL    HW131571   0.515   2.111   8.516  0.0567 -1.2495 -0.8522
 6703SOL    HW231572   0.506   2.085   8.659 -0.6832  0.1229  0.0021
 6704SOL     OW31573   1.229   1.607  16.790 -0.3468 -0.0799  0.1255
 6704SOL    HW131574   1.184   1.657  16.859  0.7539 -0.1897  0.9246
 6704SOL    HW231575   1.246   1.530  16.843 -1.5392 -0.6677 -0.3462
 6705SOL     OW31576   2.038   1.086   7.693 -0.1107  0.5751  0.0181
 6705SOL    HW131577   2.066   1.167   7.650 -2.4621  0.5889 -1.4661
 6705SOL    HW231578   2.096   1.084   7.769 -0.9939 -3.6763  0.5721
 6706SOL     OW31579   3.257   3.615   3.260 -0.0643 -0.5174 -0.0052
 6706SOL    HW131580   3.344   3.649   3.281 -0.5982  0.7774  0.1096
 6706SOL    HW231581   3.280   3.538   3.208  3.8068  0.6547 -0.0091
 6707SOL     OW31582   3.136   3.496   7.497  0.1753 -0.0395  0.4232
 6707SOL    HW131583   3.142   3.424   7.559 -0.7549  0.8039  1.4822
 6707SOL    HW231584   3.172   3.570   7.545 -0.2772 -0.2976  1.1578
 6708SOL     OW31585   4.447   2.767   2.683  0.0108  0.1247  1.0102
 6708SOL    HW131586   4.487   2.739   2.765  1.8038  0.9605  0.4282
 6708SOL    HW231587   4.419   2.682   2.649 -1.8897  0.6117  1.3435
 6709SOL     OW31588   1.935   1.302   5.710  0.0607  0.2633 -0.6923
 6709SOL    HW131589   1.936   1.233   5.777 -0.4208 -2.4245 -3.4008
 6709SOL    HW231590   1.937   1.250   5.629  0.9038 -0.8500  0.0323
 6710SOL     OW31591   3.027   4.262   2.107  0.0772 -0.1234  0.4256
 6710SOL    HW131592   3.066   4.231   2.026  3.9735  0.4407  2.1032
 6710SOL    HW231593   3.010   4.176   2.147 -3.6302  0.5528  0.2671
 6711SOL     OW31594   0.046   4.002   8.009 -0.0968 -0.6334  0.8614
 6711SOL    HW131595   0.035   4.018   7.915 -0.9097  0.4035  1.1399
 6711SOL    HW231596   4.693   3.956   8.035 -0.5080  0.3052  1.2312
 6712SOL     OW31597   0.592   3.855   2.855 -0.3213  0.0382 -0.2129
 6712SOL    HW131598   0.506   3.818   2.838 -0.2758  0.4928 -1.4100
 6712SOL    HW231599   0.644   3.791   2.808  0.3518  1.5777 -1.5764
 6713SOL     OW31600   0.688   3.555   3.275  0.1270  0.1630 -0.1971
 6713SOL    HW131601   0.782   3.558   3.255  0.3421 -0.0356  0.8004
 6713SOL    HW231602   0.659   3.636   3.232 -2.3203  0.0522  1.2584
 6714SOL     OW31603   3.128   4.532   8.824 -0.0011  0.0444 -0.1179
 6714SOL    HW131604   3.210   4.492   8.797 -0.3151 -0.1395 -0.7987
 6714SOL    HW231605   3.153   4.625   8.822  1.2897 -0.2453  2.3244
 6715SOL     OW31606   2.078   3.968   8.868 -1.3099  0.0411 -0.0750
 6715SOL    HW131607   2.035   3.892   8.905  0.4976 -2.0775 -2.2909
 6715SOL    HW231608   2.094   4.019   8.947 -1.9161  0.8465 -0.4723
 6716SOL     OW31609   1.757   1.610   8.413 -0.2080  0.6601  0.1220
 6716SOL    HW131610   1.816   1.573   8.346  1.1671 -0.4746  1.9630
 6716SOL    HW231611   1.692   1.540   8.419  2.0898 -1.4384  0.5934
 6717SOL     OW31612   2.312   3.792   5.411 -0.2138  0.0183 -0.1879
 6717SOL    HW131613   2.310   3.788   5.315  2.0501 -0.0721 -0.2408
 6717SOL    HW231614   2.234   3.746   5.440 -0.6142 -1.0973 -2.9899
 6718SOL     OW31615   1.782   0.000   9.124  0.1398  0.1272 -0.3793
 6718SOL    HW131616   1.690   4.700   9.121 -0.4558  2.2376 -1.4439
 6718SOL    HW231617   1.810   4.655   9.180  1.4170  0.6193 -0.3896
 6719SOL     OW31618   3.078   3.001   7.924 -0.1313 -0.1395  0.2649
 6719SOL    HW131619   3.088   3.007   7.829 -0.8372 -0.9807  0.1364
 6719SOL    HW231620   2.983   2.998   7.940 -0.3407  2.2404 -0.5274
 6720SOL     OW31621   0.170   3.944   5.920 -0.5418 -0.2680  0.2349
 6720SOL    HW131622   0.160   4.039   5.918 -1.3563 -0.4000 -1.8494
 6720SOL    HW231623   0.101   3.919   5.859 -0.5110 -0.4431  0.2736
 6721SOL     OW31624   4.655   3.331   8.874 -0.3025  0.2379  0.3587
 6721SOL    HW131625   0.008   3.281   8.892  0.0441  0.4851 -0.4843
 6721SOL    HW231626   4.654   3.324   8.779  0.1283  1.5501  0.2634
 6722SOL     OW31627   4.417   1.894  16.484  0.6122  0.9426 -0.0706
 6722SOL    HW131628   4.417   1.918  16.577 -0.9198 -3.2247  1.0079
 6722SOL    HW231629   4.331   1.927  16.460  1.5738  1.9871 -2.1311
 6723SOL     OW31630   1.064   2.073   2.164 -0.4797 -0.1567 -0.2700
 6723SOL    HW131631   0.971   2.068   2.190 -0.1755  0.4296  0.9087
 6723SOL    HW231632   1.078   2.161   2.199 -1.1688 -0.2239  0.1886
 6724SOL     OW31633   2.259   2.451   9.619  0.1391 -0.4077 -0.0146
 6724SOL    HW131634   2.243   2.414   9.706  1.3084 -1.1243 -0.1022
 6724SOL    HW231635   2.355   2.454   9.619  0.1735 -1.4378  0.4755
 6725SOL     OW31636   3.340   0.292   1.366 -0.1971  0.2891  0.2889
 6725SOL    HW131637   3.290   0.298   1.448 -0.2795  1.4705  0.1384
 6725SOL    HW231638   3.296   0.215   1.330 -0.7364  0.4922  0.5147
 6726SOL     OW31639   3.135   4.061   5.696  0.4818 -0.5142 -0.5581
 6726SOL    HW131640   3.093   4.024   5.773  1.3262  0.7755  0.5171
 6726SOL    HW231641   3.130   4.156   5.709  0.0961 -0.4678 -1.0586
 6727SOL     OW31642   2.737   1.950   4.895  0.1176  0.2043  0.2149
 6727SOL    HW131643   2.679   2.003   4.841 -1.2231 -0.5582  0.8887
 6727SOL    HW231644   2.738   1.864   4.852 -1.4591  0.3862 -0.1975
 6728SOL     OW31645   1.873   0.303   7.891 -0.2682  0.1025 -0.6175
 6728SOL    HW131646   1.841   0.329   7.978  1.6978  0.8628 -0.1118
 6728SOL    HW231647   1.965   0.328   7.884 -0.3343  0.2967 -0.7819
 6729SOL     OW31648   3.932   4.519   6.376  0.0953  0.6240  0.1101
 6729SOL    HW131649   3.889   4.435   6.390  1.0464 -0.1603 -1.7107
 6729SOL    HW231650   3.911   4.563   6.459 -3.1532  0.9536 -0.8924
 6730SOL     OW31651   1.977   0.382   6.327 -0.0245 -0.6663 -0.2959
 6730SOL    HW131652   1.995   0.296   6.290  0.4001 -0.8924  0.4223
 6730SOL    HW231653   1.899   0.363   6.379  0.3421  1.0544  0.8713
 6731SOL     OW31654   4.261   4.050  15.238  0.0872  0.2112 -0.1552
 6731SOL    HW131655   4.189   4.077  15.295  0.5904  0.9776  0.1097
 6731SOL    HW231656   4.255   4.116  15.169 -3.3199  1.1315  1.0404
 6732SOL     OW31657   0.289   1.220   2.634  0.4426  0.2721  0.1314
 6732SOL    HW131658   0.304   1.298   2.689 -0.7816 -0.1653  1.0984
 6732SOL    HW231659   0.279   1.260   2.548  0.3787 -1.0272 -0.4601
 6733SOL     OW31660   3.520   1.175   4.599 -0.3049 -0.3229  0.0467
 6733SOL    HW131661   3.542   1.146   4.687 -1.9304  0.0662  0.5941
 6733SOL    HW231662   3.512   1.271   4.606  2.6941 -0.1230  0.5198
 6734SOL     OW31663   4.203   1.756   2.344 -0.5777 -0.1170  0.6076
 6734SOL    HW131664   4.252   1.680   2.376 -0.9196 -0.1523  1.0447
 6734SOL    HW231665   4.269   1.826   2.347 -0.0135 -0.4804 -3.9439
 6735SOL     OW31666   3.071   2.325   4.721  0.9562  0.0207 -0.3395
 6735SOL    HW131667   3.148   2.341   4.666  0.2299  3.8810 -0.2409
 6735SOL    HW231668   3.015   2.402   4.715 -0.3112 -0.9799 -1.2338
 6736SOL     OW31669   2.486   2.268  16.239 -0.5296  0.3613  0.1627
 6736SOL    HW131670   2.444   2.328  16.177  0.2827 -0.9133 -1.6293
 6736SOL    HW231671   2.566   2.258  16.186 -0.7966 -1.2917  0.0842
 6737SOL     OW31672   4.587   3.898   3.979 -0.1858  0.8218  0.4573
 6737SOL    HW131673   4.602   3.941   4.064 -1.9806  3.6679 -0.6680
 6737SOL    HW231674   4.598   3.808   4.010  0.2914  0.8199  0.2720
 6738SOL     OW31675   2.763   2.380   4.477  0.0454  0.0897  0.1075
 6738SOL    HW131676   2.825   2.419   4.539  2.2074 -1.2812 -1.1976
 6738SOL    HW231677   2.678   2.388   4.522 -0.9721 -2.6123 -1.3398
 6739SOL     OW31678   0.211   0.077   7.139 -0.3475 -0.1634  0.7437
 6739SOL    HW131679   0.221   0.163   7.181  0.9016  0.0693 -0.0315
 6739SOL    HW231680   0.273   0.025   7.189  0.9198  1.5472  0.9753
 6740SOL     OW31681   2.217   1.720   7.296 -0.2296  0.6373  0.5829
 6740SOL    HW131682   2.274   1.785   7.254  1.9120 -2.3733 -1.1677
 6740SOL    HW231683   2.280   1.664   7.341 -0.9814  0.2794  1.1849
 6741SOL     OW31684   0.859   1.210   6.629  0.3709  0.0763 -0.4924
 6741SOL    HW131685   0.798   1.275   6.665 -1.9393 -2.6486  0.5484
 6741SOL    HW231686   0.909   1.266   6.570 -0.9274  2.6850  0.8742
 6742SOL     OW31687   1.378   2.452   8.752  0.3451  0.1304 -0.5901
 6742SOL    HW131688   1.401   2.471   8.843  0.4620 -2.4604 -0.0617
 6742SOL    HW231689   1.463   2.463   8.708  0.3812 -1.2828 -0.8971
 6743SOL     OW31690   1.222   3.332  12.338  0.1851 -0.2502 -0.4529
 6743SOL    HW131691   1.225   3.302  12.247  1.8472  2.2696 -1.2138
 6743SOL    HW231692   1.144   3.388  12.340 -0.0640 -0.7310  2.8174
 6744SOL     OW31693   0.803   2.120   7.102 -0.6027  0.3989 -0.4250
 6744SOL    HW131694   0.799   2.069   7.021  0.1500 -1.2726  0.5869
 6744SOL    HW231695   0.710   2.116   7.124 -1.2041  0.4063 -2.9540
 6745SOL     OW31696   1.991   0.136   2.289  0.6555  0.0038 -0.5484
 6745SOL    HW131697   1.945   0.206   2.243  1.4952 -0.2717 -1.8257
 6745SOL    HW231698   2.085   0.144   2.271  1.2124 -0.3690  2.1577
 6746SOL     OW31699   0.094   0.586   8.312 -0.0317 -0.6400 -0.3239
 6746SOL    HW131700   0.026   0.573   8.379 -0.6306  0.1794 -0.7702
 6746SOL    HW231701   0.052   0.623   8.235  2.3023  0.0832 -1.2246
 6747SOL     OW31702   2.035   3.200   1.696 -0.4417 -0.2924 -0.1151
 6747SOL    HW131703   2.057   3.265   1.630  1.2141 -1.2521 -0.4997
 6747SOL    HW231704   2.023   3.121   1.643  0.9441 -0.7715  0.3051
 6748SOL     OW31705   2.733   1.014   7.454 -0.3038  0.7720 -0.2085
 6748SOL    HW131706   2.809   1.023   7.396  0.5752  0.0273  0.8041
 6748SOL    HW231707   2.694   1.100   7.443 -1.1534  0.1393 -2.1825
 6749SOL     OW31708   4.727   0.561  12.098 -0.1993 -0.8855 -0.4440
 6749SOL    HW131709   0.064   0.515  12.043  2.8689  0.9175  1.6353
 6749SOL    HW231710   0.051   0.551  12.178 -0.3024  0.8562 -0.1806
 6750SOL     OW31711   3.279   1.390  11.947 -0.4116 -0.2349 -0.0820
 6750SOL    HW131712   3.216   1.360  12.012 -0.9340 -0.2275 -0.5972
 6750SOL    HW231713   3.307   1.468  11.996 -0.1484 -0.0440 -0.5349
 6751SOL     OW31714   3.696   1.226  14.010  0.1703  0.1332 -0.3080
 6751SOL    HW131715   3.633   1.154  13.995  1.1316 -0.5089 -1.3067
 6751SOL    HW231716   3.654   1.267  14.085  1.4623  2.0714 -0.6601
 6752SOL     OW31717   1.514   2.800  12.049 -0.4647 -0.2070  0.0856
 6752SOL    HW131718   1.492   2.851  11.971  0.0371 -2.2580 -1.4150
 6752SOL    HW231719   1.463   2.720  12.036 -0.3409  0.0196 -1.8386
 6753SOL     OW31720   0.782   3.158   3.127  0.1771  0.1777  0.9253
 6753SOL    HW131721   0.694   3.184   3.156  1.2678  3.3259  1.4401
 6753SOL    HW231722   0.839   3.198   3.193  1.2048  0.7721 -0.3191
 6754SOL     OW31723   4.578   3.554  10.858 -0.0547 -0.0384 -0.6509
 6754SOL    HW131724   4.594   3.587  10.947  0.6116 -1.2629 -0.3248
 6754SOL    HW231725   4.484   3.550  10.839 -0.3696 -0.2364  0.9137
 6755SOL     OW31726   1.044   4.288   2.842  0.1141 -0.3777 -0.4329
 6755SOL    HW131727   1.083   4.255   2.761  0.7287  1.8599 -1.0612
 6755SOL    HW231728   1.108   4.259   2.906  0.4235  0.0326 -0.5515
 6756SOL     OW31729   3.186   2.958   8.654  0.9794 -0.6221  0.3714
 6756SOL    HW131730   3.273   2.955   8.613  0.4460  1.2187 -0.8996
 6756SOL    HW231731   3.182   3.037   8.707 -2.0055 -0.5379  0.0309
 6757SOL     OW31732   3.027   4.171   1.787 -0.3728  0.0701  0.7612
 6757SOL    HW131733   2.953   4.129   1.744 -0.0242  0.9924 -0.7569
 6757SOL    HW231734   2.972   4.239   1.824 -1.5065  0.6340 -1.9619
 6758SOL     OW31735   4.323   1.373  12.173  0.2559 -0.1704 -0.0663
 6758SOL    HW131736   4.380   1.443  12.206 -0.6527 -0.3990  2.0038
 6758SOL    HW231737   4.252   1.367  12.237 -1.5781  1.4687 -1.9699
 6759SOL     OW31738   0.836   0.494   4.406  0.2081 -0.4508  0.0479
 6759SOL    HW131739   0.774   0.504   4.478  1.5327 -1.4255  1.3376
 6759SOL    HW231740   0.780   0.498   4.328  0.7674 -0.3927 -0.3526
 6760SOL     OW31741   2.955   2.033  17.305 -0.9995  0.0256  0.7240
 6760SOL    HW131742   3.012   2.070  17.236 -1.6364  1.7609  1.1229
 6760SOL    HW231743   3.021   2.003  17.368 -1.1369  0.5790  1.1336
 6761SOL     OW31744   0.207   3.096   1.901  0.4033 -0.1392 -0.4293
 6761SOL    HW131745   0.167   3.037   1.838  1.4622  1.1500 -2.3164
 6761SOL    HW231746   0.175   3.177   1.862  2.5639  0.1917 -1.5080
 6762SOL     OW31747   4.471   2.147   8.951  0.1883  0.1701  0.3688
 6762SOL    HW131748   4.532   2.125   8.881 -0.1223 -0.4123  0.2813
 6762SOL    HW231749   4.508   2.227   8.988  1.0494 -0.6756  1.3642
 6763SOL     OW31750   4.319   0.742   4.928 -0.3149 -0.5048  0.0944
 6763SOL    HW131751   4.306   0.707   5.016 -1.2631 -0.2195  0.0619
 6763SOL    HW231752   4.391   0.684   4.902 -1.6843 -1.9227 -0.5214
 6764SOL     OW31753   0.036   4.317   0.145  0.8202  0.3773  0.6073
 6764SOL    HW131754   0.068   4.382   0.082  0.6403 -0.1361 -0.0221
 6764SOL    HW231755   0.100   4.247   0.131  1.4334  0.9369  0.6364
 6765SOL     OW31756   2.671   3.145   3.505  0.4068 -0.3058  0.0560
 6765SOL    HW131757   2.648   3.072   3.448 -1.4166  0.6097 -0.3900
 6765SOL    HW231758   2.722   3.201   3.446  0.8903 -0.7995  0.0112
 6766SOL     OW31759   4.550   2.937   5.974 -0.0551  0.2740  1.0843
 6766SOL    HW131760   4.608   2.908   6.044  0.7507 -1.1250 -0.1372
 6766SOL    HW231761   4.568   2.862   5.917  1.2912  1.1847  0.2948
 6767SOL     OW31762   3.196   0.526   6.837  0.2110 -0.0574 -0.1279
 6767SOL    HW131763   3.245   0.607   6.821  1.4428 -0.4567  1.6616
 6767SOL    HW231764   3.130   0.563   6.896  0.3619  0.7781 -0.4776
 6768SOL     OW31765   1.679   3.021   4.985 -0.1980  0.3987 -0.3433
 6768SOL    HW131766   1.747   2.954   4.989 -1.0627 -0.6013 -2.1381
 6768SOL    HW231767   1.701   3.060   4.900 -0.4977  1.0654 -0.1179
 6769SOL     OW31768   0.085   2.284   3.344  0.2160 -0.0906 -0.5743
 6769SOL    HW131769   0.099   2.364   3.394 -3.0554 -1.1755  2.0653
 6769SOL    HW231770   0.172   2.259   3.314 -0.3808 -3.0707  0.1667
 6770SOL     OW31771   3.544   2.362  15.943  0.5460 -0.2378 -0.2542
 6770SOL    HW131772   3.516   2.448  15.913  1.1266  0.4437  1.1812
 6770SOL    HW231773   3.464   2.314  15.923  0.3063 -0.3618  1.0239
 6771SOL     OW31774   0.896   0.279   7.081 -0.4346  0.9638 -0.0804
 6771SOL    HW131775   0.899   0.364   7.038  1.3594  1.3133  0.7312
 6771SOL    HW231776   0.972   0.234   7.044 -0.0513  2.5179 -1.1412
 6772SOL     OW31777   2.728   3.709   4.310 -0.6174  0.1032  0.0100
 6772SOL    HW131778   2.663   3.747   4.368 -0.0834 -1.1354  1.4068
 6772SOL    HW231779   2.696   3.744   4.226  0.2073  2.2332  0.5962
 6773SOL     OW31780   0.080   1.924   4.779  0.4291  0.4238 -0.7087
 6773SOL    HW131781   0.054   1.837   4.749 -0.2252  0.2056  0.4803
 6773SOL    HW231782   0.164   1.905   4.819 -0.8456 -0.1960  1.6734
 6774SOL     OW31783   0.413   1.035   5.557  0.8320 -0.5471  0.4690
 6774SOL    HW131784   0.390   1.085   5.635  1.0543 -1.5364  1.1628
 6774SOL    HW231785   0.396   0.945   5.585 -4.3993  1.0109  2.2974
 6775SOL     OW31786   4.133   4.492   1.000  0.3784 -0.5685  0.0336
 6775SOL    HW131787   4.054   4.546   0.993 -0.4530 -1.8730 -0.7389
 6775SOL    HW231788   4.199   4.547   0.959  0.2221  0.9929  1.8888
 6776SOL     OW31789   2.256   2.860  15.494  0.4701 -0.3074 -0.0564
 6776SOL    HW131790   2.301   2.868  15.578  1.9099  0.7513 -0.9283
 6776SOL    HW231791   2.169   2.885  15.527  1.5052  1.1073  1.5675
 6777SOL     OW31792   1.653   3.441   3.531  0.1702 -0.7491 -0.5057
 6777SOL    HW131793   1.731   3.431   3.587  0.8169 -0.4845 -1.3566
 6777SOL    HW231794   1.634   3.350   3.507  1.2765 -1.1705  0.1882
 6778SOL     OW31795   1.729   1.186  11.492  0.2111 -0.0209 -0.0649
 6778SOL    HW131796   1.707   1.177  11.399  0.0924  0.7464 -0.1110
 6778SOL    HW231797   1.722   1.280  11.510 -2.1935 -0.4322  1.0793
 6779SOL     OW31798   3.044   2.609   6.367 -0.2522  0.3471 -0.0507
 6779SOL    HW131799   2.986   2.571   6.301 -0.7345  0.9537  0.0290
 6779SOL    HW231800   3.040   2.702   6.348 -1.2478  0.6472  1.6028
 6780SOL     OW31801   0.753   3.608  14.081 -0.0860  0.0259 -0.0514
 6780SOL    HW131802   0.833   3.623  14.031  0.9835  0.1320  1.7217
 6780SOL    HW231803   0.731   3.693  14.118  3.5465  0.6225  0.6448
 6781SOL     OW31804   2.523   1.277   1.452 -0.1322  0.1504  0.2237
 6781SOL    HW131805   2.496   1.304   1.364 -0.9814  2.5131  1.2264
 6781SOL    HW231806   2.509   1.355   1.505 -0.4915 -1.5091  2.5987
 6782SOL     OW31807   2.079   1.031   6.103 -0.7991 -0.0199  0.0127
 6782SOL    HW131808   2.149   1.091   6.127  0.0747 -0.9676 -0.1806
 6782SOL    HW231809   2.137   0.956   6.089 -1.1487  0.0989 -2.1122
 6783SOL     OW31810   3.684   4.645   5.099 -0.4510  0.3510 -0.2467
 6783SOL    HW131811   3.653   4.555   5.106  2.1783 -0.4630  1.3158
 6783SOL    HW231812   3.624   4.673   5.030 -2.1448 -2.3825  0.1191
 6784SOL     OW31813   2.432   1.263   9.962  0.3193  0.2410  0.0609
 6784SOL    HW131814   2.350   1.289  10.004  0.3711 -0.6423  0.7104
 6784SOL    HW231815   2.499   1.308  10.014  0.7988  2.8934 -2.8786
 6785SOL     OW31816   2.524   1.720   4.616 -0.6729  0.0745 -0.0167
 6785SOL    HW131817   2.577   1.657   4.666 -2.6436  0.4026  2.4799
 6785SOL    HW231818   2.444   1.722   4.669 -0.5326 -0.5096  0.2154
 6786SOL     OW31819   2.561   4.029   7.590  0.5057  0.5165  0.2291
 6786SOL    HW131820   2.510   4.102   7.554 -0.4717 -0.5492 -0.5380
 6786SOL    HW231821   2.602   4.075   7.663 -2.4007  2.3261  0.7170
 6787SOL     OW31822   2.975   2.168   7.140  0.2019  0.4729 -0.1341
 6787SOL    HW131823   2.932   2.172   7.055 -0.9871 -1.0114  0.3945
 6787SOL    HW231824   2.906   2.193   7.202 -0.2014 -0.2408 -0.2896
 6788SOL     OW31825   3.606   0.123   5.759 -0.0205  0.3814 -0.5973
 6788SOL    HW131826   3.672   0.123   5.828 -0.2535  1.8134 -0.3770
 6788SOL    HW231827   3.584   0.030   5.757  0.0981  0.3231  1.1482
 6789SOL     OW31828   2.499   1.642   1.184  0.1934  0.6996  0.0395
 6789SOL    HW131829   2.511   1.730   1.218 -1.5824  0.7035  0.6600
 6789SOL    HW231830   2.433   1.653   1.115  1.0143 -0.3949 -0.9215
 6790SOL     OW31831   0.316   3.693   7.999 -0.2555  0.0689 -0.3660
 6790SOL    HW131832   0.345   3.694   7.908 -0.0657  0.4328 -0.3046
 6790SOL    HW231833   0.303   3.787   8.012  0.4924  0.4403 -2.2419
 6791SOL     OW31834   3.709   4.574  17.337  0.5607 -0.3592 -0.1969
 6791SOL    HW131835   3.633   4.547  17.285 -1.0226  0.1360  1.8768
 6791SOL    HW231836   3.721   4.511  17.407  0.9855  0.4203  0.4295
 6792SOL     OW31837   2.770   4.558  16.265 -0.0204 -0.0546 -0.1373
 6792SOL    HW131838   2.785   4.652  16.264 -0.2136 -0.0392 -1.2647
 6792SOL    HW231839   2.770   4.544  16.360  0.8470 -0.5679 -0.2107
 6793SOL     OW31840   1.630   0.923   4.524 -0.1286 -0.1408  0.1828
 6793SOL    HW131841   1.659   0.988   4.588  0.1174  0.6282 -0.7068
 6793SOL    HW231842   1.629   0.981   4.448  0.0101  0.6839  0.7993
 6794SOL     OW31843   4.028   2.840   3.216  0.1449  0.0328  0.4353
 6794SOL    HW131844   4.022   2.817   3.308 -0.1953  1.4088  0.7656
 6794SOL    HW231845   4.030   2.755   3.172 -1.4326  0.1527  0.1485
 6795SOL     OW31846   4.249   2.886   5.173  0.0477  0.0353  0.6205
 6795SOL    HW131847   4.260   2.796   5.142  0.3046 -0.8548  3.3035
 6795SOL    HW231848   4.174   2.918   5.123 -0.5698 -0.3499  1.2983
 6796SOL     OW31849   4.202   4.088   8.735 -0.6216  0.0369  0.7611
 6796SOL    HW131850   4.279   4.144   8.739 -0.9775  0.5665  0.1964
 6796SOL    HW231851   4.243   4.005   8.710 -0.8637 -0.0760  0.7382
 6797SOL     OW31852   4.494   3.111   2.710 -0.0712  0.3808 -0.7369
 6797SOL    HW131853   4.516   3.194   2.667 -0.7225  0.7102 -0.4304
 6797SOL    HW231854   4.480   3.149   2.797 -3.1327  1.1098 -1.5498
 6798SOL     OW31855   0.782   1.303   0.704 -0.6830  0.1623  0.1647
 6798SOL    HW131856   0.711   1.334   0.760  0.4657 -0.9876  2.2585
 6798SOL    HW231857   0.780   1.368   0.633  0.0399  1.5371  1.4028
 6799SOL     OW31858   3.610   3.198   6.537 -0.3270  0.0630 -0.4633
 6799SOL    HW131859   3.607   3.141   6.460 -0.2737 -0.4549 -0.0869
 6799SOL    HW231860   3.544   3.259   6.503  0.1687  1.6139  1.3423
 6800SOL     OW31861   2.402   3.611   9.497  0.1354  0.0385  0.2169
 6800SOL    HW131862   2.372   3.547   9.562 -1.4751  0.9526  0.3802
 6800SOL    HW231863   2.360   3.689   9.533  0.8917  1.4532 -1.9924
 6801SOL     OW31864   0.008   1.432  15.224  0.5006 -0.3812 -0.3341
 6801SOL    HW131865   4.717   1.343  15.253 -0.4936 -1.4721 -4.1807
 6801SOL    HW231866   0.059   1.464  15.298  0.0403 -0.7532  0.1363
 6802SOL     OW31867   3.020   1.455  15.137 -0.4795  0.0409 -0.1316
 6802SOL    HW131868   3.039   1.382  15.196 -1.0615 -1.9309 -2.4213
 6802SOL    HW231869   2.997   1.410  15.056 -1.1348  0.6537 -0.2851
 6803SOL     OW31870   0.254   1.230   0.725 -0.1675 -0.0167 -0.0770
 6803SOL    HW131871   0.241   1.315   0.767 -1.4526  0.8583 -2.2542
 6803SOL    HW231872   0.338   1.248   0.683 -0.2354  0.4797 -0.0097
 6804SOL     OW31873   1.675   1.978   2.909  0.7525  0.3165  0.5355
 6804SOL    HW131874   1.732   2.025   2.848  1.7512 -1.8273 -0.2072
 6804SOL    HW231875   1.722   1.998   2.990  0.3188  1.6903  0.4396
 6805SOL     OW31876   3.438   0.270   3.294 -0.0402 -0.1301  0.1213
 6805SOL    HW131877   3.347   0.243   3.305 -0.5410  1.0715 -0.9997
 6805SOL    HW231878   3.455   0.319   3.374  0.4453 -1.5675  0.9134
 6806SOL     OW31879   0.312   2.029   3.289 -0.4613  0.0867  0.5565
 6806SOL    HW131880   0.225   2.012   3.254  0.0910  1.2618 -1.4136
 6806SOL    HW231881   0.291   2.027   3.382 -0.0323 -0.2765  0.6441
 6807SOL     OW31882   4.405   3.924   7.582 -0.0220  0.0729  0.0087
 6807SOL    HW131883   4.397   3.898   7.491  3.7927  1.0899 -0.6214
 6807SOL    HW231884   4.458   3.853   7.618  1.6480  0.7601 -1.1031
 6808SOL     OW31885   1.080   0.981   5.040 -0.3647 -0.4294  0.1725
 6808SOL    HW131886   1.061   1.075   5.038 -2.8290 -0.9559 -0.2380
 6808SOL    HW231887   1.080   0.962   5.134 -3.8508 -1.0338  0.0527
 6809SOL     OW31888   0.173   4.123   4.473 -0.1312 -0.3467  0.0550
 6809SOL    HW131889   0.126   4.173   4.407  0.5033  3.0045  2.1598
 6809SOL    HW231890   0.165   4.187   4.544 -1.6335 -0.7388  0.2347
 6810SOL     OW31891   1.899   0.040   7.480  0.3663  0.5370  0.3486
 6810SOL    HW131892   1.860   0.127   7.474 -0.9515 -0.0864 -0.0858
 6810SOL    HW231893   1.969   0.057   7.417  0.6467 -1.4591  0.1335
 6811SOL     OW31894   0.202   4.674   5.839  0.3543  0.3821 -0.4199
 6811SOL    HW131895   0.171   0.037   5.825 -0.9508  0.2993  2.0054
 6811SOL    HW231896   0.140   4.642   5.904 -0.4400  2.5178 -0.1177
 6812SOL     OW31897   2.445   2.553  17.153 -0.0257 -0.3984  0.1003
 6812SOL    HW131898   2.488   2.472  17.182  0.0922 -0.2282  0.3975
 6812SOL    HW231899   2.417   2.582  17.240  2.7761  1.5419  0.3300
 6813SOL     OW31900   4.670   3.037   6.731  0.4546 -0.4082  0.1204
 6813SOL    HW131901   4.591   3.072   6.772  1.9296 -0.1744  2.7673
 6813SOL    HW231902   4.712   3.120   6.707  2.0592 -0.6696  1.9972
 6814SOL     OW31903   0.973   1.969   0.803 -0.0126 -0.0757 -0.1960
 6814SOL    HW131904   1.045   1.977   0.865  2.1812  1.2283 -2.9349
 6814SOL    HW231905   1.017   2.020   0.734  0.2701 -1.1274 -0.7906
 6815SOL     OW31906   2.710   0.690   7.872  0.2845  0.2012  0.2512
 6815SOL    HW131907   2.739   0.763   7.816 -1.2136  0.6836  0.0911
 6815SOL    HW231908   2.621   0.714   7.897  0.7275 -0.4320  2.4278
 6816SOL     OW31909   3.967   4.301   5.771  0.0134  0.2669 -0.0635
 6816SOL    HW131910   4.055   4.332   5.789  0.2409  0.8260 -2.1162
 6816SOL    HW231911   3.981   4.258   5.687  2.0473  1.2291 -0.2130
 6817SOL     OW31912   3.522   4.051   9.085  0.2991 -0.0212  0.2026
 6817SOL    HW131913   3.481   4.133   9.059  1.7751  0.1694 -1.5843
 6817SOL    HW231914   3.468   3.981   9.048  0.4049 -0.0824  0.1632
 6818SOL     OW31915   1.523   2.462   2.626  0.3341  0.0339 -0.0818
 6818SOL    HW131916   1.562   2.376   2.617 -0.8284 -0.5741  0.6374
 6818SOL    HW231917   1.439   2.459   2.579  1.4635 -2.4740 -1.8800
 6819SOL     OW31918   3.717   3.302   8.459 -0.5195  0.4581  0.8251
 6819SOL    HW131919   3.657   3.289   8.385  0.5431 -0.5492  0.1348
 6819SOL    HW231920   3.690   3.383   8.501 -0.2378  1.1276 -0.2627
 6820SOL     OW31921   2.914   0.089  11.061  0.8290  0.0007  0.1441
 6820SOL    HW131922   2.982   0.068  10.996  0.2560 -1.4748  0.0066
 6820SOL    HW231923   2.846   0.025  11.041  0.0793  0.7728  0.2504
 6821SOL     OW31924   0.103   2.378   5.915 -0.3631  0.1894 -0.2622
 6821SOL    HW131925   0.077   2.390   5.824 -0.0291 -2.4859 -0.7246
 6821SOL    HW231926   0.084   2.465   5.950  0.6138  0.0267  0.6588
 6822SOL     OW31927   0.828   2.005   5.656  0.0668 -0.2450 -0.2939
 6822SOL    HW131928   0.858   1.992   5.746 -3.6141 -2.7675  0.5702
 6822SOL    HW231929   0.739   2.029   5.683 -0.6619 -2.0737 -1.0791
 6823SOL     OW31930   2.051   0.723   6.277  0.0097 -0.0762 -0.2920
 6823SOL    HW131931   1.960   0.701   6.299 -0.2949  0.5970 -0.8836
 6823SOL    HW231932   2.069   0.796   6.335  1.3838 -0.4313 -0.2835
 6824SOL     OW31933   1.275   2.742   2.033 -0.0193 -0.0576 -0.3764
 6824SOL    HW131934   1.362   2.751   1.993  0.8972 -1.5278  1.2596
 6824SOL    HW231935   1.222   2.710   1.961 -1.0107  1.5990 -0.3723
 6825SOL     OW31936   4.525   3.695   3.433  0.2982 -0.0117 -0.8024
 6825SOL    HW131937   4.466   3.745   3.490 -2.8519 -1.5600 -2.6922
 6825SOL    HW231938   4.605   3.748   3.428 -0.8137  1.6175 -1.1725
 6826SOL     OW31939   0.387   3.690   2.733 -0.3612  0.0268  0.0130
 6826SOL    HW131940   0.468   3.654   2.698 -0.7069 -0.8632  0.1448
 6826SOL    HW231941   0.359   3.618   2.788 -1.1382 -1.7990 -2.7508
 6827SOL     OW31942   3.967   4.503   2.825  0.3448 -0.3196 -0.3361
 6827SOL    HW131943   3.979   4.582   2.772 -1.4467 -0.9178 -1.6734
 6827SOL    HW231944   3.876   4.510   2.856  1.1197  1.6065  1.5228
 6828SOL     OW31945   0.460   3.690  11.108  0.0653 -0.0249 -0.1963
 6828SOL    HW131946   0.550   3.722  11.110 -0.4822  1.6887 -2.2077
 6828SOL    HW231947   0.413   3.771  11.129 -1.1044 -1.4571  2.6691
 6829SOL     OW31948   2.407   3.576  11.520  0.0604 -0.0319  0.2628
 6829SOL    HW131949   2.313   3.570  11.538  0.2160  1.6640  1.6233
 6829SOL    HW231950   2.407   3.670  11.499 -1.1294 -0.3506 -1.1506
 6830SOL     OW31951   4.709   0.967  14.918  0.1012 -0.7534 -0.0137
 6830SOL    HW131952   4.689   0.925  14.834 -0.9013  1.4786 -0.8995
 6830SOL    HW231953   4.620   0.974  14.953 -0.1137 -1.7129 -0.3642
 6831SOL     OW31954   4.665   1.718  11.210 -0.1686  0.2245 -0.1999
 6831SOL    HW131955   4.627   1.776  11.276  1.0333  0.3810  0.3441
 6831SOL    HW231956   4.721   1.784  11.170  0.5453  1.2404  2.5084
 6832SOL     OW31957   0.037   3.567  15.512 -0.3343  0.0622  0.3070
 6832SOL    HW131958   0.027   3.550  15.419  0.8423 -1.9139  0.5291
 6832SOL    HW231959   0.087   3.489  15.538 -1.8252 -0.9020  0.2687
 6833SOL     OW31960   1.288   1.988   2.385  0.0352 -0.0159 -0.3988
 6833SOL    HW131961   1.228   2.000   2.311 -0.7227  0.8009  0.3435
 6833SOL    HW231962   1.329   2.073   2.403 -0.8314  0.5521 -1.1294
 6834SOL     OW31963   0.287   1.807   3.054  0.2069 -0.9297  0.4957
 6834SOL    HW131964   0.200   1.775   3.029 -0.6911  3.2252 -1.7529
 6834SOL    HW231965   0.282   1.902   3.041  0.0262 -0.9676  0.2834
 6835SOL     OW31966   2.850   1.653   5.768 -0.3397  0.5366  0.1372
 6835SOL    HW131967   2.882   1.715   5.702 -3.2134  0.9224 -0.8811
 6835SOL    HW231968   2.775   1.620   5.719 -0.7404  2.3168 -0.4421
 6836SOL     OW31969   3.122   1.249   2.637 -0.5661  0.7267 -0.8419
 6836SOL    HW131970   3.183   1.258   2.709 -3.0770 -0.9552  1.4870
 6836SOL    HW231971   3.135   1.156   2.616  0.7234  0.2528  2.0615
 6837SOL     OW31972   1.397   0.853   6.179 -0.2625  0.3829  0.1361
 6837SOL    HW131973   1.404   0.781   6.241 -1.3733 -2.0209 -2.5538
 6837SOL    HW231974   1.340   0.818   6.110  1.6966  1.5845 -2.0986
 6838SOL     OW31975   1.294   3.041   4.862  0.4375  0.4021  0.1663
 6838SOL    HW131976   1.276   2.989   4.783  1.2840  1.9399 -1.0468
 6838SOL    HW231977   1.356   2.978   4.899  1.1857  0.4226 -1.0401
 6839SOL     OW31978   3.238   3.117  14.132  0.3216  0.5337  1.1172
 6839SOL    HW131979   3.169   3.147  14.191  0.6447  4.1447 -0.3425
 6839SOL    HW231980   3.310   3.168  14.171  0.4035 -1.5666  3.6723
 6840SOL     OW31981   1.230   4.049   1.773 -0.8578  0.7475 -0.3169
 6840SOL    HW131982   1.144   4.007   1.780  0.5962 -2.2654 -0.1999
 6840SOL    HW231983   1.231   4.112   1.844 -0.7377 -0.0754  0.4152
 6841SOL     OW31984   0.077   2.590   8.732  0.7256  0.2008  0.1201
 6841SOL    HW131985   0.107   2.530   8.800  0.9535 -0.3213 -0.4414
 6841SOL    HW231986   0.141   2.574   8.662  1.0995 -0.3666  0.5914
 6842SOL     OW31987   2.560   1.337   4.617  0.3012  0.5194  0.0982
 6842SOL    HW131988   2.600   1.286   4.687 -0.0318  1.6048  1.0707
 6842SOL    HW231989   2.536   1.265   4.559  1.2126  0.2291  0.0707
 6843SOL     OW31990   2.037   3.491   7.418  0.3425 -0.3230 -0.5876
 6843SOL    HW131991   2.053   3.397   7.422  0.1007 -0.3086  0.6751
 6843SOL    HW231992   1.987   3.503   7.337  1.2393  2.9794 -0.6553
 6844SOL     OW31993   2.122   4.160   0.575 -0.2211 -0.3733  0.0499
 6844SOL    HW131994   2.212   4.133   0.557 -0.4157 -1.5754  0.8246
 6844SOL    HW231995   2.079   4.085   0.535 -0.9298 -0.5815  1.1897
 6845SOL     OW31996   2.058   2.652   6.181  0.4131 -0.1594 -0.3518
 6845SOL    HW131997   1.973   2.628   6.145  0.2243 -0.9481  0.6214
 6845SOL    HW231998   2.025   2.678   6.267  1.1404  1.7392 -0.6539
 6846SOL     OW31999   3.628   3.158   9.319  0.4742  0.1765  0.0205
 6846SOL    HW132000   3.672   3.119   9.394  1.0152 -0.7698 -0.7867
 6846SOL    HW232001   3.648   3.088   9.256  1.4859 -0.4733  1.0681
 6847SOL     OW32002   2.732   0.746   6.525 -0.2922 -0.7030 -0.9637
 6847SOL    HW132003   2.718   0.694   6.604 -3.4155  0.2488 -0.8759
 6847SOL    HW232004   2.726   0.665   6.475  0.7470 -2.0805  1.1048
 6848SOL     OW32005   4.019   0.100   5.910 -0.1153 -0.2638  0.4509
 6848SOL    HW132006   4.018   0.015   5.954 -0.0705 -0.2633  0.4529
 6848SOL    HW232007   3.929   0.132   5.916 -0.5709 -1.7539  1.5365
 6849SOL     OW32008   3.172   2.222   1.931  0.7615 -0.2366  0.1900
 6849SOL    HW132009   3.134   2.143   1.970  1.8524 -1.7509 -1.8554
 6849SOL    HW232010   3.094   2.271   1.905  0.0700 -1.2431  0.3655
 6850SOL     OW32011   2.522   1.898   2.897  0.4347  0.1661  0.0591
 6850SOL    HW132012   2.537   1.946   2.979  1.4301  0.3439 -0.2270
 6850SOL    HW232013   2.509   1.816   2.945 -1.4161  0.2127 -0.3955
 6851SOL     OW32014   0.073   1.512   7.949  0.4311  0.1448  0.3215
 6851SOL    HW132015   0.099   1.424   7.924 -1.3567 -0.4476  0.5467
 6851SOL    HW232016   0.000   1.519   7.887  1.8730  1.3789 -1.2381
 6852SOL     OW32017   2.357   4.503   9.194  0.6813 -0.5088 -0.3675
 6852SOL    HW132018   2.395   4.588   9.171 -1.8264  1.1003  1.4048
 6852SOL    HW232019   2.331   4.469   9.109  0.1126 -0.3782 -0.2500
 6853SOL     OW32020   2.000   0.289  12.118  0.7357 -0.0059 -0.0025
 6853SOL    HW132021   1.926   0.261  12.172 -0.0025 -2.2356 -2.1781
 6853SOL    HW232022   2.000   0.238  12.037  0.3623 -0.6877  0.4317
 6854SOL     OW32023   3.079   2.823   9.264  0.2133  0.3194 -0.4359
 6854SOL    HW132024   3.169   2.791   9.268  0.1644  0.3970  1.0435
 6854SOL    HW232025   3.034   2.754   9.215  1.4918  1.2093 -2.8685
 6855SOL     OW32026   1.516   1.842   8.493 -0.2293 -0.8952 -0.1971
 6855SOL    HW132027   1.592   1.816   8.545 -1.2638  2.1922  2.8542
 6855SOL    HW232028   1.445   1.823   8.554 -1.3951  0.4437 -1.1420
 6856SOL     OW32029   3.736   0.875   8.395  0.3972 -0.2204 -0.3684
 6856SOL    HW132030   3.771   0.794   8.359  0.9527 -1.4309  2.8993
 6856SOL    HW232031   3.667   0.843   8.453 -1.5632  0.9923 -2.0080
 6857SOL     OW32032   3.122   0.991   2.308 -0.2227 -0.6874 -0.4841
 6857SOL    HW132033   3.157   1.018   2.393  0.1151 -2.2185 -0.1247
 6857SOL    HW232034   3.173   0.913   2.286 -1.8779 -1.6831 -0.8403
 6858SOL     OW32035   3.575   1.454  11.727 -0.5102 -0.6506 -0.1322
 6858SOL    HW132036   3.647   1.424  11.782 -0.9339  1.6196  1.6441
 6858SOL    HW232037   3.597   1.545  11.708  0.4857 -1.0089 -0.6373
 6859SOL     OW32038   2.631   2.540   5.760  0.5184 -1.1511 -0.2527
 6859SOL    HW132039   2.663   2.498   5.839 -1.2218 -1.5106  0.2565
 6859SOL    HW232040   2.539   2.511   5.763 -0.6960  2.4428 -1.9025
 6860SOL     OW32041   4.157   0.094  12.077  0.1204  0.6968  0.1994
 6860SOL    HW132042   4.091   0.058  12.137  1.0289 -0.8065  0.2968
 6860SOL    HW232043   4.144   0.188  12.086 -0.6565  0.6344 -0.2511
 6861SOL     OW32044   4.640   1.201   3.411  0.1213 -0.0051  0.1132
 6861SOL    HW132045   4.652   1.153   3.329 -0.1140 -1.4284  0.9083
 6861SOL    HW232046   4.633   1.124   3.468 -1.7361 -0.5011 -0.8013
 6862SOL     OW32047   2.032   0.225   8.547 -0.7936  0.0288 -0.2824
 6862SOL    HW132048   2.109   0.168   8.540  0.1973  0.9668  2.7998
 6862SOL    HW232049   2.063   0.273   8.625 -1.2529 -2.5179  1.4721
 6863SOL     OW32050   0.725   0.791   6.168 -0.4776  0.0252  0.1664
 6863SOL    HW132051   0.765   0.860   6.114  1.8836  0.1577  2.0916
 6863SOL    HW232052   0.646   0.782   6.115 -0.5220  2.6133 -0.2248
 6864SOL     OW32053   4.107   1.256   7.970  0.2327  0.1996  0.3203
 6864SOL    HW132054   4.037   1.303   7.925  0.7428 -0.7810 -1.4835
 6864SOL    HW232055   4.119   1.308   8.049 -1.1428 -1.1911  1.4514
 6865SOL     OW32056   4.498   1.049   9.070  0.1449 -0.3849  0.5942
 6865SOL    HW132057   4.582   1.095   9.073 -1.0395  1.8546 -0.2926
 6865SOL    HW232058   4.430   1.112   9.096  1.7519  0.2781  3.1589
 6866SOL     OW32059   1.438   1.358   8.116 -0.2723 -0.0003  0.5884
 6866SOL    HW132060   1.366   1.321   8.167 -0.2036 -0.2943  0.4734
 6866SOL    HW232061   1.495   1.381   8.190 -1.4463  0.2700  1.4024
 6867SOL     OW32062   4.273   1.584  15.089  0.4133  0.0491 -0.2668
 6867SOL    HW132063   4.196   1.610  15.039  0.5762  1.5088  0.2311
 6867SOL    HW232064   4.255   1.490  15.098 -1.7347  0.4698 -0.0266
 6868SOL     OW32065   4.080   1.565   3.815  0.3166  0.2728  0.4339
 6868SOL    HW132066   4.090   1.652   3.775  0.0871  0.4295  0.7234
 6868SOL    HW232067   4.152   1.516   3.775 -1.3642 -2.1172  0.3487
 6869SOL     OW32068   1.065   1.277   4.977 -0.3084 -0.0387  0.3349
 6869SOL    HW132069   0.990   1.304   5.031 -0.7392 -0.5376 -0.0051
 6869SOL    HW232070   1.071   1.367   4.947 -2.0493  0.4464  1.4499
 6870SOL     OW32071   2.405   3.515   6.264 -0.1155  0.2235  0.2308
 6870SOL    HW132072   2.342   3.560   6.209 -0.3242 -0.8006 -0.3604
 6870SOL    HW232073   2.349   3.443   6.294 -0.2322  0.5139  0.7028
 6871SOL     OW32074   4.661   2.393   3.706 -0.2370 -0.5109  0.2241
 6871SOL    HW132075   4.690   2.472   3.660  0.3994  0.2645  1.9728
 6871SOL    HW232076   4.569   2.409   3.727  0.0860  0.2864  1.0470
 6872SOL     OW32077   2.755   1.554  11.081 -0.1671 -0.3884 -0.1440
 6872SOL    HW132078   2.807   1.626  11.118  0.6320 -0.6821 -0.7101
 6872SOL    HW232079   2.674   1.542  11.131 -0.0676  3.6846  0.9655
 6873SOL     OW32080   1.880   3.188   4.350 -0.1868  0.2195 -0.2242
 6873SOL    HW132081   1.850   3.276   4.326 -0.1927  0.5294  0.9140
 6873SOL    HW232082   1.810   3.127   4.329  1.5982 -2.7010  2.3630
 6874SOL     OW32083   0.777   2.948  14.614 -0.1399 -0.5828 -0.5405
 6874SOL    HW132084   0.707   2.961  14.549 -1.0651  3.2459  1.1945
 6874SOL    HW232085   0.766   2.853  14.612  1.6321 -0.7987  1.2214
 6875SOL     OW32086   4.671   2.123   3.627  0.0257 -0.0179 -0.5499
 6875SOL    HW132087   4.642   2.101   3.716 -2.5742  0.5896 -1.2489
 6875SOL    HW232088   4.692   2.217   3.634 -1.4317  0.2662 -0.0050
 6876SOL     OW32089   2.275   3.885   7.532  0.0869 -0.0865  0.1643
 6876SOL    HW132090   2.279   3.966   7.584  0.2306  0.0845 -0.1116
 6876SOL    HW232091   2.356   3.836   7.540  0.3215  0.3701  0.6318
 6877SOL     OW32092   3.164   3.598   1.843  0.7223  0.0398  0.0807
 6877SOL    HW132093   3.201   3.574   1.928 -0.3854  0.5629  0.7124
 6877SOL    HW232094   3.169   3.518   1.791 -0.6267 -0.9038  1.4032
 6878SOL     OW32095   3.290   2.231  12.478 -0.1568 -0.2861  0.8633
 6878SOL    HW132096   3.295   2.185  12.395 -2.3485  0.4503  0.3134
 6878SOL    HW232097   3.379   2.238  12.512  1.1244 -1.0435 -2.3632
 6879SOL     OW32098   3.429   2.981   3.190  0.0363 -0.0773 -0.0315
 6879SOL    HW132099   3.351   3.017   3.233  0.0103  0.0931 -0.2234
 6879SOL    HW232100   3.494   3.030   3.241  0.3458  1.5469 -2.0020
 6880SOL     OW32101   1.531   3.005   8.052 -0.0288 -0.1819  0.6696
 6880SOL    HW132102   1.445   3.008   8.009 -0.6627 -0.4129  1.9323
 6880SOL    HW232103   1.582   3.010   7.971 -2.0655  0.2132 -0.6077
 6881SOL     OW32104   1.713   2.199   4.662  0.2413 -0.0773  0.8351
 6881SOL    HW132105   1.735   2.276   4.714 -1.2199  1.0561 -0.2361
 6881SOL    HW232106   1.618   2.194   4.669  0.3473  0.6995  2.7641
 6882SOL     OW32107   0.067   4.350   9.625 -0.7260 -0.7001 -0.3339
 6882SOL    HW132108   0.043   4.430   9.673 -1.3235 -1.5046  0.7152
 6882SOL    HW232109   0.066   4.388   9.537 -0.2257 -0.6116 -0.3015
 6883SOL     OW32110   2.999   3.748  16.323 -0.7032  0.8172  0.2144
 6883SOL    HW132111   2.983   3.656  16.302 -1.4804  1.9007 -3.9244
 6883SOL    HW232112   3.093   3.736  16.332 -1.1376 -1.5498  1.6763
 6884SOL     OW32113   2.070   2.516  11.704 -0.2877 -0.0058  0.1150
 6884SOL    HW132114   2.147   2.461  11.716  0.0886  0.8592  1.7758
 6884SOL    HW232115   2.051   2.513  11.610  0.7083  0.0642 -0.0861
 6885SOL     OW32116   3.693   3.763   6.683 -0.1305  0.3581 -0.2459
 6885SOL    HW132117   3.694   3.847   6.729  1.8407  1.1190 -1.6598
 6885SOL    HW232118   3.649   3.708   6.749  0.8715  0.6922  0.7102
 6886SOL     OW32119   4.662   2.126   8.732 -0.4301 -0.4392  0.1229
 6886SOL    HW132120   0.014   2.087   8.769 -0.8921 -1.7449 -0.2680
 6886SOL    HW232121   4.680   2.131   8.638 -0.7220  1.0506  0.1405
 6887SOL     OW32122   4.435   0.466  12.724 -0.0330  0.5072 -0.0559
 6887SOL    HW132123   4.373   0.495  12.791 -0.6719  0.8902 -0.8115
 6887SOL    HW232124   4.497   0.540  12.720  1.5778 -0.9733 -2.4060
 6888SOL     OW32125   2.841   3.593   2.498 -0.6458 -0.4577  0.3400
 6888SOL    HW132126   2.933   3.581   2.520 -0.1688 -0.1308 -1.4363
 6888SOL    HW232127   2.855   3.635   2.413 -0.8716  0.4026  0.7257
 6889SOL     OW32128   2.340   2.580  13.016  0.4668 -0.0622 -0.5069
 6889SOL    HW132129   2.307   2.491  13.009  1.6654 -0.4272 -1.5147
 6889SOL    HW232130   2.374   2.583  12.927 -2.5749  0.1450 -1.6397
 6890SOL     OW32131   3.944   4.001  14.003  0.2635  0.1816 -0.6538
 6890SOL    HW132132   3.887   3.934  13.965  1.3631 -1.5000  0.6631
 6890SOL    HW232133   3.888   4.057  14.057  0.3832 -1.3657  1.0560
 6891SOL     OW32134   3.495   0.876   7.162  0.0943  0.6838 -0.2127
 6891SOL    HW132135   3.534   0.953   7.203 -0.9706  0.7542  0.6852
 6891SOL    HW232136   3.441   0.834   7.230  2.5541 -1.1701  0.5964
 6892SOL     OW32137   3.960   0.341   4.058 -0.0280 -0.2481  0.3589
 6892SOL    HW132138   3.985   0.374   4.144 -1.0720 -0.0266  0.5725
 6892SOL    HW232139   4.044   0.348   4.012 -1.5274  1.9975 -2.0288
 6893SOL     OW32140   3.297   3.995   1.538  0.1108  0.1338 -0.2874
 6893SOL    HW132141   3.227   3.949   1.584  2.0300 -0.3401  2.1544
 6893SOL    HW232142   3.363   4.022   1.602 -2.1319  1.4887  1.4231
 6894SOL     OW32143   2.126   2.381  11.053 -0.1852  0.4226 -0.4985
 6894SOL    HW132144   2.100   2.440  10.982 -1.6563  0.3344 -0.0252
 6894SOL    HW232145   2.221   2.392  11.050 -0.2960  1.1615 -1.5370
 6895SOL     OW32146   4.571   1.875   8.104 -0.2884 -0.4573 -0.0188
 6895SOL    HW132147   4.616   1.865   8.188  1.2294  3.1238 -0.4047
 6895SOL    HW232148   4.598   1.967   8.094 -1.7236 -0.4373 -3.5744
 6896SOL     OW32149   4.291   2.128   4.991 -0.3880  0.3632 -0.7877
 6896SOL    HW132150   4.220   2.112   4.929  0.1482  1.2865 -1.6577
 6896SOL    HW232151   4.243   2.151   5.071  0.9581  0.2459  0.0602
 6897SOL     OW32152   3.792   2.487   4.996  0.1787 -0.2423  0.6986
 6897SOL    HW132153   3.743   2.546   4.939 -3.1845 -4.0041 -0.2443
 6897SOL    HW232154   3.881   2.522   4.992 -0.5042  1.4382 -0.0760
 6898SOL     OW32155   3.860   4.716  17.150 -0.1619 -0.0506 -0.6167
 6898SOL    HW132156   3.833   4.652  17.216 -0.5955  2.2620  1.4377
 6898SOL    HW232157   3.776   0.016  17.113  0.5687 -0.5482 -2.6317
 6899SOL     OW32158   3.954   2.307   2.998 -0.2398 -0.5752 -0.2702
 6899SOL    HW132159   4.007   2.265   2.930 -1.2312 -1.2007 -0.6696
 6899SOL    HW232160   3.986   2.397   2.995  1.9985 -1.3827 -0.3087
 6900SOL     OW32161   2.626   2.573   8.400 -0.3739  0.0990 -0.8890
 6900SOL    HW132162   2.612   2.608   8.313 -0.3115  0.6510 -0.6725
 6900SOL    HW232163   2.697   2.511   8.381  0.8380  1.0428  0.4988
 6901SOL     OW32164   3.332   2.518   7.745 -0.4914  0.3174  0.5673
 6901SOL    HW132165   3.298   2.430   7.763 -0.5595  0.6910  2.2212
 6901SOL    HW232166   3.374   2.510   7.659 -0.7403  4.4283  0.0928
 6902SOL     OW32167   4.222   4.349   5.755 -0.0603 -0.3455 -0.2699
 6902SOL    HW132168   4.304   4.397   5.764 -0.6362  1.2870 -3.5064
 6902SOL    HW232169   4.256   4.262   5.775  1.1470  0.3330  0.6418
 6903SOL     OW32170   2.339   3.106   6.644  0.1112  0.1671  0.4133
 6903SOL    HW132171   2.278   3.116   6.571  0.0838 -1.0998  0.2617
 6903SOL    HW232172   2.308   3.160   6.717  0.1016  0.9708 -0.1924
 6904SOL     OW32173   2.526   1.404   2.339  0.4575  0.2628 -0.1543
 6904SOL    HW132174   2.559   1.314   2.343 -0.8694 -0.2655 -1.5016
 6904SOL    HW232175   2.606   1.449   2.368  0.7210  0.1768 -0.7532
 6905SOL     OW32176   3.868   1.149   5.433  0.2049 -0.0384  0.5598
 6905SOL    HW132177   3.808   1.134   5.360  2.6394  1.2453 -1.6959
 6905SOL    HW232178   3.805   1.138   5.504 -0.5998  0.7269 -0.0344
 6906SOL     OW32179   0.413   4.449   5.520  0.6723 -0.1125 -0.3083
 6906SOL    HW132180   0.434   4.356   5.518 -0.4339 -0.3704  0.7317
 6906SOL    HW232181   0.486   4.479   5.466  1.7326 -0.5342  0.8997
 6907SOL     OW32182   3.396   0.029  11.771  0.2170 -0.0417 -0.0436
 6907SOL    HW132183   3.309   0.030  11.812 -0.1340 -0.6104 -0.7669
 6907SOL    HW232184   3.447   0.055  11.848  0.2877  0.5434 -0.2931
 6908SOL     OW32185   0.634   1.246   8.030 -0.2456 -0.4635  0.4553
 6908SOL    HW132186   0.696   1.188   8.073  2.3394  1.8665 -0.1805
 6908SOL    HW232187   0.629   1.318   8.094 -1.1361  1.0994 -1.3720
 6909SOL     OW32188   3.384   2.923   4.898  0.3683  1.1498 -0.1234
 6909SOL    HW132189   3.304   2.898   4.851  1.3134 -1.0642 -0.5529
 6909SOL    HW232190   3.365   2.891   4.986  1.1652 -1.3986 -0.8777
 6910SOL     OW32191   4.219   3.862   0.345  0.3367  0.4902 -0.2899
 6910SOL    HW132192   4.151   3.907   0.294  0.0860  1.0440  0.5427
 6910SOL    HW232193   4.298   3.892   0.299  0.7978  0.2146  0.3304
 6911SOL     OW32194   3.884   3.504   6.860 -0.6445  0.3980 -0.7800
 6911SOL    HW132195   3.953   3.440   6.880 -1.2132  0.2860  0.7848
 6911SOL    HW232196   3.833   3.449   6.801 -2.1367 -0.2282  1.0937
 6912SOL     OW32197   1.803   0.480   7.695 -0.1755 -0.1421 -0.2474
 6912SOL    HW132198   1.825   0.460   7.605 -2.8070 -2.5751 -0.3445
 6912SOL    HW232199   1.825   0.399   7.742  0.9661 -0.8479 -2.0264
 6913SOL     OW32200   2.742   3.791   4.710  0.0126 -0.0727 -0.3304
 6913SOL    HW132201   2.797   3.723   4.672 -3.9547 -3.0990 -0.6162
 6913SOL    HW232202   2.805   3.852   4.749  1.2410 -0.6601 -1.4277
 6914SOL     OW32203   0.342   4.046  12.521  0.2611  0.1158 -0.4648
 6914SOL    HW132204   0.252   4.059  12.553  0.2501 -1.4384  0.1295
 6914SOL    HW232205   0.380   4.002  12.596 -0.1135 -0.5266 -0.6545
 6915SOL     OW32206   0.461   1.737   3.709  0.7661  0.4737 -0.5626
 6915SOL    HW132207   0.466   1.828   3.679  1.1934  0.3240 -0.9331
 6915SOL    HW232208   0.482   1.750   3.802  2.4677 -1.2149 -0.7275
 6916SOL     OW32209   3.798   4.066   6.238  0.6720 -0.4129 -0.3765
 6916SOL    HW132210   3.788   3.971   6.231 -2.9289  0.0592 -1.9482
 6916SOL    HW232211   3.848   4.083   6.158 -1.0550  1.6054 -1.0368
 6917SOL     OW32212   0.929   1.951   5.920  0.1025  0.4850  0.2340
 6917SOL    HW132213   0.994   1.894   5.961 -0.6360 -0.3429  0.2552
 6917SOL    HW232214   0.946   2.037   5.959  3.5407 -1.5083  3.1999
 6918SOL     OW32215   3.215   3.846   9.408  0.0596 -0.8474 -0.0030
 6918SOL    HW132216   3.306   3.824   9.390  0.5479  0.7414  0.4962
 6918SOL    HW232217   3.178   3.815   9.325 -2.4287  0.6676  0.5204
 6919SOL     OW32218   4.234   4.091   6.139  0.3230 -0.0950 -0.3711
 6919SOL    HW132219   4.229   4.060   6.230  0.9643  1.7546  0.3063
 6919SOL    HW232220   4.330   4.087   6.136  0.1007 -2.9456 -3.0268
 6920SOL     OW32221   0.973   1.516  11.513  0.1006 -0.5082 -0.3757
 6920SOL    HW132222   1.037   1.457  11.554  1.4532  0.8584 -0.5164
 6920SOL    HW232223   0.900   1.511  11.574 -0.6322  1.0217 -1.1430
 6921SOL     OW32224   1.028   1.521   3.902  0.7879 -0.1213 -0.3763
 6921SOL    HW132225   1.057   1.566   3.822 -1.1872  0.1982 -0.9121
 6921SOL    HW232226   0.991   1.600   3.942 -2.0192 -1.2762 -0.7666
 6922SOL     OW32227   3.380   4.430   6.115 -0.0084  0.3410 -0.6352
 6922SOL    HW132228   3.465   4.473   6.117  1.9364 -3.5290  0.3641
 6922SOL    HW232229   3.314   4.499   6.113 -0.0891  0.2479 -1.4564
 6923SOL     OW32230   0.943   1.260   2.516 -0.2016 -0.0216  0.3314
 6923SOL    HW132231   1.021   1.214   2.487 -1.1945 -1.1261 -0.5640
 6923SOL    HW232232   0.954   1.340   2.464 -1.0370  0.3983  0.7890
 6924SOL     OW32233   2.658   4.445   6.555 -0.6401  0.7797 -0.2247
 6924SOL    HW132234   2.590   4.378   6.562  0.1875  0.0538  1.0620
 6924SOL    HW232235   2.723   4.398   6.607 -0.3811  0.0363 -1.2175
 6925SOL     OW32236   1.205   0.003   2.739  0.2163 -0.2387  0.7065
 6925SOL    HW132237   1.124   0.050   2.720 -0.3588 -2.0057 -1.2501
 6925SOL    HW232238   1.259   0.079   2.762  1.9951 -1.0226 -0.8866
 6926SOL     OW32239   1.605   0.967  14.290 -0.1294  0.7233 -0.1939
 6926SOL    HW132240   1.517   0.991  14.320  0.4321  1.7011  0.6866
 6926SOL    HW232241   1.646   1.040  14.337  0.7333  1.6287 -2.3911
 6927SOL     OW32242   0.563   4.123   7.468  0.4827 -0.1215  0.2871
 6927SOL    HW132243   0.548   4.044   7.520 -0.2424  0.4900  1.0029
 6927SOL    HW232244   0.594   4.086   7.385 -1.7703  1.3491 -1.2251
 6928SOL     OW32245   0.891   1.623   9.750  0.6092 -0.0303  0.2755
 6928SOL    HW132246   0.911   1.696   9.809  0.1047 -0.4469  0.9595
 6928SOL    HW232247   0.977   1.619   9.708  1.1727  0.3786  1.3758
 6929SOL     OW32248   4.417   3.670   3.175 -0.6677 -0.2745  0.6044
 6929SOL    HW132249   4.465   3.677   3.257  1.1063  0.5911 -0.5228
 6929SOL    HW232250   4.404   3.760   3.146 -2.5406 -1.1667 -1.3330
 6930SOL     OW32251   2.058   1.128  10.035  0.4285 -0.0195 -0.2647
 6930SOL    HW132252   2.096   1.060   9.979  1.2116 -0.0845  0.3502
 6930SOL    HW232253   1.963   1.126  10.018  0.2580 -0.2744  0.7450
 6931SOL     OW32254   0.663   1.464   7.115  0.5905 -0.1033 -0.3058
 6931SOL    HW132255   0.591   1.423   7.068 -0.0292  0.4702  0.1399
 6931SOL    HW232256   0.669   1.540   7.057  1.9722 -1.6696 -2.2259
 6932SOL     OW32257   0.351   1.096  15.571 -0.5886 -0.6373  0.0769
 6932SOL    HW132258   0.402   1.058  15.642  2.1755  0.3916 -1.3502
 6932SOL    HW232259   0.273   1.136  15.611  0.4062  0.9349  0.4663
 6933SOL     OW32260   0.648   2.241   6.654 -0.6734 -0.2820  0.4350
 6933SOL    HW132261   0.619   2.302   6.585 -1.1235 -1.0254 -0.0434
 6933SOL    HW232262   0.597   2.281   6.724 -1.2660 -0.9782  0.4079
 6934SOL     OW32263   1.994   3.122   8.542 -0.1573  0.3960  0.2489
 6934SOL    HW132264   2.070   3.175   8.567  1.0396 -0.9837 -0.4777
 6934SOL    HW232265   1.925   3.152   8.602  0.1183  0.0948  0.7091
 6935SOL     OW32266   0.709   3.619   8.165  0.0223 -0.1777 -0.0178
 6935SOL    HW132267   0.702   3.607   8.260 -2.4502  1.1524 -0.0223
 6935SOL    HW232268   0.682   3.711   8.154  2.5087  0.5920  0.3540
 6936SOL     OW32269   0.604   2.814   0.303  0.0169 -0.0910  0.1968
 6936SOL    HW132270   0.688   2.852   0.276 -0.4337  1.4447  0.9646
 6936SOL    HW232271   0.626   2.721   0.303 -0.3906 -0.1936 -0.3443
 6937SOL     OW32272   0.714   0.969   5.940 -0.8452 -0.3689 -0.1401
 6937SOL    HW132273   0.733   0.912   5.865  0.3552 -0.3278  0.1377
 6937SOL    HW232274   0.723   1.046   5.884  0.6265 -0.0136  0.6114
 6938SOL     OW32275   1.955   2.869   7.441  0.3501 -0.0012  0.3667
 6938SOL    HW132276   1.960   2.779   7.472 -1.6315 -0.5934 -1.0361
 6938SOL    HW232277   2.037   2.912   7.465 -0.1977  0.5433  1.2767
 6939SOL     OW32278   0.978   1.481   1.317 -0.0102  0.2002  0.6534
 6939SOL    HW132279   1.044   1.469   1.385 -0.0083 -0.2815  0.5722
 6939SOL    HW232280   1.010   1.424   1.246  3.4089 -0.3621  2.6536
 6940SOL     OW32281   3.359   1.870   7.024 -0.0602 -0.3691 -0.2503
 6940SOL    HW132282   3.287   1.886   7.085 -0.3159 -3.9943  0.3787
 6940SOL    HW232283   3.378   1.776   7.023 -3.2790 -1.0120 -0.7270
 6941SOL     OW32284   2.871   4.571  11.646  0.1588  0.1023  0.1445
 6941SOL    HW132285   2.887   4.564  11.552 -1.7401 -0.6450 -0.1315
 6941SOL    HW232286   2.952   4.532  11.678 -0.2821 -0.8902  0.0428
 6942SOL     OW32287   1.762   1.767   8.643  0.1152 -0.5098 -0.1749
 6942SOL    HW132288   1.835   1.717   8.678 -0.6123  0.5398  2.8131
 6942SOL    HW232289   1.766   1.738   8.552 -2.8058 -0.2502 -0.4003
 6943SOL     OW32290   1.475   0.561   0.458  0.5877 -0.0587  0.2748
 6943SOL    HW132291   1.510   0.486   0.506  0.2203 -1.1715 -1.1882
 6943SOL    HW232292   1.432   0.523   0.381  0.5522 -3.8300  2.1685
 6944SOL     OW32293   3.164   3.488  16.820 -0.6111  0.7440  0.7355
 6944SOL    HW132294   3.135   3.517  16.733  0.2415  0.1847  0.2680
 6944SOL    HW232295   3.081   3.458  16.857 -0.6749  0.4325  0.3307
 6945SOL     OW32296   0.362   2.251   5.514  0.1343  0.6228  0.2330
 6945SOL    HW132297   0.301   2.200   5.462  0.3083  0.2460  0.4027
 6945SOL    HW232298   0.335   2.220   5.600 -2.5821  0.1598 -0.7777
 6946SOL     OW32299   1.358   3.140   4.202 -0.0281 -0.4620  0.2604
 6946SOL    HW132300   1.297   3.074   4.167  0.9766 -1.8872  1.2160
 6946SOL    HW232301   1.423   3.131   4.132 -3.4150  1.9916 -3.1937
 6947SOL     OW32302   0.062   2.737   4.761  0.5495 -0.4702 -0.8306
 6947SOL    HW132303   0.116   2.807   4.798 -0.0602 -0.2092 -0.4512
 6947SOL    HW232304   0.098   2.656   4.796 -1.7332  0.3002  3.2182
 6948SOL     OW32305   1.016   4.401   4.311 -0.5283  0.1127  0.7161
 6948SOL    HW132306   1.060   4.472   4.358  0.3108  0.1130 -0.0629
 6948SOL    HW232307   0.941   4.454   4.285  0.1873  0.3955 -0.7341
 6949SOL     OW32308   4.095   0.386   5.549  0.1158  0.3818  0.5730
 6949SOL    HW132309   4.061   0.389   5.638 -1.4410  1.6605 -0.0741
 6949SOL    HW232310   4.125   0.295   5.547  3.5452  1.5252  0.0641
 6950SOL     OW32311   1.629   1.807   8.876 -0.2650  0.4940  0.3505
 6950SOL    HW132312   1.680   1.802   8.795  3.0195 -2.2308  2.5608
 6950SOL    HW232313   1.587   1.721   8.867  0.3601  0.0575  1.5504
 6951SOL     OW32314   0.576   0.053   2.736 -0.1662  0.7379 -0.8232
 6951SOL    HW132315   0.514   4.710   2.716 -0.3660  0.4102  0.9749
 6951SOL    HW232316   0.518   0.129   2.733 -4.2890 -2.3310  2.3454
 6952SOL     OW32317   4.554   0.836   3.331  0.2060 -0.3999 -0.3795
 6952SOL    HW132318   4.513   0.922   3.339 -0.2123 -0.4487 -2.1179
 6952SOL    HW232319   4.562   0.825   3.237  2.7393 -0.7845 -0.1330
 6953SOL     OW32320   1.157   4.127   6.406 -0.8284  0.3975 -0.2709
 6953SOL    HW132321   1.090   4.196   6.410 -1.1775  0.0179  0.5437
 6953SOL    HW232322   1.109   4.044   6.414 -1.2332  0.4573 -2.1408
 6954SOL     OW32323   1.033   2.839   8.102 -0.7852  0.3791  0.2479
 6954SOL    HW132324   1.005   2.920   8.146  1.5857  0.1616  2.1118
 6954SOL    HW232325   1.006   2.774   8.167  0.3490 -0.4544 -0.1279
 6955SOL     OW32326   0.038   3.131   9.815  0.2505  1.1682  0.3553
 6955SOL    HW132327   0.004   3.162   9.899  0.4324  1.4195  0.3395
 6955SOL    HW232328   4.694   3.165   9.759  0.4639  1.3468  0.1927
 6956SOL     OW32329   3.852   1.079   1.934  0.2770 -0.2617  0.1292
 6956SOL    HW132330   3.761   1.078   1.964 -0.0045  1.4857 -0.7156
 6956SOL    HW232331   3.899   1.065   2.017 -0.4980  0.6059  0.7200
 6957SOL     OW32332   4.251   0.805   0.384  0.0988  0.0731 -0.3290
 6957SOL    HW132333   4.305   0.883   0.376 -2.0831  1.7082  0.9444
 6957SOL    HW232334   4.165   0.834   0.352 -0.8105 -1.5502  0.6103
 6958SOL     OW32335   1.092   2.987   0.335 -0.3040  0.7779  0.0357
 6958SOL    HW132336   1.145   3.054   0.292 -1.9831  0.6856 -2.1781
 6958SOL    HW232337   1.094   3.016   0.426 -0.0059  2.5718 -0.5400
 6959SOL     OW32338   4.362   0.038   5.864  0.7103 -0.0024  0.2035
 6959SOL    HW132339   4.457   0.051   5.873  0.7514 -0.6980  0.7210
 6959SOL    HW232340   4.368   4.672   5.842 -0.1887  0.4955 -2.0559
 6960SOL     OW32341   0.396   1.670   6.127  0.9074 -0.0251  0.0629
 6960SOL    HW132342   0.420   1.690   6.217  0.4656 -0.3651  0.2569
 6960SOL    HW232343   0.301   1.679   6.136  0.9188  0.1159  0.0294
 6961SOL     OW32344   1.951   0.142   5.577 -0.2475  0.5357  0.0885
 6961SOL    HW132345   1.980   0.119   5.489  0.3181  0.9806  0.1604
 6961SOL    HW232346   2.035   0.121   5.618 -1.9000 -4.5388  0.8192
 6962SOL     OW32347   2.383   4.666   1.296 -0.0701  0.2991 -0.0667
 6962SOL    HW132348   2.474   4.675   1.271 -0.2632  0.1854 -0.8014
 6962SOL    HW232349   2.391   4.595   1.360  2.0222 -0.9474 -1.7441
 6963SOL     OW32350   4.353   0.536   4.715  0.1420  0.7096 -0.2634
 6963SOL    HW132351   4.390   0.517   4.801  1.7798  0.0050 -1.1292
 6963SOL    HW232352   4.409   0.607   4.684 -2.4118  1.3105 -3.4734
 6964SOL     OW32353   0.172   1.315  10.928 -0.3252  0.3570 -0.2148
 6964SOL    HW132354   0.233   1.272  10.988  0.2720 -0.9936 -1.8004
 6964SOL    HW232355   0.151   1.394  10.977 -0.9537 -0.1764  0.3944
 6965SOL     OW32356   2.930   0.675   1.554 -0.1342 -0.1075  0.2737
 6965SOL    HW132357   2.881   0.662   1.635  1.2680  0.8201  1.2758
 6965SOL    HW232358   2.861   0.691   1.490  0.6678 -1.4123 -0.9197
 6966SOL     OW32359   3.188   0.762   0.736 -0.0327  0.0334 -0.7025
 6966SOL    HW132360   3.105   0.807   0.720 -0.9063 -1.5131 -0.5091
 6966SOL    HW232361   3.155   0.677   0.765  3.0732 -0.8040  0.4331
 6967SOL     OW32362   0.166   3.335  11.237  0.1962  0.3635 -0.0196
 6967SOL    HW132363   0.261   3.342  11.227  0.2317 -0.4451 -0.1917
 6967SOL    HW232364   0.155   3.272  11.308  0.0781  0.3874 -0.0156
 6968SOL     OW32365   2.410   3.466   3.731  0.3663 -0.3282  0.2683
 6968SOL    HW132366   2.429   3.471   3.824  2.3859 -2.2030 -0.0376
 6968SOL    HW232367   2.458   3.387   3.704  0.7163 -0.6397  1.8074
 6969SOL     OW32368   4.469   1.406   8.751 -0.0203 -0.2947  0.2807
 6969SOL    HW132369   4.498   1.419   8.661  1.1951  1.5298  0.9212
 6969SOL    HW232370   4.460   1.312   8.761 -1.0560 -0.0768  1.3963
 6970SOL     OW32371   2.758   1.326   8.699 -0.3030  0.6023 -0.1024
 6970SOL    HW132372   2.850   1.352   8.691 -0.4707  1.1606 -0.2274
 6970SOL    HW232373   2.721   1.364   8.619 -0.2097  0.6179 -0.1384
 6971SOL     OW32374   1.631   2.874   7.035  0.1439  0.7976 -0.5322
 6971SOL    HW132375   1.717   2.882   7.075  0.2581 -3.5583  0.0747
 6971SOL    HW232376   1.583   2.913   7.109  1.0146  2.6932 -0.9807
 6972SOL     OW32377   4.017   2.709   2.791 -0.0461  0.2926  0.1654
 6972SOL    HW132378   4.010   2.731   2.698 -1.7297  0.7825  0.4169
 6972SOL    HW232379   3.980   2.793   2.820  0.4416 -0.0634  1.8387
 6973SOL     OW32380   3.503   0.260   6.061  0.1320 -0.0485 -0.3470
 6973SOL    HW132381   3.536   0.299   6.142  0.4431 -0.0532 -0.4681
 6973SOL    HW232382   3.409   0.251   6.070  0.1890 -2.0489 -1.6481
 6974SOL     OW32383   2.778   0.902  13.580 -0.3275 -0.6492 -0.6273
 6974SOL    HW132384   2.736   0.988  13.589  0.3044 -0.2996 -1.0457
 6974SOL    HW232385   2.749   0.857  13.660  0.3812  1.3978  0.7740
 6975SOL     OW32386   1.064   3.291   9.493  0.5659  0.1487  0.4702
 6975SOL    HW132387   1.077   3.286   9.588 -0.0999  2.7922  0.6975
 6975SOL    HW232388   1.136   3.236   9.464  0.2331  0.0488 -0.1632
 6976SOL     OW32389   4.174   3.761  13.027  0.0798 -0.3907 -0.5400
 6976SOL    HW132390   4.113   3.752  13.101  0.3270 -0.3540 -0.3309
 6976SOL    HW232391   4.127   3.737  12.947  0.1549 -0.1017 -0.6717
 6977SOL     OW32392   0.853   1.284   6.238  0.6224  0.2575  0.2933
 6977SOL    HW132393   0.922   1.218   6.246  0.7170  0.3249  0.0487
 6977SOL    HW232394   0.781   1.226   6.214  2.5692 -2.5809  1.3712
 6978SOL     OW32395   2.534   4.226  13.003 -0.1664  1.0079 -0.7221
 6978SOL    HW132396   2.583   4.192  13.078 -0.5286  1.0044 -0.4834
 6978SOL    HW232397   2.491   4.305  13.036 -1.9077 -0.0815 -0.4112
 6979SOL     OW32398   4.611   1.005   8.629  0.3407  0.3933 -0.5086
 6979SOL    HW132399   4.635   0.944   8.559  2.0990 -0.4074  0.7560
 6979SOL    HW232400   4.683   1.064   8.649  0.3968  0.2335 -0.2355
 6980SOL     OW32401   3.022   0.254   7.492 -0.7841 -0.1938 -0.3376
 6980SOL    HW132402   2.986   0.307   7.563  0.5983  0.8132 -0.3890
 6980SOL    HW232403   3.113   0.248   7.523 -0.6931 -0.5981 -0.6826
 6981SOL     OW32404   3.159   3.430   8.771 -0.2925 -0.6166 -0.1077
 6981SOL    HW132405   3.156   3.336   8.789 -1.2210 -0.5906 -0.1124
 6981SOL    HW232406   3.109   3.469   8.843 -1.7628  0.7322 -1.8936
 6982SOL     OW32407   0.812   0.471   2.111 -0.4817 -0.6913  0.2274
 6982SOL    HW132408   0.803   0.560   2.079 -0.1067 -0.8026 -0.1885
 6982SOL    HW232409   0.827   0.488   2.204 -0.2225 -2.2880  0.4928
 6983SOL     OW32410   1.728   0.853   5.634 -0.3206 -0.7467  0.0574
 6983SOL    HW132411   1.794   0.786   5.649  2.3992  1.3181 -2.7793
 6983SOL    HW232412   1.715   0.879   5.725  1.0518 -2.5554  0.7867
 6984SOL     OW32413   1.537   2.491   0.183 -0.3550 -0.2110  0.1061
 6984SOL    HW132414   1.623   2.473   0.144  0.6575 -0.2084  2.3138
 6984SOL    HW232415   1.483   2.436   0.127  0.6237  0.0757 -1.1251
 6985SOL     OW32416   1.862   0.453  14.962 -0.1224  0.6431 -0.5018
 6985SOL    HW132417   1.880   0.455  14.868  3.5104 -1.4122  0.1629
 6985SOL    HW232418   1.846   0.361  14.982  0.4822  0.4218 -1.0404
 6986SOL     OW32419   2.369   1.810   0.899 -0.3893  0.7832 -0.4648
 6986SOL    HW132420   2.437   1.871   0.927 -0.0113 -0.3137  1.0399
 6986SOL    HW232421   2.288   1.854   0.924 -0.9468  0.2400 -1.3475
 6987SOL     OW32422   4.455   4.181   8.768  0.2573  0.9864  0.0199
 6987SOL    HW132423   4.457   4.277   8.773 -0.9063  1.0100  0.1964
 6987SOL    HW232424   4.512   4.159   8.841  0.0215  1.2972  0.2970
 6988SOL     OW32425   3.022   0.413  12.456 -0.7308 -0.0126  0.0742
 6988SOL    HW132426   3.117   0.409  12.455 -0.8079 -0.7956 -2.7121
 6988SOL    HW232427   3.003   0.365  12.375 -2.0290 -2.9902  2.1198
 6989SOL     OW32428   0.053   1.568   0.678 -0.1779  0.3440  1.0436
 6989SOL    HW132429   4.718   1.569   0.751 -0.5856  1.3080  0.6893
 6989SOL    HW232430   0.046   1.661   0.656 -1.3133  0.5120  2.1272
 6990SOL     OW32431   0.113   2.843   8.085  0.7720 -0.3684 -0.0700
 6990SOL    HW132432   0.089   2.933   8.068  1.8073 -0.5039 -2.1974
 6990SOL    HW232433   0.205   2.849   8.112  1.1975 -1.2840 -1.2930
 6991SOL     OW32434   4.275   3.784  14.401  0.8473  0.0947 -0.3744
 6991SOL    HW132435   4.197   3.756  14.450 -1.3915  2.5188 -2.5675
 6991SOL    HW232436   4.330   3.716  14.440 -1.8713 -2.4672 -1.0042
 6992SOL     OW32437   2.450   3.032  17.513  0.3668 -0.7813 -0.1525
 6992SOL    HW132438   2.536   3.051  17.551  0.0465  1.0035 -0.3285
 6992SOL    HW232439   2.455   2.947  17.470  0.0418 -1.4008  1.0206
 6993SOL     OW32440   4.614   3.953  14.910  0.5041 -0.1004  0.2350
 6993SOL    HW132441   4.623   4.022  14.844 -1.2288  0.0475  0.1541
 6993SOL    HW232442   4.694   3.973  14.958 -0.7997 -0.5655  2.5986
 6994SOL     OW32443   2.746   4.497  14.937  0.9477 -0.0391 -0.0615
 6994SOL    HW132444   2.651   4.494  14.943  0.8878 -0.1137 -0.9385
 6994SOL    HW232445   2.754   4.504  14.842 -0.2105  1.1522 -0.0700
 6995SOL     OW32446   0.460   2.389   8.778 -0.8217  0.4615 -0.6321
 6995SOL    HW132447   0.491   2.465   8.728 -1.5215  1.2116  0.0632
 6995SOL    HW232448   0.438   2.444   8.853 -2.8571  0.5229 -1.2862
 6996SOL     OW32449   2.386   3.601   1.687 -0.5339  0.3733 -0.1939
 6996SOL    HW132450   2.393   3.560   1.774  0.1536  1.1337  0.1102
 6996SOL    HW232451   2.301   3.644   1.698 -0.0808  1.3201 -0.3965
 6997SOL     OW32452   4.639   0.868   3.900  0.0555  0.0783  0.3755
 6997SOL    HW132453   4.671   0.803   3.837  0.5770  0.8517 -0.1585
 6997SOL    HW232454   4.610   0.934   3.836 -0.0451 -1.2625 -0.9535
 6998SOL     OW32455   0.579   1.075   7.636 -0.1080 -0.3543  0.3611
 6998SOL    HW132456   0.656   1.044   7.685  1.8190  0.5981 -2.0414
 6998SOL    HW232457   0.528   1.094   7.715  0.6967 -1.8804  1.2598
 6999SOL     OW32458   3.345   2.743  13.774  0.1686 -0.3612 -0.2794
 6999SOL    HW132459   3.340   2.735  13.869  1.1283 -0.8851 -0.2718
 6999SOL    HW232460   3.269   2.687  13.754  1.8429 -1.2972 -4.0318
 7000SOL     OW32461   0.411   3.934   5.460  0.1632 -0.8495  0.0373
 7000SOL    HW132462   0.484   3.916   5.401 -0.5890 -1.5407 -0.6854
 7000SOL    HW232463   0.411   3.858   5.519  0.3298 -0.3569  0.6710
 7001SOL     OW32464   2.625   4.662  12.138 -0.1821 -0.3143 -0.5359
 7001SOL    HW132465   2.632   0.022  12.176 -0.6732 -1.2439  1.6958
 7001SOL    HW232466   2.537   4.638  12.167 -0.2862 -0.1090 -0.6858
 7002SOL     OW32467   4.285   1.741   1.499  0.1354  0.6209  0.2959
 7002SOL    HW132468   4.294   1.790   1.417  1.7068 -0.8659 -0.3963
 7002SOL    HW232469   4.370   1.700   1.488 -0.2602 -0.1957  0.2707
 7003SOL     OW32470   4.438   2.074  17.441 -0.5135 -0.0483  0.0189
 7003SOL    HW132471   4.397   2.023  17.371  2.1117 -1.3439 -0.6029
 7003SOL    HW232472   4.395   2.026  17.512  0.4050  0.7020  1.0795
 7004SOL     OW32473   2.548   1.148   2.355  0.0703 -0.4148 -1.0410
 7004SOL    HW132474   2.466   1.104   2.335 -0.4051  0.2682 -0.5877
 7004SOL    HW232475   2.588   1.082   2.411  2.7989 -1.0108 -3.6563
 7005SOL     OW32476   3.886   0.882   6.951  0.1549  0.0998  0.1115
 7005SOL    HW132477   3.895   0.829   7.031 -0.6363 -0.7205 -0.3439
 7005SOL    HW232478   3.947   0.834   6.894  1.4498  0.9640  0.7549
 7006SOL     OW32479   2.482   0.414   3.199 -0.5051 -0.4169  0.8428
 7006SOL    HW132480   2.419   0.477   3.165 -0.4789 -0.5179  0.6083
 7006SOL    HW232481   2.436   0.376   3.274 -1.4007 -1.7566 -0.3701
 7007SOL     OW32482   1.571   2.699  17.610 -0.4721  0.1401  0.9068
 7007SOL    HW132483   1.595   2.790  17.597  4.1092 -1.2123 -0.2101
 7007SOL    HW232484   1.573   2.697  17.705  2.9702 -1.4431  0.8004
 7008SOL     OW32485   3.675   2.554  11.463 -0.0783  0.2179 -0.0381
 7008SOL    HW132486   3.589   2.544  11.422 -1.2098  0.2719  2.3195
 7008SOL    HW232487   3.654   2.596  11.546 -2.1597  1.7281 -1.3368
 7009SOL     OW32488   1.467   2.493   8.341 -0.1898 -0.6268  0.0054
 7009SOL    HW132489   1.515   2.503   8.259 -0.9295  3.0866  0.0252
 7009SOL    HW232490   1.520   2.563   8.379 -0.6739 -1.1887  1.7204
 7010SOL     OW32491   1.821   1.948   6.663 -0.2364 -0.4350 -0.0172
 7010SOL    HW132492   1.800   1.908   6.578  1.0547 -1.7591  0.2867
 7010SOL    HW232493   1.748   1.916   6.716 -0.9611  2.6178  0.8098
 7011SOL     OW32494   4.641   0.999   9.329  0.0933  0.6470 -0.1722
 7011SOL    HW132495   0.007   0.980   9.314 -0.2679 -1.8892  0.8186
 7011SOL    HW232496   4.611   0.989   9.239 -0.9210  2.5225 -0.0528
 7012SOL     OW32497   0.603   3.293   2.187 -0.1964  0.3256 -0.1861
 7012SOL    HW132498   0.532   3.339   2.232  0.2561  1.0495 -0.2071
 7012SOL    HW232499   0.564   3.252   2.110  0.2528  0.4641 -0.4890
 7013SOL     OW32500   1.789   0.982   4.292  0.4569  0.3145 -0.4515
 7013SOL    HW132501   1.871   0.934   4.282  1.0698  1.5462 -1.2347
 7013SOL    HW232502   1.729   0.947   4.226  0.3541 -1.6265  0.6661
 7014SOL     OW32503   4.289   0.787   5.830 -0.1116  0.2199 -0.0377
 7014SOL    HW132504   4.246   0.872   5.838 -2.1016 -0.9027  1.0933
 7014SOL    HW232505   4.222   0.745   5.776  0.5030 -2.4134  1.2547
 7015SOL     OW32506   2.100   0.659   7.392 -0.2202  0.1241 -0.1553
 7015SOL    HW132507   2.129   0.712   7.467 -1.0977  1.1332 -0.5280
 7015SOL    HW232508   2.040   0.706   7.335 -0.8739  0.6214  0.9319
 7016SOL     OW32509   2.852   1.885   6.889  0.3724  0.4922  0.0380
 7016SOL    HW132510   2.881   1.924   6.807  2.2165  1.5575  1.1808
 7016SOL    HW232511   2.930   1.834   6.914  0.8892  1.4471  0.3792
 7017SOL     OW32512   2.832   3.770  11.734  0.8176  0.2979 -0.7625
 7017SOL    HW132513   2.784   3.851  11.753  0.3687  0.1353 -1.2059
 7017SOL    HW232514   2.790   3.719  11.665 -0.4663  1.5320 -0.8832
 7018SOL     OW32515   1.105   4.698  14.927 -0.2911  0.1736 -0.1104
 7018SOL    HW132516   1.044   4.627  14.946  1.9845 -1.6572  0.3823
 7018SOL    HW232517   1.114   4.726  15.018 -1.0335  0.7055 -0.2073
 7019SOL     OW32518   3.260   2.638   4.850 -0.2109 -0.1054 -0.3345
 7019SOL    HW132519   3.179   2.673   4.815 -1.3892 -1.0243  1.4557
 7019SOL    HW232520   3.324   2.648   4.780 -0.1848 -0.0041 -0.2953
 7020SOL     OW32521   4.641   3.364   7.228  1.0093 -0.9754 -0.1951
 7020SOL    HW132522   4.706   3.401   7.168  0.6600 -0.7669 -0.4451
 7020SOL    HW232523   4.563   3.415   7.206  0.7640 -1.0284  0.5639
 7021SOL     OW32524   0.508   2.727   9.565  0.8629  0.1348  0.2030
 7021SOL    HW132525   0.552   2.672   9.630  1.4988 -0.4868 -0.7523
 7021SOL    HW232526   0.542   2.697   9.481  0.1262  0.6447 -0.2787
 7022SOL     OW32527   4.003   0.963   3.662  0.1352 -0.1877 -0.1842
 7022SOL    HW132528   4.086   1.007   3.683 -0.7021  0.8371  0.9725
 7022SOL    HW232529   3.964   0.965   3.749  1.3100  0.4830  0.3361
 7023SOL     OW32530   0.184   4.463   2.779 -0.4940  0.5230 -0.2956
 7023SOL    HW132531   0.207   4.401   2.849 -0.6184 -1.1068 -1.6958
 7023SOL    HW232532   0.121   4.413   2.727 -0.5196  1.1000 -0.8109
 7024SOL     OW32533   0.085   0.671   0.848  0.1877 -0.4886 -0.4801
 7024SOL    HW132534   4.717   0.676   0.844  0.0138 -0.7055  2.8874
 7024SOL    HW232535   0.107   0.584   0.814 -0.9719 -0.8596 -0.2752
 7025SOL     OW32536   1.164   2.779   4.980  0.5714  0.7480  0.3831
 7025SOL    HW132537   1.258   2.799   4.978  0.6470  0.3032 -0.5673
 7025SOL    HW232538   1.141   2.791   4.888 -0.5043  0.9014  0.6726
 7026SOL     OW32539   2.759   2.257   7.290 -0.1018  0.7791 -0.4069
 7026SOL    HW132540   2.708   2.338   7.288 -1.9652 -0.3837  0.0314
 7026SOL    HW232541   2.817   2.278   7.363 -0.9542 -0.6456  0.6611
 7027SOL     OW32542   4.298   4.092   4.345 -0.8483 -0.3327  0.1624
 7027SOL    HW132543   4.361   4.062   4.278 -0.2177  0.4966  0.3956
 7027SOL    HW232544   4.358   4.073   4.417  1.1044  1.5617 -0.9604
 7028SOL     OW32545   3.822   0.806   4.794  0.2264  0.4074 -0.2337
 7028SOL    HW132546   3.908   0.765   4.802  1.2021  2.4531 -0.3130
 7028SOL    HW232547   3.802   0.790   4.701  0.0179  1.7533 -0.4247
 7029SOL     OW32548   2.298   1.251   5.408 -0.3179 -0.3792  0.5088
 7029SOL    HW132549   2.214   1.289   5.383 -0.6840 -1.7213 -0.3097
 7029SOL    HW232550   2.297   1.170   5.357  1.8694 -0.4659  0.6223
 7030SOL     OW32551   4.006   3.834   2.597 -0.0718 -0.2245  0.4496
 7030SOL    HW132552   3.922   3.793   2.616  1.2664 -1.8059  2.9499
 7030SOL    HW232553   4.042   3.774   2.532  2.0603  2.8792 -1.1976
 7031SOL     OW32554   3.879   0.990   8.188  0.4786 -0.9679  0.0170
 7031SOL    HW132555   3.971   0.994   8.214  0.0653 -1.0395  1.5358
 7031SOL    HW232556   3.842   0.943   8.264  0.1593 -0.3420  0.2472
 7032SOL     OW32557   2.210   2.302  13.366 -0.5581  0.2278 -0.5741
 7032SOL    HW132558   2.178   2.221  13.328 -1.9011  1.4270 -1.9944
 7032SOL    HW232559   2.241   2.343  13.286 -0.4759 -0.8476 -1.0877
 7033SOL     OW32560   2.697   1.876   4.452 -0.2434  0.0206  0.5353
 7033SOL    HW132561   2.642   1.846   4.524 -2.0834  0.6215 -0.6228
 7033SOL    HW232562   2.632   1.916   4.394 -1.0487 -1.4269  0.4446
 7034SOL     OW32563   1.984   3.447   6.068 -0.2752 -0.3461 -0.6933
 7034SOL    HW132564   2.071   3.430   6.031  0.3986 -0.9308  1.1743
 7034SOL    HW232565   1.948   3.514   6.010 -0.5703 -0.8293 -1.0692
 7035SOL     OW32566   0.247   2.546   0.726 -0.2552  0.1416  0.7081
 7035SOL    HW132567   0.331   2.509   0.698 -1.8974 -2.2287 -1.1508
 7035SOL    HW232568   0.212   2.470   0.772 -1.3669  0.9035  1.1072
 7036SOL     OW32569   0.812   0.617   3.764  0.2294  0.1507 -0.3462
 7036SOL    HW132570   0.744   0.677   3.733 -1.7126 -1.0150  1.6488
 7036SOL    HW232571   0.817   0.555   3.692  1.4336  1.6106 -1.5236
 7037SOL     OW32572   3.985   0.886   5.249 -0.1504  0.2255  0.0795
 7037SOL    HW132573   3.981   0.961   5.190 -0.0946  0.0909 -0.0969
 7037SOL    HW232574   3.951   0.825   5.184 -0.2449  1.0619 -0.6581
 7038SOL     OW32575   3.049   0.961   7.339  0.8325  0.5230  0.0332
 7038SOL    HW132576   3.000   1.005   7.270 -1.9237 -1.3880  0.7263
 7038SOL    HW232577   3.056   1.038   7.396 -0.4250  1.0978 -0.5805
 7039SOL     OW32578   1.650   2.106  13.607 -0.6468  0.3827  0.0683
 7039SOL    HW132579   1.641   2.021  13.651 -0.5191  1.0866  1.4813
 7039SOL    HW232580   1.745   2.108  13.608 -0.5903 -1.7637 -1.2767
 7040SOL     OW32581   2.344   2.395  15.964  0.5800  0.3877 -0.2750
 7040SOL    HW132582   2.271   2.457  15.957  0.1728 -0.0275  0.2677
 7040SOL    HW232583   2.322   2.332  15.895  0.3654 -0.4583  0.5638
 7041SOL     OW32584   0.261   2.007   7.544 -0.0730  0.2317  0.4068
 7041SOL    HW132585   0.356   2.009   7.537 -0.2019 -0.9454 -1.7520
 7041SOL    HW232586   0.237   2.061   7.469  0.8083  1.9725  1.3855
 7042SOL     OW32587   0.855   4.022   3.088 -0.2722  0.0154  0.1863
 7042SOL    HW132588   0.774   4.048   3.132 -2.1486 -1.2417 -2.5243
 7042SOL    HW232589   0.921   4.073   3.135 -0.2513  1.2159 -1.1358
 7043SOL     OW32590   1.586   1.701  10.081  0.2940  0.1668 -0.4454
 7043SOL    HW132591   1.574   1.749  10.163  0.0645  0.6690 -0.7677
 7043SOL    HW232592   1.505   1.726  10.035 -0.6994  1.1535  1.8778
 7044SOL     OW32593   1.282   3.564   3.829  0.3842  0.4738  0.0926
 7044SOL    HW132594   1.215   3.510   3.786  0.5522  0.0559  0.3562
 7044SOL    HW232595   1.232   3.639   3.862  0.7984  0.6606  0.2921
 7045SOL     OW32596   1.586   0.932   5.433 -0.3972  0.2131 -0.3810
 7045SOL    HW132597   1.500   0.930   5.475  0.6901 -0.4897  1.8661
 7045SOL    HW232598   1.644   0.904   5.505  0.5799  1.3828 -0.7164
 7046SOL     OW32599   1.638   0.353   9.263 -0.1959 -0.0015  0.3822
 7046SOL    HW132600   1.577   0.351   9.189 -1.1392 -1.1555  1.1985
 7046SOL    HW232601   1.616   0.270   9.304 -0.4952  1.0033  2.2860
 7047SOL     OW32602   2.788   2.224  14.024  0.2125 -0.1238 -0.4516
 7047SOL    HW132603   2.840   2.305  14.026  2.3716 -1.5085 -1.8135
 7047SOL    HW232604   2.745   2.232  13.939 -0.5787  0.3109 -0.0136
 7048SOL     OW32605   2.923   2.821   8.210  0.7614 -0.3478 -0.1576
 7048SOL    HW132606   2.984   2.764   8.257  0.7715  0.0189  0.2754
 7048SOL    HW232607   2.944   2.913   8.228 -1.3282  0.4126 -1.5264
 7049SOL     OW32608   0.197   4.581  10.328 -0.9393  0.1693  0.2451
 7049SOL    HW132609   0.103   4.567  10.312 -0.9217 -0.5646  0.7546
 7049SOL    HW232610   0.216   4.651  10.267 -1.4083  0.2191  0.1537
 7050SOL     OW32611   2.449   1.684   5.570 -0.1461 -0.3127 -0.2329
 7050SOL    HW132612   2.527   1.630   5.555  0.0093 -0.9682  2.8609
 7050SOL    HW232613   2.451   1.695   5.665 -3.3584  0.6666 -0.2806
 7051SOL     OW32614   3.925   1.361   8.333  0.2153 -0.1696 -0.1507
 7051SOL    HW132615   4.010   1.362   8.289  0.2141 -1.3819 -0.1748
 7051SOL    HW232616   3.949   1.349   8.424 -1.2736 -1.1795  0.1056
 7052SOL     OW32617   1.059   3.712  13.503 -0.0708 -0.3738  0.4588
 7052SOL    HW132618   1.089   3.622  13.488  2.9582  0.9597 -1.4210
 7052SOL    HW232619   0.983   3.687  13.554 -1.3332  0.7198 -0.8717
 7053SOL     OW32620   4.352   1.212   4.586 -0.0614 -0.3572  0.2950
 7053SOL    HW132621   4.312   1.151   4.524  1.0215  0.4917 -1.2233
 7053SOL    HW232622   4.298   1.283   4.552  1.4112  0.0584 -1.1752
 7054SOL     OW32623   3.079   0.696   7.483  0.1750 -0.1379 -0.1199
 7054SOL    HW132624   3.084   0.789   7.459  0.0219  0.0429  0.5606
 7054SOL    HW232625   3.068   0.648   7.401 -1.9813  1.6236 -0.8759
 7055SOL     OW32626   2.942   1.434  10.898  0.0739 -0.4778  0.3648
 7055SOL    HW132627   2.886   1.434  10.820  2.6542  0.5986 -1.4781
 7055SOL    HW232628   2.887   1.479  10.962  0.2268 -1.0610  0.9053
 7056SOL     OW32629   3.504   3.354   1.785  0.1687  0.1407  0.2808
 7056SOL    HW132630   3.559   3.346   1.707  0.2426 -2.1584  0.5653
 7056SOL    HW232631   3.536   3.440   1.811  2.2842 -1.1313  1.9233
 7057SOL     OW32632   2.001   4.632   1.520  0.4878 -0.1031  0.0929
 7057SOL    HW132633   2.086   4.604   1.554  0.5235  1.8809  1.6604
 7057SOL    HW232634   1.999   4.603   1.429 -1.8536  0.6461 -0.1216
 7058SOL     OW32635   2.416   3.651  14.126  0.0100 -0.6467 -0.1420
 7058SOL    HW132636   2.350   3.694  14.072  2.2820 -0.4154 -2.6959
 7058SOL    HW232637   2.462   3.602  14.059  3.3091 -0.8483  2.2458
 7059SOL     OW32638   0.708   2.035   6.856 -0.6109  0.3905  0.0402
 7059SOL    HW132639   0.774   2.079   6.803 -1.1993  1.8828  0.5229
 7059SOL    HW232640   0.639   2.100   6.844 -1.1282  0.2163  2.0837
 7060SOL     OW32641   0.121   4.356  11.962  0.5693 -0.4578  0.0465
 7060SOL    HW132642   0.098   4.417  11.892  0.7037 -1.6151 -1.0004
 7060SOL    HW232643   0.211   4.381  11.984  0.5933 -0.5349  0.0350
 7061SOL     OW32644   0.595   1.971   7.734 -0.7177  0.7427 -0.2314
 7061SOL    HW132645   0.535   1.897   7.722 -0.0781  0.2387 -0.3050
 7061SOL    HW232646   0.629   1.954   7.822 -1.2868  0.1741 -0.1146
 7062SOL     OW32647   3.902   0.725   7.910  0.4345 -0.5675  0.0879
 7062SOL    HW132648   3.982   0.734   7.962  2.1246  3.2602 -3.1771
 7062SOL    HW232649   3.944   0.707   7.825  2.2036  2.6377  0.2564
 7063SOL     OW32650   1.510   2.110   8.540  0.1699  0.3830 -0.1396
 7063SOL    HW132651   1.578   2.086   8.604  1.0815  1.3436 -0.7509
 7063SOL    HW232652   1.490   2.029   8.494  0.6276 -0.5968  1.3610
 7064SOL     OW32653   4.644   4.497   3.752  0.0340 -0.2154 -0.4846
 7064SOL    HW132654   4.637   4.468   3.843 -0.6018  1.5528  0.0305
 7064SOL    HW232655   4.585   4.572   3.753 -1.9652 -1.7660 -0.9476
 7065SOL     OW32656   0.220   0.966  14.738 -0.5302 -0.3548 -0.0896
 7065SOL    HW132657   0.223   0.870  14.736 -3.9753 -0.4713  0.1457
 7065SOL    HW232658   0.216   1.001  14.649  1.4530 -1.2140 -0.5165
 7066SOL     OW32659   1.317   0.179  16.383  0.3383 -0.0847  0.1517
 7066SOL    HW132660   1.226   0.163  16.357 -0.2195 -0.1313  2.0708
 7066SOL    HW232661   1.329   0.130  16.465 -1.0066 -0.6451  0.0097
 7067SOL     OW32662   1.707   1.899   4.101 -0.1446  0.1635  0.1485
 7067SOL    HW132663   1.645   1.971   4.108  1.9732  2.0409 -0.4036
 7067SOL    HW232664   1.730   1.905   4.009 -0.2920 -1.6485 -0.0096
 7068SOL     OW32665   0.797   2.434   4.671  0.0976  0.1571  0.1929
 7068SOL    HW132666   0.782   2.410   4.763  1.3815  0.9402  0.6053
 7068SOL    HW232667   0.736   2.508   4.673 -1.5745 -1.1985 -0.6263
 7069SOL     OW32668   0.265   4.233   5.987 -0.8055  0.5731  0.6485
 7069SOL    HW132669   0.341   4.271   6.033  0.6505 -2.0159  0.3597
 7069SOL    HW232670   0.240   4.304   5.927 -1.2863 -0.5804 -0.4993
 7070SOL     OW32671   3.488   2.934   6.408  0.5367 -0.3121 -0.4908
 7070SOL    HW132672   3.395   2.929   6.427  0.4019 -1.7272 -1.5093
 7070SOL    HW232673   3.534   2.922   6.491 -1.0384  2.4966  0.7697
 7071SOL     OW32674   3.844   4.471  13.209 -0.2267 -1.1223 -0.2914
 7071SOL    HW132675   3.918   4.524  13.236  0.6464 -2.7435  0.5142
 7071SOL    HW232676   3.849   4.463  13.114 -2.0946 -2.1244 -0.3230
 7072SOL     OW32677   0.176   0.920   9.305 -0.4414 -0.1382  0.4031
 7072SOL    HW132678   0.191   0.887   9.216 -0.4756  2.8705 -0.7242
 7072SOL    HW232679   0.265   0.951   9.316 -0.2947 -0.2975 -0.3261
 7073SOL     OW32680   0.613   0.851   9.059 -0.4250 -0.7709 -0.0860
 7073SOL    HW132681   0.703   0.878   9.077 -0.6884  0.8438 -1.2022
 7073SOL    HW232682   0.621   0.775   9.117  0.7376 -0.1526  0.5529
 7074SOL     OW32683   3.206   4.721   1.963  0.0737 -0.3252  0.0903
 7074SOL    HW132684   3.302   4.726   1.960  0.1122 -0.6245  0.8361
 7074SOL    HW232685   3.183   4.632   1.938  0.8997 -0.5122 -0.0141
 7075SOL     OW32686   3.301   2.712  17.267  0.6783 -0.0637 -0.2331
 7075SOL    HW132687   3.378   2.662  17.294  1.6214  2.1369  1.1356
 7075SOL    HW232688   3.265   2.645  17.208  0.3978 -0.0438 -0.0856
 7076SOL     OW32689   4.165   1.996   6.835 -0.0644  0.4414  0.6098
 7076SOL    HW132690   4.188   1.954   6.752  0.0866 -1.4125  1.6019
 7076SOL    HW232691   4.165   1.927   6.902 -0.3580 -0.5339 -0.3954
 7077SOL     OW32692   1.279   3.624   6.393 -0.4831 -0.4185  0.4022
 7077SOL    HW132693   1.360   3.671   6.412 -0.4912 -1.0026  1.9317
 7077SOL    HW232694   1.325   3.546   6.363 -0.6268 -0.1885 -0.4027
 7078SOL     OW32695   4.550   3.671   4.825 -0.3417  0.0374 -0.5508
 7078SOL    HW132696   4.576   3.599   4.882 -0.7559  0.4656  0.1773
 7078SOL    HW232697   4.595   3.643   4.746 -0.3640  0.1219 -0.5934
 7079SOL     OW32698   4.308   3.123  10.143  0.6311 -0.6684 -0.5700
 7079SOL    HW132699   4.399   3.098  10.156  0.6121 -0.7826 -0.6584
 7079SOL    HW232700   4.316   3.185  10.070  1.1611 -0.6006 -0.4549
 7080SOL     OW32701   1.633   1.778  15.100 -0.4036  0.5747 -0.3342
 7080SOL    HW132702   1.577   1.735  15.035  2.1827 -0.7799 -1.6720
 7080SOL    HW232703   1.589   1.859  15.124 -0.2615  0.6415 -0.2987
 7081SOL     OW32704   3.580   2.851  14.982 -0.4860  0.5140  0.3987
 7081SOL    HW132705   3.564   2.792  14.908  0.3135  0.1497  0.5161
 7081SOL    HW232706   3.534   2.809  15.055 -0.1091 -2.7188 -1.2444
 7082SOL     OW32707   3.651   4.400   8.381 -0.5820  0.6103 -0.6581
 7082SOL    HW132708   3.628   4.492   8.394  1.4833  1.2249 -1.3550
 7082SOL    HW232709   3.743   4.404   8.356 -0.3153  0.0382  0.2152
 7083SOL     OW32710   4.252   3.611   4.497  0.4272 -0.6564 -0.3982
 7083SOL    HW132711   4.327   3.630   4.441  1.0076  0.6114  0.8027
 7083SOL    HW232712   4.274   3.642   4.585  1.2057 -3.4711  0.3985
 7084SOL     OW32713   4.724   2.873   2.640 -0.6777  0.1974 -0.0478
 7084SOL    HW132714   4.664   2.859   2.714 -1.7657  0.4957 -0.8750
 7084SOL    HW232715   0.011   2.782   2.613 -0.6708 -0.8086  3.3073
 7085SOL     OW32716   1.294   0.248   2.726  0.1795 -0.3864 -0.0601
 7085SOL    HW132717   1.241   0.324   2.750 -2.2291 -1.8756 -0.7250
 7085SOL    HW232718   1.383   0.284   2.720  0.2520  0.0591  3.6396
 7086SOL     OW32719   3.602   4.434   3.587 -0.6938  0.4118 -0.6116
 7086SOL    HW132720   3.672   4.435   3.652 -0.3130  0.3455 -1.0168
 7086SOL    HW232721   3.574   4.522   3.561 -0.1425  0.7511 -0.0392
 7087SOL     OW32722   4.232   1.914   0.446 -0.2960 -0.8124  0.2237
 7087SOL    HW132723   4.213   1.952   0.532  1.1961  0.2824  0.0804
 7087SOL    HW232724   4.165   1.846   0.440 -1.3696  0.2799  0.0282
 7088SOL     OW32725   0.308   0.683   7.462  0.5077  0.0729 -0.3972
 7088SOL    HW132726   0.350   0.757   7.505 -0.7840 -0.0009  1.0259
 7088SOL    HW232727   0.234   0.680   7.523  0.2034  0.0405 -0.7660
 7089SOL     OW32728   1.216   0.530   9.627  0.0685 -0.3564  0.0976
 7089SOL    HW132729   1.126   0.541   9.595  0.3409  0.2915 -0.4216
 7089SOL    HW232730   1.265   0.604   9.593 -1.7894  1.1852  0.7516
 7090SOL     OW32731   3.737   0.124  15.703  0.0260 -0.4700 -0.6778
 7090SOL    HW132732   3.654   0.077  15.715 -0.2942  0.0936 -0.6910
 7090SOL    HW232733   3.763   0.130  15.795 -1.6159 -0.3114 -0.2208
 7091SOL     OW32734   4.178   3.777   7.810 -0.2591  0.4453 -0.2129
 7091SOL    HW132735   4.185   3.720   7.734  3.0155 -1.2725  1.3751
 7091SOL    HW232736   4.100   3.829   7.790 -0.3815 -1.3433 -4.2476
 7092SOL     OW32737   0.852   1.535   5.464 -0.5573  0.2287  0.0725
 7092SOL    HW132738   0.785   1.471   5.488 -0.8152  0.7196  0.6619
 7092SOL    HW232739   0.814   1.616   5.498 -0.5756 -0.2299  1.1705
 7093SOL     OW32740   2.055   1.150   1.536 -0.4081 -0.2837 -0.4176
 7093SOL    HW132741   2.096   1.164   1.451  1.1168  0.0467  0.3652
 7093SOL    HW232742   2.096   1.221   1.585 -2.6254  0.1910  0.7036
 7094SOL     OW32743   0.901   0.970  13.985  0.0601 -0.1293  0.2233
 7094SOL    HW132744   0.818   0.997  14.024 -0.7262  0.9354 -2.1857
 7094SOL    HW232745   0.902   0.875  13.981 -0.2567 -0.2596  2.8108
 7095SOL     OW32746   2.272   1.338  16.983 -0.2101 -0.1507 -0.5331
 7095SOL    HW132747   2.201   1.331  16.919 -1.5524  0.5194  0.8815
 7095SOL    HW232748   2.341   1.382  16.933 -0.1800  0.1791 -0.2048
 7096SOL     OW32749   0.379   3.638   3.156  0.5767 -0.3044 -0.6021
 7096SOL    HW132750   0.318   3.613   3.225  0.5347 -3.1154 -1.6580
 7096SOL    HW232751   0.318   3.690   3.104 -1.4511 -0.9394  1.1667
 7097SOL     OW32752   2.002   3.024   0.344 -0.1780 -0.3774 -0.0226
 7097SOL    HW132753   2.049   3.060   0.419  1.7616  0.3316 -1.5783
 7097SOL    HW232754   1.988   2.932   0.368 -0.1357 -0.2779  0.3763
 7098SOL     OW32755   2.461   0.936   5.045 -0.0983 -0.2587  0.1628
 7098SOL    HW132756   2.506   0.996   5.105 -1.6105  1.9733 -0.9010
 7098SOL    HW232757   2.533   0.904   4.991  1.5977 -0.3602  2.4867
 7099SOL     OW32758   1.248   2.104   7.272 -0.1930  0.0371 -0.1731
 7099SOL    HW132759   1.178   2.164   7.246  1.8384  1.8552 -1.4875
 7099SOL    HW232760   1.208   2.019   7.253 -1.1837  0.2136  1.1031
 7100SOL     OW32761   0.829   1.352   7.290  0.2370 -0.3087 -0.0722
 7100SOL    HW132762   0.771   1.392   7.226  2.2555  1.2541 -0.9427
 7100SOL    HW232763   0.766   1.294   7.333  1.2386 -1.0210  0.4414
 7101SOL     OW32764   3.921   4.693  10.650  0.0306 -0.3092  0.2594
 7101SOL    HW132765   3.952   4.623  10.708  0.8533  0.4565  0.7247
 7101SOL    HW232766   3.973   0.038  10.685 -0.2841  0.3925 -0.7153
 7102SOL     OW32767   2.436   4.405   6.942  0.5816 -0.3333  0.1939
 7102SOL    HW132768   2.511   4.352   6.971  2.3370  0.2366 -3.2309
 7102SOL    HW232769   2.484   4.475   6.897  0.2123  0.5613  1.1710
 7103SOL     OW32770   1.767   2.669   3.670 -0.3568  0.0299  0.4647
 7103SOL    HW132771   1.813   2.585   3.674  1.0406  0.8032  0.7081
 7103SOL    HW232772   1.773   2.679   3.575 -1.9991  0.1966  0.3805
 7104SOL     OW32773   2.477   2.029   4.378 -0.0961  0.5502  0.4751
 7104SOL    HW132774   2.480   2.083   4.299 -1.8446  1.4005  1.0084
 7104SOL    HW232775   2.448   2.102   4.433  0.0805  0.8272  0.2014
 7105SOL     OW32776   0.751   0.821   5.717  0.6290 -0.2112 -0.5610
 7105SOL    HW132777   0.806   0.747   5.742  2.3485  1.4202  0.4674
 7105SOL    HW232778   0.813   0.875   5.668 -0.9701 -0.1206 -2.5285
 7106SOL     OW32779   3.395   1.776   3.153  0.5097 -0.5705 -0.1789
 7106SOL    HW132780   3.484   1.763   3.121 -0.4061 -0.8869 -2.6337
 7106SOL    HW232781   3.355   1.799   3.069 -0.3453 -0.8452  0.1445
 7107SOL     OW32782   2.747   1.769   5.991 -0.1053  0.4333  0.2186
 7107SOL    HW132783   2.775   1.722   5.912 -1.7427  0.2601 -0.2633
 7107SOL    HW232784   2.694   1.695   6.021 -0.7238  1.1891  0.9981
 7108SOL     OW32785   4.084   3.616   9.619  0.5338 -0.6518 -0.0210
 7108SOL    HW132786   4.158   3.672   9.641 -0.8466  1.9837 -2.0660
 7108SOL    HW232787   4.039   3.670   9.554  0.7906 -0.6973 -0.2364
 7109SOL     OW32788   2.769   1.439   9.753 -0.1086 -0.2431 -0.1155
 7109SOL    HW132789   2.859   1.435   9.788 -0.7434 -2.5839  1.1995
 7109SOL    HW232790   2.749   1.530   9.778  0.1510 -0.8915  2.4217
 7110SOL     OW32791   0.800   0.165   5.909 -0.3784 -0.5365  0.4225
 7110SOL    HW132792   0.828   0.114   5.834 -0.1986 -0.9904  0.7968
 7110SOL    HW232793   0.866   0.233   5.921  0.7670 -1.1596 -2.3475
 7111SOL     OW32794   2.277   0.208  10.375  0.0002 -0.1626 -0.6254
 7111SOL    HW132795   2.273   0.303  10.361  1.7957  0.3306  2.1269
 7111SOL    HW232796   2.197   0.191  10.425 -0.6319 -1.6013 -2.1263
 7112SOL     OW32797   3.256   2.375   5.409  0.6278 -0.0728 -0.0031
 7112SOL    HW132798   3.234   2.460   5.449  1.4295  0.4053 -0.5659
 7112SOL    HW232799   3.206   2.385   5.328  1.0310  1.2210 -0.1030
 7113SOL     OW32800   3.416   4.296   2.617 -0.3259 -0.2800  0.0139
 7113SOL    HW132801   3.362   4.279   2.539  0.8084  1.8151 -1.2443
 7113SOL    HW232802   3.388   4.224   2.673  1.4403  0.7031  2.1290
 7114SOL     OW32803   2.319   2.222   0.170  0.2418 -0.2213  0.4537
 7114SOL    HW132804   2.309   2.218   0.265  0.7324  1.4304  0.5657
 7114SOL    HW232805   2.379   2.148   0.159  0.1552 -0.3653  0.9865
 7115SOL     OW32806   0.696   4.620  14.046 -0.2185 -0.7564  0.4454
 7115SOL    HW132807   0.639   4.678  13.996  1.5736  1.3561  0.8502
 7115SOL    HW232808   0.659   4.625  14.134  0.3380  2.6211  0.5133
 7116SOL     OW32809   0.538   0.159  11.075  0.5269  0.1735  0.1098
 7116SOL    HW132810   0.467   0.218  11.098  0.8626  1.1705 -1.4142
 7116SOL    HW232811   0.597   0.208  11.018 -0.4435  1.2799  0.0646
 7117SOL     OW32812   0.788   1.066  12.262 -0.2661  0.1325 -0.1390
 7117SOL    HW132813   0.772   0.983  12.306  2.1096 -0.0036  0.4583
 7117SOL    HW232814   0.883   1.074  12.257 -0.2716  0.9003  1.0792
 7118SOL     OW32815   2.568   4.110   9.751 -0.6470  0.0978  1.0003
 7118SOL    HW132816   2.655   4.139   9.722 -0.3280 -0.7846  1.0685
 7118SOL    HW232817   2.583   4.108   9.845  0.2376  1.0462  0.8826
 7119SOL     OW32818   0.559   0.575  11.577  0.0781  0.1393  0.1298
 7119SOL    HW132819   0.567   0.525  11.495  0.5530  0.6454 -0.1238
 7119SOL    HW232820   0.534   0.660  11.540 -0.6106  0.3596  1.0949
 7120SOL     OW32821   1.647   4.041   3.289  0.0925  0.7005  0.0721
 7120SOL    HW132822   1.578   4.013   3.350 -1.7223  1.9346 -1.4029
 7120SOL    HW232823   1.725   3.989   3.308 -0.0165  0.1659 -0.9188
 7121SOL     OW32824   4.572   2.151   3.353 -0.2015 -0.1959  0.0311
 7121SOL    HW132825   4.605   2.127   3.439  1.5547 -1.4260 -0.9729
 7121SOL    HW232826   4.632   2.216   3.318 -1.2697  0.4009 -0.7102
 7122SOL     OW32827   1.981   2.975  15.164  0.2258  0.3457  0.5914
 7122SOL    HW132828   1.899   2.932  15.141  0.5548 -0.4483  0.9118
 7122SOL    HW232829   2.000   3.005  15.075  2.4756 -1.6311  0.4090
 7123SOL     OW32830   0.220   3.235  15.535 -0.8137  0.5244 -0.1438
 7123SOL    HW132831   0.295   3.190  15.573 -1.2246  0.8049  1.0010
 7123SOL    HW232832   0.202   3.303  15.601  2.2102 -0.1456  1.3544
 7124SOL     OW32833   2.318   3.927   6.867  0.1051 -0.8563 -0.5857
 7124SOL    HW132834   2.290   3.974   6.788 -0.4209 -1.2781 -0.6512
 7124SOL    HW232835   2.249   3.952   6.928  0.9796  0.2087 -0.0385
 7125SOL     OW32836   2.617   4.055  10.023  0.1030  0.7265  0.4702
 7125SOL    HW132837   2.700   4.011  10.003  0.6378  2.4587 -1.0657
 7125SOL    HW232838   2.581   4.005  10.097 -0.4776 -1.9027 -1.5833
 7126SOL     OW32839   3.967   3.132  11.105 -0.1065 -0.0008  0.1961
 7126SOL    HW132840   3.934   3.186  11.177  1.9911  1.1421  0.2746
 7126SOL    HW232841   3.928   3.048  11.132  0.5961  0.0984  1.5133
 7127SOL     OW32842   2.444   0.303   2.118 -0.5289  0.4555 -0.5462
 7127SOL    HW132843   2.477   0.286   2.030 -0.3022  0.7502 -0.5205
 7127SOL    HW232844   2.530   0.307   2.161 -0.7053 -0.8492 -0.0744
 7128SOL     OW32845   0.221   4.182   7.225  0.1273 -0.1938  0.2361
 7128SOL    HW132846   0.261   4.096   7.221 -1.8273 -1.0608 -0.7345
 7128SOL    HW232847   0.146   4.165   7.283  0.3854 -1.7555  0.0919
 7129SOL     OW32848   3.211   2.585   1.580  0.4580 -0.8127  0.5948
 7129SOL    HW132849   3.118   2.610   1.581  0.5459 -0.4572 -1.9807
 7129SOL    HW232850   3.213   2.521   1.509  0.6353 -0.9007  0.6781
 7130SOL     OW32851   4.641   1.552   5.179  0.0863 -0.1349  0.4220
 7130SOL    HW132852   0.008   1.537   5.173 -0.0404 -0.6739 -0.3399
 7130SOL    HW232853   4.602   1.481   5.127  2.7629 -1.1033 -0.2719
 7131SOL     OW32854   3.534   0.048  15.856  0.2433  0.8332  0.1643
 7131SOL    HW132855   3.459   0.010  15.902 -0.1785  0.4783 -0.8317
 7131SOL    HW232856   3.562   0.100  15.932  0.7091  0.4855  0.2319
 7132SOL     OW32857   2.697   1.082   2.608  0.1552  0.2031  0.0580
 7132SOL    HW132858   2.664   1.146   2.671 -0.7398 -1.4608  1.3189
 7132SOL    HW232859   2.767   1.133   2.568 -0.0552  0.3318 -0.1402
 7133SOL     OW32860   2.619   4.099   2.705  0.3567  0.0427  0.3362
 7133SOL    HW132861   2.701   4.060   2.734 -1.7955 -2.1401  3.4128
 7133SOL    HW232862   2.640   4.128   2.616  0.7680 -1.5933 -0.1002
 7134SOL     OW32863   0.542   3.738   6.114 -0.0704  0.2959  0.1093
 7134SOL    HW132864   0.598   3.707   6.185 -2.9239 -1.7121  1.4849
 7134SOL    HW232865   0.485   3.796   6.165  0.7253  0.4748  0.8078
 7135SOL     OW32866   0.283   1.804   5.820 -0.3658 -0.9103  0.3023
 7135SOL    HW132867   0.244   1.816   5.733 -0.0116  0.7128  0.3539
 7135SOL    HW232868   0.204   1.817   5.872 -0.8330  1.2087 -0.9053
 7136SOL     OW32869   1.128   3.147   1.425  0.2852  0.0266 -0.3299
 7136SOL    HW132870   1.117   3.124   1.517 -0.6667  0.4188 -0.3437
 7136SOL    HW232871   1.196   3.085   1.399 -0.3669 -0.4872 -0.8315
 7137SOL     OW32872   2.053   0.011   5.099 -0.2053  0.1296  0.5687
 7137SOL    HW132873   2.029   4.646   5.103  1.9311 -0.4206  0.8697
 7137SOL    HW232874   2.148   0.009   5.089 -0.3761  0.4100 -1.0974
 7138SOL     OW32875   1.364   4.709  16.586  0.0146 -0.1940  0.0148
 7138SOL    HW132876   1.354   4.638  16.523  0.5722 -0.5869  0.3708
 7138SOL    HW232877   1.452   4.699  16.623 -0.6938  4.3550  2.9742
 7139SOL     OW32878   4.289   4.719   1.732  0.0690 -0.6955 -0.2945
 7139SOL    HW132879   4.306   4.678   1.647  1.0542  0.0940 -0.4698
 7139SOL    HW232880   4.353   0.063   1.735  1.3662 -1.7607 -2.6485
 7140SOL     OW32881   1.783   3.363   2.931 -0.2699 -0.0637  0.5419
 7140SOL    HW132882   1.786   3.332   3.022 -1.6686 -1.3092  0.1590
 7140SOL    HW232883   1.872   3.346   2.900 -0.9514  0.9862 -2.0111
 7141SOL     OW32884   3.914   0.502   4.541 -0.4715 -0.6223  0.1707
 7141SOL    HW132885   3.901   0.597   4.539  0.4472 -0.5076 -0.7037
 7141SOL    HW232886   3.883   0.480   4.628 -0.4898  1.1083  0.6118
 7142SOL     OW32887   1.746   4.172  16.994 -0.1772 -0.0215  0.1362
 7142SOL    HW132888   1.824   4.182  17.049  0.5675  0.4020 -0.9993
 7142SOL    HW232889   1.781   4.153  16.907  0.4781  1.6698  0.0360
 7143SOL     OW32890   2.738   0.703  14.498 -0.3565 -0.0913  0.1642
 7143SOL    HW132891   2.671   0.771  14.491 -0.0331 -0.0997 -2.7643
 7143SOL    HW232892   2.693   0.620  14.482  0.2281 -0.3519 -0.1334
 7144SOL     OW32893   0.599   4.589   4.398 -0.0922  0.4956  0.2692
 7144SOL    HW132894   0.508   4.620   4.399  0.4666  2.1330  1.9229
 7144SOL    HW232895   0.591   4.494   4.386 -0.0305  0.5200  0.0478
 7145SOL     OW32896   0.593   4.392   9.535  0.1088 -0.0225 -0.4862
 7145SOL    HW132897   0.619   4.424   9.621  2.7006 -0.4233 -1.0994
 7145SOL    HW232898   0.521   4.450   9.513 -0.4914 -0.1536  1.1880
 7146SOL     OW32899   1.852   4.614   2.286  0.3603 -0.1747 -0.1186
 7146SOL    HW132900   1.923   4.655   2.335  0.7558 -0.7336 -0.2309
 7146SOL    HW232901   1.845   4.681   2.218  2.8784 -2.4572 -2.6191
 7147SOL     OW32902   0.006   3.176   6.453 -0.0779  0.6364 -0.2404
 7147SOL    HW132903   4.652   3.151   6.498 -0.0863  1.9737  0.5116
 7147SOL    HW232904   4.696   3.242   6.394 -1.2337 -0.1050 -0.3575
 7148SOL     OW32905   3.774   2.146   1.477 -0.6952  0.4016 -0.3741
 7148SOL    HW132906   3.783   2.149   1.381 -0.7779 -0.4944 -0.4143
 7148SOL    HW232907   3.814   2.062   1.500 -1.2298 -0.2540 -1.8231
 7149SOL     OW32908   0.223   0.568   5.343 -0.2733  0.5941 -0.1619
 7149SOL    HW132909   0.143   0.617   5.324 -2.0002 -1.7630  0.9908
 7149SOL    HW232910   0.285   0.634   5.311  1.6240 -1.3275 -0.4935
 7150SOL     OW32911   4.129   1.516  12.010  0.1983  0.1591 -0.0617
 7150SOL    HW132912   4.096   1.431  11.982 -0.9033  0.3136  0.7513
 7150SOL    HW232913   4.222   1.502  12.030  0.1764  1.9239  1.2562
 7151SOL     OW32914   1.167   0.246   6.145  0.1451 -0.1119 -0.4989
 7151SOL    HW132915   1.184   0.313   6.211 -1.8799 -0.1635  0.0495
 7151SOL    HW232916   1.241   0.190   6.168  1.8428  2.5488  0.5946
 7152SOL     OW32917   0.420   0.438   7.483 -0.6461  0.1796  0.4709
 7152SOL    HW132918   0.442   0.416   7.393 -1.0199  0.3185  0.3434
 7152SOL    HW232919   0.381   0.524   7.466 -0.4675  0.4711  1.5312
 7153SOL     OW32920   3.641   1.311  12.331 -0.1181  0.0947 -0.4032
 7153SOL    HW132921   3.551   1.338  12.346  0.1803  0.5778  0.5341
 7153SOL    HW232922   3.649   1.313  12.236  0.5746  0.9899 -0.3260
 7154SOL     OW32923   1.788   3.476   8.155 -0.8134  0.1767  0.0002
 7154SOL    HW132924   1.785   3.390   8.114  1.2503  0.5132 -0.8658
 7154SOL    HW232925   1.824   3.445   8.239  0.7483 -2.2659 -1.5833
 7155SOL     OW32926   4.472   4.328   9.054 -0.5416  1.1607 -0.2214
 7155SOL    HW132927   4.479   4.418   9.088  0.6453  0.6566  0.8762
 7155SOL    HW232928   4.399   4.302   9.110 -0.4319 -1.1566 -1.1877
 7156SOL     OW32929   1.600   2.584   8.684 -0.2160 -0.2905  0.2133
 7156SOL    HW132930   1.678   2.529   8.680  1.2894  2.1089 -3.6409
 7156SOL    HW232931   1.630   2.645   8.617 -0.5189 -2.3918 -1.8248
 7157SOL     OW32932   2.469   3.050   6.321  0.5416  0.3377  0.1916
 7157SOL    HW132933   2.446   3.140   6.297 -1.0795 -0.3458 -0.7467
 7157SOL    HW232934   2.550   3.065   6.371  0.5359 -2.0191  0.8994
 7158SOL     OW32935   0.817   4.612  13.047 -0.4790 -0.2011 -0.6144
 7158SOL    HW132936   0.760   4.560  13.102  0.3053 -1.1435 -0.6865
 7158SOL    HW232937   0.860   4.668  13.112 -4.0346  0.8648  0.8150
 7159SOL     OW32938   2.215   2.268   3.628 -0.1399 -0.3781 -0.2507
 7159SOL    HW132939   2.243   2.291   3.540  0.7884 -1.3430 -0.2069
 7159SOL    HW232940   2.200   2.173   3.626  3.3111 -0.9237  1.0747
 7160SOL     OW32941   3.705   2.721   5.863  0.2014  0.3934 -0.0052
 7160SOL    HW132942   3.792   2.758   5.878  1.1369 -1.6634 -0.3684
 7160SOL    HW232943   3.691   2.659   5.936  0.1982 -0.2936 -0.5845
 7161SOL     OW32944   1.343   3.461   1.998 -0.0335 -0.4468 -0.6058
 7161SOL    HW132945   1.365   3.389   2.057 -3.2543 -0.8340  0.1115
 7161SOL    HW232946   1.338   3.526   2.067 -3.0452 -2.0844  0.7129
 7162SOL     OW32947   3.031   1.316  11.659  0.1003 -0.1598  0.0126
 7162SOL    HW132948   3.061   1.282  11.574 -1.8678  0.6737 -1.0224
 7162SOL    HW232949   3.097   1.384  11.673 -0.1001  0.4838 -2.1331
 7163SOL     OW32950   3.260   4.073   0.303 -0.6987  0.4003  0.2093
 7163SOL    HW132951   3.218   3.994   0.268  0.3636 -0.4416  0.8264
 7163SOL    HW232952   3.336   4.030   0.343 -0.0645  0.1231 -1.2955
 7164SOL     OW32953   1.766   0.584  12.134  0.4421 -0.3455  0.0875
 7164SOL    HW132954   1.791   0.549  12.220  2.0742  1.5577  0.3970
 7164SOL    HW232955   1.680   0.546  12.119  0.1049  1.0840 -1.6076
 7165SOL     OW32956   0.469   3.409   4.412  0.0354  0.8254 -0.2856
 7165SOL    HW132957   0.538   3.380   4.352  2.2874 -0.1087  2.7457
 7165SOL    HW232958   0.419   3.329   4.422  1.3939  0.2006  1.6364
 7166SOL     OW32959   3.747   2.907  14.651  0.7640 -1.0744  0.5639
 7166SOL    HW132960   3.721   2.818  14.674 -3.2762 -0.0273 -0.0073
 7166SOL    HW232961   3.796   2.919  14.733 -0.5290 -2.3607  1.5197
 7167SOL     OW32962   2.617   1.124  15.444 -0.2812  0.2685 -0.6533
 7167SOL    HW132963   2.618   1.208  15.399 -0.7391  1.0019  0.6814
 7167SOL    HW232964   2.525   1.115  15.469 -0.9069  2.0233 -2.3061
 7168SOL     OW32965   1.413   0.150   6.241 -0.3956  0.1889  0.3133
 7168SOL    HW132966   1.430   0.144   6.335  1.2300 -2.4940 -0.1563
 7168SOL    HW232967   1.469   0.225   6.223  0.8139 -0.8241 -0.1199
 7169SOL     OW32968   1.760   2.455  15.998 -0.0575  0.3145  0.0531
 7169SOL    HW132969   1.750   2.464  16.093 -1.1655  1.3194 -0.1556
 7169SOL    HW232970   1.747   2.361  15.991 -1.5181  0.4779  0.6644
 7170SOL     OW32971   3.406   1.254   0.598 -0.5322 -0.0471 -0.5081
 7170SOL    HW132972   3.349   1.182   0.625 -0.2455 -1.3346 -3.3276
 7170SOL    HW232973   3.487   1.205   0.613 -1.1235 -0.4325  1.3937
 7171SOL     OW32974   1.274   1.275  13.931  0.0745  0.1893 -0.1916
 7171SOL    HW132975   1.296   1.206  13.868 -2.5725 -1.1414  0.3618
 7171SOL    HW232976   1.213   1.220  13.980  0.4270 -0.3572 -0.3656
 7172SOL     OW32977   1.644   0.955   0.891  0.0376  0.7198 -0.1683
 7172SOL    HW132978   1.648   1.044   0.858  1.3149  0.6567 -0.2036
 7172SOL    HW232979   1.711   0.926   0.830  0.8660  0.2584  0.9486
 7173SOL     OW32980   0.701   1.748   8.542  0.1970  0.3654 -0.6390
 7173SOL    HW132981   0.656   1.807   8.482  1.8644  0.6527 -1.6005
 7173SOL    HW232982   0.627   1.711   8.591  0.4624  1.5738  0.6661
 7174SOL     OW32983   3.065   1.198   7.489  0.0650 -0.1835  0.2137
 7174SOL    HW132984   3.147   1.218   7.443  0.9575 -1.9755  1.0346
 7174SOL    HW232985   3.098   1.195   7.579 -1.4487 -1.5200  0.7178
 7175SOL     OW32986   1.786   2.681   4.879  0.0108  0.4188 -0.3112
 7175SOL    HW132987   1.728   2.649   4.948  0.1512  1.8845  0.4835
 7175SOL    HW232988   1.831   2.749   4.928  0.7750 -0.6989  0.5367
 7176SOL     OW32989   3.187   0.544   4.900 -0.3320 -0.1265 -0.3260
 7176SOL    HW132990   3.140   0.464   4.878 -0.8144  0.0204  0.1676
 7176SOL    HW232991   3.272   0.514   4.933 -0.4022  0.4706  0.4142
 7177SOL     OW32992   2.758   3.436   7.617 -0.0950  0.7152 -0.3845
 7177SOL    HW132993   2.737   3.508   7.677 -1.9309 -0.2290  0.1219
 7177SOL    HW232994   2.764   3.370   7.686  3.4645  0.5663 -0.8508
 7178SOL     OW32995   1.255   1.537   5.689 -0.0248  0.0468 -0.5677
 7178SOL    HW132996   1.212   1.622   5.680  0.2103  0.2163 -0.0416
 7178SOL    HW232997   1.328   1.551   5.750  0.4040 -0.4705 -0.9562
 7179SOL     OW32998   0.073   4.079   0.510 -0.0549 -0.2859 -0.0193
 7179SOL    HW132999   0.037   4.009   0.565  1.6659 -0.6392  0.6626
 7179SOL    HW233000   0.055   4.160   0.559  0.1930 -0.8254  0.9578
 7180SOL     OW33001   1.052   4.041   5.118 -0.0565 -0.5370 -0.1706
 7180SOL    HW133002   1.136   4.086   5.107  0.9186 -2.7137 -1.6879
 7180SOL    HW233003   1.065   4.011   5.208 -1.3606  0.7571  0.4419
 7181SOL     OW33004   0.501   4.076   2.997  0.4710  1.0682  0.4084
 7181SOL    HW133005   0.565   4.019   2.952 -0.4269  0.6390 -0.3141
 7181SOL    HW233006   0.559   4.108   3.066 -2.1828 -0.5104  3.3482
 7182SOL     OW33007   3.255   3.813  10.706  0.4864  0.2387  0.0638
 7182SOL    HW133008   3.200   3.859  10.643  0.4097  0.3880  0.2379
 7182SOL    HW233009   3.244   3.726  10.667  0.7925  0.1359  0.2069
 7183SOL     OW33010   3.122   2.581   4.235 -0.0905  0.4468 -0.3378
 7183SOL    HW133011   3.080   2.545   4.313  0.6219  1.5592  0.5488
 7183SOL    HW233012   3.044   2.615   4.192 -1.6692 -3.6034 -0.6474
 7184SOL     OW33013   1.811   0.611   2.180 -0.4012  0.8196  0.1070
 7184SOL    HW133014   1.793   0.702   2.201  0.0972  1.0400 -0.4230
 7184SOL    HW233015   1.861   0.592   2.260  1.2470  0.1994 -1.0958
 7185SOL     OW33016   2.139   0.891   7.151 -0.0919  0.0832  0.0089
 7185SOL    HW133017   2.180   0.881   7.237  2.8872  2.6128 -1.0850
 7185SOL    HW233018   2.104   0.980   7.144  0.3019  0.2131 -0.3113
 7186SOL     OW33019   4.188   3.046   9.314  0.1368  0.4775  0.2619
 7186SOL    HW133020   4.211   3.139   9.309 -2.4849  1.2373  2.0923
 7186SOL    HW233021   4.146   3.054   9.399  0.6541  0.9232  0.4726
 7187SOL     OW33022   4.106   2.657  16.585  0.1923 -0.3776 -0.1374
 7187SOL    HW133023   4.166   2.611  16.643 -0.1542 -0.3161  0.2693
 7187SOL    HW233024   4.165   2.709  16.530  0.5811  0.4017  1.0242
 7188SOL     OW33025   1.337   3.841  16.513 -0.7057 -0.5198 -0.3803
 7188SOL    HW133026   1.323   3.887  16.596  0.4113  0.2971 -0.6554
 7188SOL    HW233027   1.295   3.901  16.451  1.5614  1.0657 -0.3566
 7189SOL     OW33028   3.855   3.554   8.132  0.0355  0.4620 -0.0502
 7189SOL    HW133029   3.823   3.611   8.202  1.6172 -0.9499  1.8162
 7189SOL    HW233030   3.852   3.618   8.061 -0.7044 -0.9428 -1.2847
 7190SOL     OW33031   3.269   2.869   8.076  0.1642  0.0501 -0.5252
 7190SOL    HW133032   3.330   2.938   8.052 -1.2441  0.8886 -1.6686
 7190SOL    HW233033   3.190   2.922   8.065  0.8529  1.4907  1.4601
 7191SOL     OW33034   0.240   4.620   9.842  0.1712 -0.4591  0.3609
 7191SOL    HW133035   0.272   4.571   9.918  2.9424  1.3615  0.3795
 7191SOL    HW233036   0.308   4.687   9.838 -1.4628  1.1681  0.0321
 7192SOL     OW33037   4.437   3.495   7.128 -0.2597  0.1010  0.0772
 7192SOL    HW133038   4.441   3.554   7.053  2.8956 -0.8624 -0.5193
 7192SOL    HW233039   4.449   3.556   7.201  1.7046 -3.9897  3.1862
 7193SOL     OW33040   0.902   1.542  14.884 -0.3554 -1.0209 -0.6841
 7193SOL    HW133041   0.811   1.573  14.890  0.7772  2.0799  0.3330
 7193SOL    HW233042   0.941   1.627  14.861 -0.8925 -0.4812  0.3842
 7194SOL     OW33043   3.356   0.707   3.574 -0.0710  0.0475  0.0208
 7194SOL    HW133044   3.395   0.666   3.497  0.6191 -0.9627  0.9074
 7194SOL    HW233045   3.280   0.649   3.585  0.7680 -0.7847  1.3727
 7195SOL     OW33046   3.785   0.678   7.554  0.5909 -0.0524  0.2833
 7195SOL    HW133047   3.846   0.747   7.527 -1.4213  1.0934 -1.2543
 7195SOL    HW233048   3.853   0.625   7.597  0.3665 -1.0830 -0.6352
 7196SOL     OW33049   2.404   1.923   7.257 -0.3442  0.2877 -0.7015
 7196SOL    HW133050   2.495   1.900   7.277 -0.9402  0.1875  1.8685
 7196SOL    HW233051   2.376   1.966   7.337 -0.5290  0.4872 -0.8745
 7197SOL     OW33052   2.562   1.455  16.541  0.6506  0.7988  0.4697
 7197SOL    HW133053   2.650   1.434  16.510  0.1689 -0.9089  0.2690
 7197SOL    HW233054   2.541   1.530  16.485  0.6754 -0.4771 -1.2810
 7198SOL     OW33055   2.196   4.726   9.358 -0.3973  0.2300  0.0396
 7198SOL    HW133056   2.181   0.010   9.452  1.8317 -0.3872  0.4601
 7198SOL    HW233057   2.291   4.716   9.350 -0.1734  0.0799  3.1076
 7199SOL     OW33058   2.435   2.800  10.969 -0.0938  0.8206 -0.5337
 7199SOL    HW133059   2.421   2.738  10.897 -1.2102 -0.8561  1.1163
 7199SOL    HW233060   2.357   2.850  10.945  0.4603  1.0096 -1.9421
 7200SOL     OW33061   1.124   0.269   7.336 -0.1220 -0.0757 -0.0777
 7200SOL    HW133062   1.208   0.308   7.362 -0.0424 -0.9662  0.9872
 7200SOL    HW233063   1.152   0.224   7.256  3.0172 -1.1276  1.6157
 7201SOL     OW33064   4.629   0.072   3.558  1.0801 -0.5883  0.3916
 7201SOL    HW133065   4.607   0.056   3.649 -0.7741 -2.7454 -0.4270
 7201SOL    HW233066   4.725   0.071   3.557  1.0369 -3.1821 -1.6573
 7202SOL     OW33067   4.026   1.253   8.611 -0.0534 -0.0461 -0.1575
 7202SOL    HW133068   4.084   1.242   8.536  0.2646 -0.3857  0.1410
 7202SOL    HW233069   4.078   1.309   8.668 -1.6892  2.6123 -1.2810
 7203SOL     OW33070   1.100   0.751  17.103  0.3349 -0.8236  0.1049
 7203SOL    HW133071   1.120   0.657  17.111 -0.6910 -1.1060 -0.6164
 7203SOL    HW233072   1.029   0.752  17.167  0.5618  0.5539  0.3369
 7204SOL     OW33073   0.195   3.409   4.017 -0.2674 -0.2239 -0.1946
 7204SOL    HW133074   0.237   3.386   3.934 -0.1796  2.0603 -0.7976
 7204SOL    HW233075   0.108   3.429   3.982 -0.3160  1.6924  0.9984
 7205SOL     OW33076   1.223   1.846   4.728 -0.3896  0.3093 -0.3093
 7205SOL    HW133077   1.193   1.846   4.637 -0.0212  0.3644 -0.4290
 7205SOL    HW233078   1.190   1.928   4.767  1.0899 -0.2966  2.2581
 7206SOL     OW33079   0.461   1.625   7.997  0.4639 -0.3429 -0.3894
 7206SOL    HW133080   0.421   1.711   7.987 -1.0323 -0.7856  1.8344
 7206SOL    HW233081   0.508   1.616   7.913 -2.4778  0.2320 -2.0863
 7207SOL     OW33082   3.647   2.837  13.460  0.6673  0.4621 -0.0644
 7207SOL    HW133083   3.704   2.782  13.406  0.6984  1.3892 -0.9742
 7207SOL    HW233084   3.585   2.768  13.485  1.6291  0.2536  1.7668
 7208SOL     OW33085   2.335   0.417  13.272 -0.0490  0.4313 -0.3980
 7208SOL    HW133086   2.345   0.324  13.250  0.5683  0.5333 -0.5373
 7208SOL    HW233087   2.244   0.410  13.302  0.0032  0.8973 -0.1290
 7209SOL     OW33088   0.144   4.128   8.345 -0.4565 -0.5105  0.1129
 7209SOL    HW133089   0.105   4.181   8.275  0.7815 -0.6585 -0.6988
 7209SOL    HW233090   0.077   4.147   8.411 -0.4469 -1.3630  0.3624
 7210SOL     OW33091   0.548   2.341   1.748 -0.8010  0.0868 -0.1354
 7210SOL    HW133092   0.592   2.418   1.784  1.1828 -1.5934  1.0240
 7210SOL    HW233093   0.553   2.282   1.822 -0.0488 -1.2589 -1.2570
 7211SOL     OW33094   0.907   0.693  14.082  0.8772  0.5425  0.5565
 7211SOL    HW133095   0.962   0.640  14.024  3.4502  1.7763  1.8746
 7211SOL    HW233096   0.949   0.679  14.167  2.3204 -0.3548 -0.3072
 7212SOL     OW33097   3.494   3.386   5.548 -0.2943  0.9636  0.3052
 7212SOL    HW133098   3.430   3.316   5.533  3.7151 -2.2036 -1.9623
 7212SOL    HW233099   3.571   3.332   5.566  0.4981  1.9264 -0.2248
 7213SOL     OW33100   2.898   1.141   6.947 -0.2068  0.4311  0.2422
 7213SOL    HW133101   2.951   1.214   6.914 -3.3329  2.2673 -0.7072
 7213SOL    HW233102   2.958   1.073   6.916  0.0244  0.1464  1.3279
 7214SOL     OW33103   3.125   0.543   5.697  0.4914  0.0120  0.1965
 7214SOL    HW133104   3.162   0.455   5.702 -2.1177 -0.9603  2.5207
 7214SOL    HW233105   3.187   0.580   5.635 -0.2005 -0.3726 -0.7211
 7215SOL     OW33106   3.511   2.648   4.389  0.3995 -0.2706  0.2666
 7215SOL    HW133107   3.572   2.580   4.359  0.8238 -0.7211  2.1136
 7215SOL    HW233108   3.504   2.685   4.302  0.1652  1.2049  0.9215
 7216SOL     OW33109   0.240   1.732   7.550 -0.3433  0.5245 -0.5584
 7216SOL    HW133110   0.326   1.724   7.593 -0.6804 -2.4687 -0.3916
 7216SOL    HW233111   0.227   1.826   7.541  2.8194  1.1935  1.8322
 7217SOL     OW33112   1.216   2.625   7.226  0.1965  0.0541  0.3868
 7217SOL    HW133113   1.301   2.636   7.268 -0.2963  4.8219  0.1902
 7217SOL    HW233114   1.213   2.704   7.172 -0.2642 -1.6524 -2.1040
 7218SOL     OW33115   1.327   1.762   9.477  0.2424  0.0354  0.2637
 7218SOL    HW133116   1.356   1.840   9.524  1.3923 -0.9372  1.1686
 7218SOL    HW233117   1.390   1.751   9.406  0.7815 -1.4394  0.9697
 7219SOL     OW33118   2.609   4.353   8.888 -0.0957  0.0397  0.3878
 7219SOL    HW133119   2.628   4.260   8.891 -2.5791 -0.4820  0.0083
 7219SOL    HW233120   2.691   4.398   8.908 -0.0255 -0.4383  1.1568
 7220SOL     OW33121   0.468   2.006   2.779  0.3084 -0.1800  0.0000
 7220SOL    HW133122   0.393   2.065   2.768 -0.9233 -2.6190 -4.7907
 7220SOL    HW233123   0.427   1.920   2.792 -1.1519 -0.0943 -3.8750
 7221SOL     OW33124   0.203   0.715   8.003  0.1500 -0.6819 -0.7396
 7221SOL    HW133125   0.263   0.771   8.053 -0.9501 -0.5558  0.4450
 7221SOL    HW233126   0.122   0.716   8.053 -0.0691  2.9641 -1.1446
 7222SOL     OW33127   3.650   3.525   3.143  0.1604 -0.1283  0.1268
 7222SOL    HW133128   3.564   3.484   3.145  0.0660  0.0574 -0.1779
 7222SOL    HW233129   3.674   3.507   3.052 -0.6702 -0.2055 -0.0738
 7223SOL     OW33130   1.039   0.218   0.868 -0.5956  0.0166 -0.5353
 7223SOL    HW133131   0.956   0.227   0.821 -0.8373 -1.5196 -0.3833
 7223SOL    HW233132   1.064   0.311   0.873  0.7081 -0.2847 -1.5762
 7224SOL     OW33133   4.508   2.951   6.539 -0.1356  0.1327 -0.4889
 7224SOL    HW133134   4.541   2.962   6.628 -0.4296 -2.0021 -0.1358
 7224SOL    HW233135   4.536   2.863   6.515  0.1529  0.6510 -2.1055
 7225SOL     OW33136   0.702   3.353  13.314  0.0381  0.2043  0.0534
 7225SOL    HW133137   0.674   3.341  13.405  2.7967  0.1278  0.8834
 7225SOL    HW233138   0.653   3.434  13.303 -0.6444 -0.3150 -0.8220
 7226SOL     OW33139   0.762   3.505   2.223 -0.1597  0.0637 -0.0148
 7226SOL    HW133140   0.788   3.557   2.146  1.1197 -0.1676  0.2544
 7226SOL    HW233141   0.713   3.432   2.186 -0.3231  1.5820 -2.7668
 7227SOL     OW33142   4.267   3.823  10.934 -0.1672  0.9245  0.4746
 7227SOL    HW133143   4.361   3.842  10.930 -0.2490  1.1513 -0.3429
 7227SOL    HW233144   4.268   3.756  10.866 -2.6092  3.2786 -1.9026
 7228SOL     OW33145   3.104   4.451   6.372 -0.4923  0.9244 -0.4280
 7228SOL    HW133146   3.186   4.496   6.392  1.3424 -1.9411 -1.4188
 7228SOL    HW233147   3.050   4.501   6.310 -2.4121 -0.4237  0.1618
 7229SOL     OW33148   2.176   4.616   7.855 -0.2192 -0.0243 -0.1475
 7229SOL    HW133149   2.134   4.648   7.935  1.3263 -0.2472  0.7783
 7229SOL    HW233150   2.171   4.696   7.803  0.3190  0.5230  0.6428
 7230SOL     OW33151   2.778   0.805   5.174  0.1153  0.0325  0.4028
 7230SOL    HW133152   2.823   0.811   5.090  0.2803 -0.4007  0.4575
 7230SOL    HW233153   2.848   0.764   5.225  1.0031  2.0697  0.8384
 7231SOL     OW33154   2.974   4.222   1.093  0.0508 -0.0140 -0.5184
 7231SOL    HW133155   3.015   4.152   1.144 -1.2180 -1.0152 -0.9062
 7231SOL    HW233156   3.043   4.245   1.031  1.9309  1.2139  2.0081
 7232SOL     OW33157   4.145   0.667   0.041 -0.3277 -0.0600 -0.0643
 7232SOL    HW133158   4.072   0.642   0.098  0.1625  1.2081  1.1223
 7232SOL    HW233159   4.106   0.730  17.689  0.4201 -0.7202 -1.2575
 7233SOL     OW33160   4.055   2.697   7.296 -0.0918 -0.9638  0.2351
 7233SOL    HW133161   4.053   2.714   7.390 -2.5762 -0.2639  0.0588
 7233SOL    HW233162   4.098   2.611   7.296 -2.2235 -2.0368 -1.9819
 7234SOL     OW33163   1.045   1.428   8.431  0.1428 -0.7505  0.1237
 7234SOL    HW133164   0.953   1.453   8.424  0.4319  1.1031  2.8090
 7234SOL    HW233165   1.080   1.512   8.463 -1.3444  1.0111 -2.8970
 7235SOL     OW33166   2.790   0.203   8.790  0.3952  0.0199  0.0652
 7235SOL    HW133167   2.866   0.257   8.810  1.5427 -2.0413  1.3168
 7235SOL    HW233168   2.809   0.126   8.844 -1.9336  0.4270  1.4904
 7236SOL     OW33169   2.689   2.270  13.767 -0.4693 -0.0323  0.0598
 7236SOL    HW133170   2.611   2.324  13.754  1.0461  1.9258 -0.7971
 7236SOL    HW233171   2.708   2.245  13.677 -1.3035  1.8496 -0.6371
 7237SOL     OW33172   0.346   2.589  17.694 -0.7208  0.4129  0.3999
 7237SOL    HW133173   0.251   2.600  17.688 -0.8580 -0.3373  1.3934
 7237SOL    HW233174   0.372   2.649   0.056 -2.3769  0.7526  0.7108
 7238SOL     OW33175   2.045   1.044   3.954 -0.4241 -0.0291 -0.3730
 7238SOL    HW133176   2.010   0.965   3.994 -2.4059  1.3552  0.6005
 7238SOL    HW233177   1.960   1.081   3.930 -1.1026 -0.4879  1.3460
 7239SOL     OW33178   0.889   1.152   3.696  0.4470  0.1231  0.0625
 7239SOL    HW133179   0.849   1.143   3.609  0.6895 -0.0726 -0.0291
 7239SOL    HW233180   0.974   1.120   3.665  1.5208  2.1049  1.0085
 7240SOL     OW33181   4.468   2.207   7.495  0.2695  0.1564  0.7519
 7240SOL    HW133182   4.414   2.139   7.537 -0.5007 -0.9918 -2.0336
 7240SOL    HW233183   4.419   2.287   7.512  1.2382  1.2870 -1.7106
 7241SOL     OW33184   2.335   4.692  17.300  0.4042 -0.2223  0.0873
 7241SOL    HW133185   2.259   4.699  17.358  1.1101  0.4820  0.9220
 7241SOL    HW233186   2.286   4.672  17.220  1.5037  0.0184 -0.6378
 7242SOL     OW33187   1.637   2.273   7.101  0.3876  0.3344  0.0752
 7242SOL    HW133188   1.599   2.360   7.092 -0.7099 -0.3013 -1.4378
 7242SOL    HW233189   1.583   2.240   7.172  0.4371 -1.4230 -0.6796
 7243SOL     OW33190   1.886   3.973   3.385 -0.5769  0.4952 -0.0105
 7243SOL    HW133191   1.902   4.030   3.460  0.2704 -0.9484  0.9117
 7243SOL    HW233192   1.871   3.884   3.418  0.5116  1.3311  2.7337
 7244SOL     OW33193   2.541   1.336   0.979 -0.3256 -0.6431 -0.1886
 7244SOL    HW133194   2.625   1.291   0.986  0.6768  1.1768 -0.6024
 7244SOL    HW233195   2.537   1.348   0.885 -0.3800 -1.3180 -0.2705
 7245SOL     OW33196   4.164   2.099   1.510 -0.1820  0.3674  0.6417
 7245SOL    HW133197   4.252   2.075   1.537  1.2333  2.5351 -2.1691
 7245SOL    HW233198   4.135   2.148   1.587  0.2798 -0.7336  1.5067
 7246SOL     OW33199   0.815   2.084   9.808  0.2317 -0.2466 -0.3166
 7246SOL    HW133200   0.733   2.039   9.828  0.3054  0.0806  0.7535
 7246SOL    HW233201   0.808   2.087   9.713 -0.6707 -0.7599 -0.2689
 7247SOL     OW33202   3.535   3.517  13.409  0.0112  0.0739  0.0384
 7247SOL    HW133203   3.596   3.495  13.480 -0.2414 -1.2509 -0.1559
 7247SOL    HW233204   3.506   3.607  13.427  1.8862  1.2192 -2.6464
 7248SOL     OW33205   2.189   1.231   4.410 -0.0503 -0.5024 -0.0402
 7248SOL    HW133206   2.104   1.203   4.441  0.4569 -2.1817 -0.1944
 7248SOL    HW233207   2.203   1.321   4.440 -0.8287 -0.4291  0.1005
 7249SOL     OW33208   3.468   3.437   6.459  0.1105 -0.1533 -0.8187
 7249SOL    HW133209   3.469   3.510   6.520  0.8935  0.6002 -1.7384
 7249SOL    HW233210   3.429   3.482   6.384 -1.2103  1.5855  0.9120
 7250SOL     OW33211   2.615   1.244   7.428  0.4403 -0.2916 -0.6941
 7250SOL    HW133212   2.644   1.335   7.433  0.2604 -0.3624  1.6976
 7250SOL    HW233213   2.547   1.241   7.496  0.1213 -3.4615 -1.1473
 7251SOL     OW33214   1.105   3.495   3.339 -0.6718 -0.5169  0.0529
 7251SOL    HW133215   1.172   3.563   3.343 -0.6511 -0.5635  0.5082
 7251SOL    HW233216   1.142   3.428   3.396  0.2925 -0.8986 -1.0241
 7252SOL     OW33217   2.695   0.554   8.688  0.5523  0.2978  0.4796
 7252SOL    HW133218   2.733   0.625   8.738  0.8342  0.2864  0.2807
 7252SOL    HW233219   2.733   0.569   8.602  1.9197  0.5527  1.1284
 7253SOL     OW33220   2.680   2.711   3.549  0.3820 -0.0398  0.1066
 7253SOL    HW133221   2.601   2.758   3.574 -0.1407  0.4454 -2.4556
 7253SOL    HW233222   2.754   2.769   3.568  0.3949  1.2871 -3.8799
 7254SOL     OW33223   4.177   3.575   6.401  0.4599  0.4232 -0.1738
 7254SOL    HW133224   4.113   3.645   6.387 -0.0232 -0.1374 -0.7954
 7254SOL    HW233225   4.122   3.498   6.415 -2.1582  2.8504  3.0074
 7255SOL     OW33226   4.607   4.302   5.732  0.1929 -0.0920 -0.0997
 7255SOL    HW133227   4.614   4.353   5.652 -0.2351  0.0256 -0.0606
 7255SOL    HW233228   4.661   4.230   5.699 -1.0475 -1.2135  0.2949
 7256SOL     OW33229   4.687   1.047   5.350  0.3827 -0.3179 -0.7040
 7256SOL    HW133230   4.615   0.993   5.319 -0.8532  0.4494  0.8552
 7256SOL    HW233231   0.021   1.021   5.281 -0.1235 -2.6431 -0.2754
 7257SOL     OW33232   2.725   2.997   8.748 -0.1145  0.2451 -0.5250
 7257SOL    HW133233   2.732   2.927   8.683  1.7861  0.1109 -0.1741
 7257SOL    HW233234   2.815   3.009   8.778 -0.1005  1.3401 -1.0128
 7258SOL     OW33235   2.214   3.597   6.934 -0.2890 -0.0131  0.2221
 7258SOL    HW133236   2.142   3.649   6.972  1.2529  1.9264  0.5010
 7258SOL    HW233237   2.293   3.636   6.970  0.4904 -0.5836 -0.8670
 7259SOL     OW33238   1.095   1.304   6.489 -0.6591 -0.1030 -0.4896
 7259SOL    HW133239   1.128   1.216   6.472 -1.4549 -0.0797 -2.1409
 7259SOL    HW233240   1.123   1.352   6.411  0.6312  0.7761  0.5059
 7260SOL     OW33241   2.322   3.771   8.601  0.1255 -0.9613 -0.4989
 7260SOL    HW133242   2.384   3.787   8.672 -0.3224 -1.2070 -0.0601
 7260SOL    HW233243   2.304   3.865   8.590 -0.9882 -1.1516 -0.2763
 7261SOL     OW33244   2.139   3.291  10.237 -0.5077 -0.3729  0.3030
 7261SOL    HW133245   2.204   3.230  10.271  0.5811 -0.2943 -1.6215
 7261SOL    HW233246   2.184   3.371  10.211  0.2407 -1.1146 -0.7092
 7262SOL     OW33247   0.910   1.114   0.569  0.0626 -0.4539 -0.3005
 7262SOL    HW133248   0.856   1.160   0.633  1.5488 -1.8965  2.0002
 7262SOL    HW233249   0.845   1.055   0.530 -0.3138 -0.1466 -0.1343
 7263SOL     OW33250   1.588   2.830   9.138  0.3068  0.3208  0.4703
 7263SOL    HW133251   1.642   2.895   9.094 -1.2169  1.5708  0.4542
 7263SOL    HW233252   1.629   2.751   9.102 -1.9336 -0.0951 -1.2016
 7264SOL     OW33253   4.616   0.026   9.289  0.0350 -0.0481  0.2660
 7264SOL    HW133254   4.708   0.008   9.274 -0.4593 -1.1487 -1.4767
 7264SOL    HW233255   4.625   0.119   9.311  0.3412 -0.4135  1.6215
 7265SOL     OW33256   1.683   2.386   9.723 -0.4072 -0.0442 -0.2425
 7265SOL    HW133257   1.669   2.291   9.721 -0.6407 -0.0587  1.9938
 7265SOL    HW233258   1.775   2.388   9.697  0.2296  1.3003  2.0940
 7266SOL     OW33259   4.276   0.348   0.964 -0.2612 -0.2139 -0.1582
 7266SOL    HW133260   4.285   0.256   0.988  0.4782 -0.2812 -0.6769
 7266SOL    HW233261   4.354   0.354   0.909  0.6344 -1.4897  0.9840
 7267SOL     OW33262   3.441   2.261   9.956  0.2314 -0.1189  0.8433
 7267SOL    HW133263   3.528   2.286   9.989  0.2199 -0.2767  0.9909
 7267SOL    HW233264   3.440   2.281   9.862  0.9618 -0.7308  0.7011
 7268SOL     OW33265   1.161   4.707   1.543  0.1914  0.1014  0.1487
 7268SOL    HW133266   1.135   4.677   1.456  0.2506 -1.7535  0.7775
 7268SOL    HW233267   1.248   0.020   1.537  0.3757 -0.4373 -0.6688
 7269SOL     OW33268   0.952   0.681   4.847  0.2921  0.1702 -0.2652
 7269SOL    HW133269   0.954   0.665   4.753  0.9578 -0.1849 -0.1932
 7269SOL    HW233270   1.035   0.636   4.863  0.1062 -0.1869 -0.3232
 7270SOL     OW33271   2.876   3.718   4.038  0.5042  0.0811 -0.0080
 7270SOL    HW133272   2.811   3.727   3.968 -0.9824 -2.3882  1.0216
 7270SOL    HW233273   2.885   3.623   4.040 -2.3679 -0.1417  2.9048
 7271SOL     OW33274   2.308   0.502   4.696 -0.6432  0.0326 -0.2012
 7271SOL    HW133275   2.233   0.444   4.710 -0.8371  0.7350  1.7438
 7271SOL    HW233276   2.383   0.475   4.749 -0.3553  0.7508 -0.2404
 7272SOL     OW33277   0.453   0.019   1.580 -0.4656 -0.2618  0.0293
 7272SOL    HW133278   0.532   4.703   1.546  0.3891  1.0231  0.3839
 7272SOL    HW233279   0.421   0.042   1.493  2.0777  1.9068 -0.3557
 7273SOL     OW33280   4.569   3.839   5.035  0.5885 -0.9210  0.0369
 7273SOL    HW133281   4.505   3.807   5.099  1.7481 -2.5159  0.4065
 7273SOL    HW233282   4.555   3.772   4.968 -1.4357  0.8846 -1.3233
 7274SOL     OW33283   3.434   3.180   4.874 -0.7047  0.3231  0.2743
 7274SOL    HW133284   3.426   3.085   4.877 -1.4263  0.3632 -0.4154
 7274SOL    HW233285   3.394   3.209   4.956 -0.3614  3.1011 -0.5380
 7275SOL     OW33286   1.831   0.681  11.850 -0.4464 -0.0061 -0.0170
 7275SOL    HW133287   1.788   0.695  11.934 -2.1584 -1.6428 -0.6056
 7275SOL    HW233288   1.807   0.590  11.831 -1.3756  0.6074 -1.7356
 7276SOL     OW33289   4.045   0.789   6.743 -0.7002  0.6811  0.0572
 7276SOL    HW133290   3.972   0.734   6.717 -0.1937 -1.4395  3.0725
 7276SOL    HW233291   4.099   0.793   6.664 -1.3187 -1.7719 -0.4828
 7277SOL     OW33292   3.338   4.053  11.695 -0.2863  0.3725 -0.5305
 7277SOL    HW133293   3.305   4.097  11.773 -0.0569 -0.4199  0.0173
 7277SOL    HW233294   3.259   4.001  11.683 -1.3829  2.4433 -2.3252
 7278SOL     OW33295   2.339   4.023  11.082  0.8695  0.1782 -0.3133
 7278SOL    HW133296   2.393   4.102  11.079 -0.0454  0.8230 -0.0028
 7278SOL    HW233297   2.255   4.059  11.112  1.1868 -0.6418  1.5561
 7279SOL     OW33298   3.628   3.122   3.313 -0.1386 -0.9900  0.4420
 7279SOL    HW133299   3.649   3.141   3.221 -0.8583 -0.3107  0.4168
 7279SOL    HW233300   3.717   3.126   3.349  0.1738 -0.1652 -0.4138
 7280SOL     OW33301   0.157   1.455   7.067  0.1794  0.1674  0.0818
 7280SOL    HW133302   0.211   1.534   7.064  0.6686 -0.1386  0.7592
 7280SOL    HW233303   0.093   1.481   7.133 -1.5701 -0.2642 -1.4263
 7281SOL     OW33304   1.609   0.136   3.626  0.4029  0.1186 -0.2925
 7281SOL    HW133305   1.634   0.118   3.716 -1.2749  0.8290  0.3175
 7281SOL    HW233306   1.600   0.231   3.636  2.4401  0.0509  2.2786
 7282SOL     OW33307   1.758   3.373   3.763 -0.3072 -0.4532 -0.1326
 7282SOL    HW133308   1.712   3.347   3.844 -0.6489 -0.4793 -0.3357
 7282SOL    HW233309   1.840   3.416   3.788 -0.5291 -1.1494  1.8329
 7283SOL     OW33310   3.148   4.369  14.089 -0.1744 -0.5689  0.0731
 7283SOL    HW133311   3.224   4.421  14.064 -0.7993  0.0361 -0.5718
 7283SOL    HW233312   3.148   4.307  14.016 -2.0976  0.0541 -0.4707
 7284SOL     OW33313   3.122   0.657  10.639 -0.2436  0.1358 -0.2434
 7284SOL    HW133314   3.214   0.676  10.656 -0.2103  0.3631 -0.6907
 7284SOL    HW233315   3.118   0.567  10.672 -3.2445 -0.3219 -1.7891
 7285SOL     OW33316   0.499   0.062   3.754 -0.0242  0.2280 -0.1142
 7285SOL    HW133317   0.428   0.047   3.692  0.5151 -2.3307 -0.1497
 7285SOL    HW233318   0.514   4.697   3.777  0.6658  0.8392  1.9052
 7286SOL     OW33319   3.947   0.347   5.208 -0.2458 -0.4794  0.3503
 7286SOL    HW133320   4.022   0.348   5.148  0.8370 -0.6901  1.7054
 7286SOL    HW233321   3.918   0.258   5.188 -3.0753  0.5644 -0.1914
 7287SOL     OW33322   1.130   3.179   6.588 -0.2644  0.3357  0.3839
 7287SOL    HW133323   1.066   3.190   6.518 -0.5664 -0.8334  0.4725
 7287SOL    HW233324   1.216   3.195   6.550 -0.5508  2.3848  0.5962
 7288SOL     OW33325   1.503   3.030  11.290  0.1211 -0.2074 -0.2675
 7288SOL    HW133326   1.466   3.118  11.297 -0.1330 -0.3609  0.3235
 7288SOL    HW233327   1.506   3.030  11.194 -2.3323 -1.4522 -0.3504
 7289SOL     OW33328   2.419   2.646  15.728 -0.6488 -0.1142 -0.8112
 7289SOL    HW133329   2.381   2.725  15.767 -1.4305 -0.6981 -0.3978
 7289SOL    HW233330   2.508   2.656  15.762 -0.7258  0.3957 -0.7619
 7290SOL     OW33331   4.624   1.932   1.402 -0.4979 -0.8053 -1.1492
 7290SOL    HW133332   4.637   1.872   1.475  1.1979  0.6044 -0.2865
 7290SOL    HW233333   4.560   1.893   1.342 -2.7269  0.2835  0.4885
 7291SOL     OW33334   2.845   3.332   4.449 -0.2402 -0.0260  0.1269
 7291SOL    HW133335   2.767   3.356   4.398  1.3405  0.8654 -1.8600
 7291SOL    HW233336   2.843   3.237   4.439 -0.9473  0.2417 -2.4063
 7292SOL     OW33337   3.302   4.518  16.259  0.1844 -0.4843 -0.1490
 7292SOL    HW133338   3.356   4.594  16.236 -1.0890  1.5007  3.4281
 7292SOL    HW233339   3.213   4.545  16.239  0.5109  0.2633 -0.6026
 7293SOL     OW33340   1.952   1.267   0.306 -0.4854  0.5781  0.3808
 7293SOL    HW133341   2.008   1.298   0.378 -1.2299  0.3637  1.0582
 7293SOL    HW233342   1.867   1.297   0.340 -2.0239 -1.2350 -1.8749
 7294SOL     OW33343   3.731   0.962   0.312 -0.3627  0.0374 -0.3045
 7294SOL    HW133344   3.728   0.972   0.216  0.1910 -1.7303 -0.5038
 7294SOL    HW233345   3.657   1.019   0.332 -0.8869 -1.7201  2.7064
 7295SOL     OW33346   4.688   3.467   3.960 -0.3790 -0.0746  0.6648
 7295SOL    HW133347   4.678   3.523   4.037  1.5302 -1.0365  1.6148
 7295SOL    HW233348   4.679   3.527   3.886 -0.4934 -0.0252  0.7199
 7296SOL     OW33349   4.257   0.028   3.691 -0.0769 -0.5506  0.5377
 7296SOL    HW133350   4.181   0.050   3.637 -1.4201 -0.8437  2.2755
 7296SOL    HW233351   4.259   4.660   3.683  1.6775 -0.8910  4.6427
 7297SOL     OW33352   2.531   1.336   8.148 -0.3079 -0.7593 -0.1679
 7297SOL    HW133353   2.482   1.306   8.225 -3.5752 -1.1015 -2.3535
 7297SOL    HW233354   2.488   1.422   8.144  2.6296  0.6419 -1.5060
 7298SOL     OW33355   1.548   1.457  13.532 -0.3704 -0.1550  0.0930
 7298SOL    HW133356   1.583   1.448  13.443  1.2856  1.7361  0.5830
 7298SOL    HW233357   1.458   1.486  13.517 -0.8794 -2.0404 -0.5041
 7299SOL     OW33358   1.570   0.851  11.894  0.2326  0.6921 -0.1120
 7299SOL    HW133359   1.513   0.921  11.926 -1.8284 -2.1108  2.2885
 7299SOL    HW233360   1.629   0.908  11.845  0.4656  0.1944 -0.4092
 7300SOL     OW33361   4.274   3.367   1.162 -0.2148 -0.0365 -0.0934
 7300SOL    HW133362   4.199   3.416   1.128 -0.4706  0.4892  1.2590
 7300SOL    HW233363   4.338   3.420   1.114 -0.1884  0.4871  0.5293
 7301SOL     OW33364   1.892   3.380   5.355 -0.1317 -0.8022 -0.0957
 7301SOL    HW133365   1.826   3.414   5.415  0.3770 -0.0023  0.0049
 7301SOL    HW233366   1.871   3.287   5.365  1.9319 -1.2109  0.3145
 7302SOL     OW33367   0.542   3.905   9.618  0.1912  0.3579 -0.1026
 7302SOL    HW133368   0.492   3.973   9.663  1.3902  0.0242  1.7737
 7302SOL    HW233369   0.482   3.831   9.608  1.0171 -0.4276  0.6693
 7303SOL     OW33370   1.253   1.583   7.644 -0.4902  0.4585 -0.6800
 7303SOL    HW133371   1.209   1.498   7.649  3.7294 -1.8125 -1.7763
 7303SOL    HW233372   1.185   1.636   7.603 -0.3421  3.1348  2.5398
 7304SOL     OW33373   2.876   1.343  16.699 -0.0459 -0.0186  0.0481
 7304SOL    HW133374   2.935   1.418  16.702 -0.3448  0.0140  3.9869
 7304SOL    HW233375   2.799   1.370  16.749 -0.5909 -0.3306 -0.6121
 7305SOL     OW33376   3.577   4.131   4.569  0.4079  0.3334 -0.3600
 7305SOL    HW133377   3.540   4.093   4.489  1.4051 -2.1219  0.3621
 7305SOL    HW233378   3.552   4.077   4.644 -0.6421 -1.1803 -1.8100
 7306SOL     OW33379   2.483   3.739   5.603 -0.3074 -0.1876 -0.3376
 7306SOL    HW133380   2.436   3.795   5.664 -0.8089  0.2348 -1.1192
 7306SOL    HW233381   2.415   3.755   5.538 -0.5841 -4.5405 -1.1077
 7307SOL     OW33382   3.064   2.702   6.665 -0.1756 -0.1165 -0.2522
 7307SOL    HW133383   2.972   2.710   6.690 -1.4356  0.0662 -4.9995
 7307SOL    HW233384   3.057   2.689   6.571  1.3213  0.3370 -0.4266
 7308SOL     OW33385   0.893   0.226   2.994 -0.5382  0.1451  0.3296
 7308SOL    HW133386   0.837   0.300   3.018 -0.1139  0.9232 -1.0909
 7308SOL    HW233387   0.954   0.232   3.067 -1.2882  0.2936  0.9402
 7309SOL     OW33388   2.086   1.554   3.947  0.4445 -0.1919  0.7093
 7309SOL    HW133389   2.143   1.534   3.873  0.9517 -0.5260  1.1935
 7309SOL    HW233390   2.114   1.498   4.019 -2.3218 -2.0227  0.3477
 7310SOL     OW33391   1.393   0.772   4.542  0.0254  0.1616 -0.0265
 7310SOL    HW133392   1.336   0.845   4.569 -2.0673 -0.7210 -2.0956
 7310SOL    HW233393   1.477   0.817   4.536 -0.7056  1.6149  0.3769
 7311SOL     OW33394   1.083   3.811  12.296 -0.1732  0.7569  0.0982
 7311SOL    HW133395   1.070   3.884  12.236 -0.5996 -0.3921 -1.2176
 7311SOL    HW233396   1.077   3.730  12.245  0.2585  0.7492  0.0540
 7312SOL     OW33397   0.376   0.090   2.480 -0.4165  0.6409  0.7069
 7312SOL    HW133398   0.394   4.723   2.466 -2.8672 -0.0615  2.4403
 7312SOL    HW233399   0.424   0.136   2.411  0.9584 -0.2151  1.0864
 7313SOL     OW33400   3.718   0.588   0.473  0.1426 -0.0297 -0.3961
 7313SOL    HW133401   3.749   0.671   0.509 -1.1296 -0.0009  0.6300
 7313SOL    HW233402   3.659   0.547   0.536 -0.4286  2.1999  0.5140
 7314SOL     OW33403   1.257   4.328   8.893 -0.4274 -0.4979  0.6318
 7314SOL    HW133404   1.217   4.409   8.924 -0.1325 -0.5668  1.1986
 7314SOL    HW233405   1.330   4.363   8.841 -1.8426 -0.0035 -1.0029
 7315SOL     OW33406   0.733   1.617  13.795  0.0030  0.7089 -0.6177
 7315SOL    HW133407   0.788   1.670  13.738 -0.5802 -0.0145 -1.8551
 7315SOL    HW233408   0.747   1.530  13.756 -2.3781 -0.9889  2.3226
 7316SOL     OW33409   0.484   1.046   7.881  0.2628  0.4444  0.2017
 7316SOL    HW133410   0.399   1.043   7.924  0.2834 -1.2049  0.1279
 7316SOL    HW233411   0.527   1.111   7.936  1.7401 -0.0065 -0.4157
 7317SOL     OW33412   1.371   3.460   2.364 -0.1296 -0.5393 -0.0950
 7317SOL    HW133413   1.378   3.384   2.306 -0.7505  0.2153 -1.1744
 7317SOL    HW233414   1.304   3.513   2.320 -0.1979 -1.1702 -0.7565
 7318SOL     OW33415   0.208   2.308   8.429 -0.0960 -0.2579  0.2996
 7318SOL    HW133416   0.235   2.386   8.477 -1.1568  2.0186 -2.7703
 7318SOL    HW233417   0.237   2.335   8.342 -0.2098 -1.4394 -0.1075
 7319SOL     OW33418   1.738   2.381   3.288 -0.2219 -0.1220 -0.2776
 7319SOL    HW133419   1.754   2.365   3.381  1.3147 -1.1706 -0.7180
 7319SOL    HW233420   1.651   2.419   3.292 -0.2675 -0.0721 -1.6167
 7320SOL     OW33421   4.190   4.047  16.120  0.2644  0.0937 -0.3580
 7320SOL    HW133422   4.100   4.081  16.129  0.9625  1.3263  2.0128
 7320SOL    HW233423   4.174   3.978  16.057  0.9506  1.6872 -2.2819
 7321SOL     OW33424   1.842   2.954   7.195 -0.4057  0.0529  0.2057
 7321SOL    HW133425   1.875   2.924   7.280  0.8312  1.5080  0.2458
 7321SOL    HW233426   1.853   3.049   7.195  1.1721 -0.1399 -0.5284
 7322SOL     OW33427   3.302   1.696   3.410  0.1075 -0.8149  0.1793
 7322SOL    HW133428   3.210   1.696   3.381  0.3667 -1.7247 -0.6124
 7322SOL    HW233429   3.354   1.715   3.332 -0.3330 -0.6116 -0.0688
 7323SOL     OW33430   0.859   0.062   9.966  0.0929  0.0789  0.1160
 7323SOL    HW133431   0.899   0.148   9.980  0.5219 -0.1468  0.2686
 7323SOL    HW233432   0.938   0.008   9.964 -1.0902 -1.6772  0.0633
 7324SOL     OW33433   0.434   3.361   8.346 -0.5538  0.4939  0.4224
 7324SOL    HW133434   0.379   3.395   8.275  0.8379  1.0687 -0.3749
 7324SOL    HW233435   0.484   3.438   8.373 -1.9007  2.0589 -1.6182
 7325SOL     OW33436   1.690   3.865   9.371  0.1339  0.2280  0.2043
 7325SOL    HW133437   1.737   3.932   9.422  0.9497  0.2572 -0.5763
 7325SOL    HW233438   1.758   3.798   9.368 -1.6910 -1.5845 -0.9121
 7326SOL     OW33439   1.820   2.436   8.621  0.1310  0.1760  0.3383
 7326SOL    HW133440   1.786   2.357   8.578 -1.0947  0.6761  0.4070
 7326SOL    HW233441   1.811   2.502   8.552 -0.4264 -1.1664 -0.8952
 7327SOL     OW33442   2.950   3.035  16.719 -0.0925 -0.0200 -0.0636
 7327SOL    HW133443   3.002   3.097  16.769 -1.6886  1.2060  0.0722
 7327SOL    HW233444   2.880   3.091  16.684 -0.0728  0.8285  1.2736
 7328SOL     OW33445   2.750   1.939   4.054 -0.1773 -0.1678 -0.1226
 7328SOL    HW133446   2.745   1.988   4.136  0.1666 -1.6437  0.7816
 7328SOL    HW233447   2.743   2.010   3.990 -0.4979  1.3657  1.5951
 7329SOL     OW33448   1.432   4.456  11.339 -0.6087 -0.3485  0.4450
 7329SOL    HW133449   1.503   4.405  11.299 -0.2840 -0.5551  1.2853
 7329SOL    HW233450   1.448   4.546  11.309 -0.2437 -0.2575  0.9074
 7330SOL     OW33451   2.333   2.831   7.114 -0.5404  0.3263 -0.3716
 7330SOL    HW133452   2.282   2.876   7.046  1.2249  0.9930 -1.2698
 7330SOL    HW233453   2.397   2.789   7.057 -0.7142 -1.0502  0.4675
 7331SOL     OW33454   4.361   4.316   1.367 -0.2654 -0.4787  0.1926
 7331SOL    HW133455   4.369   4.277   1.454  0.8203  1.2039  0.8512
 7331SOL    HW233456   4.383   4.250   1.302  0.5671 -0.7366  0.7350
 7332SOL     OW33457   4.403   3.674   4.054  0.2057 -0.5522 -0.3655
 7332SOL    HW133458   4.427   3.658   3.963  0.1028  1.1349 -0.6933
 7332SOL    HW233459   4.318   3.630   4.061 -1.4249  2.4426 -1.3541
 7333SOL     OW33460   0.758   2.205   7.374 -0.1716  0.1647 -0.2878
 7333SOL    HW133461   0.760   2.218   7.279 -3.5692 -0.0548 -0.4077
 7333SOL    HW233462   0.713   2.282   7.409 -0.1802  0.2450 -0.4762
 7334SOL     OW33463   3.451   0.993  11.039 -0.7524 -0.2615  0.0436
 7334SOL    HW133464   3.392   1.064  11.013 -0.2928 -0.2134 -0.8849
 7334SOL    HW233465   3.400   0.933  11.094  1.5233 -0.9264  1.4716
 7335SOL     OW33466   3.703   1.165   4.413  0.4310 -0.4147  0.1081
 7335SOL    HW133467   3.645   1.175   4.488 -1.4836 -1.8872 -1.1633
 7335SOL    HW233468   3.660   1.232   4.360 -0.9642  0.8275  2.8519
 7336SOL     OW33469   1.069   1.171  16.447  0.4009 -0.0370 -0.0100
 7336SOL    HW133470   1.124   1.093  16.448  0.0567 -0.2807 -0.1394
 7336SOL    HW233471   1.090   1.217  16.366  1.4030 -0.3634  0.0648
 7337SOL     OW33472   1.508   2.936   4.442  0.7005  0.9311 -0.3091
 7337SOL    HW133473   1.512   2.889   4.358 -2.9666  0.0700  0.0086
 7337SOL    HW233474   1.443   3.004   4.424 -0.8895 -0.5079  0.0529
 7338SOL     OW33475   2.618   3.144   3.058 -0.9485 -0.1167 -0.0035
 7338SOL    HW133476   2.661   3.059   3.067 -0.4810  0.2395  1.2328
 7338SOL    HW233477   2.533   3.121   3.021 -0.8029  1.6303 -1.4006
 7339SOL     OW33478   2.815   0.137   6.622  0.1407 -0.4328 -0.1976
 7339SOL    HW133479   2.857   0.212   6.663 -0.1280 -0.5804  0.3483
 7339SOL    HW233480   2.854   0.064   6.669  0.8396 -1.1494 -1.8904
 7340SOL     OW33481   0.722   1.652   7.868 -0.7920 -0.1752 -0.7183
 7340SOL    HW133482   0.704   1.742   7.896 -0.3824 -0.0445 -0.8835
 7340SOL    HW233483   0.795   1.634   7.927 -1.8860 -0.4888  0.5514
 7341SOL     OW33484   3.635   2.299  14.456  0.2946  0.3331 -0.5741
 7341SOL    HW133485   3.701   2.264  14.516 -3.2703 -0.3299  3.0175
 7341SOL    HW233486   3.581   2.220  14.448 -1.0815  1.3130 -0.9325
 7342SOL     OW33487   1.233   0.357  13.917 -0.2781  0.0235  0.3510
 7342SOL    HW133488   1.323   0.347  13.949 -0.2162 -0.0855  0.1424
 7342SOL    HW233489   1.183   0.307  13.982 -1.6305 -1.6771 -2.0265
 7343SOL     OW33490   1.369   0.495   8.990  0.2823 -0.4738  0.1645
 7343SOL    HW133491   1.446   0.443   8.965  1.4377  1.1908  0.2831
 7343SOL    HW233492   1.381   0.580   8.949 -0.5807 -0.8664 -0.9094
 7344SOL     OW33493   3.200   2.380   0.655  0.3664  0.3988  0.4180
 7344SOL    HW133494   3.235   2.306   0.704 -0.4192 -0.9957 -1.1541
 7344SOL    HW233495   3.155   2.331   0.586  0.3892 -2.2060  2.2696
 7345SOL     OW33496   2.771   4.397   7.676  0.4736  0.1379 -0.4692
 7345SOL    HW133497   2.739   4.319   7.720  1.1943 -0.3689 -0.8534
 7345SOL    HW233498   2.750   4.461   7.744  4.5590  1.1884 -0.2379
 7346SOL     OW33499   2.806   4.000   6.928  0.5296  0.2617 -0.1653
 7346SOL    HW133500   2.722   3.961   6.903  2.4269 -3.0849 -1.3269
 7346SOL    HW233501   2.847   4.014   6.843 -0.0758  0.0178 -0.5009
 7347SOL     OW33502   2.068   2.306   9.226  0.0253 -0.3758 -0.0311
 7347SOL    HW133503   2.059   2.223   9.179 -1.3068  1.4416 -2.9828
 7347SOL    HW233504   2.082   2.272   9.315  0.9283  0.6386  0.2157
 7348SOL     OW33505   1.629   2.468   7.377  0.2015  0.2048 -0.3459
 7348SOL    HW133506   1.554   2.426   7.421  0.2163  1.4206  0.8575
 7348SOL    HW233507   1.696   2.414   7.418  1.1599  0.5886 -1.4306
 7349SOL     OW33508   0.771   0.127   6.365  0.3510 -0.0581 -0.6073
 7349SOL    HW133509   0.746   0.217   6.387  0.4617  0.0662 -0.9934
 7349SOL    HW233510   0.716   0.077   6.425  1.4404  0.5102  0.8745
 7350SOL     OW33511   4.261   2.398   4.373 -0.2751 -0.3216  0.2867
 7350SOL    HW133512   4.286   2.486   4.401 -3.6175  0.5689  0.3840
 7350SOL    HW233513   4.219   2.362   4.451 -2.8226 -0.3840 -1.1271
 7351SOL     OW33514   0.955   2.915   2.432  0.2638  0.1255  0.1765
 7351SOL    HW133515   0.927   2.982   2.369 -0.7349  0.7975  1.3329
 7351SOL    HW233516   1.027   2.962   2.473 -0.3244  0.2553  1.0614
 7352SOL     OW33517   0.221   4.094  14.052  0.1297 -0.2580  0.4411
 7352SOL    HW133518   0.179   4.074  13.968  1.1863  0.3183 -0.2318
 7352SOL    HW233519   0.249   4.186  14.050  1.5887 -0.7414 -1.8122
 7353SOL     OW33520   1.054   4.254   8.701  0.1995 -0.7169 -0.3620
 7353SOL    HW133521   1.103   4.285   8.777 -1.5528  0.8627  0.1284
 7353SOL    HW233522   0.973   4.305   8.711 -0.4993 -1.6030 -1.4202
 7354SOL     OW33523   2.955   4.193   4.266  0.1263  0.0539  0.2814
 7354SOL    HW133524   2.871   4.201   4.312 -0.0718 -0.5713  0.0363
 7354SOL    HW233525   2.987   4.111   4.303 -2.5021 -0.1021  2.1631
 7355SOL     OW33526   3.926   1.194   0.531  0.0631 -0.2470  0.2030
 7355SOL    HW133527   4.010   1.192   0.486  0.5602  3.7264  0.9269
 7355SOL    HW233528   3.950   1.133   0.600 -1.2852 -0.7944  0.1861
 7356SOL     OW33529   3.631   1.131  10.870  0.7386  0.0140 -0.2193
 7356SOL    HW133530   3.549   1.083  10.875  0.6588  0.0144 -1.4456
 7356SOL    HW233531   3.650   1.147  10.963  0.6752  1.1136 -0.3910
 7357SOL     OW33532   2.104   3.077   7.633 -0.3071 -0.2764 -0.2506
 7357SOL    HW133533   2.114   3.116   7.720  2.8724  0.7381 -1.0416
 7357SOL    HW233534   2.035   3.021   7.668  1.5145 -1.7207  1.0424
 7358SOL     OW33535   1.968   0.761   4.040 -0.1680  0.0417 -0.5656
 7358SOL    HW133536   2.006   0.801   4.118  0.4255 -2.6168  0.4996
 7358SOL    HW233537   1.917   0.689   4.078 -1.6374  0.2660 -2.0834
 7359SOL     OW33538   3.965   0.431  17.589 -0.4296  0.3303  0.1918
 7359SOL    HW133539   3.924   0.391  17.665  2.2996 -0.3376  1.3195
 7359SOL    HW233540   3.911   0.391  17.520  0.0637 -1.3459  0.7597
 7360SOL     OW33541   2.804   2.225   6.933  0.1209 -0.7440 -0.1978
 7360SOL    HW133542   2.812   2.136   6.899  0.0306  0.1712 -2.5848
 7360SOL    HW233543   2.871   2.278   6.891 -0.4077  0.6914  0.7821
 7361SOL     OW33544   2.969   3.049   3.392 -0.1391 -0.3835 -0.1290
 7361SOL    HW133545   2.926   3.004   3.464  1.6922 -2.2870 -0.2475
 7361SOL    HW233546   2.903   3.108   3.356  1.4047  0.9583 -0.7598
 7362SOL     OW33547   1.689   4.146   9.698 -0.0184  0.3708  0.1187
 7362SOL    HW133548   1.636   4.114   9.625  1.0022 -0.5492 -0.2150
 7362SOL    HW233549   1.640   4.221   9.732 -1.6592 -0.3140 -0.7104
 7363SOL     OW33550   2.484   0.061   8.331 -0.2760 -0.0702  0.1876
 7363SOL    HW133551   2.438   4.720   8.283 -2.6999  1.4722  0.3403
 7363SOL    HW233552   2.572   0.022   8.336  0.0011  0.4966 -0.3264
 7364SOL     OW33553   3.066   0.588   8.682 -0.4639  0.0605  0.3643
 7364SOL    HW133554   3.060   0.666   8.737 -1.6695 -0.3369  0.7871
 7364SOL    HW233555   3.065   0.630   8.596  0.8693 -1.6976 -0.5216
 7365SOL     OW33556   4.641   0.285  15.014 -0.0411 -0.3145  0.1201
 7365SOL    HW133557   4.605   0.301  15.101 -1.5853 -3.7177  0.1052
 7365SOL    HW233558   4.674   0.196  15.021  2.7499  0.6416 -0.8943
 7366SOL     OW33559   4.634   2.443   9.001  0.2649 -0.1799 -0.0863
 7366SOL    HW133560   0.001   2.458   8.990  0.5432 -1.3979  0.6357
 7366SOL    HW233561   4.620   2.413   9.091 -1.5328 -2.0025 -0.9740
 7367SOL     OW33562   2.324   0.170   1.189 -0.1440  0.2687 -0.2598
 7367SOL    HW133563   2.409   0.156   1.147 -0.5021  1.0950 -1.2542
 7367SOL    HW233564   2.329   0.095   1.248  0.3817 -1.1965 -2.1740
 7368SOL     OW33565   1.772   4.336   6.141 -0.6370 -0.2793  0.2507
 7368SOL    HW133566   1.839   4.269   6.157  0.0223  0.7399  1.7312
 7368SOL    HW233567   1.787   4.381   6.224 -1.2205  4.4991 -2.2248
 7369SOL     OW33568   4.560   3.319  14.751  0.9001 -0.6288 -0.1027
 7369SOL    HW133569   4.544   3.246  14.811 -0.0528 -0.2841  0.0633
 7369SOL    HW233570   4.528   3.281  14.669  0.9749  0.7475 -0.7603
 7370SOL     OW33571   0.547   2.597  11.203 -0.2632 -0.8295  0.3549
 7370SOL    HW133572   0.623   2.651  11.224  0.5361 -1.4935 -0.8351
 7370SOL    HW233573   0.591   2.544  11.136  0.4661 -0.6714  0.7005
 7371SOL     OW33574   0.880   3.008   8.229 -0.9785 -0.0566 -0.1046
 7371SOL    HW133575   0.877   2.913   8.241 -2.2527 -0.0340 -0.2226
 7371SOL    HW233576   0.886   3.032   8.322 -0.9249  0.3035 -0.2038
 7372SOL     OW33577   2.951   0.138  11.585 -0.3461 -0.1252  0.2790
 7372SOL    HW133578   3.028   0.089  11.615  0.6340  2.1421  1.4662
 7372SOL    HW233579   2.964   0.127  11.491  0.3378 -1.0314  0.4726
 7373SOL     OW33580   1.577   1.079   8.358  0.0126 -0.0364  0.2857
 7373SOL    HW133581   1.661   1.125   8.366 -0.2692  0.6155 -0.5532
 7373SOL    HW233582   1.523   1.130   8.418  1.2684  0.4734  0.9975
 7374SOL     OW33583   2.577   4.415   4.553 -0.0806  0.1514 -0.5978
 7374SOL    HW133584   2.537   4.329   4.542 -2.4886  1.6763 -3.8550
 7374SOL    HW233585   2.505   4.477   4.566  0.2565  0.3195  0.4765
 7375SOL     OW33586   0.691   1.355   0.419 -0.2620 -0.6313  0.2400
 7375SOL    HW133587   0.608   1.357   0.371  0.8655  0.1128 -1.6783
 7375SOL    HW233588   0.689   1.443   0.458 -0.4267 -0.0650 -1.0482
 7376SOL     OW33589   1.473   1.619  16.420 -0.0269  0.4923 -0.1678
 7376SOL    HW133590   1.526   1.541  16.435 -0.5666  0.5338  1.8893
 7376SOL    HW233591   1.475   1.631  16.325  1.8180 -1.6997 -0.4165
 7377SOL     OW33592   0.819   3.378   9.603  0.2027  0.1977  0.1663
 7377SOL    HW133593   0.835   3.470   9.620  0.7528  0.5927 -2.4014
 7377SOL    HW233594   0.909   3.359   9.575  0.5847  0.4242  1.2585
 7378SOL     OW33595   2.141   0.770   6.014  0.3884  0.7340 -0.0310
 7378SOL    HW133596   2.127   0.729   6.100  0.0922 -0.2384 -0.5454
 7378SOL    HW233597   2.127   0.693   5.959 -0.2109 -0.0012  1.1434
 7379SOL     OW33598   1.196   2.241   4.103  0.5352 -0.3597 -0.6322
 7379SOL    HW133599   1.283   2.280   4.110  0.3293 -0.1631  0.7116
 7379SOL    HW233600   1.141   2.317   4.118 -0.1704 -0.7569 -1.1994
 7380SOL     OW33601   0.591   2.416   2.155 -0.3756 -0.4494 -0.0208
 7380SOL    HW133602   0.548   2.499   2.178  1.1920  0.2453  0.4727
 7380SOL    HW233603   0.644   2.394   2.232  1.4900 -0.0967 -1.1923
 7381SOL     OW33604   3.214   3.996  14.717 -0.8208 -0.2318 -0.0949
 7381SOL    HW133605   3.295   4.033  14.752 -0.4021 -0.5130 -0.7578
 7381SOL    HW233606   3.159   4.069  14.688 -0.3996  0.3775  0.6251
 7382SOL     OW33607   4.634   2.687   0.348  0.1289 -0.1473 -0.9109
 7382SOL    HW133608   4.550   2.712   0.386  0.3574 -1.6985  0.6000
 7382SOL    HW233609   4.693   2.669   0.421 -2.9042 -0.4199  1.4772
 7383SOL     OW33610   1.212   1.127   2.756 -0.7452 -0.4157  0.2002
 7383SOL    HW133611   1.276   1.198   2.748  1.5812 -2.4472  0.8279
 7383SOL    HW233612   1.206   1.088   2.669 -1.7116 -1.0161  0.5401
 7384SOL     OW33613   0.895   0.158   7.884 -0.1917 -0.1614 -0.5306
 7384SOL    HW133614   0.863   0.077   7.843 -0.2000  0.1406 -1.1293
 7384SOL    HW233615   0.968   0.129   7.939 -0.2486 -0.6454 -0.7074
 7385SOL     OW33616   0.656   2.609   8.993  0.4546  0.3493  0.0218
 7385SOL    HW133617   0.740   2.572   9.016  1.3767  1.5984 -1.3036
 7385SOL    HW233618   0.649   2.677   9.060  2.1176  1.2587 -0.7393
 7386SOL     OW33619   2.989   2.873   7.442 -0.0959 -0.7067 -0.5967
 7386SOL    HW133620   3.013   2.922   7.363  2.8684 -0.5390  0.4189
 7386SOL    HW233621   2.902   2.854   7.406 -0.3102 -2.4098  0.8555
 7387SOL     OW33622   0.344   0.802  15.895 -0.3706 -0.4481 -0.0997
 7387SOL    HW133623   0.280   0.799  15.966 -0.3188  0.3984 -0.0067
 7387SOL    HW233624   0.287   0.792  15.819 -1.1251  2.3501  0.0752
 7388SOL     OW33625   2.135   0.623   9.757  0.2746 -0.2756  0.3399
 7388SOL    HW133626   2.181   0.614   9.674 -0.3845  1.3472 -0.1932
 7388SOL    HW233627   2.055   0.574   9.735  0.5726 -0.5612 -0.0974
 7389SOL     OW33628   4.165   0.691   8.478  0.7058  1.2104 -0.4554
 7389SOL    HW133629   4.249   0.704   8.522  0.7564  2.6307 -0.9736
 7389SOL    HW233630   4.105   0.715   8.549 -0.7848  1.1032 -1.6897
 7390SOL     OW33631   1.284   0.713   8.638  0.0671 -0.3382  0.1505
 7390SOL    HW133632   1.297   0.727   8.544  0.4191  0.1021  0.2666
 7390SOL    HW233633   1.241   0.627   8.643 -0.0598 -0.3629 -1.1604
 7391SOL     OW33634   2.424   0.708   7.011  0.1755 -0.7759  0.2694
 7391SOL    HW133635   2.411   0.653   7.089 -1.7154  0.7311  0.9977
 7391SOL    HW233636   2.456   0.650   6.942 -4.3077 -0.6875 -1.8394
 7392SOL     OW33637   4.226   2.863   7.970 -0.1318 -0.0954  0.6398
 7392SOL    HW133638   4.135   2.838   7.959  0.3051 -1.0473 -0.8812
 7392SOL    HW233639   4.227   2.907   8.055 -1.9138  0.1912  0.5022
 7393SOL     OW33640   3.567   0.496   2.309  0.4305  0.4184 -0.2866
 7393SOL    HW133641   3.529   0.557   2.372  0.9968 -0.6283  1.0533
 7393SOL    HW233642   3.488   0.454   2.274  1.0993 -0.2591 -0.9757
 7394SOL     OW33643   3.643   0.403   5.699  0.0364 -0.0420  0.2860
 7394SOL    HW133644   3.691   0.411   5.616  0.5287  0.7257  0.6495
 7394SOL    HW233645   3.632   0.309   5.714 -1.5981  0.2607  0.9398
 7395SOL     OW33646   1.242   4.208   4.760 -0.0650  0.0436  0.1752
 7395SOL    HW133647   1.236   4.225   4.854  1.6503 -0.0470  0.2976
 7395SOL    HW233648   1.161   4.234   4.714  0.6845  0.9087 -0.6544
 7396SOL     OW33649   3.976   3.783   2.873 -0.4108 -0.3108 -0.0089
 7396SOL    HW133650   4.037   3.814   2.806  0.1121  0.0467  0.6326
 7396SOL    HW233651   3.986   3.854   2.937 -0.7260  1.0847 -1.5098
 7397SOL     OW33652   0.043   4.544   6.728  0.6504  0.5453 -0.3290
 7397SOL    HW133653   0.015   4.626   6.768 -0.4226 -0.7475  1.5366
 7397SOL    HW233654   4.708   4.478   6.759  1.6159  0.3189  1.1065
 7398SOL     OW33655   2.077   3.371   4.207  0.0286  0.5629  0.0755
 7398SOL    HW133656   2.111   3.420   4.282 -1.1925 -0.2379  1.1361
 7398SOL    HW233657   2.065   3.289   4.254  1.6654 -0.4328 -1.2146
 7399SOL     OW33658   0.449   4.307   1.573  0.7606 -0.1646 -0.0041
 7399SOL    HW133659   0.377   4.311   1.637 -0.5437  1.1190 -1.5448
 7399SOL    HW233660   0.428   4.369   1.503  0.5933  1.4001  1.4195
 7400SOL     OW33661   1.606   0.232   2.955  0.0263  0.3614 -0.6072
 7400SOL    HW133662   1.681   0.254   2.901  0.2667  1.2296  0.0752
 7400SOL    HW233663   1.587   0.139   2.954  0.3454  0.3271 -2.4352
 7401SOL     OW33664   1.832   4.105   6.391  0.1993  0.0303  0.1186
 7401SOL    HW133665   1.748   4.066   6.366 -0.3454 -0.2510  2.4022
 7401SOL    HW233666   1.827   4.112   6.486 -1.6941  0.3283 -0.0003
 7402SOL     OW33667   1.272   1.698  13.981  0.6111 -0.5249  0.0872
 7402SOL    HW133668   1.230   1.765  13.926  1.1434  0.1369  0.4883
 7402SOL    HW233669   1.335   1.753  14.027  1.6382 -0.5169 -1.3108
 7403SOL     OW33670   3.611   4.661   3.141  0.1631 -0.3025 -0.1268
 7403SOL    HW133671   3.658   4.598   3.087  0.0083  0.4700 -1.1653
 7403SOL    HW233672   3.549   4.606   3.190 -0.0033 -1.5629 -1.7384
 7404SOL     OW33673   3.735   3.496   6.361 -0.6639 -0.6527  0.0588
 7404SOL    HW133674   3.716   3.452   6.278  0.5183 -0.9206 -0.0775
 7404SOL    HW233675   3.644   3.491   6.390 -0.7700 -1.1383 -0.3619
 7405SOL     OW33676   0.241   2.494   9.542 -0.4420 -0.5563  0.2745
 7405SOL    HW133677   0.230   2.589   9.536  1.6000 -0.2236  1.8679
 7405SOL    HW233678   0.147   2.475   9.549 -1.1145  3.0075  1.2794
 7406SOL     OW33679   1.471   2.499   1.583 -0.1240  0.0631 -0.0635
 7406SOL    HW133680   1.478   2.410   1.617 -0.7572  0.1906  0.3829
 7406SOL    HW233681   1.556   2.530   1.614 -0.0096 -1.1062  0.7811
 7407SOL     OW33682   4.604   4.266   4.412 -0.0797  0.4569  0.4247
 7407SOL    HW133683   4.557   4.341   4.375 -0.4138  0.1137  0.1510
 7407SOL    HW233684   4.669   4.250   4.344 -0.8583  0.2459 -0.2731
 7408SOL     OW33685   4.698   2.933   2.935 -0.0203  0.1211 -0.1535
 7408SOL    HW133686   4.690   2.838   2.937 -0.4954  0.1718  0.2496
 7408SOL    HW233687   4.605   2.954   2.945  0.1264  0.1364  1.1856
 7409SOL     OW33688   3.464   4.320   5.817 -0.4491 -0.1031 -0.7392
 7409SOL    HW133689   3.477   4.373   5.895  0.1010 -0.8189 -0.3419
 7409SOL    HW233690   3.548   4.337   5.774  0.4024  1.4362  1.5295
 7410SOL     OW33691   0.002   3.703   7.170  0.0107  0.1152 -0.2799
 7410SOL    HW133692   4.706   3.795   7.159 -0.4021  0.0782  0.3010
 7410SOL    HW233693   4.663   3.668   7.230 -1.0619 -0.3955 -1.7542
 7411SOL     OW33694   4.339   2.017   7.206  0.1842 -0.0538  0.4885
 7411SOL    HW133695   4.372   1.962   7.135  1.6246  0.7321  0.5609
 7411SOL    HW233696   4.342   1.958   7.281 -0.7666  0.0284  0.5968
 7412SOL     OW33697   4.077   2.343  16.861  0.0336 -0.2505  0.1328
 7412SOL    HW133698   4.070   2.280  16.789  0.0761  2.8657 -2.6161
 7412SOL    HW233699   4.106   2.295  16.938 -0.4896  0.0305  0.5016
 7413SOL     OW33700   2.674   3.066   4.931 -0.0637 -0.1599 -0.0343
 7413SOL    HW133701   2.601   3.126   4.947 -0.5783 -1.2636  1.7573
 7413SOL    HW233702   2.651   3.010   5.005 -0.1420 -0.3504 -0.2030
 7414SOL     OW33703   0.244   0.835   2.042  0.5742 -0.3826  0.3591
 7414SOL    HW133704   0.154   0.815   2.016  0.7698 -0.3167 -0.3773
 7414SOL    HW233705   0.267   0.754   2.086 -0.7940  0.4418  2.6305
 7415SOL     OW33706   2.268   1.718   4.743 -0.0383 -0.3973 -0.1325
 7415SOL    HW133707   2.220   1.638   4.764  1.0459 -0.9571  0.2604
 7415SOL    HW233708   2.310   1.729   4.829  0.5691  0.4142 -0.5279
 7416SOL     OW33709   1.943   4.603   7.110 -0.0457  0.6075 -0.3334
 7416SOL    HW133710   1.953   4.665   7.037 -1.0688  0.4591 -0.5905
 7416SOL    HW233711   2.007   4.645   7.168  0.4753 -0.1956 -0.3284
 7417SOL     OW33712   1.310   0.626   3.030 -0.2738 -0.3393 -0.2419
 7417SOL    HW133713   1.325   0.566   2.957 -2.7439 -1.3920  0.1261
 7417SOL    HW233714   1.282   0.559   3.092  1.1192 -0.3121  0.4040
 7418SOL     OW33715   2.579   2.109   4.745  0.5147 -0.2148  0.3164
 7418SOL    HW133716   2.622   2.188   4.713 -1.7613  0.9257  0.1116
 7418SOL    HW233717   2.495   2.098   4.700  1.0909 -2.4193 -0.2390
 7419SOL     OW33718   2.936   4.373   3.833  0.5113  0.3431 -0.1024
 7419SOL    HW133719   2.881   4.373   3.911 -1.6563  1.8684 -1.6254
 7419SOL    HW233720   2.953   4.279   3.829  0.9383  0.3240  2.5990
 7420SOL     OW33721   2.792   2.128   5.079 -0.3223  0.8066  0.2100
 7420SOL    HW133722   2.876   2.083   5.091 -2.0436 -2.3480  0.4796
 7420SOL    HW233723   2.753   2.077   5.008 -0.3988 -0.0709  0.8852
 7421SOL     OW33724   4.619   2.389   1.167 -0.0098 -0.4007  0.3067
 7421SOL    HW133725   4.708   2.402   1.134 -0.8574  2.5644 -0.7729
 7421SOL    HW233726   4.597   2.473   1.207  0.1101  0.4519 -1.3975
 7422SOL     OW33727   2.267   4.144   7.634  0.0915  0.6200  0.3923
 7422SOL    HW133728   2.329   4.217   7.633 -0.9204  1.4713 -1.4724
 7422SOL    HW233729   2.189   4.200   7.629 -0.3986  0.0354  1.5637
 7423SOL     OW33730   0.392   3.640   4.550 -0.5013  0.0409 -0.3883
 7423SOL    HW133731   0.435   3.575   4.495  1.0303  1.9755 -1.4546
 7423SOL    HW233732   0.458   3.623   4.617  0.8386  1.8647 -1.2677
 7424SOL     OW33733   1.802   3.113   0.185 -0.0843 -0.5410 -0.0093
 7424SOL    HW133734   1.866   3.058   0.229  0.7540  0.5231  0.0974
 7424SOL    HW233735   1.835   3.081   0.101  0.9009 -0.4993  0.3601
 7425SOL     OW33736   1.161   4.566   6.415 -0.2485  0.0573  0.3821
 7425SOL    HW133737   1.227   4.585   6.481 -2.0761 -0.7787  2.4707
 7425SOL    HW233738   1.121   4.651   6.395 -1.7279 -0.3119  1.7531
 7426SOL     OW33739   3.658   1.659  11.439 -0.1391 -0.3111 -0.6603
 7426SOL    HW133740   3.728   1.619  11.490  0.6248  2.6380  0.6014
 7426SOL    HW233741   3.696   1.745  11.421  1.4615 -0.9093 -0.0334
 7427SOL     OW33742   2.633   4.634  11.109 -0.1352 -0.3427  0.1853
 7427SOL    HW133743   2.626   4.591  11.024 -1.8050 -2.5618  1.4384
 7427SOL    HW233744   2.558   4.691  11.097 -0.3613 -0.8915 -1.0278
 7428SOL     OW33745   2.785   1.079   9.367  0.0280  0.1964 -0.1885
 7428SOL    HW133746   2.754   1.071   9.277 -1.2323  1.4887  0.1346
 7428SOL    HW233747   2.700   1.076   9.410  0.3291 -1.1323  0.3098
 7429SOL     OW33748   2.426   3.161   9.264 -0.2934 -0.0013 -0.0519
 7429SOL    HW133749   2.344   3.207   9.285  0.7386  1.7372  0.1688
 7429SOL    HW233750   2.399   3.076   9.230  0.2948 -0.5467  0.8178
 7430SOL     OW33751   0.526   2.326  13.263 -0.1512  0.1648 -0.1993
 7430SOL    HW133752   0.481   2.292  13.340 -2.6087  0.6539 -1.4131
 7430SOL    HW233753   0.600   2.374  13.299  0.4493  0.2119 -1.4942
 7431SOL     OW33754   1.791   0.341   6.549 -0.0798  0.1451 -0.1490
 7431SOL    HW133755   1.844   0.363   6.627 -2.0198  1.0756  0.9058
 7431SOL    HW233756   1.774   0.249   6.566 -0.2678 -0.2626 -2.5383
 7432SOL     OW33757   1.555   3.653   7.247  0.1110  0.1515  0.3680
 7432SOL    HW133758   1.611   3.612   7.312 -1.8214 -0.9758  1.3460
 7432SOL    HW233759   1.494   3.710   7.293 -1.8404 -2.0497  0.5258
 7433SOL     OW33760   3.330   0.338   0.003  0.3053  0.0314  0.1634
 7433SOL    HW133761   3.253   0.376  17.669 -2.6582 -2.9782  2.9165
 7433SOL    HW233762   3.285   0.264   0.042 -0.6168  0.5018  0.0038
 7434SOL     OW33763   3.653   2.903   7.604 -0.2493 -0.2177  0.8502
 7434SOL    HW133764   3.635   2.857   7.523 -0.5520  3.1158 -0.9783
 7434SOL    HW233765   3.574   2.955   7.620 -0.9856 -0.7851 -0.9981
 7435SOL     OW33766   0.153   3.509   0.269 -0.1564  0.3673  0.1112
 7435SOL    HW133767   0.161   3.482   0.361  0.9325 -0.5288 -0.2432
 7435SOL    HW233768   0.058   3.517   0.261 -0.2448 -1.9538 -1.3421
 7436SOL     OW33769   1.359   1.022  14.713  0.0390  0.0800  0.0716
 7436SOL    HW133770   1.404   0.966  14.777  1.5061  1.5217  0.3142
 7436SOL    HW233771   1.265   1.007  14.724  0.3925 -2.6013 -0.7117
 7437SOL     OW33772   2.507   3.143   7.805 -0.2422 -0.6484 -0.3254
 7437SOL    HW133773   2.540   3.176   7.889 -3.1385  1.9357 -0.1978
 7437SOL    HW233774   2.471   3.224   7.770  0.3965  0.5314  1.7765
 7438SOL     OW33775   2.776   2.202   2.974 -0.6194 -0.0738  0.0564
 7438SOL    HW133776   2.785   2.297   2.979  0.6727 -0.2690  1.4413
 7438SOL    HW233777   2.861   2.176   3.009 -1.8625 -2.6048  1.1694
 7439SOL     OW33778   0.864   0.620   5.414  0.3016  0.0841 -0.0671
 7439SOL    HW133779   0.908   0.535   5.415  1.0185  0.4230 -2.0539
 7439SOL    HW233780   0.779   0.598   5.375  0.5411  0.9216 -1.0979
 7440SOL     OW33781   1.879   3.699   5.291  0.3981 -0.1068  0.2868
 7440SOL    HW133782   1.909   3.782   5.254 -2.4667  0.6469 -0.3343
 7440SOL    HW233783   1.785   3.716   5.294  0.5662  1.2012 -2.0034
 7441SOL     OW33784   3.681   4.556  13.418 -0.1456  0.2572 -0.9038
 7441SOL    HW133785   3.744   4.546  13.490 -0.0919 -1.0611 -1.1380
 7441SOL    HW233786   3.729   4.514  13.347  1.1148 -0.5729  0.4335
 7442SOL     OW33787   1.012   0.487  10.689  0.2064 -0.2825 -0.1142
 7442SOL    HW133788   1.089   0.501  10.745  1.6499  2.6449 -2.7799
 7442SOL    HW233789   0.942   0.486  10.754 -1.7892  0.8634 -2.2351
 7443SOL     OW33790   0.293   2.634  11.290 -0.2163  0.2011  0.1094
 7443SOL    HW133791   0.244   2.643  11.208 -0.0469 -2.3986 -0.2918
 7443SOL    HW233792   0.382   2.619  11.258 -0.5601 -3.4281  0.8479
 7444SOL     OW33793   1.177   0.216   5.268 -0.2069  0.1164  0.2298
 7444SOL    HW133794   1.182   0.233   5.174 -1.3196 -0.1300  0.1274
 7444SOL    HW233795   1.118   0.141   5.257 -0.0036 -0.3108  2.0013
 7445SOL     OW33796   2.731   0.066   5.981 -0.4565  0.0189  0.4967
 7445SOL    HW133797   2.644   0.100   5.999 -0.2058  1.1809 -0.4312
 7445SOL    HW233798   2.784   0.137   5.945  0.8080 -0.6300  1.0755
 7446SOL     OW33799   0.332   1.822   0.784  0.4963  0.0517  0.4811
 7446SOL    HW133800   0.317   1.846   0.875 -1.1701 -2.5407  0.8980
 7446SOL    HW233801   0.247   1.854   0.752  0.0833 -0.8411  0.6969
 7447SOL     OW33802   4.050   3.225   5.165  0.4093 -0.3105 -0.0563
 7447SOL    HW133803   4.099   3.225   5.083  0.1318 -0.1896 -0.2231
 7447SOL    HW233804   4.105   3.251   5.239 -0.9049 -1.0227  1.1633
 7448SOL     OW33805   3.772   2.440  12.794 -0.0837  0.6809  0.3844
 7448SOL    HW133806   3.709   2.512  12.794  1.1697  1.7675  1.3871
 7448SOL    HW233807   3.724   2.379  12.850  1.6686 -3.0587 -2.1300
 7449SOL     OW33808   4.386   0.963   1.196  0.7669  0.1438  0.1113
 7449SOL    HW133809   4.305   1.011   1.211  1.4277  0.2608  3.2392
 7449SOL    HW233810   4.456   1.028   1.191 -1.3846  2.3893 -0.3998
 7450SOL     OW33811   4.054   2.043  11.916  1.0122 -0.2746  0.0147
 7450SOL    HW133812   4.137   2.074  11.953  0.8231  0.1676  0.0698
 7450SOL    HW233813   4.078   1.962  11.872  1.9835 -0.6561  1.2204
 7451SOL     OW33814   2.131   0.812  10.192  0.2026 -0.2310 -0.5645
 7451SOL    HW133815   2.063   0.759  10.233 -1.0041  0.7638 -1.2741
 7451SOL    HW233816   2.161   0.866  10.265 -2.1346  0.8558 -0.4114
 7452SOL     OW33817   0.961   2.814   7.566 -0.2559  0.0177  0.2731
 7452SOL    HW133818   0.960   2.785   7.658  2.2194  0.1814  0.3450
 7452SOL    HW233819   0.973   2.907   7.584  1.3998  0.1013 -1.3893
 7453SOL     OW33820   3.583   2.180   1.698  0.0828 -0.0782 -0.2180
 7453SOL    HW133821   3.586   2.151   1.607  0.7288  0.0626 -0.2426
 7453SOL    HW233822   3.676   2.180   1.721 -0.0550  0.4653  0.3268
 7454SOL     OW33823   1.397   3.041   6.118  0.8036 -0.2021 -0.0812
 7454SOL    HW133824   1.420   3.090   6.197 -2.1938 -0.6147  1.0317
 7454SOL    HW233825   1.453   3.089   6.057  2.1850 -0.1220  1.2514
 7455SOL     OW33826   0.086   3.395   6.067 -0.1923 -0.2103 -0.3185
 7455SOL    HW133827   0.133   3.321   6.028 -0.0944 -0.2028 -0.2130
 7455SOL    HW233828   0.020   3.344   6.114  0.0910  0.9800  1.3528
 7456SOL     OW33829   4.059   4.453  11.674  0.4572  0.1487  0.2604
 7456SOL    HW133830   4.036   4.525  11.615 -4.3748 -2.1328 -0.6589
 7456SOL    HW233831   4.143   4.427  11.636  1.5441  0.0764  2.7444
 7457SOL     OW33832   1.992   0.281  12.739 -0.4390 -0.0398 -0.2843
 7457SOL    HW133833   2.033   0.367  12.744  0.0558 -0.4651  2.5581
 7457SOL    HW233834   1.904   0.298  12.773  0.1651 -0.2365  1.3798
 7458SOL     OW33835   0.958   3.887   8.773 -0.4098  0.0953  0.1716
 7458SOL    HW133836   1.011   3.808   8.786  0.2094  0.6490  1.0321
 7458SOL    HW233837   0.988   3.920   8.688 -1.9183  1.2074  0.0735
 7459SOL     OW33838   2.923   3.770   8.659  0.4207 -0.3962  0.0503
 7459SOL    HW133839   2.960   3.711   8.593  0.6375 -0.7563  0.4928
 7459SOL    HW233840   2.894   3.846   8.609 -0.0356  1.7667  3.5981
 7460SOL     OW33841   3.085   0.032  15.557 -0.1080  0.4601  0.0302
 7460SOL    HW133842   3.003   0.027  15.509  0.7393 -1.6536 -1.2115
 7460SOL    HW233843   3.063   0.062  15.645 -1.7395 -0.0449 -0.2083
 7461SOL     OW33844   3.249   1.650   5.468  0.0127  0.0159  0.0652
 7461SOL    HW133845   3.170   1.665   5.416 -0.3761 -0.5729  0.4905
 7461SOL    HW233846   3.254   1.733   5.515  1.1767 -0.4603  0.7906
 7462SOL     OW33847   1.614   2.349   3.789  0.9474  0.1960 -0.3374
 7462SOL    HW133848   1.539   2.360   3.730 -0.0493  1.7586  1.2196
 7462SOL    HW233849   1.615   2.254   3.796 -0.1343  0.0443 -2.2143
 7463SOL     OW33850   0.810   4.711   2.864 -0.0515 -0.1045 -0.6070
 7463SOL    HW133851   0.827   0.070   2.902  0.5053 -0.2499 -0.5304
 7463SOL    HW233852   0.717   4.713   2.843 -0.0657  2.3329 -0.2755
 7464SOL     OW33853   4.311   4.228   7.839 -0.0625 -0.0056  0.3754
 7464SOL    HW133854   4.372   4.230   7.766 -0.2183  0.6546  0.2668
 7464SOL    HW233855   4.308   4.133   7.850  1.6585 -0.1025  0.0213
 7465SOL     OW33856   4.666   0.745  14.741  0.5727  0.4183 -0.2730
 7465SOL    HW133857   4.719   0.735  14.661  1.6693 -2.8489  0.8557
 7465SOL    HW233858   4.579   0.712  14.718  0.0301  1.5132  0.1999
 7466SOL     OW33859   2.030   3.179   5.137  0.3590  0.2506  0.4184
 7466SOL    HW133860   2.044   3.274   5.138 -0.3128  0.3533 -0.0977
 7466SOL    HW233861   2.071   3.146   5.057 -0.3458 -1.3035  0.6997
 7467SOL     OW33862   0.008   4.559  11.758 -0.4195  0.2886  0.0130
 7467SOL    HW133863   0.096   4.591  11.739 -0.0139 -0.6825  0.2260
 7467SOL    HW233864   0.001   4.485  11.697 -1.1878 -0.5696  1.1358
 7468SOL     OW33865   2.339   0.742   2.272  0.0688 -0.5704 -0.9926
 7468SOL    HW133866   2.322   0.653   2.302  2.8237 -0.8189 -0.2259
 7468SOL    HW233867   2.252   0.781   2.264 -0.7952 -2.6232 -1.6346
 7469SOL     OW33868   4.496   0.433   7.487 -0.4103 -0.3777 -0.1286
 7469SOL    HW133869   4.499   0.408   7.579 -3.5113  1.6329  0.4997
 7469SOL    HW233870   4.420   0.491   7.485  1.1086  1.6410  1.2788
 7470SOL     OW33871   2.182   0.778   1.824  0.5400 -0.0772  0.1498
 7470SOL    HW133872   2.132   0.774   1.743 -0.3422  0.8784  0.6432
 7470SOL    HW233873   2.117   0.743   1.884  2.4486 -2.2664  0.9317
 7471SOL     OW33874   1.926   4.515   9.842  0.2447  0.0190 -0.6356
 7471SOL    HW133875   1.972   4.431   9.843  0.0766 -0.0707 -0.4687
 7471SOL    HW233876   1.991   4.575   9.806  1.1684 -0.1484  0.7619
 7472SOL     OW33877   2.002   2.194  14.737 -0.0082 -0.0764 -0.4686
 7472SOL    HW133878   2.086   2.149  14.734  0.9232  1.7246 -1.2691
 7472SOL    HW233879   1.945   2.127  14.699 -2.3268  1.1411  0.8322
 7473SOL     OW33880   1.395   3.573   2.594  0.8178  0.4776 -0.0714
 7473SOL    HW133881   1.378   3.506   2.528 -0.3225  1.2855 -0.5961
 7473SOL    HW233882   1.351   3.646   2.550 -0.5925  0.0549  0.6457
 7474SOL     OW33883   2.363   0.119   9.637  0.1849 -0.3722 -0.1608
 7474SOL    HW133884   2.346   0.189   9.700  1.0137 -0.0747 -0.2785
 7474SOL    HW233885   2.427   0.154   9.576  1.6401 -0.1993  1.4676
 7475SOL     OW33886   0.065   0.336   3.485 -0.7584 -0.0520  0.0424
 7475SOL    HW133887   4.711   0.292   3.513  2.0993 -4.6912  1.0332
 7475SOL    HW233888   0.120   0.330   3.563 -0.8476  0.1587  0.1207
 7476SOL     OW33889   2.425   4.273  15.810 -0.2147  0.2501 -0.1346
 7476SOL    HW133890   2.430   4.294  15.903  0.4676 -0.0788 -0.0964
 7476SOL    HW233891   2.331   4.286  15.794 -0.1662 -0.0607 -0.6645
 7477SOL     OW33892   1.848   0.714   3.094  0.3871  0.5132 -0.9935
 7477SOL    HW133893   1.896   0.684   3.172 -0.5332 -1.2631 -1.1119
 7477SOL    HW233894   1.791   0.642   3.067 -0.1769  0.2884  0.7629
 7478SOL     OW33895   0.010   1.585   6.437 -0.2499  0.1658  0.4928
 7478SOL    HW133896   0.008   1.531   6.358 -2.1895  0.2904  0.4493
 7478SOL    HW233897   4.644   1.582   6.460 -0.0700  0.7414  1.2900
 7479SOL     OW33898   3.864   4.691   4.342 -0.8115 -0.4616  0.2469
 7479SOL    HW133899   3.891   4.638   4.416 -1.1130 -2.6097 -1.1793
 7479SOL    HW233900   3.878   0.053   4.377  3.4995 -2.1393  2.7822
 7480SOL     OW33901   2.396   2.197  13.583 -0.1099 -0.5264  0.3175
 7480SOL    HW133902   2.448   2.148  13.520 -1.7277  1.0220 -2.2353
 7480SOL    HW233903   2.333   2.244  13.528  1.3295 -0.1942 -1.0562
 7481SOL     OW33904   3.011   2.779   7.132 -0.6863  0.1145  0.0661
 7481SOL    HW133905   3.045   2.753   7.046  1.9084  1.2066  0.7746
 7481SOL    HW233906   3.028   2.870   7.155 -0.8850  0.5831 -1.6211
 7482SOL     OW33907   2.960   1.748   3.725  0.2556 -0.0990  0.2852
 7482SOL    HW133908   3.011   1.821   3.760 -4.1395  1.9312  2.4391
 7482SOL    HW233909   2.906   1.796   3.662 -0.1144  1.0876  1.4930
 7483SOL     OW33910   0.845   3.849   9.450 -0.0480  0.3992 -0.0788
 7483SOL    HW133911   0.849   3.881   9.540  0.0479 -1.3316  0.5448
 7483SOL    HW233912   0.923   3.900   9.428  0.3594 -0.7741 -1.3245
 7484SOL     OW33913   3.355   0.554  10.029  0.7279  0.1241  0.1732
 7484SOL    HW133914   3.337   0.483  10.091 -1.1769  1.8855  1.6686
 7484SOL    HW233915   3.395   0.621  10.084  0.5737  1.6250 -1.5482
 7485SOL     OW33916   2.428   2.308   2.162  0.0017  0.0135  0.2110
 7485SOL    HW133917   2.344   2.277   2.128 -0.6318  2.3641 -0.3229
 7485SOL    HW233918   2.401   2.397   2.182 -0.6636 -0.1319 -0.0364
 7486SOL     OW33919   3.036   3.770  12.727 -0.1498  0.0687  0.7580
 7486SOL    HW133920   2.979   3.693  12.726 -1.6920  1.1978  0.2206
 7486SOL    HW233921   2.972   3.838  12.748  1.2941  0.8232  2.6365
 7487SOL     OW33922   2.948   2.252   0.661 -0.0687 -0.1383 -0.0420
 7487SOL    HW133923   3.029   2.209   0.633 -0.8590 -2.0673  0.6130
 7487SOL    HW233924   2.908   2.185   0.716 -0.7039  0.3818  0.1367
 7488SOL     OW33925   3.744   2.943   3.842 -0.5460 -0.1506  0.1432
 7488SOL    HW133926   3.712   3.033   3.835  1.6153  0.6569  0.8802
 7488SOL    HW233927   3.839   2.954   3.833 -0.9853  0.2286 -3.8558
 7489SOL     OW33928   1.776   4.484   1.623 -0.4971  0.1928  0.2046
 7489SOL    HW133929   1.747   4.511   1.710 -4.4762  0.0845 -1.0902
 7489SOL    HW233930   1.847   4.540   1.592 -1.2397  1.9367  1.7034
 7490SOL     OW33931   0.435   1.369   3.779  0.2596  0.1862  0.6582
 7490SOL    HW133932   0.386   1.311   3.838 -1.7699  1.9245  0.6561
 7490SOL    HW233933   0.455   1.309   3.707  1.8565  1.8710 -0.3032
 7491SOL     OW33934   2.913   0.348   7.233  0.2012 -0.1134 -0.6858
 7491SOL    HW133935   2.846   0.412   7.256  0.5231 -1.2956  3.5000
 7491SOL    HW233936   2.940   0.332   7.323 -1.4883 -0.5222 -0.2566
 7492SOL     OW33937   1.005   3.786   2.255 -0.4640  0.2904 -0.0844
 7492SOL    HW133938   1.029   3.770   2.164  1.1915  1.1963  0.1916
 7492SOL    HW233939   1.012   3.881   2.258 -2.4689  0.5004 -1.9307
 7493SOL     OW33940   2.033   4.535  11.462  0.5669  0.0597  0.6126
 7493SOL    HW133941   2.074   4.456  11.497  3.4650  1.2958  0.0180
 7493SOL    HW233942   2.109   4.579  11.423 -0.1850  1.9949  1.3297
 7494SOL     OW33943   1.130   1.640   9.619  0.5397  0.4375 -0.1219
 7494SOL    HW133944   1.194   1.671   9.554 -1.7837  0.7500 -2.2706
 7494SOL    HW233945   1.170   1.559   9.649  0.4183  0.4545  0.0868
 7495SOL     OW33946   0.505   3.018   9.088 -0.1095  0.3668  0.0700
 7495SOL    HW133947   0.493   3.019   8.993 -0.6955 -2.6139  0.1094
 7495SOL    HW233948   0.586   3.069   9.092 -0.5873  1.0941  0.3667
 7496SOL     OW33949   3.847   3.570   9.039  0.0730 -1.1684 -0.6591
 7496SOL    HW133950   3.752   3.568   9.027  0.3307  0.3595 -2.8888
 7496SOL    HW233951   3.850   3.664   9.025 -0.4250 -0.7591  1.9475
 7497SOL     OW33952   3.620   1.347   2.455 -0.3875  0.1063 -0.6584
 7497SOL    HW133953   3.541   1.384   2.416 -0.6003  2.2691  1.8241
 7497SOL    HW233954   3.649   1.288   2.386  1.4191  1.3629 -1.0000
 7498SOL     OW33955   2.351   2.890   9.195  0.3273 -0.4249 -0.5923
 7498SOL    HW133956   2.280   2.839   9.234 -0.0952  0.3952 -0.2858
 7498SOL    HW233957   2.395   2.827   9.139 -0.5307 -1.3793 -0.1948
 7499SOL     OW33958   0.364   0.212   4.691  0.9370  0.1600  0.7754
 7499SOL    HW133959   0.428   0.258   4.745  0.6896  0.8838  0.4529
 7499SOL    HW233960   0.369   0.268   4.614  0.9837  1.6229  1.8570
 7500SOL     OW33961   0.949   1.285   4.177  0.0780 -0.1352  0.3224
 7500SOL    HW133962   1.023   1.251   4.227  0.3712  1.6168  1.0766
 7500SOL    HW233963   0.970   1.262   4.087 -1.9026 -0.7843  0.0227
 7501SOL     OW33964   0.839   3.176   2.635  0.4984 -0.2229  0.2659
 7501SOL    HW133965   0.851   3.107   2.700  0.0774 -1.8274 -1.3801
 7501SOL    HW233966   0.896   3.248   2.661 -0.9481  0.6469  1.0572
 7502SOL     OW33967   3.232   2.520   0.884 -0.1778  0.3609  0.0810
 7502SOL    HW133968   3.202   2.484   0.800  2.3618 -0.1262 -0.6005
 7502SOL    HW233969   3.298   2.582   0.855 -0.8881  1.5006  0.8753
 7503SOL     OW33970   1.928   4.417   6.905 -0.0955  0.0965  0.8077
 7503SOL    HW133971   1.941   4.488   6.968  1.6104 -0.1705  0.7672
 7503SOL    HW233972   1.887   4.352   6.962 -1.2652 -0.4458 -0.6558
 7504SOL     OW33973   4.087   1.381   3.381 -0.4673  0.0496 -0.4061
 7504SOL    HW133974   4.019   1.317   3.402 -1.3522  0.5711 -1.7356
 7504SOL    HW233975   4.094   1.360   3.288 -1.7227 -0.6832 -0.3412
 7505SOL     OW33976   3.960   1.215   4.303  0.0565  0.4641  0.4265
 7505SOL    HW133977   4.008   1.188   4.225 -1.6851  0.5674 -0.6902
 7505SOL    HW233978   3.880   1.161   4.301  1.2382 -1.3171  0.6925
 7506SOL     OW33979   2.867   1.418   7.484 -0.1965 -0.3472 -0.0589
 7506SOL    HW133980   2.893   1.326   7.488  2.5028  0.3481 -0.9213
 7506SOL    HW233981   2.873   1.443   7.576  0.8689 -1.8885  0.2867
 7507SOL     OW33982   2.696   1.204   6.790 -0.1027 -0.5182  0.0415
 7507SOL    HW133983   2.756   1.165   6.853 -1.7628 -1.7901  0.8374
 7507SOL    HW233984   2.616   1.210   6.843 -0.7780 -2.0880 -0.7911
 7508SOL     OW33985   0.123   3.211   0.972  0.3802 -0.5593 -0.3373
 7508SOL    HW133986   0.160   3.132   1.013 -0.9374 -1.7930 -1.5258
 7508SOL    HW233987   0.188   3.276   1.001  1.1686  0.0264 -3.4124
 7509SOL     OW33988   4.681   3.953   7.748 -0.2897  0.0337 -0.2437
 7509SOL    HW133989   0.004   3.946   7.667  0.6463  2.5015  0.1315
 7509SOL    HW233990   4.607   3.999   7.708  0.0448 -0.0853 -1.0009
 7510SOL     OW33991   1.345   1.004   3.980 -0.3972 -0.5089 -1.0065
 7510SOL    HW133992   1.337   1.099   3.970 -1.2173 -0.3849  0.8877
 7510SOL    HW233993   1.265   0.987   3.931 -0.7011 -1.6299 -0.1097
 7511SOL     OW33994   4.486   0.907   5.598 -0.0261 -0.2844 -0.4633
 7511SOL    HW133995   4.406   0.854   5.586 -0.6695 -0.1037  2.8531
 7511SOL    HW233996   4.450   0.994   5.582 -0.3219 -0.5526 -1.2458
 7512SOL     OW33997   2.741   1.098   8.300 -0.2895  0.2270 -0.6416
 7512SOL    HW133998   2.760   1.191   8.312 -1.6983  0.5417 -0.8727
 7512SOL    HW233999   2.645   1.098   8.307 -0.3140  2.1738 -0.9827
 7513SOL     OW34000   4.439   3.654   6.914  0.6414 -0.3154  0.2110
 7513SOL    HW134001   4.451   3.748   6.929 -0.7730  0.2573 -2.3914
 7513SOL    HW234002   4.490   3.644   6.834  2.4934 -0.3453  1.3718
 7514SOL     OW34003   3.149   3.856   7.179  0.0597 -0.0355  0.7326
 7514SOL    HW134004   3.188   3.903   7.252 -1.4848 -1.1626  2.2796
 7514SOL    HW234005   3.128   3.935   7.129  0.2430  0.3129  1.2068
 7515SOL     OW34006   4.627   2.351  12.503 -0.0212 -0.1193  0.6032
 7515SOL    HW134007   4.687   2.425  12.500 -0.6219  0.3290 -0.4553
 7515SOL    HW234008   4.697   2.297  12.541  1.1648 -0.7471 -2.3795
 7516SOL     OW34009   0.538   0.239   1.738  0.8523 -0.8034 -0.4274
 7516SOL    HW134010   0.540   0.292   1.658 -0.9075 -0.1504 -0.0531
 7516SOL    HW234011   0.500   0.160   1.700  0.3173 -0.7682  0.0285
 7517SOL     OW34012   0.280   3.588   6.889 -0.2168 -0.0351  0.0160
 7517SOL    HW134013   0.368   3.613   6.917 -0.6812  1.4047  0.1887
 7517SOL    HW234014   0.303   3.536   6.812  1.8681 -0.0749  0.6594
 7518SOL     OW34015   4.455   2.103  15.654 -0.3827 -0.0427  0.8408
 7518SOL    HW134016   4.465   2.019  15.608  0.0982  1.1813 -1.2875
 7518SOL    HW234017   4.360   2.111  15.641 -0.1191 -0.6584 -1.5202
 7519SOL     OW34018   3.411   1.490   6.168 -0.5102  0.2817 -0.3913
 7519SOL    HW134019   3.332   1.450   6.205  0.5922 -3.1718 -1.7221
 7519SOL    HW234020   3.465   1.419   6.132 -0.7071 -0.2306  0.3214
 7520SOL     OW34021   0.118   2.824  12.408 -0.0811  0.2984 -0.7263
 7520SOL    HW134022   0.140   2.872  12.488 -2.1947  0.9576 -0.5416
 7520SOL    HW234023   0.152   2.892  12.349  1.6900 -1.2269 -1.4939
 7521SOL     OW34024   2.150   3.109  16.659 -0.6043  0.0594  0.0571
 7521SOL    HW134025   2.082   3.151  16.606 -0.1451  1.6863  0.7440
 7521SOL    HW234026   2.124   3.134  16.748 -0.7907  0.3636 -0.0809
 7522SOL     OW34027   3.025   1.181   4.915  0.2896  0.3326  0.7956
 7522SOL    HW134028   2.943   1.184   4.964 -0.7205  0.8544 -0.9077
 7522SOL    HW234029   3.007   1.117   4.846  1.9781 -0.1737  0.8126
 7523SOL     OW34030   2.192   3.182   7.887 -0.8523 -0.2669  0.1323
 7523SOL    HW134031   2.266   3.188   7.947 -1.6639 -2.0225  1.2756
 7523SOL    HW234032   2.127   3.140   7.943  0.5490 -1.6692  0.6782
 7524SOL     OW34033   1.580   0.326   7.220 -0.4462 -0.8140 -0.1218
 7524SOL    HW134034   1.555   0.416   7.199 -2.0278 -2.1481 -3.8002
 7524SOL    HW234035   1.522   0.287   7.155 -0.3434 -0.0768 -0.6531
 7525SOL     OW34036   4.527   1.691   8.790  0.6309  0.0449 -0.2941
 7525SOL    HW134037   4.500   1.600   8.776 -1.4240  0.8369 -1.3536
 7525SOL    HW234038   4.586   1.711   8.717  0.7978 -0.0640 -0.1903
 7526SOL     OW34039   1.138   3.262   1.786  0.0451  0.3111 -0.1339
 7526SOL    HW134040   1.119   3.309   1.705  2.9068  0.7355 -0.5739
 7526SOL    HW234041   1.128   3.174   1.751  1.0503 -0.4796  1.5852
 7527SOL     OW34042   4.480   0.510   3.716 -0.0958 -0.1768 -0.4197
 7527SOL    HW134043   4.404   0.553   3.678  1.0055  0.5052 -1.8227
 7527SOL    HW234044   4.444   0.429   3.754 -0.3609  1.3985  2.7155
 7528SOL     OW34045   1.705   4.024   5.272 -0.3684  0.6442 -0.1079
 7528SOL    HW134046   1.665   4.071   5.345  0.9257  0.9401  0.4176
 7528SOL    HW234047   1.634   4.030   5.209  0.0091  2.2476 -0.3848
 7529SOL     OW34048   3.896   3.195  14.481  0.6460 -0.3181 -0.2188
 7529SOL    HW134049   3.948   3.254  14.425 -0.5003  0.7735 -0.1379
 7529SOL    HW234050   3.808   3.232  14.471 -0.2194 -2.1569  0.6856
 7530SOL     OW34051   1.365   0.822   6.586 -0.1178  0.0468  0.6975
 7530SOL    HW134052   1.422   0.869   6.647 -0.0562  0.2681  0.4727
 7530SOL    HW234053   1.426   0.754   6.558 -0.7088 -0.2543  0.1237
 7531SOL     OW34054   2.233   0.961  17.603  0.5192 -0.3733  0.8363
 7531SOL    HW134055   2.280   1.029  17.650 -0.1944  0.9905 -0.4421
 7531SOL    HW234056   2.232   0.992  17.513  0.7313 -1.7063  0.3665
 7532SOL     OW34057   1.340   4.300   3.943 -0.3278 -0.3700  0.3217
 7532SOL    HW134058   1.306   4.301   4.033  0.3464  1.6086  0.5559
 7532SOL    HW234059   1.282   4.240   3.897  1.0809 -0.5743 -1.1970
 7533SOL     OW34060   1.811   4.542  10.075 -0.4907  0.4065  0.1582
 7533SOL    HW134061   1.867   4.540   9.998  0.1586 -2.5870  0.7015
 7533SOL    HW234062   1.878   4.530  10.143  1.1449  0.9095 -1.3617
 7534SOL     OW34063   4.006   4.250  10.576  0.5061  0.6700  0.2034
 7534SOL    HW134064   3.920   4.235  10.536  2.4930 -0.0283 -3.8756
 7534SOL    HW234065   4.037   4.160  10.585 -1.3371 -0.1826 -2.0025
 7535SOL     OW34066   3.689   2.611   4.785  0.4670 -0.0096  0.2276
 7535SOL    HW134067   3.613   2.589   4.730  0.7451 -2.2881  0.7925
 7535SOL    HW234068   3.714   2.698   4.754  0.1871 -0.1023 -0.2691
 7536SOL     OW34069   1.186   1.030   7.120  0.4467 -0.6452  0.0854
 7536SOL    HW134070   1.092   1.050   7.119 -0.0917 -3.3018 -0.8301
 7536SOL    HW234071   1.192   0.966   7.191  0.3776 -0.1991  0.5022
 7537SOL     OW34072   1.905   1.897  15.068 -0.1500 -0.3662 -0.2238
 7537SOL    HW134073   1.817   1.866  15.044  0.4504 -3.1144  1.0699
 7537SOL    HW234074   1.902   1.900  15.164 -0.0403 -5.7140 -0.0248
 7538SOL     OW34075   2.650   0.066   0.803 -0.3685  0.0512 -0.6834
 7538SOL    HW134076   2.603   0.078   0.720  0.8826 -1.8836 -1.6821
 7538SOL    HW234077   2.740   0.079   0.771 -1.0401  0.7645 -2.2640
 7539SOL     OW34078   1.476   2.669   7.909 -0.1612 -0.4556  0.5952
 7539SOL    HW134079   1.437   2.739   7.857  0.2899  0.2328  1.1927
 7539SOL    HW234080   1.511   2.711   7.987  0.7406  1.9663 -1.1081
 7540SOL     OW34081   1.115   4.422   1.245 -0.7228  0.3100 -0.3821
 7540SOL    HW134082   1.153   4.367   1.177 -0.6126 -0.4871  0.3176
 7540SOL    HW234083   1.084   4.361   1.313 -2.7216  2.7957  0.9454
 7541SOL     OW34084   3.723   1.271  12.586  0.2377 -0.3946  0.3441
 7541SOL    HW134085   3.637   1.269  12.629  0.3994 -0.4743  0.6660
 7541SOL    HW234086   3.707   1.302  12.497 -0.6616  2.6447  1.5261
 7542SOL     OW34087   4.569   1.828   1.734 -0.8079 -0.3111  0.9962
 7542SOL    HW134088   4.534   1.744   1.704 -1.5143  0.9403 -1.5966
 7542SOL    HW234089   4.664   1.824   1.740 -0.8142 -0.7195  0.8057
 7543SOL     OW34090   2.978   1.181   1.725  0.1102 -0.2056 -0.0520
 7543SOL    HW134091   2.991   1.131   1.645  1.3882  0.0354 -0.0029
 7543SOL    HW234092   2.930   1.254   1.687 -0.6567 -0.6563  0.0473
 7544SOL     OW34093   0.837   3.206  14.472  0.1070 -0.4655  0.7704
 7544SOL    HW134094   0.746   3.179  14.462 -0.5966  1.5593  1.6948
 7544SOL    HW234095   0.844   3.299  14.454  0.6624 -0.7668 -0.5381
 7545SOL     OW34096   3.563   1.940   9.012  0.4298 -0.1215  0.0490
 7545SOL    HW134097   3.473   1.911   9.029  0.6758 -0.7238  0.3274
 7545SOL    HW234098   3.611   1.875   9.063  0.0554  0.6859  1.4294
 7546SOL     OW34099   4.610   4.152   9.464 -0.7707 -0.1607 -0.0485
 7546SOL    HW134100   4.667   4.132   9.390  0.0176 -0.9100  0.7723
 7546SOL    HW234101   4.571   4.237   9.442  2.4434  1.4506  0.4889
 7547SOL     OW34102   2.487   3.351  11.398 -0.0275 -0.4262 -0.0436
 7547SOL    HW134103   2.567   3.339  11.449  1.1994  0.7504 -1.6765
 7547SOL    HW234104   2.442   3.419  11.447 -2.6495 -0.5836 -2.1780
 7548SOL     OW34105   3.447   1.365   4.979  0.5093 -0.4313 -0.5763
 7548SOL    HW134106   3.538   1.349   4.953  0.0797 -1.0294 -1.7396
 7548SOL    HW234107   3.418   1.446   4.937 -1.4686  0.4542  2.5558
 7549SOL     OW34108   2.296   1.812   3.186  0.6203  0.2862  0.5144
 7549SOL    HW134109   2.225   1.775   3.133  1.1875 -0.6209  0.3883
 7549SOL    HW234110   2.255   1.816   3.272  1.3415  2.9894  0.7323
 7550SOL     OW34111   3.510   0.766   8.581 -0.5390 -0.6671  0.0780
 7550SOL    HW134112   3.445   0.799   8.519 -1.6200 -2.0686  0.4386
 7550SOL    HW234113   3.475   0.812   8.657  2.0516  2.0940 -0.4472
 7551SOL     OW34114   3.430   0.864  16.723 -0.0388  0.1107 -0.6856
 7551SOL    HW134115   3.478   0.842  16.803  0.1145 -0.4694 -0.9330
 7551SOL    HW234116   3.348   0.894  16.761  0.7311  1.6757 -0.2689
 7552SOL     OW34117   3.814   2.289  12.517  0.2274  0.1072  0.5411
 7552SOL    HW134118   3.815   2.204  12.474 -3.4044  0.6089 -0.5404
 7552SOL    HW234119   3.725   2.286  12.551 -0.3676  2.3458 -0.8284
 7553SOL     OW34120   3.745   4.446   3.021 -0.5743 -0.2768  0.2404
 7553SOL    HW134121   3.717   4.387   3.092  0.0170  0.2806  0.9400
 7553SOL    HW234122   3.679   4.433   2.953  1.7649 -0.0968 -2.0633
 7554SOL     OW34123   2.332   0.051   5.384  0.1628 -0.2200 -0.3439
 7554SOL    HW134124   2.321   0.069   5.291 -0.7840  1.3338  0.0716
 7554SOL    HW234125   2.396   0.119   5.402  0.2689 -0.1578 -0.9717
 7555SOL     OW34126   4.040   2.112   4.836  0.1337  0.1886  0.4922
 7555SOL    HW134127   4.043   2.068   4.751  0.1075 -2.2252  1.7580
 7555SOL    HW234128   3.983   2.188   4.827  0.0414  0.3475  2.3935
 7556SOL     OW34129   2.858   0.974  16.956  0.4709  0.4392  0.1859
 7556SOL    HW134130   2.905   0.892  16.942  0.6833  0.5376  0.3347
 7556SOL    HW234131   2.768   0.940  16.959  1.0219 -1.1677 -1.4484
 7557SOL     OW34132   4.259   1.284   6.116 -0.2867  0.4606 -0.1059
 7557SOL    HW134133   4.231   1.279   6.207 -0.4080 -1.0411 -0.2141
 7557SOL    HW234134   4.280   1.377   6.115  1.2028  0.1288  0.9929
 7558SOL     OW34135   2.826   0.077   4.192  0.0862  0.0692  0.0203
 7558SOL    HW134136   2.914   0.072   4.229  0.6437  0.5654 -1.2451
 7558SOL    HW234137   2.792   0.141   4.255  0.2224 -0.1004  0.2648
 7559SOL     OW34138   0.957   3.922   6.961  0.1015  0.6879 -0.7224
 7559SOL    HW134139   0.910   3.995   6.920  2.0650  0.9780 -2.4458
 7559SOL    HW234140   1.037   3.967   6.989  0.6201 -0.2052 -0.7713
 7560SOL     OW34141   3.829   0.667   5.028  0.2906 -0.2405 -0.0637
 7560SOL    HW134142   3.805   0.593   4.972 -1.4160  1.2278 -1.3107
 7560SOL    HW234143   3.815   0.745   4.973 -0.5374 -0.9838 -0.9126
 7561SOL     OW34144   1.203   3.157   5.512  0.5547  0.0684  0.2350
 7561SOL    HW134145   1.202   3.245   5.474 -0.8333 -0.8946 -1.9534
 7561SOL    HW234146   1.217   3.109   5.431  0.6633  0.6515 -0.0920
 7562SOL     OW34147   0.415   1.090   4.460 -0.8044 -0.3477 -0.5090
 7562SOL    HW134148   0.410   1.022   4.527 -0.6612 -0.2099 -0.3617
 7562SOL    HW234149   0.326   1.125   4.450 -0.9158 -0.3447  0.5494
 7563SOL     OW34150   1.429   0.849   7.857  0.4459 -0.4700  0.0769
 7563SOL    HW134151   1.478   0.827   7.936  0.7813 -0.5940 -0.1632
 7563SOL    HW234152   1.386   0.930   7.886 -1.4720 -1.7872  0.9102
 7564SOL     OW34153   2.279   4.111   2.609 -0.0318 -0.3094  0.0392
 7564SOL    HW134154   2.277   4.042   2.543  0.7542  2.0756 -2.4982
 7564SOL    HW234155   2.356   4.156   2.575 -0.1902 -0.0556  0.0150
 7565SOL     OW34156   0.378   0.661  17.126 -0.0698 -0.3089 -0.0321
 7565SOL    HW134157   0.352   0.748  17.156  0.9316 -0.2827  0.8020
 7565SOL    HW234158   0.312   0.644  17.059  1.5543 -2.0076 -1.2286
 7566SOL     OW34159   1.194   3.070   7.375 -0.0246 -0.2688 -0.3718
 7566SOL    HW134160   1.279   3.083   7.333 -1.0908  0.2497 -2.4245
 7566SOL    HW234161   1.145   3.027   7.304 -0.1511 -1.6022  0.5319
 7567SOL     OW34162   3.403   3.448  14.632 -0.1696 -0.1089 -0.0318
 7567SOL    HW134163   3.400   3.493  14.548  0.1849 -0.6772 -0.3513
 7567SOL    HW234164   3.494   3.419  14.625  0.0678  0.2411  1.6772
 7568SOL     OW34165   1.889   0.834  17.438  0.0648 -0.2340  0.1930
 7568SOL    HW134166   1.909   0.827  17.531 -3.2350 -2.8442  0.6969
 7568SOL    HW234167   1.884   0.742  17.413 -0.8795 -0.3294  0.7531
 7569SOL     OW34168   4.171   1.018   9.037 -0.5001  0.2505 -0.3422
 7569SOL    HW134169   4.089   1.068   9.038 -0.0535  1.0185 -2.4605
 7569SOL    HW234170   4.169   0.988   8.947 -0.8933 -0.3360 -0.1364
 7570SOL     OW34171   3.218   4.087   3.915 -0.0024  0.6207  0.3055
 7570SOL    HW134172   3.191   4.135   3.837  1.8452 -0.6841 -1.1278
 7570SOL    HW234173   3.134   4.085   3.959  0.8385  1.5716  1.9708
 7571SOL     OW34174   2.401   1.202   0.210  0.7522  0.0238  0.5206
 7571SOL    HW134175   2.330   1.262   0.189  1.6272  0.6241 -0.7650
 7571SOL    HW234176   2.473   1.247   0.167  0.4991 -2.6857 -2.7577
 7572SOL     OW34177   2.557   0.885  12.692  0.0343 -0.4464 -0.1417
 7572SOL    HW134178   2.586   0.977  12.693  3.7473 -1.6065 -0.2280
 7572SOL    HW234179   2.570   0.853  12.603  0.8828  0.8616 -0.4995
 7573SOL     OW34180   1.479   0.059   4.368  0.3422  0.3881 -0.4793
 7573SOL    HW134181   1.525   4.714   4.410  0.1491  1.2958  1.2867
 7573SOL    HW234182   1.396   0.060   4.416  0.9291  1.6118  0.5274
 7574SOL     OW34183   2.241   0.235   1.626  0.0915 -0.4389  0.8657
 7574SOL    HW134184   2.295   0.205   1.699  1.4076 -0.3635 -0.0842
 7574SOL    HW234185   2.178   0.163   1.630 -0.7239  0.1404 -1.3860
 7575SOL     OW34186   2.659   1.993   0.164 -0.4856  0.0918  0.1172
 7575SOL    HW134187   2.564   1.989   0.152 -0.2435 -1.5522 -1.3896
 7575SOL    HW234188   2.675   2.075   0.210 -1.2765  0.7561 -0.7774
 7576SOL     OW34189   1.806   0.308   7.440  0.3960 -0.2701  0.2088
 7576SOL    HW134190   1.733   0.325   7.381 -0.8082 -1.5849  1.3270
 7576SOL    HW234191   1.880   0.340   7.388 -0.0018 -1.5666 -1.1468
 7577SOL     OW34192   3.062   4.271  12.111 -0.1679  0.4497 -0.2634
 7577SOL    HW134193   2.995   4.207  12.085  1.9198 -2.4547  1.4510
 7577SOL    HW234194   3.057   4.275  12.207 -0.4544  0.0159 -0.2573
 7578SOL     OW34195   3.363   3.504   1.527 -0.0808 -0.0287 -0.3280
 7578SOL    HW134196   3.432   3.455   1.485  0.3170 -1.3593  1.8942
 7578SOL    HW234197   3.410   3.583   1.553  0.2743 -0.4907  0.4234
 7579SOL     OW34198   3.943   2.619   7.753 -0.1929 -0.1902 -0.1658
 7579SOL    HW134199   3.951   2.671   7.833 -0.2557 -0.3089 -0.0820
 7579SOL    HW234200   3.889   2.548   7.789 -1.0209  1.8202  2.5215
 7580SOL     OW34201   2.428   1.530   7.310  0.3860  0.3714 -0.2255
 7580SOL    HW134202   2.477   1.592   7.365  0.5056 -0.7893  0.9509
 7580SOL    HW234203   2.491   1.526   7.238 -1.0450 -4.7911 -1.1704
 7581SOL     OW34204   1.107   1.100   7.425 -0.7262  0.2935 -0.8197
 7581SOL    HW134205   1.024   1.077   7.384  0.2112 -1.4633 -1.6979
 7581SOL    HW234206   1.149   1.014   7.426 -1.7052 -0.1641  0.9011
 7582SOL     OW34207   3.307   2.229   3.863  0.1264  0.2189 -0.1199
 7582SOL    HW134208   3.268   2.166   3.924 -0.8118  1.8174  0.9337
 7582SOL    HW234209   3.300   2.309   3.914 -0.9384 -0.8189  1.3666
 7583SOL     OW34210   1.526   2.169  10.144 -0.4844  0.6505  0.1732
 7583SOL    HW134211   1.620   2.151  10.138 -0.9143 -1.5712  0.0494
 7583SOL    HW234212   1.528   2.263  10.163  0.4264  0.9179 -1.2425
 7584SOL     OW34213   4.285   0.771   4.537  0.4034  0.0971  0.1371
 7584SOL    HW134214   4.213   0.745   4.595 -0.9466  1.6778 -0.8420
 7584SOL    HW234215   4.320   0.686   4.510  0.4824 -0.5306  2.1782
 7585SOL     OW34216   3.846   4.268   4.625  0.3182  0.7631 -0.0174
 7585SOL    HW134217   3.775   4.329   4.647 -1.1231 -0.8942 -0.1101
 7585SOL    HW234218   3.792   4.195   4.596 -0.2285  2.1665 -2.5235
 7586SOL     OW34219   3.068   3.248   4.802 -0.1511  0.6638  0.0157
 7586SOL    HW134220   2.984   3.293   4.811 -0.4136 -0.0257  1.0224
 7586SOL    HW234221   3.106   3.297   4.730  1.8017 -0.3774  0.3545
 7587SOL     OW34222   3.349   1.260   0.168 -0.3152  0.1976  0.0365
 7587SOL    HW134223   3.287   1.333   0.162  1.6954  1.9798  0.9820
 7587SOL    HW234224   3.290   1.195   0.205  0.0696 -0.3225 -0.2698
 7588SOL     OW34225   1.879   3.517  17.561  0.5100 -0.5043 -0.6321
 7588SOL    HW134226   1.816   3.446  17.565 -0.9906  0.8684 -0.1895
 7588SOL    HW234227   1.904   3.520  17.654 -1.5639  0.4587 -0.1265
 7589SOL     OW34228   3.616   1.167   2.686  0.1592  0.2771  0.0198
 7589SOL    HW134229   3.638   1.239   2.626  3.4431 -0.1815  0.6834
 7589SOL    HW234230   3.700   1.156   2.730  0.8971  0.4329 -1.3642
 7590SOL     OW34231   0.120   4.702   9.151  0.3168  0.6143  0.1982
 7590SOL    HW134232   0.209   0.004   9.132  0.2404 -0.4098 -1.6842
 7590SOL    HW234233   0.102   4.631   9.090  1.5207  1.5483 -1.2568
 7591SOL     OW34234   0.007   0.783   6.719  0.1291 -0.0202 -1.1015
 7591SOL    HW134235   0.036   0.693   6.706 -0.0438 -0.1258 -0.7492
 7591SOL    HW234236   0.094   0.822   6.729  0.3139 -0.7708  0.2711
 7592SOL     OW34237   2.352   3.864  15.837 -0.3343  0.0689  0.0102
 7592SOL    HW134238   2.299   3.925  15.889  1.4958 -0.5478  2.5497
 7592SOL    HW234239   2.439   3.884  15.870 -1.5270  2.4732  1.7337
 7593SOL     OW34240   4.136   1.976  12.201  0.5756 -0.3798  0.3427
 7593SOL    HW134241   4.194   1.954  12.127 -0.1522  2.7883 -1.1806
 7593SOL    HW234242   4.109   1.889  12.229  3.0658 -1.1342  0.3937
 7594SOL     OW34243   4.664   2.075  12.290  0.1901 -0.5674  0.2645
 7594SOL    HW134244   4.677   1.999  12.346 -1.0095  2.1199  4.2182
 7594SOL    HW234245   4.614   2.135  12.344  1.4857  2.3008 -1.6824
 7595SOL     OW34246   2.490   4.464   8.656 -0.9107  0.8110 -0.1559
 7595SOL    HW134247   2.549   4.539   8.649  0.7999 -0.4679  0.2653
 7595SOL    HW234248   2.529   4.427   8.736 -2.2679  1.7476  0.9201
 7596SOL     OW34249   1.812   1.069   7.292  0.3768  0.1915  0.1960
 7596SOL    HW134250   1.844   1.121   7.365  0.5919  1.8154 -1.0566
 7596SOL    HW234251   1.875   1.098   7.226  2.4167 -0.3661  1.9197
 7597SOL     OW34252   0.199   3.106   7.201  0.5965 -0.6087 -0.1527
 7597SOL    HW134253   0.192   3.096   7.106 -1.2781 -0.0705 -0.0720
 7597SOL    HW234254   0.263   3.177   7.201  0.6562 -0.6651  0.0463
 7598SOL     OW34255   3.968   1.816   4.523 -0.5633 -0.3088 -0.2960
 7598SOL    HW134256   3.899   1.839   4.585  0.5627  1.1112  0.4339
 7598SOL    HW234257   4.017   1.897   4.538  1.0764 -1.8796  2.8492
 7599SOL     OW34258   2.833   4.154   3.318 -0.1686  0.4249  0.2676
 7599SOL    HW134259   2.861   4.245   3.306  1.6677 -0.3673 -1.4600
 7599SOL    HW234260   2.920   4.117   3.308 -0.9853 -1.2784 -0.4858
 7600SOL     OW34261   4.191   1.196   0.409  0.2790  0.0515  0.5066
 7600SOL    HW134262   4.151   1.232   0.330  0.9179  0.4011  0.3349
 7600SOL    HW234263   4.238   1.117   0.384  3.0785  1.1417  2.3005
 7601SOL     OW34264   1.060   3.177   3.310 -0.1449  0.1561  0.0223
 7601SOL    HW134265   1.077   3.105   3.250  0.0778  0.1864  0.0490
 7601SOL    HW234266   1.149   3.212   3.322  1.2174 -1.9053 -4.3647
 7602SOL     OW34267   3.831   3.437   2.677  0.0218 -0.4013  0.1613
 7602SOL    HW134268   3.790   3.358   2.641 -0.2710 -0.1276 -0.1137
 7602SOL    HW234269   3.918   3.418   2.640 -0.3641 -2.2287  0.2014
 7603SOL     OW34270   1.432   2.430  17.592 -0.3169  0.1919  0.5442
 7603SOL    HW134271   1.512   2.379  17.604 -1.2442 -1.2605  0.5192
 7603SOL    HW234272   1.456   2.505  17.537  1.7897 -0.4274  0.6043
 7604SOL     OW34273   0.152   3.193  14.920 -0.3606 -0.1831 -0.3637
 7604SOL    HW134274   0.245   3.211  14.938 -0.0747 -0.1828 -1.8777
 7604SOL    HW234275   0.119   3.281  14.936 -2.3124 -0.5923 -2.2518
 7605SOL     OW34276   0.930   3.635  10.053 -0.1145  0.0197 -0.0479
 7605SOL    HW134277   0.987   3.580  10.001  0.8709 -0.2977  1.3670
 7605SOL    HW234278   0.976   3.639  10.137 -0.4713 -0.7245  0.1867
 7606SOL     OW34279   2.220   2.406   4.324  0.2934  0.2523 -0.2744
 7606SOL    HW134280   2.289   2.361   4.374 -1.7214 -1.1547  1.2559
 7606SOL    HW234281   2.186   2.336   4.269 -1.9043  0.9769  0.1778
 7607SOL     OW34282   1.974   4.113   7.898 -0.0355  0.5207 -0.0424
 7607SOL    HW134283   2.002   4.042   7.841 -0.5756  2.3666 -2.5704
 7607SOL    HW234284   2.038   4.090   7.965 -0.4923 -1.6606 -0.3720
 7608SOL     OW34285   3.060   1.586   4.617  0.3042  0.4309  0.2565
 7608SOL    HW134286   3.090   1.505   4.574  0.2901 -0.2079  1.4570
 7608SOL    HW234287   2.984   1.602   4.561 -0.0972  0.6129  0.8503
 7609SOL     OW34288   1.227   2.109   7.901  0.1343  0.2050 -0.4762
 7609SOL    HW134289   1.292   2.040   7.913  2.1015  2.5686  2.6582
 7609SOL    HW234290   1.236   2.125   7.807 -0.1916  1.1767 -0.3471
 7610SOL     OW34291   0.804   2.671   3.543  0.1946 -0.1600  0.3905
 7610SOL    HW134292   0.774   2.723   3.468 -0.1946 -0.2602  0.4787
 7610SOL    HW234293   0.769   2.584   3.527 -1.5524  0.6900 -0.4429
 7611SOL     OW34294   4.196   4.028  10.352  0.1020 -0.3646  0.1170
 7611SOL    HW134295   4.292   4.030  10.350  0.0989 -0.0630  0.1611
 7611SOL    HW234296   4.177   3.989  10.266  0.9355  1.3874 -0.8751
 7612SOL     OW34297   3.483   1.436   7.471  0.0967  0.3215 -0.2324
 7612SOL    HW134298   3.450   1.480   7.549  0.5788  1.2453 -0.5469
 7612SOL    HW234299   3.551   1.390   7.520 -0.7737  1.0049  1.5918
 7613SOL     OW34300   2.423   3.769   2.823 -0.3001 -0.2002 -0.5511
 7613SOL    HW134301   2.512   3.737   2.814 -0.4274 -0.4410 -0.9348
 7613SOL    HW234302   2.402   3.742   2.913 -0.0340  0.4599 -0.2913
 7614SOL     OW34303   4.149   0.421   8.504 -0.4614 -0.1669  0.5144
 7614SOL    HW134304   4.148   0.516   8.492  0.6385  0.0138  1.8286
 7614SOL    HW234305   4.097   0.419   8.584 -0.9140 -0.9829  0.1988
 7615SOL     OW34306   1.822   1.586  12.948 -0.0371 -0.5904 -0.4571
 7615SOL    HW134307   1.856   1.624  12.868  1.3276 -0.4733  0.1876
 7615SOL    HW234308   1.775   1.657  12.992  0.4874  0.2734 -1.2984
 7616SOL     OW34309   4.341   1.480   7.658  0.0779 -0.0319 -0.1819
 7616SOL    HW134310   4.372   1.416   7.594 -0.8305  0.4166 -1.0673
 7616SOL    HW234311   4.272   1.529   7.613 -0.0903 -0.7931 -0.7587
 7617SOL     OW34312   2.150   3.893  10.930 -0.4940 -0.4610 -0.7991
 7617SOL    HW134313   2.210   3.943  10.985  0.2426  0.7481 -2.6894
 7617SOL    HW234314   2.207   3.821  10.904  0.2973 -0.0604 -0.1630
 7618SOL     OW34315   2.183   0.598   4.470  0.8682 -0.0503  0.2451
 7618SOL    HW134316   2.149   0.680   4.508  1.1164  0.5398 -0.8337
 7618SOL    HW234317   2.244   0.572   4.539  0.2098  1.4130  1.3836
 7619SOL     OW34318   0.674   4.096   4.492  0.3570  0.5335 -0.3357
 7619SOL    HW134319   0.721   4.035   4.549 -2.2003  0.0353  1.2486
 7619SOL    HW234320   0.584   4.065   4.507  0.0560  0.9014 -1.4169
 7620SOL     OW34321   0.101   0.926   4.150  0.1627  0.3458  0.9668
 7620SOL    HW134322   0.045   0.896   4.078  3.0833  0.4934 -1.3502
 7620SOL    HW234323   0.059   1.012   4.159 -1.7976 -0.4998 -0.0684
 7621SOL     OW34324   2.088   4.104   5.373  0.0883  0.0103  0.5050
 7621SOL    HW134325   2.138   4.149   5.306 -3.5082  0.0931 -2.1026
 7621SOL    HW234326   2.029   4.056   5.315  1.1857 -0.7967  0.0499
 7622SOL     OW34327   1.926   1.421   2.233 -0.1967  0.1547  0.2690
 7622SOL    HW134328   1.993   1.400   2.167 -0.1294  1.3460 -0.0285
 7622SOL    HW234329   1.962   1.499   2.275 -1.3084 -0.4552  2.3735
 7623SOL     OW34330   4.593   0.696   9.242 -0.2711 -0.2160 -0.4706
 7623SOL    HW134331   4.670   0.674   9.295 -0.3236 -1.2070 -0.8053
 7623SOL    HW234332   4.631   0.683   9.154 -2.0605  1.2271 -1.4537
 7624SOL     OW34333   3.232   0.873   4.842 -0.4979  0.5141 -0.3672
 7624SOL    HW134334   3.307   0.877   4.902 -0.4699  1.2662 -0.4608
 7624SOL    HW234335   3.167   0.920   4.894  0.5850  0.5048  1.0166
 7625SOL     OW34336   3.767   2.818   9.625  0.1397  0.1075  0.0681
 7625SOL    HW134337   3.829   2.757   9.585 -0.1153  0.3440 -0.6839
 7625SOL    HW234338   3.759   2.777   9.711 -0.6142 -2.0548 -1.0437
 7626SOL     OW34339   1.977   3.228  16.489  0.3093  0.1817  0.1077
 7626SOL    HW134340   1.898   3.280  16.474 -0.5074 -1.1498 -0.2024
 7626SOL    HW234341   2.019   3.208  16.405 -1.6722 -1.3988 -0.5197
 7627SOL     OW34342   3.250   0.534   3.195 -0.2670 -0.5267  0.1098
 7627SOL    HW134343   3.271   0.448   3.161  1.7849 -0.4063  1.0355
 7627SOL    HW234344   3.259   0.592   3.120  0.8114  0.9132  1.3412
 7628SOL     OW34345   4.294   3.865   2.077  0.0103  0.0077 -0.3939
 7628SOL    HW134346   4.286   3.784   2.026 -0.9850  0.5359 -1.0860
 7628SOL    HW234347   4.204   3.894   2.095 -0.7032 -1.9519 -0.7639
 7629SOL     OW34348   0.271   4.450   7.189  0.1063  0.6750 -0.0805
 7629SOL    HW134349   0.270   4.355   7.201  0.7272  1.0111  2.6368
 7629SOL    HW234350   0.189   4.459   7.141 -0.0244 -2.0411 -0.3428
 7630SOL     OW34351   1.104   2.640   3.602  0.4047  0.3402 -0.0463
 7630SOL    HW134352   1.043   2.568   3.582  0.4727 -0.0539  1.1516
 7630SOL    HW234353   1.070   2.720   3.563 -0.5022 -1.1137 -2.2202
 7631SOL     OW34354   2.404   2.565   4.152 -0.0470 -0.5863  0.2341
 7631SOL    HW134355   2.348   2.521   4.217 -0.8578  0.7403  0.4244
 7631SOL    HW234356   2.473   2.499   4.161 -0.5977 -1.3597 -1.1782
 7632SOL     OW34357   4.188   4.090   0.739 -0.0772  0.2077  0.2300
 7632SOL    HW134358   4.167   4.003   0.774 -0.5268 -0.1256 -0.8803
 7632SOL    HW234359   4.283   4.095   0.739 -0.0074 -1.2207  0.2725
 7633SOL     OW34360   4.024   0.491   4.285 -0.2358 -0.4478 -0.2631
 7633SOL    HW134361   4.118   0.492   4.304 -0.2217 -1.4934 -0.2807
 7633SOL    HW234362   3.996   0.507   4.375  0.7871  1.1098 -0.2315
 7634SOL     OW34363   1.419   1.810   3.716 -0.5074 -0.6087  0.1216
 7634SOL    HW134364   1.426   1.810   3.621 -0.4573 -1.2297  0.1264
 7634SOL    HW234365   1.369   1.890   3.734  0.6766  0.7757 -2.7951
 7635SOL     OW34366   0.872   1.588   8.736 -0.1636  0.2940  0.1297
 7635SOL    HW134367   0.814   1.649   8.689 -0.2945  0.1062  0.0485
 7635SOL    HW234368   0.891   1.637   8.816  2.3245  0.8224 -0.7861
 7636SOL     OW34369   3.627   4.323  17.029 -0.6121  0.6418  0.1041
 7636SOL    HW134370   3.679   4.346  16.953  2.1282 -1.9975  1.1755
 7636SOL    HW234371   3.540   4.360  17.010 -0.5747  2.0208  2.6260
 7637SOL     OW34372   1.642   2.569  10.066  0.1999 -0.0206  0.4056
 7637SOL    HW134373   1.566   2.542  10.118  0.4374 -1.0427  0.2324
 7637SOL    HW234374   1.628   2.524   9.983  1.5700 -1.0781  0.7444
 7638SOL     OW34375   0.076   3.112   2.759 -0.9130  0.1390 -0.7132
 7638SOL    HW134376   0.053   3.048   2.691 -0.6887 -1.1483  0.4232
 7638SOL    HW234377   0.045   3.061   2.834 -2.4050  2.1852  0.0383
 7639SOL     OW34378   1.536   1.357   8.734  0.6447  0.2582 -0.3009
 7639SOL    HW134379   1.610   1.417   8.743  0.0114  0.9454  0.3938
 7639SOL    HW234380   1.499   1.380   8.819 -0.5723 -4.3837  0.3829
 7640SOL     OW34381   4.435   1.471   5.394 -0.5083  0.1161  0.2831
 7640SOL    HW134382   4.489   1.396   5.418 -1.3049  0.0234  1.8151
 7640SOL    HW234383   4.501   1.514   5.339 -2.2368  1.3457 -0.8495
 7641SOL     OW34384   2.433   4.514   4.310 -0.0654 -0.0162 -0.4259
 7641SOL    HW134385   2.383   4.528   4.229 -1.1197 -1.0227  0.0540
 7641SOL    HW234386   2.456   4.605   4.328 -0.4730 -0.3347  1.7350
 7642SOL     OW34387   0.127   2.255   7.046  0.3053  0.3165  0.6100
 7642SOL    HW134388   0.140   2.196   7.120 -0.9774  0.4913  0.9697
 7642SOL    HW234389   0.209   2.305   7.042  0.8884 -0.9016 -2.3983
 7643SOL     OW34390   3.904   1.672   3.021 -0.0065 -0.3437 -0.6913
 7643SOL    HW134391   3.905   1.609   2.948 -1.9946 -0.1162 -0.9114
 7643SOL    HW234392   3.810   1.684   3.035 -0.0581 -2.3508  0.7109
 7644SOL     OW34393   3.848   1.440   4.199  0.0642  0.3604 -0.2928
 7644SOL    HW134394   3.860   1.359   4.249 -1.1545  0.3820  0.0260
 7644SOL    HW234395   3.797   1.419   4.120 -1.4872  0.4442  0.6952
 7645SOL     OW34396   2.452   2.920  15.068 -0.3635 -0.0831 -0.1736
 7645SOL    HW134397   2.461   2.833  15.028  0.6977 -0.5155  1.0254
 7645SOL    HW234398   2.378   2.911  15.128 -0.3895  0.8128 -0.0678
 7646SOL     OW34399   2.663   2.252   7.877  0.0588 -0.0848 -0.1116
 7646SOL    HW134400   2.633   2.301   7.953 -2.3147 -0.2427 -0.9513
 7646SOL    HW234401   2.617   2.279   7.797 -0.5243 -2.9209 -0.7495
 7647SOL     OW34402   3.696   1.410   6.170 -0.1482  0.2828  0.4741
 7647SOL    HW134403   3.716   1.451   6.253  0.5210  1.2237 -0.1566
 7647SOL    HW234404   3.751   1.469   6.119 -3.8187  1.5569 -2.0874
 7648SOL     OW34405   0.745   1.639   6.931 -0.0139 -0.2968 -0.0636
 7648SOL    HW134406   0.688   1.686   6.870  0.0694 -0.5337 -0.3252
 7648SOL    HW234407   0.822   1.694   6.921 -2.2372  2.7415 -0.2728
 7649SOL     OW34408   2.922   0.728  16.995  0.8545  0.2150 -0.5084
 7649SOL    HW134409   2.951   0.687  16.913 -0.2388 -0.6183 -0.4671
 7649SOL    HW234410   2.899   0.650  17.046 -1.4322  0.5426 -1.0635
 7650SOL     OW34411   2.903   3.588   9.212  0.1961 -0.4652 -0.1977
 7650SOL    HW134412   2.844   3.576   9.137 -0.6661 -1.0861  0.5891
 7650SOL    HW234413   2.841   3.568   9.282  1.9188  2.3539  2.1482
 7651SOL     OW34414   4.110   2.435  12.476 -0.4166 -0.0174 -0.1253
 7651SOL    HW134415   4.195   2.473  12.500 -0.4056 -0.0108 -0.1751
 7651SOL    HW234416   4.130   2.351  12.433 -2.0972 -0.2519 -0.4523
 7652SOL     OW34417   1.543   1.560  13.966 -0.3999 -0.0999 -0.2189
 7652SOL    HW134418   1.494   1.621  13.911 -0.2460  2.2658  2.3475
 7652SOL    HW234419   1.574   1.622  14.032 -0.8707  1.6508 -1.6411
 7653SOL     OW34420   0.805   1.215   5.482 -0.5869  0.4244 -0.2640
 7653SOL    HW134421   0.738   1.261   5.533 -2.5477 -0.7285 -1.8297
 7653SOL    HW234422   0.747   1.150   5.445 -1.4929  0.7947  0.5087
 7654SOL     OW34423   2.176   2.358   5.771 -0.4690  0.5047 -0.5903
 7654SOL    HW134424   2.211   2.283   5.723  0.5944 -0.4564  1.6955
 7654SOL    HW234425   2.233   2.425   5.733 -1.5776  1.2300 -0.9639
 7655SOL     OW34426   3.234   3.161   3.279  0.3747  0.5436 -0.4041
 7655SOL    HW134427   3.160   3.112   3.317  1.2233 -0.6924 -0.3266
 7655SOL    HW234428   3.181   3.230   3.239  0.2856  0.5508 -0.2761
 7656SOL     OW34429   0.526   3.672  12.632 -0.0280  0.3561  0.0865
 7656SOL    HW134430   0.598   3.707  12.580 -0.4038 -1.6543 -1.7970
 7656SOL    HW234431   0.582   3.613  12.682  0.4012  0.0721 -0.7352
 7657SOL     OW34432   2.931   3.166   5.198  0.0369 -0.3526 -0.2595
 7657SOL    HW134433   2.948   3.248   5.151  0.7681 -1.0901 -1.2990
 7657SOL    HW234434   2.963   3.099   5.137  1.4831  0.0518  0.0676
 7658SOL     OW34435   1.472   0.724   3.545 -0.2410 -0.2624  0.1945
 7658SOL    HW134436   1.407   0.654   3.549 -0.9033  0.3984  1.2060
 7658SOL    HW234437   1.554   0.677   3.530 -0.3630  0.2721 -2.0259
 7659SOL     OW34438   1.620   4.082   5.558  0.3569  0.2511  0.4693
 7659SOL    HW134439   1.636   4.072   5.652  0.7339  0.2450  0.4023
 7659SOL    HW234440   1.671   4.161   5.539  0.1509 -0.1920 -1.9846
 7660SOL     OW34441   2.117   2.399   8.497  0.1104 -0.6397 -0.3589
 7660SOL    HW134442   2.179   2.464   8.531 -0.7752  1.5045 -2.8695
 7660SOL    HW234443   2.033   2.444   8.503  1.3580  1.7378 -0.5111
 7661SOL     OW34444   1.634   0.686   8.923  0.3922  0.5091  0.5431
 7661SOL    HW134445   1.603   0.769   8.887  3.3565  2.1858  1.8661
 7661SOL    HW234446   1.637   0.705   9.017  0.0311  1.5331  0.3549
 7662SOL     OW34447   0.474   0.183   0.386  0.6723  0.4435 -0.7447
 7662SOL    HW134448   0.385   0.197   0.356  0.2438  1.3431  0.9224
 7662SOL    HW234449   0.469   0.233   0.468 -0.4278 -1.6977  0.5030
 7663SOL     OW34450   0.364   4.701  11.970 -0.2949 -0.0247  0.2320
 7663SOL    HW134451   0.400   4.618  12.001  0.3086  0.1449 -0.0095
 7663SOL    HW234452   0.413   4.724  11.891 -1.2803 -0.9207 -0.6316
 7664SOL     OW34453   0.720   2.052   4.045  0.5230 -0.0851 -0.7822
 7664SOL    HW134454   0.716   1.990   4.118 -2.2494  0.4911 -0.4403
 7664SOL    HW234455   0.668   2.127   4.074 -0.9694 -0.8928 -1.3528
 7665SOL     OW34456   2.930   1.892   3.503  0.2276 -0.0252  0.4562
 7665SOL    HW134457   2.921   1.986   3.488 -1.8556 -0.3141 -0.1549
 7665SOL    HW234458   2.917   1.857   3.414  0.7802  1.1483 -0.0781
 7666SOL     OW34459   3.424   1.679  10.816  0.9430  0.2965  0.4484
 7666SOL    HW134460   3.486   1.732  10.766  3.1883 -1.2681  1.6356
 7666SOL    HW234461   3.360   1.739  10.856 -0.2156 -1.3224  1.0239
 7667SOL     OW34462   3.479   0.605   3.353 -0.0232 -0.0389 -0.1711
 7667SOL    HW134463   3.571   0.615   3.330  0.0553 -2.6424 -1.0248
 7667SOL    HW234464   3.425   0.601   3.274  0.8658 -2.6497 -0.6409
 7668SOL     OW34465   3.985   3.359   8.413 -0.7106  0.6299 -0.1120
 7668SOL    HW134466   3.995   3.412   8.334  0.1437 -2.3376 -2.0173
 7668SOL    HW234467   3.890   3.350   8.418 -0.7912  1.6158 -0.0071
 7669SOL     OW34468   3.971   0.113   6.997 -0.4467  0.3180 -0.1788
 7669SOL    HW134469   4.002   0.023   6.986  1.6483  0.9956  0.1379
 7669SOL    HW234470   3.884   0.099   6.959 -0.4386 -0.1891 -0.0089
 7670SOL     OW34471   1.362   4.350  11.816  0.8742 -0.0901  0.4450
 7670SOL    HW134472   1.440   4.338  11.762  2.1164  0.0097  2.2040
 7670SOL    HW234473   1.300   4.303  11.759  0.5328  0.5739  0.2751
 7671SOL     OW34474   2.809   4.628   7.144 -0.1470 -0.3491 -0.2051
 7671SOL    HW134475   2.834   4.536   7.138  0.3887 -0.2614  0.7202
 7671SOL    HW234476   2.877   4.655   7.204  0.6020 -0.5641 -0.9587
 7672SOL     OW34477   3.480   3.042   8.027  0.2647  0.0885 -0.5338
 7672SOL    HW134478   3.460   3.108   7.960 -1.7580  0.0333  0.0388
 7672SOL    HW234479   3.537   2.983   7.977 -0.6800 -0.6605 -0.7187
 7673SOL     OW34480   1.819   4.305  16.707  0.2698 -0.4130 -0.1186
 7673SOL    HW134481   1.805   4.398  16.726  0.3737  0.5564 -4.7890
 7673SOL    HW234482   1.843   4.312  16.615 -2.7574 -0.0942 -0.8965
 7674SOL     OW34483   1.510   1.730   2.669 -0.0702  0.0192  0.2168
 7674SOL    HW134484   1.486   1.726   2.576 -1.2827 -1.1832  0.5768
 7674SOL    HW234485   1.604   1.740   2.656  0.0384 -0.3681  0.7048
 7675SOL     OW34486   3.551   0.882   3.985  0.0667 -0.0309  0.1082
 7675SOL    HW134487   3.545   0.843   3.898  1.5688  1.3749 -0.5964
 7675SOL    HW234488   3.491   0.955   3.999 -0.8341 -0.6717 -0.3886
 7676SOL     OW34489   3.838   1.586   7.397  0.7374 -0.0322 -0.4908
 7676SOL    HW134490   3.764   1.647   7.398 -0.5430 -1.5907 -0.1944
 7676SOL    HW234491   3.901   1.647   7.436  2.0655 -1.3049 -0.6576
 7677SOL     OW34492   2.595   1.129  17.011  0.2748 -0.0194  0.1967
 7677SOL    HW134493   2.599   1.036  16.987  1.2947  0.2040 -0.5026
 7677SOL    HW234494   2.578   1.166  16.924  1.5061  0.6630  0.2596
 7678SOL     OW34495   2.919   0.668   2.111  0.0596  0.0238  0.2559
 7678SOL    HW134496   2.840   0.629   2.148 -1.3437  2.0601 -0.5860
 7678SOL    HW234497   2.964   0.593   2.073 -2.2373 -0.6386 -1.1494
 7679SOL     OW34498   2.328   1.527   0.942  0.9297 -0.1126  0.5247
 7679SOL    HW134499   2.415   1.488   0.949 -0.0244 -2.4738 -0.6141
 7679SOL    HW234500   2.340   1.597   0.878  0.5682 -0.5990 -0.0726
 7680SOL     OW34501   0.964   1.337   8.739 -0.6525 -0.2486 -0.2930
 7680SOL    HW134502   0.896   1.322   8.673 -0.0126  0.4138 -1.1059
 7680SOL    HW234503   0.967   1.433   8.743  1.1386 -0.2589 -1.2975
 7681SOL     OW34504   4.495   0.877   4.683  0.0768 -0.0601  0.6024
 7681SOL    HW134505   4.432   0.846   4.617  0.7356  1.4665 -0.7494
 7681SOL    HW234506   4.441   0.941   4.728  0.1353 -0.3465  1.0745
 7682SOL     OW34507   1.251   3.943   6.958  0.4115 -0.2004  0.2131
 7682SOL    HW134508   1.200   3.976   6.885 -0.5544  0.3555  1.1301
 7682SOL    HW234509   1.333   3.993   6.954  0.4100 -0.3214 -1.2038
 7683SOL     OW34510   3.780   2.734  10.376 -0.5413 -0.2441  0.1139
 7683SOL    HW134511   3.742   2.653  10.343 -0.3386  0.4356 -1.8140
 7683SOL    HW234512   3.861   2.731  10.325 -1.3000  1.6678 -1.2335
 7684SOL     OW34513   2.719   3.306   5.710  0.1850 -0.0785  0.0312
 7684SOL    HW134514   2.641   3.355   5.734  2.0670  2.2237  1.3883
 7684SOL    HW234515   2.698   3.219   5.745 -0.3641  0.9784  2.3415
 7685SOL     OW34516   3.055   1.892  12.778  0.6297 -0.5162 -0.2106
 7685SOL    HW134517   3.033   1.833  12.706 -3.1909  0.2202  0.3234
 7685SOL    HW234518   3.024   1.845  12.856  3.7772 -1.8757  0.2200
 7686SOL     OW34519   0.718   0.913   4.644 -0.0990  0.8258 -0.0424
 7686SOL    HW134520   0.758   0.996   4.669 -0.1541  0.8061  0.1150
 7686SOL    HW234521   0.751   0.907   4.554  0.8044 -0.1123  0.3519
 7687SOL     OW34522   1.166   0.564  13.235  0.0452 -0.0630 -0.5696
 7687SOL    HW134523   1.189   0.504  13.307  2.3553  0.8298 -0.5542
 7687SOL    HW234524   1.071   0.562  13.234 -0.0333  0.7385  2.2359
 7688SOL     OW34525   2.000   0.019   0.508  0.2875  0.6231 -0.2178
 7688SOL    HW134526   2.024   0.090   0.449 -0.0445  0.4275 -0.5862
 7688SOL    HW234527   1.943   0.068   0.568 -0.6047 -2.0142  1.1010
 7689SOL     OW34528   2.561   3.915   6.790  0.5850  0.2514 -0.0339
 7689SOL    HW134529   2.588   3.833   6.747  1.4084 -0.7621  2.4062
 7689SOL    HW234530   2.468   3.900   6.802  0.7175  0.5192  1.3632
 7690SOL     OW34531   2.392   4.444   1.455 -0.3709 -0.0391  0.1580
 7690SOL    HW134532   2.456   4.389   1.409 -1.8423  0.7997 -2.9242
 7690SOL    HW234533   2.323   4.378   1.461 -0.4991 -0.0974 -1.9072
 7691SOL     OW34534   0.073   0.187   5.380 -0.5177  0.5637 -0.7161
 7691SOL    HW134535   0.021   0.247   5.434 -2.9895 -1.3673 -0.9351
 7691SOL    HW234536   0.139   0.149   5.438  0.5721  0.9401 -1.6949
 7692SOL     OW34537   1.424   3.971  10.783 -0.6541  0.6398  0.0489
 7692SOL    HW134538   1.452   4.053  10.743  0.5730  0.1978 -0.0242
 7692SOL    HW234539   1.342   3.961  10.735  0.7317  0.2491 -2.2318
 7693SOL     OW34540   1.447   0.988   5.044  0.0813  0.2191  0.2235
 7693SOL    HW134541   1.409   1.062   5.091  1.4543  1.0875 -0.0523
 7693SOL    HW234542   1.477   0.925   5.110  3.0005  0.0585 -1.2512
 7694SOL     OW34543   0.046   3.477  14.869  1.0201  0.2830  0.0649
 7694SOL    HW134544   4.724   3.544  14.917 -0.9311  0.2901 -1.9244
 7694SOL    HW234545   4.698   3.434  14.828  0.0308  1.8785  0.2071
 7695SOL     OW34546   4.557   3.841   8.120  0.5659 -0.7030  0.1083
 7695SOL    HW134547   4.551   3.787   8.041 -2.3102 -0.4266  0.1438
 7695SOL    HW234548   4.464   3.863   8.122  0.1446 -2.4066 -0.0898
 7696SOL     OW34549   1.536   2.551   1.330 -0.1116  0.0638 -0.0868
 7696SOL    HW134550   1.472   2.510   1.272 -0.7797 -0.0728  0.7329
 7696SOL    HW234551   1.523   2.509   1.415 -0.6777 -1.7725 -1.0953
 7697SOL     OW34552   3.762   0.298   1.890  1.0667 -0.1724 -0.0290
 7697SOL    HW134553   3.857   0.305   1.894  1.1612 -1.2491 -0.5780
 7697SOL    HW234554   3.729   0.384   1.862  1.5094  0.0526  0.1421
 7698SOL     OW34555   2.861   2.263   5.363  0.0575  0.2714 -0.3780
 7698SOL    HW134556   2.855   2.349   5.405  0.8840 -0.9559  2.2610
 7698SOL    HW234557   2.940   2.277   5.311  0.2833 -1.0983 -0.4242
 7699SOL     OW34558   1.632   0.360   8.967 -0.2336 -0.1956  0.7275
 7699SOL    HW134559   1.696   0.289   8.972 -1.2371 -0.9940  1.9847
 7699SOL    HW234560   1.689   0.435   8.950 -1.7781  1.3982  2.6067
 7700SOL     OW34561   0.680   2.292   9.570 -0.1782 -0.5737 -0.2369
 7700SOL    HW134562   0.727   2.209   9.567  1.6952  0.3464  2.7542
 7700SOL    HW234563   0.618   2.284   9.643 -1.9634 -0.3794 -1.7320
 7701SOL     OW34564   3.228   2.944   3.750  0.1658  0.1373 -0.3058
 7701SOL    HW134565   3.321   2.934   3.769 -0.0707 -1.0461  0.2316
 7701SOL    HW234566   3.231   3.039   3.737  1.8971 -0.3398 -3.4311
 7702SOL     OW34567   1.780   3.935   2.621  0.3634 -0.0366 -0.6487
 7702SOL    HW134568   1.733   3.852   2.614  1.8768 -0.9458 -0.0285
 7702SOL    HW234569   1.840   3.905   2.690  0.8474 -1.9534 -1.9198
 7703SOL     OW34570   2.163   1.308   7.605  0.2576  0.0320 -0.0573
 7703SOL    HW134571   2.160   1.401   7.584  1.1685  0.0222 -0.2649
 7703SOL    HW234572   2.247   1.318   7.650  0.7412 -1.0414 -0.7116
 7704SOL     OW34573   4.591   4.195   2.406  0.1256 -0.0786 -0.3940
 7704SOL    HW134574   4.625   4.136   2.473 -0.0004 -0.4422 -0.6478
 7704SOL    HW234575   4.531   4.138   2.358  0.9439 -1.5590  0.3366
 7705SOL     OW34576   3.053   0.650   4.676  0.5328 -0.5025  0.0544
 7705SOL    HW134577   3.103   0.620   4.752 -0.8513 -2.4802  0.1806
 7705SOL    HW234578   3.010   0.573   4.638  0.1949 -0.0698 -0.4443
 7706SOL     OW34579   4.620   0.881   0.156 -0.4326 -0.3479  0.1841
 7706SOL    HW134580   4.679   0.805   0.161  1.7849  1.3272 -0.2020
 7706SOL    HW234581   4.623   0.906   0.248  0.6304 -3.6209  1.0580
 7707SOL     OW34582   0.184   2.486   4.858 -0.1115 -0.2010 -0.2466
 7707SOL    HW134583   0.227   2.454   4.937 -0.0859  0.6466  0.0817
 7707SOL    HW234584   0.131   2.408   4.842  3.6483 -3.0197  1.0924
 7708SOL     OW34585   4.118   1.942  10.396  0.0445  0.0238 -0.2021
 7708SOL    HW134586   4.192   2.003  10.400  1.3316 -1.6720  1.9369
 7708SOL    HW234587   4.142   1.875  10.332  0.4243 -1.2710  1.2911
 7709SOL     OW34588   3.860   3.095   3.488  0.4716 -0.3313  0.7802
 7709SOL    HW134589   3.947   3.121   3.518  0.9057 -1.5086  0.5647
 7709SOL    HW234590   3.858   3.001   3.507  1.3709 -0.9920 -2.4951
 7710SOL     OW34591   2.777   2.816   4.009  0.9540  0.3222 -0.0492
 7710SOL    HW134592   2.777   2.912   4.002  2.6137  0.3260 -0.0835
 7710SOL    HW234593   2.690   2.795   4.041  1.5006 -2.6386 -0.5255
 7711SOL     OW34594   4.512   4.420   2.521  0.4360 -0.1146 -0.2846
 7711SOL    HW134595   4.513   4.339   2.470  1.2409  0.3880 -1.0690
 7711SOL    HW234596   4.573   4.471   2.468 -3.1883  3.6300 -0.8423
 7712SOL     OW34597   2.100   2.529  10.807 -0.0394 -0.2814  0.5673
 7712SOL    HW134598   2.010   2.523  10.838 -0.4552 -0.5227 -0.6744
 7712SOL    HW234599   2.112   2.451  10.752 -0.9717 -0.1043  0.1141
 7713SOL     OW34600   1.585   3.732  13.237 -0.4450  0.0855  0.0873
 7713SOL    HW134601   1.571   3.790  13.311 -1.1410 -0.7241  0.5872
 7713SOL    HW234602   1.648   3.783  13.186 -0.4162  0.2919  0.3277
 7714SOL     OW34603   1.845   3.798   4.634  0.0038  0.3221 -0.2053
 7714SOL    HW134604   1.770   3.747   4.605  1.8200 -1.3104 -2.0496
 7714SOL    HW234605   1.916   3.733   4.635  1.8584  2.3164 -0.2849
 7715SOL     OW34606   4.458   1.705   4.141  0.1791 -0.4974  0.0332
 7715SOL    HW134607   4.412   1.686   4.059 -0.1597  2.1374 -0.3798
 7715SOL    HW234608   4.432   1.797   4.144  3.5161  0.3204  2.8961
 7716SOL     OW34609   4.185   0.722  16.066 -0.1818 -0.5502 -0.1854
 7716SOL    HW134610   4.184   0.806  16.112 -0.7942  0.1636 -1.4678
 7716SOL    HW234611   4.279   0.702  16.065  0.2995  1.6796 -1.1290
 7717SOL     OW34612   1.652   3.325  17.352 -0.5007 -0.2037  0.2358
 7717SOL    HW134613   1.627   3.366  17.269  0.3922 -2.0348 -0.9563
 7717SOL    HW234614   1.679   3.239  17.320 -2.3406 -1.5146  2.1838
 7718SOL     OW34615   0.414   4.145   8.009  0.6439 -0.2502 -0.1470
 7718SOL    HW134616   0.384   4.194   8.086  1.5052 -1.2256  0.8086
 7718SOL    HW234617   0.417   4.058   8.048 -1.2581 -1.1019 -1.8907
 7719SOL     OW34618   3.010   3.918   4.733  0.0504  0.7050 -0.5155
 7719SOL    HW134619   3.088   3.879   4.695 -0.5277  0.0181 -1.0010
 7719SOL    HW234620   3.032   4.011   4.737 -0.3583  0.7685  0.2548
 7720SOL     OW34621   2.436   4.499   5.174  0.1566 -0.6751 -0.1949
 7720SOL    HW134622   2.409   4.424   5.226  0.1932 -0.7717 -0.3150
 7720SOL    HW234623   2.531   4.488   5.178  0.2807  0.4633 -0.1006
 7721SOL     OW34624   4.516   2.731   4.567  0.3908  0.0989  0.2314
 7721SOL    HW134625   4.511   2.670   4.641 -1.9515 -1.0788 -0.8867
 7721SOL    HW234626   4.601   2.773   4.582 -0.4366  2.7881 -2.6956
 7722SOL     OW34627   3.433   3.283   1.297 -0.0445 -0.1464 -0.4001
 7722SOL    HW134628   3.510   3.297   1.353 -0.9485  3.2349  0.0177
 7722SOL    HW234629   3.368   3.250   1.359  0.9417  0.3471  0.8999
 7723SOL     OW34630   0.946   3.792   8.479 -0.4707 -0.5787 -0.4673
 7723SOL    HW134631   1.015   3.752   8.532 -0.4740  0.1076  0.0575
 7723SOL    HW234632   0.865   3.755   8.516  0.1596 -0.1648  1.3225
 7724SOL     OW34633   1.948   0.843   9.903  0.2832  0.3606  0.0586
 7724SOL    HW134634   1.908   0.912   9.955 -0.4586 -0.2969  0.3538
 7724SOL    HW234635   1.932   0.882   9.817 -0.4018  2.0479  0.9474
 7725SOL     OW34636   2.346   4.370   8.934 -0.4117 -0.2173 -0.1311
 7725SOL    HW134637   2.437   4.362   8.908 -0.6039 -0.7566 -0.6262
 7725SOL    HW234638   2.340   4.287   8.981  2.4770 -0.4306 -0.1458
 7726SOL     OW34639   0.399   3.621   8.495 -0.1188 -0.2092 -0.4764
 7726SOL    HW134640   0.369   3.709   8.473  0.6577  0.2127  0.1651
 7726SOL    HW234641   0.315   3.589   8.528 -0.3531  0.6708 -0.2457
 7727SOL     OW34642   2.014   0.095   2.970  0.5293  0.2598 -0.0592
 7727SOL    HW134643   2.039   0.184   2.995  1.4484  0.1456 -0.5428
 7727SOL    HW234644   2.071   0.074   2.895 -0.3256 -0.5952 -0.4659
 7728SOL     OW34645   1.668   1.853   4.576  0.3440 -0.2320 -0.0116
 7728SOL    HW134646   1.665   1.948   4.568  1.5231 -0.1276  0.8042
 7728SOL    HW234647   1.575   1.829   4.574  0.1950  0.6020 -2.1599
 7729SOL     OW34648   0.074   2.746   5.133  0.1141  0.1369  0.4582
 7729SOL    HW134649   0.012   2.776   5.067  1.9504 -0.0779 -1.3716
 7729SOL    HW234650   0.026   2.680   5.183  0.0504 -1.1757 -1.3315
 7730SOL     OW34651   3.496   2.741  16.917  0.2865  0.1876  0.1652
 7730SOL    HW134652   3.483   2.652  16.884 -0.2558  0.5078 -0.4955
 7730SOL    HW234653   3.408   2.767  16.943  0.0178 -1.0728  0.4981
 7731SOL     OW34654   4.541   0.990   9.578  0.2211 -0.4900 -0.1340
 7731SOL    HW134655   4.524   0.999   9.484  0.1009  2.5160  0.1929
 7731SOL    HW234656   4.620   1.044   9.588 -0.9774  1.5545 -1.7906
 7732SOL     OW34657   2.687   4.608   1.214 -0.2091 -0.1972  0.1412
 7732SOL    HW134658   2.677   4.670   1.142 -1.7141 -1.7718 -1.0163
 7732SOL    HW234659   2.687   4.664   1.292 -1.1540 -1.1530  0.8336
 7733SOL     OW34660   2.622   0.485   8.981 -0.3764 -0.6049  0.2895
 7733SOL    HW134661   2.629   0.513   8.889 -1.2255  1.0807  0.7326
 7733SOL    HW234662   2.533   0.451   8.984 -0.3411 -0.7260 -0.0174
 7734SOL     OW34663   1.143   4.079   7.482  0.1884  0.0899 -0.2979
 7734SOL    HW134664   1.070   4.137   7.503  1.5469  1.7795 -0.2539
 7734SOL    HW234665   1.166   4.104   7.392  1.1286  1.2345  0.2569
 7735SOL     OW34666   0.523   1.834   5.898 -0.1629 -0.5391  0.5616
 7735SOL    HW134667   0.528   1.840   5.993 -0.3538  1.9617  0.3977
 7735SOL    HW234668   0.433   1.806   5.878 -0.7449  0.9315  1.1666
 7736SOL     OW34669   0.645   4.442  12.860 -0.4676  0.1861  0.2010
 7736SOL    HW134670   0.560   4.481  12.882  0.8375  1.9427  2.1435
 7736SOL    HW234671   0.707   4.499  12.905 -1.7383  2.6670 -1.2045
 7737SOL     OW34672   3.894   1.789   1.060  0.1326 -0.1549  0.1475
 7737SOL    HW134673   3.912   1.743   1.142 -0.3874 -2.1680 -0.8850
 7737SOL    HW234674   3.977   1.765   1.020  1.6671  1.3292  2.3944
 7738SOL     OW34675   0.394   3.669   5.611  0.5205  0.3280 -0.3858
 7738SOL    HW134676   0.422   3.582   5.582 -0.6543  0.7787 -2.8455
 7738SOL    HW234677   0.466   3.697   5.668 -0.4046  1.3039  0.3077
 7739SOL     OW34678   3.709   1.826   5.240 -0.4064 -0.2767 -0.1390
 7739SOL    HW134679   3.666   1.769   5.177 -2.9919 -1.3838  2.6196
 7739SOL    HW234680   3.679   1.777   5.317 -0.9897  1.0638  0.4889
 7740SOL     OW34681   1.373   3.551   1.168 -0.1462 -0.0740 -0.1988
 7740SOL    HW134682   1.467   3.563   1.149 -0.0667  0.0600  0.2914
 7740SOL    HW234683   1.348   3.623   1.110  2.1037  0.1463 -0.9143
 7741SOL     OW34684   4.700   2.903   0.212 -0.3904 -0.1639  0.4649
 7741SOL    HW134685   4.615   2.900   0.167 -0.8478  0.3800  1.2986
 7741SOL    HW234686   4.703   2.810   0.234  1.2135 -0.1571  0.2419
 7742SOL     OW34687   0.971   2.002   9.267 -0.0901  0.1189  0.3900
 7742SOL    HW134688   1.055   2.044   9.244  0.1934  0.4419  1.9991
 7742SOL    HW234689   0.995   1.910   9.273  0.9543  0.5508  2.6669
 7743SOL     OW34690   3.418   3.201   3.475 -0.2132 -0.3031  0.0257
 7743SOL    HW134691   3.353   3.161   3.417 -1.2224 -0.0119  0.9564
 7743SOL    HW234692   3.506   3.182   3.443  0.5841 -1.3072  2.7970
 7744SOL     OW34693   0.079   0.300   4.526  0.0849 -0.2965 -0.5684
 7744SOL    HW134694   0.164   0.271   4.494 -0.1783 -1.5930 -0.0819
 7744SOL    HW234695   0.021   0.284   4.452 -2.9954  1.4255  1.4375
 7745SOL     OW34696   1.874   0.494   9.706  0.0974  0.1023  0.1960
 7745SOL    HW134697   1.885   0.552   9.631  1.0542 -0.1883  0.1139
 7745SOL    HW234698   1.824   0.422   9.667 -0.3654  1.3424 -1.5141
 7746SOL     OW34699   3.180   4.390   8.017  0.4411  0.2244 -0.4154
 7746SOL    HW134700   3.150   4.412   8.105 -0.1707  1.4952 -0.9413
 7746SOL    HW234701   3.273   4.384   8.037  0.7167  0.0736 -1.7632
 7747SOL     OW34702   2.743   1.483  16.907  0.2253  0.6034  0.0623
 7747SOL    HW134703   2.764   1.427  16.982 -4.5218 -0.3287  0.6788
 7747SOL    HW234704   2.723   1.569  16.944  0.2237 -0.0259  1.5282
 7748SOL     OW34705   1.149   1.747  13.351 -0.2532 -0.0640  0.7327
 7748SOL    HW134706   1.098   1.799  13.413 -1.0434  0.7902 -0.6483
 7748SOL    HW234707   1.114   1.776  13.266  0.6278 -0.9284  0.0809
 7749SOL     OW34708   3.121   1.627   7.534 -0.1537 -0.6892  0.0446
 7749SOL    HW134709   3.056   1.571   7.577 -0.8574 -1.0914 -1.5266
 7749SOL    HW234710   3.113   1.597   7.443 -1.2459 -2.1643  0.6187
 7750SOL     OW34711   0.963   2.388   7.553 -0.1110  0.4232  0.0581
 7750SOL    HW134712   1.010   2.426   7.627 -0.1435 -0.3651  0.4739
 7750SOL    HW234713   0.985   2.433   7.471  1.8319 -1.4208 -0.4262
 7751SOL     OW34714   3.872   2.220  14.584 -0.0609 -0.0768 -0.2486
 7751SOL    HW134715   3.949   2.163  14.581  0.5962  0.8303 -0.8514
 7751SOL    HW234716   3.910   2.305  14.606 -3.5603  0.8173  2.3768
 7752SOL     OW34717   3.678   3.297   4.909 -0.1065 -0.4861  0.2256
 7752SOL    HW134718   3.600   3.255   4.873 -1.5537  1.4927  1.0301
 7752SOL    HW234719   3.660   3.307   5.003  0.2423  0.2424  0.2159
 7753SOL     OW34720   0.196   1.490   5.643  0.1855 -0.0043  0.3379
 7753SOL    HW134721   0.267   1.439   5.604 -1.9330 -2.9591  0.3427
 7753SOL    HW234722   0.132   1.423   5.667 -0.2718  0.9441  1.7652
 7754SOL     OW34723   3.390   0.865   1.478 -0.2014 -0.4733  0.4099
 7754SOL    HW134724   3.447   0.839   1.551 -0.7232  2.3054  1.8000
 7754SOL    HW234725   3.423   0.822   1.399 -0.1425  2.9703 -1.4549
 7755SOL     OW34726   2.651   0.153  12.289  0.1000  0.3369  0.4445
 7755SOL    HW134727   2.721   0.166  12.225  1.3551 -0.1096  1.7214
 7755SOL    HW234728   2.655   0.236  12.338  3.3545 -0.0555  0.8654
 7756SOL     OW34729   3.209   0.079   8.913 -0.7656 -0.2568  0.6178
 7756SOL    HW134730   3.271   0.143   8.947 -1.2043 -0.7365  2.3305
 7756SOL    HW234731   3.185   0.114   8.828  1.8954 -0.0835 -0.0533
 7757SOL     OW34732   4.273   2.237   0.674  0.4703  0.3605 -0.7526
 7757SOL    HW134733   4.249   2.154   0.716 -0.6700  0.6982 -0.7290
 7757SOL    HW234734   4.203   2.240   0.608 -0.6509  0.4487  0.4290
 7758SOL     OW34735   1.140   1.460  13.729 -0.5761 -0.1223 -0.3866
 7758SOL    HW134736   1.155   1.554  13.740  2.6133 -0.6401 -0.2357
 7758SOL    HW234737   1.208   1.422  13.784  0.4984  1.0168 -0.9373
 7759SOL     OW34738   4.319   1.203   5.121  0.0723 -0.8405  0.2141
 7759SOL    HW134739   4.311   1.293   5.088 -2.0600 -0.6881  1.1711
 7759SOL    HW234740   4.248   1.190   5.183  2.2173  0.4963  2.9110
 7760SOL     OW34741   1.795   4.654  17.010 -0.3219 -0.0074 -0.2004
 7760SOL    HW134742   1.722   4.595  17.031  0.3751 -0.4799  0.9205
 7760SOL    HW234743   1.807   4.632  16.918 -2.9322  1.1566 -0.8328
 7761SOL     OW34744   2.445   0.831   2.731 -0.4787  0.4502 -0.1399
 7761SOL    HW134745   2.378   0.886   2.690  1.9405  2.7237 -0.9577
 7761SOL    HW234746   2.486   0.884   2.800  0.5779 -0.3304 -0.1646
 7762SOL     OW34747   1.265   4.707   8.277  0.1094 -0.2378 -0.1002
 7762SOL    HW134748   1.203   4.641   8.307 -1.9048  2.2614  1.2636
 7762SOL    HW234749   1.231   0.061   8.316  2.2984  0.3997  0.4999
 7763SOL     OW34750   4.037   1.449   4.977 -0.1343 -0.1581 -0.6179
 7763SOL    HW134751   3.989   1.487   4.903 -0.4963  1.5199  0.4732
 7763SOL    HW234752   4.044   1.360   4.943  0.8555 -0.3501  0.0921
 7764SOL     OW34753   3.304   4.626  12.028 -0.2681  0.5572 -0.0345
 7764SOL    HW134754   3.353   4.682  12.088  2.1005 -1.7564  0.1835
 7764SOL    HW234755   3.365   4.553  12.018 -0.6226  0.1469  0.8035
 7765SOL     OW34756   4.331   1.700   6.699  0.6034  0.4025 -0.4055
 7765SOL    HW134757   4.297   1.629   6.754 -1.7190  0.0586 -2.2786
 7765SOL    HW234758   4.247   1.739   6.675  0.1423  1.0361  2.2501
 7766SOL     OW34759   4.671   0.892  10.132  0.2639 -0.0112 -0.4207
 7766SOL    HW134760   4.621   0.843  10.197  4.0647 -2.3493  0.7806
 7766SOL    HW234761   4.613   0.913  10.058  0.7759 -1.1696 -1.1571
 7767SOL     OW34762   0.171   0.763   1.701  0.3501  0.1010  0.3557
 7767SOL    HW134763   0.233   0.701   1.739  1.0730 -0.5072 -1.8398
 7767SOL    HW234764   0.117   0.780   1.778 -1.5088 -0.4745 -0.8268
 7768SOL     OW34765   4.643   1.533   1.184  0.0803 -0.4014 -0.5001
 7768SOL    HW134766   4.687   1.536   1.269 -1.4954 -0.0404  0.3211
 7768SOL    HW234767   4.562   1.490   1.215  0.8540 -1.2451  0.3545
 7769SOL     OW34768   2.783   3.712  15.021  0.7537 -0.2087 -0.3303
 7769SOL    HW134769   2.756   3.679  15.106 -1.7590  0.1453 -0.9814
 7769SOL    HW234770   2.698   3.746  14.993 -0.6674 -3.2178  0.2925
 7770SOL     OW34771   1.502   0.534   4.439 -0.7855  0.3687  0.4974
 7770SOL    HW134772   1.567   0.535   4.509  0.2399  1.5964 -0.4664
 7770SOL    HW234773   1.450   0.610   4.464  1.7574  2.5010 -0.7186
 7771SOL     OW34774   4.623   4.660   2.394 -0.4927 -0.2480 -0.2567
 7771SOL    HW134775   4.544   4.711   2.407 -0.2924  0.4071 -1.5736
 7771SOL    HW234776   4.674   4.691   2.469 -0.1907 -1.0469 -0.1293
 7772SOL     OW34777   2.781   2.092  15.288  0.5890  0.7632  0.4790
 7772SOL    HW134778   2.865   2.054  15.261 -0.4676 -1.2230  0.0037
 7772SOL    HW234779   2.806   2.159  15.351  1.5819  1.8918 -1.0877
 7773SOL     OW34780   1.155   2.329   2.212  0.2834 -0.4410 -0.0814
 7773SOL    HW134781   1.251   2.325   2.205 -0.0202 -2.1638 -3.1678
 7773SOL    HW234782   1.129   2.364   2.127  1.4099  1.1034  0.2208
 7774SOL     OW34783   3.071   0.754  16.684 -0.0469 -0.4475 -0.1804
 7774SOL    HW134784   2.982   0.742  16.649 -1.2608  1.8834  2.1181
 7774SOL    HW234785   3.117   0.739  16.601 -0.3786  0.8334 -0.5989
 7775SOL     OW34786   2.937   2.826   2.569 -0.3285  0.2939  0.0991
 7775SOL    HW134787   2.947   2.787   2.482 -2.4445  1.6735 -0.7532
 7775SOL    HW234788   2.848   2.860   2.570 -0.2755  0.3888  1.2546
 7776SOL     OW34789   4.355   3.114   0.203 -0.5792  0.0139  0.5832
 7776SOL    HW134790   4.411   3.114   0.280 -0.3861  2.5610  0.4197
 7776SOL    HW234791   4.392   3.041   0.153 -1.8623  0.0737 -0.4502
 7777SOL     OW34792   2.509   4.683  10.672  0.0099  0.5396  0.1379
 7777SOL    HW134793   2.560   4.662  10.750 -0.8543  1.2631  0.9045
 7777SOL    HW234794   2.418   4.669  10.697  0.5475  1.0289  2.2987
 7778SOL     OW34795   2.439   0.446   7.204 -0.0058 -0.0622  0.3883
 7778SOL    HW134796   2.533   0.431   7.196  0.3769  2.3901  0.1052
 7778SOL    HW234797   2.427   0.411   7.292 -1.5030 -1.4072 -0.3496
 7779SOL     OW34798   0.067   0.613   7.614 -0.7067  0.5845 -0.4287
 7779SOL    HW134799   0.003   0.685   7.611 -1.1415  0.1691 -1.2298
 7779SOL    HW234800   0.051   0.578   7.701 -0.9557 -2.0380 -1.5441
 7780SOL     OW34801   2.206   3.492  12.872 -0.2800 -0.1478 -0.0386
 7780SOL    HW134802   2.180   3.445  12.951  1.9957 -2.8463 -0.8423
 7780SOL    HW234803   2.202   3.420  12.809 -0.8345 -1.8974  1.9807
 7781SOL     OW34804   0.457   3.260   2.970  0.1685  0.2913  0.3562
 7781SOL    HW134805   0.416   3.337   2.930  0.9984  1.6258  2.0696
 7781SOL    HW234806   0.513   3.227   2.900 -1.0472 -1.3282  0.1542
 7782SOL     OW34807   2.365   0.230  12.678  0.2150 -0.3102 -0.3581
 7782SOL    HW134808   2.411   0.308  12.646  0.0518 -0.4978 -1.0566
 7782SOL    HW234809   2.426   0.164  12.644 -0.3348  0.0872 -2.1384
 7783SOL     OW34810   3.422   2.276  14.695 -0.5593 -0.4079  0.6051
 7783SOL    HW134811   3.484   2.344  14.666 -3.4567  2.5694  1.3550
 7783SOL    HW234812   3.407   2.225  14.615 -1.6294 -1.4348  1.4640
 7784SOL     OW34813   3.124   1.935   7.164  0.2592  0.0427 -0.1466
 7784SOL    HW134814   3.105   1.907   7.254  0.8989  0.8285  0.2301
 7784SOL    HW234815   3.076   2.017   7.156  2.4966  1.2766 -0.7643
 7785SOL     OW34816   0.448   0.617   6.299  0.1737  0.2421 -0.1505
 7785SOL    HW134817   0.509   0.592   6.230  0.0261  0.8967 -0.5196
 7785SOL    HW234818   0.500   0.666   6.362 -1.5116 -0.4299  1.7929
 7786SOL     OW34819   0.766   1.753   4.956  0.4391  0.4519 -0.2865
 7786SOL    HW134820   0.702   1.824   4.961 -1.0268 -0.8612 -0.3157
 7786SOL    HW234821   0.789   1.737   5.047 -2.7132  1.2366  0.6319
 7787SOL     OW34822   2.111   1.197  16.727  0.0330 -0.0795 -0.5422
 7787SOL    HW134823   2.068   1.274  16.764  0.2194 -0.9113  1.3871
 7787SOL    HW234824   2.173   1.235  16.664 -0.8562  0.4687 -1.0772
 7788SOL     OW34825   1.162   4.698  14.151 -0.0410 -0.2032  0.2214
 7788SOL    HW134826   1.169   0.065  14.133 -2.1463  0.0774  0.9090
 7788SOL    HW234827   1.078   4.680  14.108  1.5670  2.7912 -4.1817
 7789SOL     OW34828   2.650   3.339   3.728 -0.2441 -0.0788  0.1084
 7789SOL    HW134829   2.637   3.275   3.659  0.1658  0.0095 -0.0514
 7789SOL    HW234830   2.707   3.399   3.679  0.0045 -1.7915 -1.6765
 7790SOL     OW34831   4.645   3.300   8.285  1.0205 -0.3922  0.1604
 7790SOL    HW134832   4.650   3.396   8.280 -0.8649 -0.1578  2.8798
 7790SOL    HW234833   4.554   3.287   8.261  0.3886 -1.4375  3.1465
 7791SOL     OW34834   3.049   3.765   5.321  0.6036  0.4274  0.2451
 7791SOL    HW134835   3.084   3.808   5.399  2.0389  1.1276 -0.7732
 7791SOL    HW234836   3.007   3.840   5.279  0.0734 -0.2276 -0.3987
 7792SOL     OW34837   0.134   1.566  11.030  0.6620 -0.1867  0.5900
 7792SOL    HW134838   0.087   1.584  11.111 -0.0539 -1.2032  0.4022
 7792SOL    HW234839   0.208   1.623  11.051 -0.3329  1.0321  0.7897
 7793SOL     OW34840   1.380   1.791   6.724  0.2815 -0.3361  0.2902
 7793SOL    HW134841   1.344   1.723   6.781 -3.2290 -0.1920 -1.7799
 7793SOL    HW234842   1.473   1.769   6.726  0.4875  0.4974 -0.1484
 7794SOL     OW34843   0.224   2.729   2.806  0.9397 -0.2469 -0.3719
 7794SOL    HW134844   0.179   2.812   2.792  0.2611 -0.0215  3.0890
 7794SOL    HW234845   0.306   2.732   2.756  0.6601  1.6782 -0.7125
 7795SOL     OW34846   0.360   2.234  10.666 -0.5395 -0.1974  0.4203
 7795SOL    HW134847   0.405   2.152  10.643 -0.6221 -0.0539 -0.2392
 7795SOL    HW234848   0.269   2.206  10.659 -0.5294 -0.3739  0.9587
 7796SOL     OW34849   0.221   1.219   3.061  0.0255  0.2118  0.6252
 7796SOL    HW134850   0.263   1.150   3.111 -0.6745  1.2620  2.6765
 7796SOL    HW234851   0.150   1.161   3.033  1.2591 -0.1865 -1.7080
 7797SOL     OW34852   3.827   2.937   4.183 -0.1984 -0.0853  0.0711
 7797SOL    HW134853   3.836   2.920   4.277 -1.7795 -2.7034 -0.2478
 7797SOL    HW234854   3.734   2.957   4.173 -0.1140  0.0691 -0.3723
 7798SOL     OW34855   2.515   2.744   9.076  0.1585  0.5824  0.1907
 7798SOL    HW134856   2.503   2.649   9.074  0.0549  0.6056 -0.5000
 7798SOL    HW234857   2.583   2.751   9.143  0.3475 -0.0275  0.0679
 7799SOL     OW34858   1.893   1.824  11.390 -0.0033  0.4522 -0.7784
 7799SOL    HW134859   1.810   1.806  11.347 -1.1282  2.9993  0.3095
 7799SOL    HW234860   1.913   1.916  11.373 -1.3953  0.3888 -2.6421
 7800SOL     OW34861   2.331   4.024   6.296  0.0674 -0.6370 -0.4033
 7800SOL    HW134862   2.248   3.985   6.324 -0.7794  0.7511 -0.9813
 7800SOL    HW234863   2.330   4.005   6.202 -1.5488  1.5180 -0.8051
 7801SOL     OW34864   1.102   2.045   8.295 -0.0991  0.0312 -0.0091
 7801SOL    HW134865   1.008   2.060   8.303 -0.0770  0.5904 -0.7554
 7801SOL    HW234866   1.133   2.080   8.379  0.7746  1.4631 -0.9221
 7802SOL     OW34867   0.635   4.712  10.063 -0.2572 -0.3563 -0.1762
 7802SOL    HW134868   0.640   0.058  10.126 -1.8985 -0.6596  0.3164
 7802SOL    HW234869   0.712   0.020  10.019 -0.8564 -1.0473 -1.7490
 7803SOL     OW34870   2.497   3.848   4.788  0.4021  0.3887  0.0096
 7803SOL    HW134871   2.583   3.812   4.769 -1.1994 -3.0746 -0.7934
 7803SOL    HW234872   2.470   3.804   4.869 -0.7666 -0.8131 -1.0314
 7804SOL     OW34873   3.069   1.274   2.267 -0.2699 -0.1016 -0.1207
 7804SOL    HW134874   3.056   1.268   2.173  3.2778 -0.3852 -0.6158
 7804SOL    HW234875   3.082   1.181   2.287 -1.7355 -0.4857 -0.9831
 7805SOL     OW34876   0.020   3.051   3.359 -0.5112  0.2745  0.2862
 7805SOL    HW134877   0.097   3.071   3.307 -0.7941 -1.4824 -0.8269
 7805SOL    HW234878   4.717   3.141   3.351 -1.2038  0.0421  0.1834
 7806SOL     OW34879   3.885   4.404   3.461  0.4739  0.0422  0.0879
 7806SOL    HW134880   3.814   4.350   3.426  1.0881 -0.6127 -0.1512
 7806SOL    HW234881   3.859   4.391   3.552  0.8917 -4.2557 -0.4068
 7807SOL     OW34882   1.586   0.595   6.617 -0.4845  0.4359 -0.0614
 7807SOL    HW134883   1.619   0.510   6.647 -1.7936 -0.6136 -1.5876
 7807SOL    HW234884   1.563   0.631   6.703  0.6501  0.2320  0.3308
 7808SOL     OW34885   1.149   3.451  15.218  0.6797 -0.1530  0.3000
 7808SOL    HW134886   1.214   3.479  15.283  1.2273  1.7837 -1.0608
 7808SOL    HW234887   1.080   3.510  15.250  1.0009 -0.4331  1.5040
 7809SOL     OW34888   3.605   2.124  10.530 -0.6608  0.9030  0.1306
 7809SOL    HW134889   3.630   2.198  10.585 -1.1780  0.8514  0.4298
 7809SOL    HW234890   3.688   2.076  10.519 -1.1723  0.0512  0.0014
 7810SOL     OW34891   0.736   3.490   2.501  0.0494 -0.0397 -0.1052
 7810SOL    HW134892   0.671   3.421   2.502 -0.7198  0.6897  0.4373
 7810SOL    HW234893   0.761   3.494   2.409 -0.2431 -0.9164 -0.2176
 7811SOL     OW34894   3.204   3.082   6.427 -0.0679 -0.9286  0.1928
 7811SOL    HW134895   3.260   3.051   6.498  0.4204 -0.4165  0.0375
 7811SOL    HW234896   3.148   3.144   6.474 -0.1108 -1.1032  0.3681
 7812SOL     OW34897   2.544   4.282   8.035 -0.2227 -0.1335  0.2396
 7812SOL    HW134898   2.455   4.297   8.003  1.1009  1.5044 -2.6633
 7812SOL    HW234899   2.560   4.342   8.108 -1.4454  0.2593  0.1881
 7813SOL     OW34900   1.183   0.683   5.569  0.3239 -0.1974 -0.0847
 7813SOL    HW134901   1.215   0.732   5.494  1.2779 -0.9867 -0.1943
 7813SOL    HW234902   1.232   0.601   5.555  0.3646 -0.3577  0.9870
 7814SOL     OW34903   3.201   1.150   1.445  0.3106 -0.7330 -0.4338
 7814SOL    HW134904   3.174   1.067   1.485 -4.1993  1.5025  1.1673
 7814SOL    HW234905   3.133   1.213   1.472  0.8526 -0.3718  0.0887
 7815SOL     OW34906   0.678   3.427   7.958  0.3686 -0.9240  0.1064
 7815SOL    HW134907   0.671   3.503   8.016  0.3840 -0.0555 -1.0101
 7815SOL    HW234908   0.665   3.467   7.871  2.3295  0.7502  0.5800
 7816SOL     OW34909   4.718   3.661   8.803  0.1514  0.0967  0.3913
 7816SOL    HW134910   4.661   3.636   8.730  0.2431  0.4488  0.2029
 7816SOL    HW234911   4.725   3.755   8.788  1.3533 -0.0519  0.0623
 7817SOL     OW34912   0.251   2.233   8.704 -0.1039 -0.0734  0.3264
 7817SOL    HW134913   0.335   2.277   8.719  0.0706 -0.5705  0.8212
 7817SOL    HW234914   0.239   2.228   8.609  0.6947 -3.0601  0.3814
 7818SOL     OW34915   1.077   4.523   5.540  0.4976  0.1254  0.0242
 7818SOL    HW134916   1.053   4.490   5.626 -2.3119 -1.0685 -1.2092
 7818SOL    HW234917   1.155   4.566   5.576  0.3723 -0.8529  1.4673
 7819SOL     OW34918   0.957   0.257   9.628  0.1749  0.7090  0.3085
 7819SOL    HW134919   1.043   0.257   9.670  1.2415  0.0812 -1.8293
 7819SOL    HW234920   0.930   0.349   9.617 -1.9906 -0.3260 -3.3067
 7820SOL     OW34921   3.929   3.758   8.570  0.6525 -0.8455 -0.0108
 7820SOL    HW134922   3.905   3.835   8.622  2.3740  0.1526 -0.6900
 7820SOL    HW234923   3.964   3.716   8.649  0.1320 -1.3792 -0.0613
 7821SOL     OW34924   3.863   2.348  11.438 -0.5236 -0.6176 -0.2531
 7821SOL    HW134925   3.814   2.430  11.443 -0.5914 -0.6662 -0.1038
 7821SOL    HW234926   3.853   2.328  11.345 -2.0714  2.3299 -0.7257
 7822SOL     OW34927   3.583   3.664  17.330 -0.6531 -0.2198  0.2610
 7822SOL    HW134928   3.606   3.643  17.240  0.5594 -1.5170  0.8766
 7822SOL    HW234929   3.564   3.758  17.331  1.0404  0.0805  3.2827
 7823SOL     OW34930   2.479   2.741   4.924  0.1343 -0.1541 -0.2967
 7823SOL    HW134931   2.411   2.718   4.988  0.0809 -0.6933 -0.5507
 7823SOL    HW234932   2.531   2.662   4.928 -1.4672 -1.2073 -0.2583
 7824SOL     OW34933   1.407   1.902   7.901 -0.3951  0.2290  0.0033
 7824SOL    HW134934   1.393   1.897   7.996  1.2894  1.4688  0.2937
 7824SOL    HW234935   1.418   1.807   7.892  1.8632  0.4151  0.8170
 7825SOL     OW34936   2.414   0.945   8.111  0.0349 -0.3327  0.0865
 7825SOL    HW134937   2.363   0.980   8.184  1.1175 -1.9101  1.6109
 7825SOL    HW234938   2.440   0.863   8.153  0.3769  0.9172  2.3017
 7826SOL     OW34939   3.940   0.675   8.317  0.0852 -0.4130  0.4011
 7826SOL    HW134940   3.948   0.583   8.291  0.5079 -0.8002  1.8744
 7826SOL    HW234941   4.027   0.685   8.356  0.4886 -0.6175 -0.4623
 7827SOL     OW34942   0.778   0.781  12.310  0.1703  0.1381 -0.3196
 7827SOL    HW134943   0.841   0.798  12.239  0.0431 -2.2939 -1.0098
 7827SOL    HW234944   0.720   0.719  12.266 -0.3513 -2.0641  3.4995
 7828SOL     OW34945   0.190   0.008   3.860 -0.3846  0.1526 -0.0531
 7828SOL    HW134946   0.206   0.068   3.788 -1.9881 -0.5003 -0.9545
 7828SOL    HW234947   0.219   4.648   3.833  0.2092  0.9841 -2.0839
 7829SOL     OW34948   4.245   0.967   2.993 -0.4635  0.0820 -0.0490
 7829SOL    HW134949   4.149   0.966   2.987 -0.4430 -0.5788 -0.2533
 7829SOL    HW234950   4.258   1.027   3.066  1.5317  0.7355 -0.9390
 7830SOL     OW34951   1.777   3.486  11.881 -0.7751 -0.0571  0.3189
 7830SOL    HW134952   1.719   3.501  11.806  0.1611  0.9464 -0.2032
 7830SOL    HW234953   1.798   3.579  11.888 -1.7297  0.1703  0.2091
 7831SOL     OW34954   3.067   2.278  14.545  0.1767 -0.2088 -0.6575
 7831SOL    HW134955   2.993   2.321  14.503 -1.0256 -0.5478  1.1066
 7831SOL    HW234956   3.073   2.197  14.494  1.4383 -0.7988  0.4243
 7832SOL     OW34957   2.661   2.860   2.572 -0.0016  0.5283 -0.2315
 7832SOL    HW134958   2.613   2.777   2.576  1.4913 -0.3411 -0.1925
 7832SOL    HW234959   2.602   2.919   2.618  0.6511 -1.0007  2.5498
 7833SOL     OW34960   3.387   3.081   7.184  0.1120  0.6241 -0.5214
 7833SOL    HW134961   3.330   3.142   7.231 -0.1587 -0.2860  0.3325
 7833SOL    HW234962   3.421   3.020   7.249  1.6488  0.4106 -1.5227
 7834SOL     OW34963   2.066   3.662   5.487  0.1894  0.3053  0.3699
 7834SOL    HW134964   2.000   3.662   5.418 -2.0460  3.4112  2.4850
 7834SOL    HW234965   2.045   3.582   5.536  2.5824 -0.1110  0.7385
 7835SOL     OW34966   0.641   2.767  14.994  0.1313 -0.1008 -0.0648
 7835SOL    HW134967   0.560   2.759  15.045  0.2212  2.1786  0.4444
 7835SOL    HW234968   0.622   2.703  14.925 -0.7169  0.3815 -0.2780
 7836SOL     OW34969   1.416   4.123   7.576 -0.4531 -0.3442  0.3567
 7836SOL    HW134970   1.330   4.163   7.569 -0.5415 -0.5764  0.1342
 7836SOL    HW234971   1.422   4.115   7.671 -3.2195 -0.7181  0.4982
 7837SOL     OW34972   0.510   0.009  11.368  0.0794 -0.1175 -0.1549
 7837SOL    HW134973   0.543   4.718  11.280 -0.7581  1.5498 -0.7999
 7837SOL    HW234974   0.572   4.689  11.424  0.5449  2.1104  1.1919
 7838SOL     OW34975   4.293   4.218  13.255 -0.1985  0.1723 -0.0576
 7838SOL    HW134976   4.384   4.235  13.228  0.6056 -1.2544  1.7290
 7838SOL    HW234977   4.295   4.130  13.217  2.6906  0.4664 -0.6359
 7839SOL     OW34978   4.123   4.333   7.002  0.3618 -0.1220 -0.5473
 7839SOL    HW134979   4.129   4.263   6.936 -1.2166 -0.7600 -0.0214
 7839SOL    HW234980   4.032   4.329   7.032 -0.1803 -0.3985 -2.2075
 7840SOL     OW34981   4.501   4.689   7.488 -0.3940  0.4840 -0.7237
 7840SOL    HW134982   4.537   4.709   7.574 -0.6531 -0.6090 -0.3591
 7840SOL    HW234983   4.545   0.027   7.433  0.1923 -1.5206 -2.6679
 7841SOL     OW34984   3.131   2.640   6.921 -0.6258 -0.2702 -0.3640
 7841SOL    HW134985   3.209   2.601   6.880  0.7378  1.3010  0.7263
 7841SOL    HW234986   3.065   2.650   6.853 -1.6331  1.5593  0.8804
 7842SOL     OW34987   3.409   1.544   2.434  0.3040  0.5413  0.0849
 7842SOL    HW134988   3.338   1.571   2.375  2.0870  0.9989 -1.8137
 7842SOL    HW234989   3.437   1.628   2.471  0.8615  0.0569  0.7543
 7843SOL     OW34990   2.332   2.359   3.393  0.1597 -0.2017 -0.4794
 7843SOL    HW134991   2.390   2.388   3.322 -0.9869  1.9589 -0.5352
 7843SOL    HW234992   2.256   2.328   3.343  0.5989 -0.0956 -1.2192
 7844SOL     OW34993   0.530   0.285   3.611 -0.8128  0.0989  0.1131
 7844SOL    HW134994   0.573   0.236   3.541 -1.3299 -0.3484  0.1107
 7844SOL    HW234995   0.540   0.218   3.679 -3.4319  0.4122  0.8006
 7845SOL     OW34996   0.581   3.463  14.366 -0.1000  0.3086  0.3402
 7845SOL    HW134997   0.588   3.370  14.386 -0.0660  0.3113  0.3412
 7845SOL    HW234998   0.666   3.479  14.325 -0.4839  0.6541 -0.3176
 7846SOL     OW34999   3.712   3.203   5.614  0.0084 -0.4735 -0.5063
 7846SOL    HW135000   3.717   3.108   5.616 -2.2091 -0.5370  1.4616
 7846SOL    HW235001   3.736   3.219   5.705 -0.2907  3.1857 -1.0575
 7847SOL     OW35002   0.631   2.293   8.472  0.0100 -0.5372  0.2891
 7847SOL    HW135003   0.564   2.323   8.411  0.8956 -0.0456 -0.4523
 7847SOL    HW235004   0.646   2.365   8.533 -0.3333  0.1413 -0.4347
 7848SOL     OW35005   3.947   1.986   7.247 -1.1515 -0.2082  0.7301
 7848SOL    HW135006   3.982   1.937   7.322 -0.6258 -0.6086  0.2216
 7848SOL    HW235007   3.876   2.028   7.296 -2.0345 -0.8674  0.0093
 7849SOL     OW35008   1.295   0.288   0.575 -0.0985 -0.4104  0.3461
 7849SOL    HW135009   1.291   0.334   0.491 -1.4546 -0.6591  0.2667
 7849SOL    HW235010   1.239   0.340   0.632  2.0723  0.7303  1.4345
 7850SOL     OW35011   2.930   0.308   8.059  0.8649 -0.9265 -0.3886
 7850SOL    HW135012   2.874   0.380   8.031  0.6905 -0.8845  0.0834
 7850SOL    HW235013   3.006   0.354   8.093  2.2349 -1.3304 -2.8735
 7851SOL     OW35014   0.617   1.523   4.921 -0.3951 -0.2724 -0.2024
 7851SOL    HW135015   0.643   1.607   4.882 -0.7275  0.4468  1.1165
 7851SOL    HW235016   0.618   1.475   4.839  1.5416 -0.6127  0.0120
 7852SOL     OW35017   3.224   1.244  14.252 -0.1585 -0.5953 -0.1463
 7852SOL    HW135018   3.288   1.239  14.181  1.1159  1.0829  0.8887
 7852SOL    HW235019   3.216   1.340  14.256  1.5266 -0.3624 -2.1077
 7853SOL     OW35020   3.013   2.173   3.098 -0.1704  0.0498  0.1715
 7853SOL    HW135021   3.070   2.231   3.148  0.8920 -2.5308  1.9599
 7853SOL    HW235022   3.032   2.088   3.138  0.0701  0.3389  0.6704
 7854SOL     OW35023   2.583   2.466   7.261  0.0746 -0.0750 -0.4703
 7854SOL    HW135024   2.621   2.550   7.238  0.0730  0.5936  2.0634
 7854SOL    HW235025   2.541   2.498   7.340  3.8913 -0.0896  1.5625
 7855SOL     OW35026   2.949   3.759   6.511  0.6417 -0.1385  0.4999
 7855SOL    HW135027   3.033   3.804   6.508  0.8130 -0.4790  0.2608
 7855SOL    HW235028   2.930   3.760   6.418  0.7847 -1.0757  0.4589
 7856SOL     OW35029   1.715   3.104   4.623  0.6863 -0.4794  0.2928
 7856SOL    HW135030   1.636   3.050   4.614 -0.4273  1.4182 -1.5787
 7856SOL    HW235031   1.780   3.044   4.588 -0.7056 -0.4130 -2.4296
 7857SOL     OW35032   4.357   1.660  16.266  0.0802  0.2913  0.4892
 7857SOL    HW135033   4.449   1.664  16.292  0.3914  1.1377 -0.7585
 7857SOL    HW235034   4.355   1.572  16.231  1.4147  0.2071  0.6213
 7858SOL     OW35035   4.572   0.810   6.181 -0.0722 -0.2941  0.5688
 7858SOL    HW135036   4.623   0.885   6.151 -0.5343 -0.5717 -0.8891
 7858SOL    HW235037   4.484   0.848   6.181 -1.2722 -3.0858  0.6418
 7859SOL     OW35038   1.941   4.082   1.922  0.5780 -0.1297 -0.6583
 7859SOL    HW135039   1.847   4.062   1.919  0.7804 -1.3186  1.3347
 7859SOL    HW235040   1.952   4.166   1.966  1.6805 -0.5101 -0.2266
 7860SOL     OW35041   0.580   3.304   3.202 -0.1304 -0.1430 -0.4766
 7860SOL    HW135042   0.605   3.396   3.213 -2.4711  0.4245  0.0412
 7860SOL    HW235043   0.507   3.302   3.141  1.6172 -0.5805 -2.5442
 7861SOL     OW35044   2.716   4.025   6.142  0.3624 -0.1626 -0.2215
 7861SOL    HW135045   2.672   4.110   6.151 -0.1548 -0.4917  0.3708
 7861SOL    HW235046   2.659   3.967   6.193  1.7771 -3.2053 -2.0805
 7862SOL     OW35047   3.273   2.194   7.499  0.4994 -0.0603 -0.0776
 7862SOL    HW135048   3.292   2.218   7.590  0.5505  1.1431 -0.4085
 7862SOL    HW235049   3.210   2.263   7.479 -1.0813 -0.6549  3.0037
 7863SOL     OW35050   0.604   2.362  14.342 -1.2598  0.4115 -0.2354
 7863SOL    HW135051   0.557   2.281  14.321 -0.2097 -0.4240  0.6712
 7863SOL    HW235052   0.694   2.331  14.334 -1.3269  0.1001  0.2513
 7864SOL     OW35053   2.669   4.179   7.812 -0.6724 -0.6465 -0.0247
 7864SOL    HW135054   2.688   4.106   7.871  0.0436 -0.9242 -0.6020
 7864SOL    HW235055   2.626   4.231   7.880 -0.8260  1.5195 -1.8165
 7865SOL     OW35056   3.606   4.543   2.604  0.6912  0.2796 -0.2751
 7865SOL    HW135057   3.662   4.485   2.553 -2.5090 -3.0310 -0.0510
 7865SOL    HW235058   3.552   4.595   2.545  0.5246  1.2248  0.7045
 7866SOL     OW35059   1.296   4.373   9.377  0.6503 -0.0276  0.5694
 7866SOL    HW135060   1.262   4.319   9.448  0.6939  1.2753  1.5693
 7866SOL    HW235061   1.336   4.316   9.310  3.2874  2.3035  0.1580
 7867SOL     OW35062   4.543   3.225  14.479 -0.6186 -0.5015 -0.5118
 7867SOL    HW135063   4.465   3.179  14.449  0.2096 -0.8732 -2.1116
 7867SOL    HW235064   4.587   3.238  14.395  1.6217  2.7798  1.1527
 7868SOL     OW35065   2.218   3.865   5.966 -1.3528  0.5756  0.2629
 7868SOL    HW135066   2.259   3.952   5.965 -0.4635  0.1448 -0.6027
 7868SOL    HW235067   2.223   3.846   5.873  1.0876  1.1105  0.2926
 7869SOL     OW35068   1.525   3.635   3.749  0.0697  1.1322  0.2872
 7869SOL    HW135069   1.568   3.580   3.682  0.4543 -0.5451  1.9096
 7869SOL    HW235070   1.433   3.609   3.740 -0.2951  2.0679  1.4008
 7870SOL     OW35071   2.619   3.144   2.122  0.5363 -0.7566  0.0473
 7870SOL    HW135072   2.700   3.181   2.086  1.4343 -0.0887  2.7451
 7870SOL    HW235073   2.578   3.228   2.141 -2.2637 -2.1125 -0.0991
 7871SOL     OW35074   4.026   0.916  16.750  0.3135 -0.1938  0.6949
 7871SOL    HW135075   3.985   0.895  16.834 -1.0694 -0.2437 -0.0081
 7871SOL    HW235076   3.951   0.953  16.703 -0.3536 -1.3890  0.8320
 7872SOL     OW35077   1.666   3.461   1.668 -0.7003  0.2971  0.4075
 7872SOL    HW135078   1.640   3.553   1.673 -1.6362  0.0731 -0.2496
 7872SOL    HW235079   1.668   3.455   1.572 -1.6713  0.6067  0.3710
 7873SOL     OW35080   1.228   3.994   1.438 -0.1947 -0.2227 -0.2475
 7873SOL    HW135081   1.240   4.000   1.533 -3.0434  1.6969 -0.0344
 7873SOL    HW235082   1.144   3.947   1.439  1.2184 -2.7658  0.3817
 7874SOL     OW35083   2.418   1.738   4.979  0.0974  0.1042 -0.7630
 7874SOL    HW135084   2.408   1.805   5.046  3.3546 -2.3528  2.2066
 7874SOL    HW235085   2.491   1.688   5.016  0.6488  0.6475 -1.1218
 7875SOL     OW35086   1.882   2.477   9.420  0.6836  0.3273 -0.6890
 7875SOL    HW135087   1.905   2.545   9.483 -0.0220 -0.0701  0.0102
 7875SOL    HW235088   1.907   2.513   9.335  0.8009  0.7632 -0.4667
 7876SOL     OW35089   4.256   4.650  10.665  0.6747 -0.2754 -0.1723
 7876SOL    HW135090   4.231   0.014  10.684 -0.3758 -0.8241  1.0875
 7876SOL    HW235091   4.295   4.618  10.747 -0.5748 -0.2894  0.4219
 7877SOL     OW35092   3.701   2.842   6.172  0.0963  0.3821 -0.3865
 7877SOL    HW135093   3.659   2.928   6.181  0.3007  0.3689  0.7138
 7877SOL    HW235094   3.619   2.793   6.175 -0.0406  0.4621 -2.7091
 7878SOL     OW35095   3.034   2.591   2.071 -0.6176  0.1397 -0.1939
 7878SOL    HW135096   3.039   2.625   1.982  0.8558 -2.4368 -1.1091
 7878SOL    HW235097   3.122   2.557   2.088 -0.8035 -0.2927 -0.0853
 7879SOL     OW35098   0.066   4.550   2.209 -0.2383 -0.2699  0.3048
 7879SOL    HW135099   0.022   4.618   2.259 -2.3755 -1.4537  0.0302
 7879SOL    HW235100   0.028   4.478   2.259  0.0340 -2.2587 -2.3230
 7880SOL     OW35101   1.942   4.246   3.146 -0.2863 -0.8360 -0.3214
 7880SOL    HW135102   1.997   4.294   3.207 -0.2143 -2.4057  0.8350
 7880SOL    HW235103   1.992   4.165   3.146  1.3521  0.1904  2.3753
 7881SOL     OW35104   1.036   0.968  13.481 -0.2397  0.0105  0.0855
 7881SOL    HW135105   0.988   0.886  13.465  0.2103 -0.1336 -0.5250
 7881SOL    HW235106   1.018   0.974  13.574  3.3686 -0.1658  0.7757
 7882SOL     OW35107   0.866   4.660   6.885  0.5352 -0.0907  0.5692
 7882SOL    HW135108   0.950   4.648   6.928  1.8421 -0.9683 -2.2645
 7882SOL    HW235109   0.812   4.637   6.961  1.0144 -0.6814  0.7249
 7883SOL     OW35110   4.184   1.185   8.406 -0.1553  0.5758 -0.4285
 7883SOL    HW135111   4.279   1.195   8.402 -0.1693  0.3810 -1.2631
 7883SOL    HW235112   4.185   1.108   8.350 -0.7030  1.1673 -1.2425
 7884SOL     OW35113   1.604   2.450   5.690 -0.2932 -0.3441  0.1109
 7884SOL    HW135114   1.606   2.410   5.603  0.2936  0.7679 -0.3991
 7884SOL    HW235115   1.564   2.536   5.672 -1.4889 -0.6392  1.3856
 7885SOL     OW35116   4.334   2.821   6.906  0.2963  0.6693 -0.1023
 7885SOL    HW135117   4.282   2.854   6.833  0.3270  1.4425  0.2321
 7885SOL    HW235118   4.366   2.903   6.942 -0.5344  0.7856  0.3559
 7886SOL     OW35119   3.257   2.674   5.218  0.2007 -0.6839 -0.1109
 7886SOL    HW135120   3.327   2.739   5.223  0.4804 -1.0353  0.5548
 7886SOL    HW235121   3.309   2.616   5.161 -2.6485 -0.9379 -2.4740
 7887SOL     OW35122   2.181   4.305  15.736  0.0315 -0.7638 -0.1234
 7887SOL    HW135123   2.097   4.328  15.776 -0.3899 -1.8150 -0.4041
 7887SOL    HW235124   2.172   4.346  15.650  0.0831 -0.0725  0.2037
 7888SOL     OW35125   3.545   0.203  16.730  0.1207  0.0557 -0.0968
 7888SOL    HW135126   3.633   0.167  16.726 -0.3524 -1.2747  1.4761
 7888SOL    HW235127   3.559   0.295  16.748 -0.7257 -0.3051  2.3738
 7889SOL     OW35128   4.472   0.706  16.216 -0.0434  0.5625  0.1441
 7889SOL    HW135129   4.414   0.630  16.209 -2.1361  1.7696  4.7057
 7889SOL    HW235130   4.439   0.753  16.292  1.8563  0.4322  1.0458
 7890SOL     OW35131   4.069   1.333   3.108  0.2020  0.3555 -0.4360
 7890SOL    HW135132   3.975   1.350   3.102  0.3928  1.4779 -0.4284
 7890SOL    HW235133   4.094   1.368   3.022 -1.3316 -0.0107 -1.0257
 7891SOL     OW35134   1.097   2.473   0.597  0.3660 -0.4051  0.2091
 7891SOL    HW135135   1.041   2.550   0.592 -1.8013 -2.0711 -0.9922
 7891SOL    HW235136   1.145   2.479   0.514 -1.7778  1.0933 -0.9234
 7892SOL     OW35137   1.553   1.857   5.767  0.4991  0.4171 -0.6749
 7892SOL    HW135138   1.636   1.843   5.814  0.2180  1.8990  0.2459
 7892SOL    HW235139   1.548   1.768   5.731  0.7927  0.1116  0.0359
 7893SOL     OW35140   1.202   4.121   6.730 -0.2922 -0.0902  0.1789
 7893SOL    HW135141   1.276   4.136   6.671 -0.4503 -1.9432 -0.4880
 7893SOL    HW235142   1.222   4.187   6.795 -0.4416  0.0818  0.0516
 7894SOL     OW35143   4.043   0.368   0.298  0.1355  0.1749  0.0589
 7894SOL    HW135144   4.090   0.394   0.377 -2.7804 -1.1644  2.2463
 7894SOL    HW235145   3.966   0.326   0.338  0.9188  0.1623  1.5536
 7895SOL     OW35146   0.090   3.491  15.237  0.1527  0.7007 -0.2252
 7895SOL    HW135147   0.137   3.425  15.186  0.3734 -0.6654  1.7456
 7895SOL    HW235148   0.020   3.519  15.178 -1.0090 -1.7147 -0.0086
 7896SOL     OW35149   1.783   2.081   8.276 -0.3446  0.5458  0.4852
 7896SOL    HW135150   1.789   2.118   8.364 -1.6563 -0.9903  1.2243
 7896SOL    HW235151   1.755   1.993   8.302 -0.4518  0.9014  1.5936
 7897SOL     OW35152   2.310   4.499   6.401 -0.1704 -0.2865 -0.4777
 7897SOL    HW135153   2.369   4.561   6.443 -0.9212 -0.5910  1.0342
 7897SOL    HW235154   2.362   4.423   6.377 -1.1895 -1.5189  1.1516
 7898SOL     OW35155   2.530   3.636   7.289 -0.2329 -0.3481 -0.1665
 7898SOL    HW135156   2.536   3.696   7.364 -1.9522 -2.7509  1.9101
 7898SOL    HW235157   2.590   3.675   7.226 -1.1216  1.7951  0.3112
 7899SOL     OW35158   0.045   2.022   4.060 -0.1071  0.3095  1.1511
 7899SOL    HW135159   0.126   2.055   4.100  1.5299 -0.0806 -1.9054
 7899SOL    HW235160   4.711   2.067   4.120 -2.3438  0.5046 -1.2763
 7900SOL     OW35161   1.880   3.124   5.685 -0.2497 -0.2915 -0.0478
 7900SOL    HW135162   1.931   3.111   5.605  0.5539 -2.2774  0.8047
 7900SOL    HW235163   1.897   3.214   5.713 -1.0244 -0.9500  2.4885
 7901SOL     OW35164   0.461   4.338   3.689 -0.1510 -0.5706  0.0519
 7901SOL    HW135165   0.375   4.341   3.730 -0.8761 -0.3374 -1.4948
 7901SOL    HW235166   0.437   4.354   3.598  1.5553 -1.0366 -0.4838
 7902SOL     OW35167   2.873   4.335   5.160 -0.3233 -0.5118  0.7311
 7902SOL    HW135168   2.782   4.365   5.157 -0.5125 -1.1313  0.4711
 7902SOL    HW235169   2.896   4.361   5.249 -0.1929  0.0627  0.5335
 7903SOL     OW35170   1.585   1.570  11.393 -0.5115  0.0382 -0.3978
 7903SOL    HW135171   1.605   1.507  11.324 -0.0181  0.6918 -0.8512
 7903SOL    HW235172   1.632   1.533  11.468 -3.2694 -1.2821  0.6775
 7904SOL     OW35173   1.962   0.623   9.484  0.1958 -0.1059  0.2358
 7904SOL    HW135174   2.040   0.663   9.445  0.2544 -1.0908 -0.6666
 7904SOL    HW235175   1.906   0.614   9.407  1.5249  2.5214 -1.0274
 7905SOL     OW35176   4.308   4.084   5.704  0.3224  0.3341  0.0614
 7905SOL    HW135177   4.231   4.029   5.722  1.7731 -1.0778  1.9275
 7905SOL    HW235178   4.380   4.043   5.751  0.2044  1.0276  0.8342
 7906SOL     OW35179   0.120   4.436   7.531  0.6434  0.0419  0.2840
 7906SOL    HW135180   0.087   4.523   7.509  0.0148 -0.5005 -0.9475
 7906SOL    HW235181   0.152   4.418   7.443 -2.3261  1.3038 -1.0544
 7907SOL     OW35182   0.612   0.277   9.336  0.0071  0.2110 -0.0202
 7907SOL    HW135183   0.566   0.358   9.355  0.9258  0.5460  0.7796
 7907SOL    HW235184   0.703   0.306   9.332  0.5535 -1.6994 -1.3694
 7908SOL     OW35185   3.547   2.682   2.831 -0.1922 -0.2818  0.7977
 7908SOL    HW135186   3.636   2.663   2.799  0.2866  0.9917  1.4046
 7908SOL    HW235187   3.564   2.750   2.896  0.4901  0.5753 -0.2811
 7909SOL     OW35188   1.821   0.153   4.981 -0.5660 -0.4732 -0.4523
 7909SOL    HW135189   1.910   0.163   5.015 -0.8933 -0.9791  0.5604
 7909SOL    HW235190   1.847   0.122   4.895  0.4379  0.5778 -0.5293
 7910SOL     OW35191   3.800   3.796   6.178 -0.3391  0.7615  0.2645
 7910SOL    HW135192   3.878   3.742   6.168 -1.3975 -0.8894  1.0459
 7910SOL    HW235193   3.774   3.764   6.264  1.8976  1.0870  1.0608
 7911SOL     OW35194   1.726   1.795   6.418 -0.7545 -0.8098  0.2022
 7911SOL    HW135195   1.634   1.771   6.423 -0.7687 -0.4949  1.5456
 7911SOL    HW235196   1.773   1.712   6.416  0.6023  0.0092 -1.7861
 7912SOL     OW35197   1.307   3.752   4.903  0.1217 -0.0056  0.2470
 7912SOL    HW135198   1.305   3.753   4.999 -1.2922 -0.7548  0.2322
 7912SOL    HW235199   1.361   3.829   4.883 -1.2573  1.0776  0.6641
 7913SOL     OW35200   3.253   0.743   8.055  0.0478  0.4823 -0.3391
 7913SOL    HW135201   3.180   0.783   8.102  0.0234  1.1776 -0.9597
 7913SOL    HW235202   3.221   0.653   8.045 -2.9031  1.5263 -0.1735
 7914SOL     OW35203   1.736   0.770  13.028 -0.6869 -0.1499  0.8150
 7914SOL    HW135204   1.668   0.808  12.973 -0.3740  1.7488  1.7266
 7914SOL    HW235205   1.684   0.739  13.102 -1.2924 -0.8411  0.0939
 7915SOL     OW35206   2.548   4.526   4.041  0.1285 -0.3674 -0.4815
 7915SOL    HW135207   2.504   4.531   3.956 -1.4187  0.4856  0.3682
 7915SOL    HW235208   2.607   4.453   4.020 -0.7751 -1.4125  0.5978
 7916SOL     OW35209   2.327   2.697   3.237  0.1645 -0.0746  0.1344
 7916SOL    HW135210   2.376   2.615   3.222 -0.0961 -0.3412  0.7240
 7916SOL    HW235211   2.345   2.740   3.154 -1.2187 -0.9560 -0.6251
 7917SOL     OW35212   0.673   0.657   7.073 -0.4724 -0.1772 -0.2335
 7917SOL    HW135213   0.719   0.738   7.052 -1.3742 -0.5182 -3.4622
 7917SOL    HW235214   0.599   0.688   7.127  1.2218  0.3991  1.7619
 7918SOL     OW35215   4.708   2.464   6.332  0.0427 -0.0459 -0.2069
 7918SOL    HW135216   4.652   2.453   6.408 -1.6187  4.1311 -0.8100
 7918SOL    HW235217   0.069   2.449   6.368  0.4520 -1.7312 -1.9011
 7919SOL     OW35218   4.265   0.021  13.298  0.0922 -0.7795 -0.1788
 7919SOL    HW135219   4.270   0.110  13.264 -0.9943 -0.6465  0.0267
 7919SOL    HW235220   4.336   0.018  13.363 -0.1964  1.5985  0.2515
 7920SOL     OW35221   3.463   1.068   1.661 -0.1816 -0.2161 -0.2413
 7920SOL    HW135222   3.435   1.160   1.661 -0.2174 -0.2315 -3.3327
 7920SOL    HW235223   3.415   1.035   1.585  1.1378  0.6328 -1.4327
 7921SOL     OW35224   2.237   3.183  17.623 -0.4266  0.0233  0.3344
 7921SOL    HW135225   2.307   3.216  17.678  0.2943  3.2915 -2.5689
 7921SOL    HW235226   2.298   3.127  17.574 -0.5741 -0.1804  0.3798
 7922SOL     OW35227   0.256   1.440  12.357 -0.4785  0.2498 -0.6063
 7922SOL    HW135228   0.327   1.458  12.294  0.3747  1.5573  0.7305
 7922SOL    HW235229   0.188   1.432  12.290 -0.4765  1.0923 -0.7164
 7923SOL     OW35230   1.825   3.307   8.882 -0.4985  0.7486  0.1942
 7923SOL    HW135231   1.913   3.336   8.857 -1.1847  0.8582 -2.1133
 7923SOL    HW235232   1.809   3.323   8.975  1.6421  0.6249  0.5748
 7924SOL     OW35233   3.061   0.822  12.848  0.5163 -0.8228 -0.7632
 7924SOL    HW135234   3.078   0.730  12.869  3.1531  0.0858  1.1267
 7924SOL    HW235235   3.114   0.828  12.769 -1.7914  0.8131 -2.1813
 7925SOL     OW35236   4.335   1.141   5.544  0.3311  0.1366  0.0925
 7925SOL    HW135237   4.283   1.105   5.471  0.2922  1.0492 -0.3260
 7925SOL    HW235238   4.388   1.204   5.496  0.3484  0.4322  0.5053
 7926SOL     OW35239   1.190   3.878  10.988 -0.2974  0.3593 -0.0371
 7926SOL    HW135240   1.201   3.892  10.894  1.7718  0.7448  0.2589
 7926SOL    HW235241   1.281   3.884  11.016 -0.4137  1.9268  0.0099
 7927SOL     OW35242   1.097   3.804   7.346 -0.3410  0.4250 -0.0787
 7927SOL    HW135243   1.113   3.897   7.361  2.6084  0.1164 -1.2435
 7927SOL    HW235244   1.002   3.803   7.334 -0.5541  0.6683  1.6938
 7928SOL     OW35245   4.383   2.255   3.145 -0.3382 -0.4530  0.5511
 7928SOL    HW135246   4.297   2.271   3.184 -1.5367 -0.5249 -2.0241
 7928SOL    HW235247   4.442   2.263   3.219 -1.3040  1.4915  1.0980
 7929SOL     OW35248   4.540   4.342   7.700 -0.1257 -0.3249 -0.2170
 7929SOL    HW135249   4.528   4.433   7.727 -0.5325  0.7884 -4.2253
 7929SOL    HW235250   4.567   4.304   7.784  1.8465  0.9098 -0.2862
 7930SOL     OW35251   2.633   2.970  15.258  1.1563  0.0721  0.0479
 7930SOL    HW135252   2.706   2.929  15.213  3.5540  2.0018  2.1834
 7930SOL    HW235253   2.563   2.968  15.193  3.0877 -1.9577 -1.9418
 7931SOL     OW35254   0.123   3.554  14.043 -0.6984  0.9207 -0.1153
 7931SOL    HW135255   0.101   3.646  14.057 -1.1831  0.9361 -0.9622
 7931SOL    HW235256   0.136   3.531  14.135  1.0212  1.1135 -0.3061
 7932SOL     OW35257   2.328   1.271  17.599  0.4324  0.2754  0.0608
 7932SOL    HW135258   2.386   1.235  17.531 -0.8060 -1.8890  0.1513
 7932SOL    HW235259   2.389   1.328  17.646  0.2098 -0.3558  1.1015
 7933SOL     OW35260   4.029   2.543   6.974  0.4226  0.0123  0.0075
 7933SOL    HW135261   4.029   2.448   6.963 -3.2449  0.0882 -0.6067
 7933SOL    HW235262   4.108   2.570   7.020  0.3936  1.4284 -0.7720
 7934SOL     OW35263   3.879   3.952  15.140  0.1633 -0.4614 -0.4319
 7934SOL    HW135264   3.935   3.968  15.064  2.1394  0.3731  1.1759
 7934SOL    HW235265   3.925   3.994  15.213  1.9045  0.4721 -2.0611
 7935SOL     OW35266   0.936   2.595  14.206 -0.3372 -0.1613  0.2992
 7935SOL    HW135267   0.875   2.534  14.164  0.4260 -0.3759 -0.4851
 7935SOL    HW235268   0.874   2.663  14.232 -1.1427 -0.0737 -1.8303
 7936SOL     OW35269   0.396   0.343   7.183 -0.2812  0.3335  0.0894
 7936SOL    HW135270   0.443   0.283   7.240 -0.9059 -1.8336 -1.6439
 7936SOL    HW235271   0.463   0.358   7.116  0.2508  0.1177  0.5754
 7937SOL     OW35272   0.430   2.884  11.138  0.1855  0.3230  0.3858
 7937SOL    HW135273   0.412   2.976  11.115 -0.6087  0.1957  0.5023
 7937SOL    HW235274   0.401   2.843  11.057  0.2005  3.7886 -1.3727
 7938SOL     OW35275   1.508   3.768  14.922  0.7154  0.4016 -0.0025
 7938SOL    HW135276   1.593   3.803  14.948  0.7051  0.5203 -0.1270
 7938SOL    HW235277   1.547   3.715  14.852 -0.1711  0.8949 -0.8743
 7939SOL     OW35278   4.156   0.993  11.026 -0.2556  0.8510  0.3353
 7939SOL    HW135279   4.064   1.015  11.035 -0.2461  1.7308 -1.7071
 7939SOL    HW235280   4.163   0.935  11.101 -2.4104 -0.1651 -0.2673
 7940SOL     OW35281   4.164   4.697   3.971 -0.1732  0.5704 -0.1293
 7940SOL    HW135282   4.154   0.011   3.885  0.0998  0.9665  0.0283
 7940SOL    HW235283   4.091   4.636   3.970  1.4580 -1.3851  0.0290
 7941SOL     OW35284   1.078   4.485  15.136 -0.0688 -0.1114  0.3247
 7941SOL    HW135285   1.093   4.428  15.060 -1.3607  0.1326 -0.1120
 7941SOL    HW235286   0.988   4.508  15.115  0.0080 -0.6381 -0.5931
 7942SOL     OW35287   2.074   0.482   6.085 -0.1153  0.2760 -0.0033
 7942SOL    HW135288   2.071   0.501   6.179 -1.9134 -1.4452  0.2698
 7942SOL    HW235289   2.140   0.413   6.092 -2.1029 -1.9120 -2.6618
 7943SOL     OW35290   1.050   4.132   5.601  0.0916  0.0488 -0.0318
 7943SOL    HW135291   1.009   4.182   5.671  1.2428  0.1226  0.5978
 7943SOL    HW235292   1.048   4.201   5.535  0.0972 -0.1367 -0.2245
 7944SOL     OW35293   3.074   3.865   8.153  0.3274 -0.2382 -0.6238
 7944SOL    HW135294   3.138   3.933   8.171  1.4917 -1.7615  1.0055
 7944SOL    HW235295   3.000   3.912   8.192  0.8063 -0.3042  0.3755
 7945SOL     OW35296   0.659   3.956   4.919  0.0686  0.0288  0.4015
 7945SOL    HW135297   0.670   4.026   4.983  1.5971  0.6359 -0.5143
 7945SOL    HW235298   0.569   3.979   4.896  0.4226  1.9889  0.9375
 7946SOL     OW35299   0.994   0.263   2.054  0.4449  0.4399 -0.0562
 7946SOL    HW135300   0.951   0.219   2.127  1.7328  1.4705  1.3144
 7946SOL    HW235301   0.948   0.346   2.042 -1.8816 -0.5777  1.7537
 7947SOL     OW35302   4.547   3.697   7.624 -0.1466  0.5772 -0.8288
 7947SOL    HW135303   4.594   3.619   7.655 -1.1853  0.7650  1.2654
 7947SOL    HW235304   4.465   3.653   7.601 -0.6354  1.0501  0.0028
 7948SOL     OW35305   1.067   3.514   5.183 -0.4875  0.3845  0.9208
 7948SOL    HW135306   1.094   3.584   5.125  0.7322 -0.0762  0.9410
 7948SOL    HW235307   1.010   3.465   5.124  0.1784 -2.7735  2.8922
 7949SOL     OW35308   2.926   1.606   9.421  0.6088 -0.0550  0.4026
 7949SOL    HW135309   2.857   1.539   9.419 -1.1338  1.7286  0.5313
 7949SOL    HW235310   2.965   1.584   9.505  1.6538 -0.7336 -0.2542
 7950SOL     OW35311   1.769   0.865   6.998  0.0251 -0.2766 -0.5956
 7950SOL    HW135312   1.722   0.944   7.025 -0.7221 -0.7924 -0.3831
 7950SOL    HW235313   1.735   0.799   7.059 -3.1565 -0.1450 -2.2384
 7951SOL     OW35314   0.439   4.318   2.282 -0.4438  0.3335 -0.5330
 7951SOL    HW135315   0.435   4.326   2.377 -0.5339  4.1605 -0.8251
 7951SOL    HW235316   0.531   4.294   2.281 -0.1556  1.4254 -0.6250
 7952SOL     OW35317   1.169   1.272   4.558 -0.6543 -0.0109 -0.1583
 7952SOL    HW135318   1.138   1.361   4.542  1.4903  0.5029 -1.4225
 7952SOL    HW235319   1.189   1.269   4.652 -0.2838  2.6063 -0.1559
 7953SOL     OW35320   3.474   4.601   7.697  0.1101 -0.3359 -0.6605
 7953SOL    HW135321   3.393   4.552   7.687 -0.0839  0.5947 -3.6684
 7953SOL    HW235322   3.445   4.667   7.634 -1.6056  0.3197  0.8311
 7954SOL     OW35323   0.328   0.186  11.653  0.3328 -0.5432  0.1484
 7954SOL    HW135324   0.300   0.200  11.562 -1.5715 -1.5018  0.6032
 7954SOL    HW235325   0.302   0.095  11.660 -0.5255 -0.5111 -2.5100
 7955SOL     OW35326   3.898   4.212   7.097  0.4802 -0.3663 -0.7474
 7955SOL    HW135327   3.859   4.242   7.180 -0.5325  0.0737 -1.3877
 7955SOL    HW235328   3.953   4.141   7.132  2.5186  1.3671 -0.4018
 7956SOL     OW35329   2.891   0.935   0.699 -0.2698  0.2554 -0.6507
 7956SOL    HW135330   2.833   1.007   0.723  1.3528  1.2075  0.4069
 7956SOL    HW235331   2.919   0.909   0.787 -0.3680 -0.2780 -0.7780
 7957SOL     OW35332   4.722   3.708   8.531 -0.2892  0.1728 -0.3045
 7957SOL    HW135333   0.037   3.784   8.573  1.2368 -0.6543 -0.3135
 7957SOL    HW235334   4.650   3.750   8.485  0.3348  1.0786 -0.4649
 7958SOL     OW35335   3.870   0.318   6.427  0.1087  0.2043  0.6717
 7958SOL    HW135336   3.959   0.298   6.457  0.0823 -0.4266  0.3144
 7958SOL    HW235337   3.859   0.411   6.450  0.0548  0.7740 -1.6862
 7959SOL     OW35338   1.259   3.242  15.040 -0.2185 -0.2822 -0.1811
 7959SOL    HW135339   1.341   3.277  15.073 -0.4384 -0.0569  0.1255
 7959SOL    HW235340   1.205   3.296  15.097 -3.7650 -2.2124 -1.6941
 7960SOL     OW35341   0.762   0.242   3.881 -0.1293 -0.6325 -0.0238
 7960SOL    HW135342   0.720   0.169   3.835 -0.9683  1.4573 -2.5347
 7960SOL    HW235343   0.734   0.231   3.972  0.6381 -0.4786  0.2345
 7961SOL     OW35344   3.335   0.558   8.779  0.4300 -0.2635 -0.2897
 7961SOL    HW135345   3.251   0.591   8.747  0.0326 -0.3825  0.6241
 7961SOL    HW235346   3.384   0.640   8.772  1.3656 -0.7739  0.2576
 7962SOL     OW35347   1.349   2.536   9.715  0.1471 -0.6334 -0.0678
 7962SOL    HW135348   1.428   2.481   9.712  1.2233  0.8305  1.4021
 7962SOL    HW235349   1.305   2.505   9.636  0.1014  2.2839 -1.1744
 7963SOL     OW35350   4.364   0.082   5.125 -0.1104  0.5475 -0.2860
 7963SOL    HW135351   4.460   0.087   5.125 -0.1482  1.2584 -0.3789
 7963SOL    HW235352   4.363   0.098   5.220 -1.4781  1.6177 -0.4839
 7964SOL     OW35353   2.315   0.399   5.843  0.3624  0.6990 -0.0660
 7964SOL    HW135354   2.358   0.419   5.926  1.1960  0.2927 -0.3939
 7964SOL    HW235355   2.356   0.316   5.815  0.3672  0.4837  0.5752
 7965SOL     OW35356   4.609   0.801  10.401 -0.2580 -0.1430 -0.0981
 7965SOL    HW135357   4.547   0.751  10.454 -0.1202 -3.0951 -2.7396
 7965SOL    HW235358   4.692   0.768  10.436  0.0941  1.2035  0.3089
 7966SOL     OW35359   2.652   2.949   1.471 -0.4701 -0.0452 -0.0383
 7966SOL    HW135360   2.558   2.957   1.452 -0.5341  0.9339  0.7449
 7966SOL    HW235361   2.690   3.027   1.430  0.4275  0.1688  1.2024
 7967SOL     OW35362   0.375   0.625   2.656  0.2462 -0.0112  0.0713
 7967SOL    HW135363   0.316   0.550   2.655 -1.5599  1.4046 -0.3296
 7967SOL    HW235364   0.442   0.608   2.590  0.1518  1.0632 -0.3117
 7968SOL     OW35365   3.531   4.134   1.664  0.4990  0.3212 -0.0980
 7968SOL    HW135366   3.538   4.194   1.739  1.4985  1.0174 -0.7502
 7968SOL    HW235367   3.508   4.052   1.707  3.6364  0.9401  2.8052
 7969SOL     OW35368   3.207   4.457   3.864 -0.2297 -0.1741  0.4844
 7969SOL    HW135369   3.192   4.372   3.822 -1.5765  0.3037 -0.0218
 7969SOL    HW235370   3.114   4.477   3.875 -0.5249 -1.3317  0.1149
 7970SOL     OW35371   0.504   2.110   4.425 -0.0548  0.0728  0.3019
 7970SOL    HW135372   0.552   2.055   4.363 -1.1858 -2.5881  1.7982
 7970SOL    HW235373   0.562   2.110   4.501  0.8769  2.5119 -0.4440
 7971SOL     OW35374   4.562   4.489  16.992  0.1550  0.2713 -0.1442
 7971SOL    HW135375   4.518   4.508  17.075 -1.4313 -0.3366 -0.8511
 7971SOL    HW235376   4.654   4.473  17.014  0.1563  0.2753 -0.1464
 7972SOL     OW35377   4.529   2.201  13.340 -0.0562 -0.8279 -0.6008
 7972SOL    HW135378   4.523   2.112  13.374 -0.7324 -0.6906 -0.3476
 7972SOL    HW235379   4.623   2.218  13.348 -0.2753  0.9434 -1.6230
 7973SOL     OW35380   2.626   0.342   2.988 -0.4450 -0.3628 -0.0588
 7973SOL    HW135381   2.713   0.364   3.020 -1.7260  4.3464  0.1050
 7973SOL    HW235382   2.570   0.366   3.061  0.1070 -1.2375  0.6538
 7974SOL     OW35383   2.095   0.290   7.680 -0.2115  0.2663  0.1386
 7974SOL    HW135384   2.099   0.207   7.632  1.0717 -0.9703  2.4314
 7974SOL    HW235385   2.180   0.285   7.722  0.3643  2.6292 -0.7662
 7975SOL     OW35386   2.640   1.581   5.131  0.1196  0.0785  0.2878
 7975SOL    HW135387   2.633   1.569   5.226  1.2041  0.4426  0.4112
 7975SOL    HW235388   2.657   1.489   5.112  0.4438  0.2510 -0.2415
 7976SOL     OW35389   3.195   2.411   3.661 -0.0682  0.0337 -0.0350
 7976SOL    HW135390   3.259   2.402   3.590 -2.1996  1.9317 -2.2024
 7976SOL    HW235391   3.247   2.365   3.727 -2.0772  0.6325  1.9535
 7977SOL     OW35392   2.448   4.569   5.710 -0.2487  0.1345 -0.2928
 7977SOL    HW135393   2.505   4.645   5.719 -0.2438  0.1015 -0.0221
 7977SOL    HW235394   2.384   4.597   5.645 -1.4641  0.0959  0.8879
 7978SOL     OW35395   2.041   0.052   6.040  0.1035 -0.1674 -0.3484
 7978SOL    HW135396   1.968   0.090   5.992 -0.9634 -1.2958  0.3971
 7978SOL    HW235397   2.052   4.693   5.999  5.3725  1.1273 -1.7241
 7979SOL     OW35398   2.340   1.865   5.404  0.0999  0.0498 -0.0167
 7979SOL    HW135399   2.386   1.806   5.463  1.2371 -1.0956 -2.0773
 7979SOL    HW235400   2.255   1.871   5.447  0.0091  1.4297 -0.3765
 7980SOL     OW35401   2.866   0.130   8.274  0.0201 -0.0747  0.2511
 7980SOL    HW135402   2.857   0.159   8.183  2.3078  1.8777  0.6247
 7980SOL    HW235403   2.801   0.188   8.313 -0.5104 -0.0259 -0.7071
 7981SOL     OW35404   3.685   1.671   7.072  0.4877 -0.2865 -0.3650
 7981SOL    HW135405   3.628   1.659   6.996  0.2266 -2.2581  0.1432
 7981SOL    HW235406   3.628   1.706   7.140  1.5430 -0.9543  0.8761
 7982SOL     OW35407   2.921   0.196   0.377 -0.2530 -0.1404 -0.4062
 7982SOL    HW135408   2.994   0.246   0.414 -1.0031 -0.1460  1.1011
 7982SOL    HW235409   2.902   0.252   0.302 -2.5746 -0.9190 -0.4119
 7983SOL     OW35410   4.526   1.397   8.094 -0.2157 -0.0715 -0.6611
 7983SOL    HW135411   4.601   1.451   8.073 -0.6802  0.0504 -1.9981
 7983SOL    HW235412   4.457   1.444   8.047 -1.0724 -0.2238  0.4267
 7984SOL     OW35413   2.575   0.902   1.010  0.0315 -0.1878  0.6511
 7984SOL    HW135414   2.656   0.851   1.006  1.2598  1.8242 -0.6164
 7984SOL    HW235415   2.542   0.895   0.920 -0.7583  0.6528  0.8822
 7985SOL     OW35416   0.428   0.109   0.002  0.8545  0.3306 -1.1334
 7985SOL    HW135417   0.445   0.105  17.616  2.2532 -1.8241 -0.7878
 7985SOL    HW235418   0.355   0.048   0.011  0.7086  0.7022  0.0683
 7986SOL     OW35419   0.973   2.323   9.465 -0.4938 -0.1209  0.2467
 7986SOL    HW135420   0.962   2.231   9.488 -0.7746 -0.5607 -1.6549
 7986SOL    HW235421   0.893   2.341   9.416  1.1638  2.7963 -1.3993
 7987SOL     OW35422   2.344   0.714   8.557 -0.0726  0.4361 -0.3867
 7987SOL    HW135423   2.250   0.698   8.549  0.0744 -1.3895  1.4281
 7987SOL    HW235424   2.361   0.710   8.651  0.5592 -2.5344 -0.6107
 7988SOL     OW35425   3.382   2.514   7.438  0.4934 -0.3077 -0.6015
 7988SOL    HW135426   3.304   2.525   7.385 -0.0569  3.7119  1.0163
 7988SOL    HW235427   3.429   2.450   7.385 -0.8209 -0.3062 -1.7394
 7989SOL     OW35428   3.130   1.194  16.451  0.3366  0.6531 -0.4624
 7989SOL    HW135429   3.176   1.114  16.427 -0.9281 -0.1034 -0.3233
 7989SOL    HW235430   3.051   1.164  16.496  0.7713 -0.0777 -0.2014
 7990SOL     OW35431   3.399   0.186  15.646 -0.1183 -0.1906  0.4209
 7990SOL    HW135432   3.334   0.125  15.609 -0.3402 -0.2950  0.9934
 7990SOL    HW235433   3.462   0.138  15.700 -0.7084 -1.0813  0.3307
 7991SOL     OW35434   3.417   3.879   8.917 -0.5155  0.0169  0.1234
 7991SOL    HW135435   3.336   3.878   8.866 -0.1848  1.1059 -0.4178
 7991SOL    HW235436   3.474   3.817   8.872 -1.4454 -1.8490  1.4924
 7992SOL     OW35437   1.971   3.500   8.633  0.0227  0.3236  0.4898
 7992SOL    HW135438   1.891   3.517   8.682  0.2587 -0.6089  1.2099
 7992SOL    HW235439   1.991   3.593   8.630  0.7612  0.1688  0.6474
 7993SOL     OW35440   0.463   3.740  16.710  0.7025 -0.8152 -0.0653
 7993SOL    HW135441   0.440   3.825  16.673 -2.6645 -1.0010  1.6080
 7993SOL    HW235442   0.373   3.709  16.724  0.4946  0.2858  0.9987
 7994SOL     OW35443   1.670   3.245   5.184 -0.3731 -0.7801  0.6021
 7994SOL    HW135444   1.675   3.176   5.117  2.6218  1.7664 -1.7689
 7994SOL    HW235445   1.666   3.199   5.268  2.0822 -1.0536  0.5714
 7995SOL     OW35446   1.007   2.244   9.921 -0.3933 -0.0345 -0.2531
 7995SOL    HW135447   1.086   2.190   9.913 -0.9165 -0.7693 -0.5666
 7995SOL    HW235448   0.943   2.186   9.879  0.1762  0.0409 -1.2406
 7996SOL     OW35449   4.018   0.411   0.883  0.1988 -0.0826  0.0964
 7996SOL    HW135450   4.087   0.357   0.922  0.8300  0.7403  0.1473
 7996SOL    HW235451   4.034   0.388   0.792 -0.0594 -1.4845  0.4150
 7997SOL     OW35452   3.908   1.136   3.457 -0.5409 -0.0321 -0.3405
 7997SOL    HW135453   3.916   1.074   3.530  2.5271  0.2784 -0.4014
 7997SOL    HW235454   3.828   1.184   3.477 -1.0012 -0.6899 -0.6507
 7998SOL     OW35455   3.202   3.302  12.607  0.1563 -0.5064 -0.5183
 7998SOL    HW135456   3.123   3.280  12.657  0.0013  0.7913 -0.1678
 7998SOL    HW235457   3.181   3.270  12.520 -1.8097 -0.4912 -0.0552
 7999SOL     OW35458   2.170   2.227   2.136 -0.6000  0.2054 -0.3823
 7999SOL    HW135459   2.131   2.148   2.173  0.4951  0.0071  0.3597
 7999SOL    HW235460   2.120   2.233   2.055 -0.7012  0.1094 -0.3276
 8000SOL     OW35461   4.675   1.569   7.240 -0.2364 -0.2565  0.0502
 8000SOL    HW135462   4.583   1.582   7.262 -1.4284 -2.4881 -3.5717
 8000SOL    HW235463   4.690   1.654   7.199 -0.8632  0.0424  0.4482
 8001SOL     OW35464   3.755   2.169  15.154 -0.3157 -0.1550 -0.5988
 8001SOL    HW135465   3.805   2.124  15.222  1.2676  0.0884 -1.5920
 8001SOL    HW235466   3.672   2.186  15.199  0.1089  1.0507 -0.2758
 8002SOL     OW35467   4.189   1.130   1.232 -0.4513  0.2613  0.0266
 8002SOL    HW135468   4.190   1.201   1.297 -0.3301  1.8822 -1.7480
 8002SOL    HW235469   4.129   1.072   1.279 -0.8648  0.7556  0.1066
 8003SOL     OW35470   1.558   3.874   8.515 -1.2295 -0.0684  0.1129
 8003SOL    HW135471   1.615   3.837   8.582  0.4647  3.7875  0.7949
 8003SOL    HW235472   1.473   3.843   8.547 -1.3656  2.4251  2.2051
 8004SOL     OW35473   2.648   0.057   1.409 -0.5563  0.0248  0.1213
 8004SOL    HW135474   2.691   0.128   1.363  1.9437 -0.0344  2.3310
 8004SOL    HW235475   2.689   0.066   1.496 -0.3941 -0.1583  0.0657
 8005SOL     OW35476   0.496   3.459  10.729  0.0096 -0.3418 -0.0706
 8005SOL    HW135477   0.572   3.433  10.781  2.1461  1.8731 -2.1023
 8005SOL    HW235478   0.497   3.375  10.684 -1.8993 -0.6919  0.5600
 8006SOL     OW35479   3.078   0.105   7.934 -0.0460  0.1687 -0.0187
 8006SOL    HW135480   3.030   0.186   7.949  0.5267  0.1710  1.8817
 8006SOL    HW235481   3.164   0.145   7.922  0.1004  0.7828  3.1403
 8007SOL     OW35482   4.119   4.492   5.228  0.0842 -0.7194  0.0797
 8007SOL    HW135483   4.127   4.565   5.289  0.5098 -0.0986 -0.7177
 8007SOL    HW235484   4.083   4.420   5.280 -0.0925 -0.5923  0.1320
 8008SOL     OW35485   0.739   4.196   3.501 -0.1518  0.0838  0.0933
 8008SOL    HW135486   0.701   4.175   3.586 -1.3228  1.6420 -0.0451
 8008SOL    HW235487   0.815   4.138   3.498 -1.1365 -1.2203  0.3982
 8009SOL     OW35488   2.021   2.589  10.323 -0.0594  0.3382 -0.1179
 8009SOL    HW135489   2.035   2.503  10.362  0.0333 -0.6949 -2.4188
 8009SOL    HW235490   1.928   2.592  10.347 -0.3372 -1.4433 -1.0190
 8010SOL     OW35491   1.012   3.464   5.884  0.5505 -0.2196 -0.3611
 8010SOL    HW135492   0.921   3.486   5.903  0.4325 -0.7186 -0.3717
 8010SOL    HW235493   0.998   3.412   5.805  1.6197 -0.5971 -0.3104
 8011SOL     OW35494   2.511   4.304  10.130  0.0142  0.1764  0.5952
 8011SOL    HW135495   2.535   4.229  10.075  0.3554  1.0856 -0.4971
 8011SOL    HW235496   2.564   4.279  10.206 -1.3725  1.4783  1.9940
 8012SOL     OW35497   1.469   0.258   5.700 -0.0928  0.1690  0.6567
 8012SOL    HW135498   1.438   0.226   5.615  1.1880  0.4698  0.0815
 8012SOL    HW235499   1.556   0.291   5.681 -1.1384  0.8356 -3.0041
 8013SOL     OW35500   2.779   2.490   1.939  0.3205 -0.5149  0.2156
 8013SOL    HW135501   2.753   2.581   1.932  0.6669 -0.5251 -1.4204
 8013SOL    HW235502   2.869   2.492   1.971  0.0105 -0.5022  1.0878
 8014SOL     OW35503   0.917   2.672   0.528  0.3261  0.2745 -0.2092
 8014SOL    HW135504   0.869   2.596   0.494  1.1826 -0.5511  0.4383
 8014SOL    HW235505   0.840   2.727   0.541 -0.5253 -0.5606 -1.7044
 8015SOL     OW35506   3.421   0.747   4.677  0.2307  0.6790  0.0225
 8015SOL    HW135507   3.468   0.830   4.669 -0.5978  1.2362  0.9577
 8015SOL    HW235508   3.334   0.770   4.710  0.0147 -1.8662  1.1708
 8016SOL     OW35509   3.037   0.302   4.458  0.0772 -0.1080  0.3046
 8016SOL    HW135510   3.042   0.383   4.406  0.2855 -1.2049 -1.3702
 8016SOL    HW235511   3.044   0.234   4.392 -0.6233  0.8145 -0.7291
 8017SOL     OW35512   3.850   0.915   0.036 -0.0456 -0.0764  0.2988
 8017SOL    HW135513   3.833   0.951  17.657  2.3723  2.0713  0.7032
 8017SOL    HW235514   3.807   0.829   0.033  1.3725 -0.7369 -0.8753
 8018SOL     OW35515   2.883   3.582   6.696 -0.3836 -0.3444  0.3697
 8018SOL    HW135516   2.896   3.654   6.635 -0.4005 -2.0898 -1.6959
 8018SOL    HW235517   2.920   3.612   6.779 -1.4690 -1.2677  1.1885
 8019SOL     OW35518   3.799   3.260   4.288  0.1159 -0.1363  0.0860
 8019SOL    HW135519   3.706   3.270   4.272  0.0476  0.5290  0.8984
 8019SOL    HW235520   3.842   3.345   4.273 -2.4797  1.1271 -0.2027
 8020SOL     OW35521   4.035   2.244   6.621  0.1493 -0.1187 -0.3326
 8020SOL    HW135522   3.991   2.212   6.700 -1.2052  1.3570 -0.4947
 8020SOL    HW235523   4.096   2.308   6.659 -1.0538  0.9882 -0.2675
 8021SOL     OW35524   3.652   0.232  16.050  0.5040  0.2094  0.1092
 8021SOL    HW135525   3.720   0.294  16.076 -1.3984  2.0748  0.6916
 8021SOL    HW235526   3.576   0.283  16.076 -0.9047 -0.7034 -2.1734
 8022SOL     OW35527   2.737   3.758  16.628 -0.0103  0.7475 -0.0324
 8022SOL    HW135528   2.792   3.810  16.570 -0.3505  0.5965 -0.4917
 8022SOL    HW235529   2.756   3.806  16.708 -1.3254  1.2837 -0.0354
 8023SOL     OW35530   2.023   0.344   3.150 -0.0410 -0.4379  0.1426
 8023SOL    HW135531   1.964   0.365   3.222  1.7627  0.8460  1.2308
 8023SOL    HW235532   2.096   0.303   3.197 -1.3537 -0.1283  2.3964
 8024SOL     OW35533   2.195   2.704   7.901  0.0684  0.1664 -0.8071
 8024SOL    HW135534   2.268   2.758   7.870  0.1350  0.3217 -0.3806
 8024SOL    HW235535   2.196   2.641   7.830  0.0161  0.2908 -0.9194
 8025SOL     OW35536   1.751   4.236  13.816 -0.3896  0.0946 -0.1893
 8025SOL    HW135537   1.790   4.321  13.835 -0.2521 -0.3856  1.6113
 8025SOL    HW235538   1.757   4.195  13.902 -0.0437  0.4450 -0.0479
 8026SOL     OW35539   4.119   2.858   1.083 -0.4269  0.2391  0.0074
 8026SOL    HW135540   4.060   2.932   1.068 -1.4986 -0.8695 -1.2020
 8026SOL    HW235541   4.062   2.782   1.072 -2.5663  1.6355  1.2151
 8027SOL     OW35542   3.710   3.123   6.257 -0.1877  0.1913  0.1825
 8027SOL    HW135543   3.709   3.201   6.202 -0.8643  0.2011  0.2074
 8027SOL    HW235544   3.798   3.126   6.294 -0.3124 -0.2891  0.5289
 8028SOL     OW35545   0.742   3.984  13.359  0.6007  0.5893 -0.2572
 8028SOL    HW135546   0.770   4.070  13.391  0.1179  0.0782  1.5220
 8028SOL    HW235547   0.679   3.960  13.427  0.1032 -0.9160 -1.2516
 8029SOL     OW35548   0.232   3.896   2.536 -0.7022 -0.3366 -0.1984
 8029SOL    HW135549   0.259   3.984   2.513 -2.4517 -0.3702 -2.3090
 8029SOL    HW235550   0.318   3.856   2.545 -1.4454 -1.7499  0.6568
 8030SOL     OW35551   1.799   2.042   8.580 -0.3232  0.0419  0.4453
 8030SOL    HW135552   1.775   1.966   8.634 -0.9711  0.0283  0.1330
 8030SOL    HW235553   1.894   2.030   8.579 -0.3892 -0.0347 -3.0580
 8031SOL     OW35554   0.089   1.514  12.150  0.2397  0.0014 -0.7879
 8031SOL    HW135555   0.055   1.601  12.170  4.7035  1.3689  0.8518
 8031SOL    HW235556   0.084   1.509  12.055  1.6457 -0.8262 -0.8112
 8032SOL     OW35557   2.053   2.093   8.213  0.2416 -0.1788 -0.0254
 8032SOL    HW135558   1.968   2.080   8.255  0.6110 -0.9085  0.4942
 8032SOL    HW235559   2.117   2.094   8.284  0.7461 -0.9607 -0.4686
 8033SOL     OW35560   1.059   0.365   6.731 -0.4846 -0.4698 -0.5004
 8033SOL    HW135561   1.028   0.382   6.642  1.1218 -1.3301 -1.2329
 8033SOL    HW235562   1.102   0.444   6.763  1.2620 -1.1215 -1.2519
 8034SOL     OW35563   0.793   0.573  10.913  0.3052  0.4025 -0.6740
 8034SOL    HW135564   0.735   0.497  10.911  1.2139 -0.2857 -0.2944
 8034SOL    HW235565   0.725   0.639  10.928  0.8444  1.0637 -1.1393
 8035SOL     OW35566   4.652   4.116   8.536  1.0376 -0.3359 -0.1263
 8035SOL    HW135567   4.603   4.037   8.512  2.6142 -1.0898 -0.8555
 8035SOL    HW235568   4.608   4.151   8.614  1.2945 -0.0285 -0.1206
 8036SOL     OW35569   1.404   2.076   0.695 -0.0149 -0.1478  0.4287
 8036SOL    HW135570   1.437   1.988   0.679 -1.6178 -0.7034  0.2359
 8036SOL    HW235571   1.459   2.105   0.767 -0.8691 -0.4640  1.2060
 8037SOL     OW35572   0.231   1.115   7.982 -0.5629 -0.0588 -0.3448
 8037SOL    HW135573   0.164   1.154   8.038 -1.3612 -0.1632 -1.2417
 8037SOL    HW235574   0.227   1.172   7.906  1.5007  0.0408 -0.3853
 8038SOL     OW35575   0.664   1.725   4.058  0.1971  0.2811 -0.3812
 8038SOL    HW135576   0.754   1.721   4.024 -0.8263 -1.9509 -2.8461
 8038SOL    HW235577   0.636   1.637   4.032  0.6126 -0.3389  1.3185
 8039SOL     OW35578   1.733   2.787  11.454 -0.1321 -0.1362 -0.0777
 8039SOL    HW135579   1.798   2.794  11.524 -0.3962  4.0005 -0.2970
 8039SOL    HW235580   1.725   2.691  11.456  1.6025 -0.2697  0.5818
 8040SOL     OW35581   4.232   0.766   5.200  0.2241  0.2286  0.0625
 8040SOL    HW135582   4.148   0.809   5.184 -0.0670 -0.2135  0.4003
 8040SOL    HW235583   4.204   0.678   5.227  1.4432 -0.7719 -1.9592
 8041SOL     OW35584   0.624   4.009   5.834  0.9324  0.2359 -0.4798
 8041SOL    HW135585   0.691   3.984   5.771  1.9386  1.8888 -0.0751
 8041SOL    HW235586   0.606   4.097   5.801  1.1095  0.2267 -0.5987
 8042SOL     OW35587   3.129   3.655  12.373  0.3734 -0.0603  0.2732
 8042SOL    HW135588   3.076   3.640  12.295  0.8892  1.2578 -0.3351
 8042SOL    HW235589   3.115   3.750  12.379  0.4463 -0.1270  1.3778
 8043SOL     OW35590   3.133   0.684  12.259  0.4723 -0.4315  0.1125
 8043SOL    HW135591   3.050   0.711  12.299 -0.5352 -0.5896 -1.8536
 8043SOL    HW235592   3.161   0.617  12.322  2.5540  1.3793  1.1114
 8044SOL     OW35593   0.425   1.259   5.980  0.1360 -0.3381 -0.8328
 8044SOL    HW135594   0.433   1.347   5.945 -1.6549  0.3474  0.4925
 8044SOL    HW235595   0.351   1.236   5.924 -1.0520  0.2899  0.4804
 8045SOL     OW35596   3.097   1.511   7.285 -0.2577 -0.1658  0.2634
 8045SOL    HW135597   3.174   1.556   7.250  0.1725  0.6902  2.3148
 8045SOL    HW235598   3.088   1.440   7.220  0.4872  0.4340 -0.4977
 8046SOL     OW35599   4.033   2.512   2.377 -0.2147  0.1723 -0.2688
 8046SOL    HW135600   3.998   2.593   2.414 -2.1992 -1.5986  1.6936
 8046SOL    HW235601   3.973   2.495   2.305  1.0443 -2.2587 -0.7270
 8047SOL     OW35602   2.218   0.901  11.544  0.1617 -0.5464  0.5403
 8047SOL    HW135603   2.306   0.937  11.532 -0.6676  0.7227 -1.8088
 8047SOL    HW235604   2.182   0.970  11.600 -1.4431  0.2256 -1.4277
 8048SOL     OW35605   2.719   0.343   0.910 -0.0992 -0.7256  0.1241
 8048SOL    HW135606   2.716   0.405   0.837  1.5714 -3.1178 -1.9583
 8048SOL    HW235607   2.688   0.264   0.867  1.1154 -0.1826 -1.7711
 8049SOL     OW35608   3.583   2.309   7.684  0.5272 -0.6084 -0.6433
 8049SOL    HW135609   3.489   2.293   7.689  0.4935 -0.0605  0.4299
 8049SOL    HW235610   3.589   2.404   7.673  0.5285 -0.6651 -1.1524
 8050SOL     OW35611   4.350   3.613   5.098 -0.4873  0.3395 -0.0714
 8050SOL    HW135612   4.431   3.563   5.090 -0.7420  0.1132 -1.2350
 8050SOL    HW235613   4.287   3.545   5.071 -1.2974  1.3244 -0.6438
 8051SOL     OW35614   2.261   4.465   4.516  0.5147 -0.6079 -0.0249
 8051SOL    HW135615   2.292   4.383   4.555  0.7152  0.6358  2.4576
 8051SOL    HW235616   2.304   4.471   4.431  1.6528  2.3647  0.7683
 8052SOL     OW35617   4.485   2.372   0.536  0.1773  0.5245 -0.4918
 8052SOL    HW135618   4.413   2.367   0.598  0.4120 -1.0787 -0.3329
 8052SOL    HW235619   4.455   2.329   0.456  1.2365 -2.0737  0.4909
 8053SOL     OW35620   4.115   1.770   6.154 -0.2771 -0.1900 -0.5577
 8053SOL    HW135621   4.027   1.808   6.153 -0.2661 -0.1652 -0.5731
 8053SOL    HW235622   4.164   1.844   6.118 -0.1296  0.6614  1.3904
 8054SOL     OW35623   3.517   0.448   4.212 -0.0695 -0.5331  0.5643
 8054SOL    HW135624   3.472   0.485   4.287 -0.1996  0.3429  0.0577
 8054SOL    HW235625   3.531   0.530   4.164 -0.7891 -1.2020 -0.7970
 8055SOL     OW35626   1.843   4.302   3.767  0.2814  0.1447 -0.6011
 8055SOL    HW135627   1.802   4.375   3.721 -0.5189  0.3405  0.4203
 8055SOL    HW235628   1.773   4.296   3.833  0.4465  0.5347 -0.3870
 8056SOL     OW35629   1.362   3.096   1.622 -0.0678 -0.4565  0.2508
 8056SOL    HW135630   1.268   3.077   1.630  0.2834 -2.2705  0.0894
 8056SOL    HW235631   1.376   3.168   1.683  1.9546 -0.9769  0.3815
 8057SOL     OW35632   3.053   0.975   6.799 -0.0400  0.7695 -0.4569
 8057SOL    HW135633   3.125   1.012   6.747  3.5452 -1.1723  3.0638
 8057SOL    HW235634   2.991   0.960   6.728 -0.0200 -0.1501 -0.2768
 8058SOL     OW35635   1.988   4.549   4.452 -0.0045 -0.1962  0.0403
 8058SOL    HW135636   1.985   4.628   4.506  1.7509  0.2218 -0.4625
 8058SOL    HW235637   2.079   4.521   4.450  0.0580  0.1092 -1.1033
 8059SOL     OW35638   2.160   1.181   3.024  0.3865 -0.0754 -0.2360
 8059SOL    HW135639   2.198   1.134   3.099  1.6971 -0.8311 -1.3587
 8059SOL    HW235640   2.120   1.255   3.068 -1.4675 -1.0694 -0.2737
 8060SOL     OW35641   1.940   3.019  14.879  0.0459 -0.1461  0.1838
 8060SOL    HW135642   1.975   2.935  14.851 -1.2271 -0.6354  0.0251
 8060SOL    HW235643   1.885   3.050  14.808  0.6867  1.3760  0.3658
 8061SOL     OW35644   3.741   1.084  16.888 -0.3167 -0.5061  0.2963
 8061SOL    HW135645   3.651   1.102  16.912 -1.0613 -1.5879 -1.6723
 8061SOL    HW235646   3.768   1.169  16.854 -0.8482 -0.9826 -1.3309
 8062SOL     OW35647   2.604   1.858   6.267  0.4251  0.0391 -0.5438
 8062SOL    HW135648   2.629   1.947   6.290  0.8894 -1.0152  2.9669
 8062SOL    HW235649   2.682   1.815   6.231  0.5307 -1.3378  1.3623
 8063SOL     OW35650   1.683   2.487  14.280  0.0433 -0.0995 -0.4144
 8063SOL    HW135651   1.604   2.537  14.302  0.2172  0.7224 -1.6745
 8063SOL    HW235652   1.703   2.523  14.193 -1.4834  1.2865 -0.1856
 8064SOL     OW35653   0.306   4.092  14.329  0.3362 -0.2177  0.3591
 8064SOL    HW135654   0.300   4.114  14.236  0.5272 -0.3345  0.3185
 8064SOL    HW235655   0.259   4.009  14.336  0.0306  0.0990  2.1793
 8065SOL     OW35656   2.620   2.170   3.833 -0.0536 -0.2648 -0.4775
 8065SOL    HW135657   2.700   2.164   3.781  1.6259  0.5124  1.9715
 8065SOL    HW235658   2.559   2.170   3.760 -1.4056 -1.7804  0.6689
 8066SOL     OW35659   4.123   0.776   9.932  0.0380 -0.1083 -0.0554
 8066SOL    HW135660   4.106   0.751   9.842  0.9809  3.3458 -1.2035
 8066SOL    HW235661   4.194   0.840   9.920 -0.5742  0.2927 -1.5414
 8067SOL     OW35662   3.356   1.359  12.322 -0.2685 -0.4477 -0.2219
 8067SOL    HW135663   3.334   1.328  12.410  1.0017  1.5811  0.8108
 8067SOL    HW235664   3.350   1.277  12.273  0.2846 -2.0009  2.3097
 8068SOL     OW35665   0.416   4.398  17.677 -0.2795 -0.4056  0.3545
 8068SOL    HW135666   0.357   4.326  17.699  0.4294 -1.0857  0.0308
 8068SOL    HW235667   0.441   4.424   0.058 -0.0321 -1.0927  0.4888
 8069SOL     OW35668   0.062   0.529   7.872 -0.6232 -0.3354 -0.6335
 8069SOL    HW135669   0.111   0.605   7.904 -0.7570  0.0213 -1.2597
 8069SOL    HW235670   4.705   0.533   7.917 -1.7341  1.0193 -2.8287
 8070SOL     OW35671   2.319   2.712   0.979 -0.3861 -0.2842  0.0884
 8070SOL    HW135672   2.312   2.693   1.073 -1.3653 -0.5039 -0.0289
 8070SOL    HW235673   2.374   2.790   0.979  2.7497 -2.4512  0.6752
 8071SOL     OW35674   0.113   0.360   6.638  0.0703 -0.3551 -0.1262
 8071SOL    HW135675   0.072   0.310   6.709  1.9460 -1.6539  0.0441
 8071SOL    HW235676   0.141   0.284   6.587  0.3744  0.1027 -0.6384
 8072SOL     OW35677   3.547   1.013   0.102  0.1105  0.1363  0.1593
 8072SOL    HW135678   3.629   1.012   0.053 -0.8727  3.0160 -1.5115
 8072SOL    HW235679   3.534   1.103   0.133 -0.6879 -0.6383  2.1061
 8073SOL     OW35680   0.320   1.725  12.228  0.0182  0.1434 -0.1452
 8073SOL    HW135681   0.242   1.757  12.183  1.2328  1.7890 -1.0577
 8073SOL    HW235682   0.305   1.751  12.319 -3.4546 -0.1104 -0.6280
 8074SOL     OW35683   2.185   0.744   9.368  0.8587 -0.1245 -0.3687
 8074SOL    HW135684   2.214   0.810   9.431  0.0662  0.6096 -0.7690
 8074SOL    HW235685   2.171   0.807   9.298 -1.1632 -1.0743 -0.8166
 8075SOL     OW35686   1.077   2.894   5.282  0.3229  0.3688  0.1905
 8075SOL    HW135687   1.097   2.961   5.216  3.1979  0.4681  1.1530
 8075SOL    HW235688   1.024   2.830   5.235  0.6905 -1.0532  1.7440
 8076SOL     OW35689   0.394   0.312   5.725 -0.1430  0.3607 -0.2001
 8076SOL    HW135690   0.426   0.305   5.815  1.6584  0.0408 -0.8681
 8076SOL    HW235691   0.453   0.247   5.686 -0.9217 -0.4620  0.0037
 8077SOL     OW35692   3.558   3.780   6.418 -0.1451  0.1927 -0.0923
 8077SOL    HW135693   3.495   3.724   6.375 -0.5592 -0.5037  1.4272
 8077SOL    HW235694   3.591   3.740   6.499 -0.3734 -0.7782 -0.4882
 8078SOL     OW35695   4.471   3.110   9.698 -0.4601  0.2716 -0.1984
 8078SOL    HW135696   4.468   3.184   9.637 -2.1940 -1.0339 -1.6823
 8078SOL    HW235697   4.440   3.040   9.640 -0.4169  0.3376 -0.3026
 8079SOL     OW35698   1.889   3.659   5.941 -0.5153 -0.4262  0.5094
 8079SOL    HW135699   1.800   3.692   5.929 -0.3654 -0.4499 -0.7227
 8079SOL    HW235700   1.907   3.640   5.849 -0.6472 -0.3098  0.4603
 8080SOL     OW35701   3.865   0.699   7.153  0.0022 -0.0286  0.2252
 8080SOL    HW135702   3.821   0.615   7.167 -1.9257  0.8568 -0.3682
 8080SOL    HW235703   3.952   0.669   7.127 -0.0071  0.6536 -0.6300
 8081SOL     OW35704   1.337   2.440   1.177 -0.3014 -0.1815  0.0505
 8081SOL    HW135705   1.259   2.494   1.192 -0.6637 -0.8969  0.7465
 8081SOL    HW235706   1.287   2.367   1.140 -0.2299 -0.8897  1.3546
 8082SOL     OW35707   3.933   3.649  15.547  0.4411 -0.6919  0.5222
 8082SOL    HW135708   3.865   3.698  15.501  0.0137 -1.9930 -0.2040
 8082SOL    HW235709   4.006   3.711  15.548 -2.5353  2.8094  1.6387
 8083SOL     OW35710   3.673   2.049   3.528 -0.3426  0.4280 -0.3029
 8083SOL    HW135711   3.617   1.983   3.487 -0.0262  0.0351 -0.1022
 8083SOL    HW235712   3.621   2.086   3.600 -0.9705 -0.1768 -0.4438
 8084SOL     OW35713   2.996   3.429  11.639  0.4946 -0.3259  0.4116
 8084SOL    HW135714   3.037   3.344  11.657  2.3602  0.5753  0.4079
 8084SOL    HW235715   3.070   3.487  11.657  0.2759  0.4117 -1.1274
 8085SOL     OW35716   2.020   4.300   2.526 -0.2078  0.6554  0.2141
 8085SOL    HW135717   2.107   4.266   2.505  0.5898  2.3035  0.8063
 8085SOL    HW235718   1.979   4.322   2.442  0.3146 -0.5782 -0.3532
 8086SOL     OW35719   4.426   3.944   7.305 -0.4648 -0.6531 -0.1165
 8086SOL    HW135720   4.404   4.037   7.314 -2.9876 -1.1152 -1.2886
 8086SOL    HW235721   4.510   3.946   7.259 -1.2782  0.1622 -1.5702
 8087SOL     OW35722   0.953   1.480   6.032 -0.4162  0.4624  0.6562
 8087SOL    HW135723   0.885   1.546   6.045 -0.5719  0.0656  1.9123
 8087SOL    HW235724   0.902   1.409   6.070  1.4756 -0.5380  1.3317
 8088SOL     OW35725   3.447   3.726   9.383 -0.0290  0.2139  0.4365
 8088SOL    HW135726   3.430   3.647   9.332  1.3202 -0.4807  1.0788
 8088SOL    HW235727   3.438   3.685   9.470  2.1715  0.9635  1.0085
 8089SOL     OW35728   2.207   3.749   3.738 -0.2008 -0.1248 -0.5785
 8089SOL    HW135729   2.251   3.710   3.813 -1.7225  2.5195  1.7102
 8089SOL    HW235730   2.240   3.699   3.664  0.0371 -0.4364 -0.2596
 8090SOL     OW35731   0.048   4.310  10.185  0.1988 -0.1508  0.3514
 8090SOL    HW135732   0.030   4.258  10.263 -0.6774 -0.4210 -0.0337
 8090SOL    HW235733   4.702   4.372  10.180 -0.1693 -0.7701 -1.8200
 8091SOL     OW35734   4.466   0.404   0.264 -0.2034  0.0788 -0.6476
 8091SOL    HW135735   4.386   0.369   0.225 -0.4343  1.0034 -1.0114
 8091SOL    HW235736   4.447   0.497   0.247  0.8837  0.2389 -0.9645
 8092SOL     OW35737   1.579   3.144  15.947 -0.0842 -0.4691 -0.1315
 8092SOL    HW135738   1.522   3.089  16.001  1.2144 -0.3883  1.3063
 8092SOL    HW235739   1.629   3.080  15.897  0.7729  0.9039 -1.0508
 8093SOL     OW35740   2.205   0.336   7.147 -0.5101  0.0177  0.2419
 8093SOL    HW135741   2.191   0.297   7.060  1.0541 -1.7482  0.7598
 8093SOL    HW235742   2.298   0.356   7.153 -0.9200  1.9866 -0.1456
 8094SOL     OW35743   3.767   4.642  10.122 -0.4223 -0.0200 -0.3728
 8094SOL    HW135744   3.727   4.636  10.035  2.9727  1.0766 -2.0157
 8094SOL    HW235745   3.797   4.551  10.131 -0.2570  0.2496  1.7145
 8095SOL     OW35746   2.299   4.002   0.424 -0.1768 -0.3544 -0.6441
 8095SOL    HW135747   2.366   4.026   0.361  0.8223 -1.2529  0.0706
 8095SOL    HW235748   2.267   3.923   0.380  1.7152 -1.2614 -0.3697
 8096SOL     OW35749   4.432   0.614  14.667  0.3126  0.1509 -0.2217
 8096SOL    HW135750   4.378   0.679  14.621  1.2405  1.2572  0.2418
 8096SOL    HW235751   4.404   0.534  14.623 -0.8883 -0.2115  1.2024
 8097SOL     OW35752   3.180   0.005   9.377  0.2864 -0.0456  0.4427
 8097SOL    HW135753   3.150   4.721   9.286  0.8307 -2.0825  0.5082
 8097SOL    HW235754   3.268   4.694   9.375 -0.1838 -1.1820  1.4038
 8098SOL     OW35755   0.263   1.121   5.797 -0.4191  0.4086 -0.1669
 8098SOL    HW135756   0.265   1.041   5.849  0.0765  0.2573 -0.4190
 8098SOL    HW235757   0.196   1.103   5.731 -0.0606  0.1894 -0.4744
 8099SOL     OW35758   0.875   2.973   9.249  0.6475 -0.0956  0.2212
 8099SOL    HW135759   0.919   3.026   9.315 -0.2295 -0.3490  1.0085
 8099SOL    HW235760   0.942   2.932   9.194  3.1431  2.4403  1.3791
 8100SOL     OW35761   1.266   0.812  14.070 -0.1555  0.3976  0.2651
 8100SOL    HW135762   1.318   0.739  14.036 -0.5997  0.1058  0.2025
 8100SOL    HW235763   1.248   0.855  13.987 -0.1838  2.5540  1.4028
 8101SOL     OW35764   1.865   0.271   7.029  0.0288 -0.3628 -0.2407
 8101SOL    HW135765   1.788   0.221   7.056 -1.1438  0.1243 -2.6821
 8101SOL    HW235766   1.874   0.328   7.105 -0.9397 -0.5254 -0.0080
 8102SOL     OW35767   0.121   1.143   1.647  0.2892 -0.0706  0.6268
 8102SOL    HW135768   0.134   1.215   1.708  1.8949 -1.1978  1.6210
 8102SOL    HW235769   0.206   1.099   1.648  0.7947  0.7961 -3.2645
 8103SOL     OW35770   3.932   3.460  15.733  0.5459 -0.1962  0.5159
 8103SOL    HW135771   3.991   3.398  15.691  1.0815  1.3976 -1.1055
 8103SOL    HW235772   3.936   3.527  15.664  3.0935 -0.8503  0.0324
 8104SOL     OW35773   0.513   4.361   2.552 -0.3759 -0.0416 -0.0489
 8104SOL    HW135774   0.600   4.395   2.532 -0.6673  2.2267  2.4225
 8104SOL    HW235775   0.528   4.279   2.598  1.4284  1.0934  1.3917
 8105SOL     OW35776   4.422   3.398  11.909  0.2928  0.2690 -0.1520
 8105SOL    HW135777   4.468   3.317  11.885  1.8499  0.1746  3.1069
 8105SOL    HW235778   4.416   3.388  12.004 -0.3814 -1.8127 -0.4169
 8106SOL     OW35779   0.316   3.349   3.781 -0.1262  0.5372 -0.1329
 8106SOL    HW135780   0.298   3.403   3.704  0.9084 -1.6814 -1.9554
 8106SOL    HW235781   0.411   3.336   3.782 -0.5318 -2.6399 -2.3121
 8107SOL     OW35782   0.456   1.364   6.468  0.4955 -0.1221 -0.1016
 8107SOL    HW135783   0.446   1.278   6.426  1.0585 -0.4344  0.3980
 8107SOL    HW235784   0.501   1.411   6.398  2.7970 -1.5467  0.4145
 8108SOL     OW35785   2.753   4.052   0.838  0.9122 -0.2395  0.2419
 8108SOL    HW135786   2.660   4.037   0.855  0.2312  3.6290 -0.1826
 8108SOL    HW235787   2.752   4.081   0.747  2.2497  0.8642  0.5782
 8109SOL     OW35788   1.744   1.700   5.883  0.0285 -0.6302 -0.0947
 8109SOL    HW135789   1.790   1.644   5.821  0.5852  1.2251 -1.3417
 8109SOL    HW235790   1.732   1.639   5.956  1.5465 -1.7623 -0.7832
 8110SOL     OW35791   3.885   2.182   3.227  0.5548 -0.8796  0.2850
 8110SOL    HW135792   3.916   2.203   3.139 -0.1263  0.6377  0.4212
 8110SOL    HW235793   3.884   2.263   3.278  2.6400  0.1936 -1.3589
 8111SOL     OW35794   4.698   3.005   1.733  0.3940  0.5338 -0.1022
 8111SOL    HW135795   4.695   3.014   1.637 -3.6581  2.7165  0.2059
 8111SOL    HW235796   4.626   3.064   1.756 -0.5802 -1.2478  1.3725
 8112SOL     OW35797   2.079   0.419   9.219 -0.3741 -0.2015 -0.3319
 8112SOL    HW135798   2.059   0.333   9.181  1.6605  0.5702 -3.1848
 8112SOL    HW235799   2.042   0.394   9.303 -2.1320 -0.3745 -1.1591
 8113SOL     OW35800   3.517   4.162  16.368 -0.7526  0.3405  0.5742
 8113SOL    HW135801   3.528   4.231  16.435  0.6062 -0.5760  1.2840
 8113SOL    HW235802   3.470   4.197  16.293 -0.8246  1.5105  1.1632
 8114SOL     OW35803   1.505   1.354   3.774 -0.0044  0.5074 -0.3961
 8114SOL    HW135804   1.439   1.310   3.827  1.2820 -2.6407 -1.4343
 8114SOL    HW235805   1.555   1.384   3.850 -0.1248 -0.5320  0.0954
 8115SOL     OW35806   4.200   2.026   8.947 -0.2505  0.2067 -0.2127
 8115SOL    HW135807   4.187   1.947   9.000 -1.8280 -0.1193 -1.0661
 8115SOL    HW235808   4.288   2.007   8.914 -1.6559 -1.0233 -3.3089
 8116SOL     OW35809   4.285   0.513   4.366  0.1576  0.1545  0.0084
 8116SOL    HW135810   4.300   0.438   4.309  2.2633  0.5462  0.0543
 8116SOL    HW235811   4.378   0.517   4.389 -0.4728  2.7817  2.2306
 8117SOL     OW35812   0.207   2.462   3.917  0.8136 -0.1930 -0.4996
 8117SOL    HW135813   0.253   2.381   3.897 -1.2343 -1.1661 -1.2429
 8117SOL    HW235814   0.122   2.430   3.948  0.9217  0.7485  0.7619
 8118SOL     OW35815   4.683   2.996  14.541 -0.0048  0.4161  0.2217
 8118SOL    HW135816   0.034   3.019  14.591  2.3005  0.0448 -3.1425
 8118SOL    HW235817   4.652   3.084  14.524 -0.6825  0.1436  0.0658
 8119SOL     OW35818   3.552   2.289   2.696  0.4026 -0.1660  0.1478
 8119SOL    HW135819   3.484   2.241   2.649  0.5564 -0.7009  0.4692
 8119SOL    HW235820   3.527   2.368   2.648 -1.6977 -1.5121 -0.9589
 8120SOL     OW35821   4.491   2.225   5.645  0.4273  1.0533 -0.1134
 8120SOL    HW135822   4.494   2.201   5.737  0.8947  0.1627 -0.3657
 8120SOL    HW235823   4.400   2.209   5.620  0.5095 -1.7745  1.4750
 8121SOL     OW35824   4.586   4.509   5.121 -0.0226  0.4197  0.1829
 8121SOL    HW135825   4.597   4.585   5.179 -1.3436  1.2024 -0.5892
 8121SOL    HW235826   4.548   4.441   5.176  0.6169  0.6700  0.9421
 8122SOL     OW35827   1.472   4.404   1.661 -0.3033  0.0698  0.1744
 8122SOL    HW135828   1.385   4.390   1.625 -0.1775  0.3608 -0.2401
 8122SOL    HW235829   1.465   4.481   1.717  1.0939  1.9142 -2.1904
 8123SOL     OW35830   0.805   0.173   4.947 -0.5924  0.4670 -0.0391
 8123SOL    HW135831   0.737   0.223   4.992  1.2454  2.2282  0.7717
 8123SOL    HW235832   0.759   0.151   4.865  0.4016 -0.1422 -0.4328
 8124SOL     OW35833   0.987   4.636   2.158  0.5968 -0.4654 -0.3675
 8124SOL    HW135834   1.079   4.653   2.137  0.5991 -0.2943 -0.2190
 8124SOL    HW235835   0.972   4.563   2.098 -4.4151  0.9300 -0.8540
 8125SOL     OW35836   3.009   1.841   7.416 -0.0283 -0.2128  0.1084
 8125SOL    HW135837   2.932   1.867   7.467  1.4681  1.0714  1.6911
 8125SOL    HW235838   3.065   1.789   7.472  2.0479  2.2907  0.3303
 8126SOL     OW35839   1.623   1.640   5.598  0.2702 -0.1158 -0.1638
 8126SOL    HW135840   1.572   1.623   5.519 -0.6271  1.3678  0.0845
 8126SOL    HW235841   1.709   1.663   5.564  0.8762 -1.6527  0.3560
 8127SOL     OW35842   0.858   1.555   4.463  0.0238  1.1294 -0.2210
 8127SOL    HW135843   0.818   1.491   4.404 -0.2710  0.3285  0.8558
 8127SOL    HW235844   0.952   1.541   4.454 -0.4511 -1.9138 -0.2853
 8128SOL     OW35845   0.303   0.584  12.829  0.1585 -0.1292  0.1993
 8128SOL    HW135846   0.288   0.562  12.920 -1.0960  1.3610  0.3534
 8128SOL    HW235847   0.231   0.533  12.791  0.5932  0.2203 -1.0821
 8129SOL     OW35848   4.327   1.755  12.110  0.1338 -0.5710 -0.0117
 8129SOL    HW135849   4.251   1.735  12.164 -0.9731  2.0541 -0.5939
 8129SOL    HW235850   4.400   1.758  12.171  0.8848 -0.8927 -0.9045
 8130SOL     OW35851   2.999   1.420   9.943 -0.0965 -0.3808 -0.5513
 8130SOL    HW135852   2.971   1.488  10.004  1.5077 -0.9973  0.8750
 8130SOL    HW235853   3.084   1.461   9.924 -0.4929  2.1943  3.3061
 8131SOL     OW35854   1.108   2.927   3.152  0.4893 -0.1095 -0.3422
 8131SOL    HW135855   1.137   2.978   3.076 -2.5809  1.4388 -0.5064
 8131SOL    HW235856   1.135   2.839   3.127  0.7522 -0.6100  1.7040
 8132SOL     OW35857   0.363   1.578   4.144  0.6991 -0.2067 -0.0407
 8132SOL    HW135858   0.430   1.552   4.081  0.4354 -0.3423 -0.2641
 8132SOL    HW235859   0.420   1.591   4.220  0.6311  2.1417 -0.4126
 8133SOL     OW35860   0.157   4.672   9.566  0.6607 -0.0541 -0.1856
 8133SOL    HW135861   0.164   4.617   9.643  0.2588  0.3683  0.1602
 8133SOL    HW235862   0.154   0.033   9.604 -1.4677  0.1358 -0.7689
 8134SOL     OW35863   1.392   3.743   8.951  0.0696 -0.3523 -0.2439
 8134SOL    HW135864   1.443   3.661   8.951  1.3097  0.4132 -0.8196
 8134SOL    HW235865   1.389   3.770   9.043 -0.3228  1.5801 -0.8396
 8135SOL     OW35866   2.618   4.382   9.331 -0.1182 -0.2799 -0.3084
 8135SOL    HW135867   2.567   4.372   9.250 -0.4655 -1.8070  0.1111
 8135SOL    HW235868   2.585   4.308   9.381 -2.5951  1.8048  1.1478
 8136SOL     OW35869   3.451   0.033   4.101  0.2714 -0.8915 -0.5727
 8136SOL    HW135870   3.400   4.700   4.156 -0.5034  0.1892 -0.1138
 8136SOL    HW235871   3.439   4.723   4.013  1.3094 -1.4747 -0.4695
 8137SOL     OW35872   3.824   1.422   8.711 -0.5276  0.7938 -0.2271
 8137SOL    HW135873   3.854   1.350   8.656 -2.0083  1.6552 -2.1454
 8137SOL    HW235874   3.896   1.426   8.774  0.0379  0.6070 -0.8651
 8138SOL     OW35875   4.217   0.693   0.969 -0.3958 -0.7961  0.5007
 8138SOL    HW135876   4.203   0.713   0.876 -2.8699  2.3343  1.5236
 8138SOL    HW235877   4.283   0.759   0.991 -1.8298  1.1068 -0.9024
 8139SOL     OW35878   2.242   4.153   5.145 -0.2458  0.0275  0.1583
 8139SOL    HW135879   2.302   4.093   5.100 -0.1458  1.3888 -1.5353
 8139SOL    HW235880   2.312   4.202   5.188  0.7538 -1.6621  0.4660
 8140SOL     OW35881   4.062   4.235   7.723 -0.1095 -0.0961 -0.6193
 8140SOL    HW135882   4.145   4.225   7.769 -1.2879  0.6671  1.6411
 8140SOL    HW235883   4.095   4.281   7.645 -0.4213 -1.8989 -1.8113
 8141SOL     OW35884   0.814   1.025   3.473  0.0344  0.1908  0.4245
 8141SOL    HW135885   0.727   0.985   3.478  0.2681 -0.0477  2.7054
 8141SOL    HW235886   0.868   0.966   3.420 -1.2035 -0.5397 -0.0313
 8142SOL     OW35887   4.622   2.853  15.463 -0.8293 -0.0414  0.0522
 8142SOL    HW135888   4.550   2.838  15.524  1.0800 -3.6872  1.4580
 8142SOL    HW235889   4.691   2.807  15.512 -0.2014  0.5124 -0.3151
 8143SOL     OW35890   0.431   2.752   6.857 -0.0684 -0.3860 -0.7467
 8143SOL    HW135891   0.426   2.792   6.944  0.9167 -2.3493  0.2099
 8143SOL    HW235892   0.346   2.780   6.824 -0.7756  0.1721  1.5167
 8144SOL     OW35893   0.969   4.209   4.919  0.5195 -0.4021 -0.3172
 8144SOL    HW135894   0.961   4.151   4.995  3.0287 -0.5325 -0.1336
 8144SOL    HW235895   0.874   4.209   4.907  0.7506 -0.5279 -2.0693
 8145SOL     OW35896   2.704   4.174   4.351 -0.6214 -0.2250 -0.0730
 8145SOL    HW135897   2.622   4.128   4.335 -0.9678 -0.0709  1.2384
 8145SOL    HW235898   2.675   4.250   4.402 -1.1435  0.8692 -2.0122
 8146SOL     OW35899   2.718   0.018   9.609 -0.4322 -0.2395  0.3487
 8146SOL    HW135900   2.732   0.079   9.537 -0.1091 -0.1143  0.5141
 8146SOL    HW235901   2.738   0.077   9.683 -0.6120  0.3509 -0.0710
 8147SOL     OW35902   2.185   0.329   1.383  0.1467 -0.2800  0.1184
 8147SOL    HW135903   2.241   0.269   1.334  1.3158  0.7665  0.1794
 8147SOL    HW235904   2.209   0.315   1.474  1.5111 -0.0210 -0.2057
 8148SOL     OW35905   4.494   1.182  14.085 -0.4527  0.2880  0.3076
 8148SOL    HW135906   4.435   1.202  14.157 -0.2551  1.1135  0.2420
 8148SOL    HW235907   4.426   1.177  14.018  1.1891 -0.9785 -1.2818
 8149SOL     OW35908   0.638   2.518   4.405 -0.7052 -0.3141 -0.0271
 8149SOL    HW135909   0.650   2.539   4.498  0.2067  2.5540 -0.7942
 8149SOL    HW235910   0.544   2.503   4.398 -1.1060  0.1498  4.1996
 8150SOL     OW35911   0.764   4.008   6.289  0.4201 -0.4349  0.5084
 8150SOL    HW135912   0.713   4.007   6.371 -0.8193 -0.4009 -0.2565
 8150SOL    HW235913   0.847   3.964   6.307  1.0810  0.3853 -0.5237
 8151SOL     OW35914   1.610   3.605   7.863  0.2059  0.0644  0.0144
 8151SOL    HW135915   1.626   3.534   7.801  2.0352  1.5635 -1.2258
 8151SOL    HW235916   1.523   3.637   7.836  0.6248  1.9252  0.8770
 8152SOL     OW35917   4.166   0.664   2.188 -0.1452  0.4690  0.7333
 8152SOL    HW135918   4.258   0.687   2.178  0.5906 -2.3185  1.2004
 8152SOL    HW235919   4.148   0.619   2.106 -0.1455  1.8639 -0.0281
 8153SOL     OW35920   2.766   2.097  11.193 -0.8418 -0.7810  0.1356
 8153SOL    HW135921   2.786   2.166  11.129 -1.0350  0.6195  1.5722
 8153SOL    HW235922   2.787   2.129  11.281  2.6099 -1.7831 -0.3014
 8154SOL     OW35923   4.303   3.543   9.842 -0.3165  0.3558  0.4180
 8154SOL    HW135924   4.261   3.588   9.768  0.3891 -0.1123 -0.2716
 8154SOL    HW235925   4.257   3.590   9.912  3.1012  1.4808  1.8722
 8155SOL     OW35926   2.594   1.895  10.727  0.2138 -0.0042  0.6807
 8155SOL    HW135927   2.603   1.890  10.822  2.2173 -2.6011  0.3458
 8155SOL    HW235928   2.541   1.819  10.706  2.7510 -1.6332  0.1626
 8156SOL     OW35929   0.074   2.536   8.201  0.4666  0.1396 -0.3332
 8156SOL    HW135930   0.026   2.491   8.270  3.2454  0.5326  1.8134
 8156SOL    HW235931   0.002   2.572   8.149  0.5392  0.9663  0.1388
 8157SOL     OW35932   1.755   2.641   8.394  0.1407  0.1974  0.5532
 8157SOL    HW135933   1.831   2.622   8.338 -1.6009 -1.4761 -1.1961
 8157SOL    HW235934   1.758   2.737   8.398  2.6999  0.1135  1.0615
 8158SOL     OW35935   2.074   2.348   5.285 -0.1079  0.2661 -0.3580
 8158SOL    HW135936   2.151   2.309   5.325 -2.2763 -0.5371  3.0018
 8158SOL    HW235937   2.074   2.432   5.331 -2.2513 -0.3136  0.7155
 8159SOL     OW35938   1.994   2.974   9.066  0.3637  0.2201  0.4316
 8159SOL    HW135939   2.057   3.034   9.027  1.2997 -1.5950 -0.8866
 8159SOL    HW235940   2.016   2.892   9.021 -0.6396  0.8897 -1.2748
 8160SOL     OW35941   4.569   2.212   5.919  0.1432  0.0482 -0.5030
 8160SOL    HW135942   4.566   2.177   6.008  2.2845 -0.4269 -0.6141
 8160SOL    HW235943   4.664   2.208   5.910  0.2557 -1.5922  1.3690
 8161SOL     OW35944   1.688   1.632   3.370  0.0753 -0.6546 -0.0824
 8161SOL    HW135945   1.713   1.640   3.462  1.0686  2.0221 -0.5949
 8161SOL    HW235946   1.703   1.538   3.359  0.1303 -0.8950  2.1011
 8162SOL     OW35947   3.289   4.405   8.489 -0.2912 -0.4343 -0.6624
 8162SOL    HW135948   3.214   4.347   8.490 -0.9811  0.4821  1.4759
 8162SOL    HW235949   3.316   4.405   8.397 -1.3557  0.9184 -0.9780
 8163SOL     OW35950   2.034   1.815   6.730 -0.1737 -0.0695 -0.8074
 8163SOL    HW135951   2.093   1.876   6.772  1.3015 -0.4445 -2.3229
 8163SOL    HW235952   1.956   1.869   6.717 -0.6115 -0.9121 -1.7856
 8164SOL     OW35953   2.807   0.612   7.516 -0.2813  0.0424  0.2838
 8164SOL    HW135954   2.895   0.649   7.525  0.2889 -1.0174 -0.8333
 8164SOL    HW235955   2.765   0.676   7.573 -2.6046 -0.9323 -0.3309
 8165SOL     OW35956   0.290   1.319   6.237  0.3623  0.4601 -0.0071
 8165SOL    HW135957   0.222   1.386   6.235 -0.3559 -0.3395 -1.6742
 8165SOL    HW235958   0.338   1.328   6.155 -1.7024  3.0183 -0.9307
 8166SOL     OW35959   3.610   3.033   5.925 -0.0487 -0.2176  0.0263
 8166SOL    HW135960   3.552   3.029   6.001  1.7041 -0.9256  1.3299
 8166SOL    HW235961   3.633   2.945   5.896 -2.5200 -0.2080 -1.9401
 8167SOL     OW35962   0.402   0.561  16.466  0.7497  0.0786 -0.6731
 8167SOL    HW135963   0.419   0.519  16.381  1.1383  1.5413 -1.3189
 8167SOL    HW235964   0.310   0.579  16.447  0.0432 -2.2045  0.6839
 8168SOL     OW35965   1.048   3.091   7.105 -0.1503 -0.0429 -0.2156
 8168SOL    HW135966   1.009   3.140   7.177 -2.3544 -1.7550 -0.2549
 8168SOL    HW235967   1.068   3.164   7.047  1.3850 -0.4224 -0.1577
 8169SOL     OW35968   1.213   3.386   2.951 -0.4435 -0.1677 -0.4082
 8169SOL    HW135969   1.148   3.441   2.994  1.8062  0.9903  1.4782
 8169SOL    HW235970   1.282   3.449   2.931  0.2456 -1.1972 -1.3020
 8170SOL     OW35971   0.524   0.962   3.814 -0.3173  0.3064 -0.2942
 8170SOL    HW135972   0.518   0.951   3.909  0.3378 -1.2902 -0.4454
 8170SOL    HW235973   0.619   0.967   3.804 -0.3742  1.3585 -0.2903
 8171SOL     OW35974   0.739   4.484  13.280 -0.1200  0.1168 -0.0043
 8171SOL    HW135975   0.716   4.529  13.361  3.2153  1.3650  0.2256
 8171SOL    HW235976   0.820   4.439  13.302  0.5563  1.6013  0.5083
 8172SOL     OW35977   1.556   2.550   4.422  0.1460 -0.0215  0.5021
 8172SOL    HW135978   1.616   2.579   4.491  1.6426 -1.7249 -0.1061
 8172SOL    HW235979   1.622   2.531   4.356  1.7430 -0.3808  2.1965
 8173SOL     OW35980   2.292   1.113   1.169 -0.1193  0.8417 -0.5131
 8173SOL    HW135981   2.384   1.116   1.194 -0.1144  0.3877 -0.4755
 8173SOL    HW235982   2.258   1.188   1.217 -0.5350  0.2101  0.1659
 8174SOL     OW35983   4.236   4.523   6.292  0.5532  0.6008  0.6106
 8174SOL    HW135984   4.207   4.602   6.337  0.7322 -0.6377  2.9094
 8174SOL    HW235985   4.182   4.457   6.336  0.4081 -1.2132 -2.2786
 8175SOL     OW35986   2.342   4.512  11.110 -0.1594 -0.4893  0.0143
 8175SOL    HW135987   2.376   4.425  11.133 -0.6129 -0.6464  0.0958
 8175SOL    HW235988   2.257   4.491  11.070  1.2642 -3.0547 -1.6434
 8176SOL     OW35989   3.641   0.590  12.757 -0.2479 -0.0817 -0.4463
 8176SOL    HW135990   3.633   0.545  12.841  0.4449 -0.1468 -0.4102
 8176SOL    HW235991   3.725   0.634  12.771  1.4205 -2.7771 -1.9379
 8177SOL     OW35992   1.467   2.049   4.959 -0.3729 -0.2838 -0.2668
 8177SOL    HW135993   1.445   1.960   4.930  1.6318 -0.0987 -2.3214
 8177SOL    HW235994   1.398   2.061   5.024  1.2003 -1.0507  1.5517
 8178SOL     OW35995   3.461   2.147  14.960 -0.3226 -0.3865 -0.6127
 8178SOL    HW135996   3.446   2.230  15.006 -0.5657 -0.7728  0.0038
 8178SOL    HW235997   3.455   2.179  14.870 -0.0290  0.9973 -0.1431
 8179SOL     OW35998   0.922   3.746   5.340 -0.4138  0.4252  0.1728
 8179SOL    HW135999   0.946   3.709   5.255 -1.8311  0.4594 -0.2527
 8179SOL    HW236000   0.989   3.812   5.355 -1.5221  1.6249 -0.1608
 8180SOL     OW36001   4.382   2.854  15.667  0.4277  0.5615  0.4205
 8180SOL    HW136002   4.298   2.854  15.621  0.3022 -0.7820  0.6737
 8180SOL    HW236003   4.348   2.806  15.742 -0.8842  0.8727  0.0318
 8181SOL     OW36004   1.102   3.402   7.090  0.0913  0.4027  0.0601
 8181SOL    HW136005   1.094   3.437   7.002  0.7978 -0.0755 -0.1876
 8181SOL    HW236006   1.163   3.456   7.140  1.5598 -0.4675 -0.8221
 8182SOL     OW36007   2.494   4.225   0.733  0.4458 -0.0136  0.4329
 8182SOL    HW136008   2.478   4.158   0.800  0.3796 -0.0484  0.3824
 8182SOL    HW236009   2.440   4.294   0.772  0.3733 -0.2596  0.7713
 8183SOL     OW36010   2.849   1.817  10.238  0.9593 -0.1626 -0.0514
 8183SOL    HW136011   2.901   1.879  10.289 -1.2641  1.5115  0.1964
 8183SOL    HW236012   2.769   1.806  10.289  1.0124 -0.9230 -0.1289
 8184SOL     OW36013   2.656   3.457   9.786  0.2261 -0.2117  0.1372
 8184SOL    HW136014   2.743   3.466   9.748  0.6090 -1.3003  0.7691
 8184SOL    HW236015   2.632   3.545   9.817 -0.5402 -1.0069  1.8022
 8185SOL     OW36016   2.658   2.679   7.721 -0.2467 -0.3441  0.8058
 8185SOL    HW136017   2.657   2.635   7.805 -0.5417 -3.2750 -0.7298
 8185SOL    HW236018   2.637   2.769   7.745 -0.5329  0.0397 -0.8419
 8186SOL     OW36019   4.681   4.634   8.133 -0.0766  0.4329  0.1558
 8186SOL    HW136020   0.048   4.628   8.115  0.2393 -2.1450  2.7422
 8186SOL    HW236021   4.647   4.548   8.157  0.1168  0.6559  1.2721
 8187SOL     OW36022   0.288   3.930  17.615 -0.1165 -0.1691  0.2652
 8187SOL    HW136023   0.357   3.885  17.566 -0.0409  1.9274 -1.5517
 8187SOL    HW236024   0.263   3.843  17.649  0.8651 -0.5960 -0.1058
 8188SOL     OW36025   3.708   2.006   4.914  0.4475 -0.0978 -0.0963
 8188SOL    HW136026   3.704   2.096   4.946 -2.3233  0.0901 -0.9867
 8188SOL    HW236027   3.632   1.967   4.956  0.2616 -1.0382 -1.3095
 8189SOL     OW36028   0.610   3.188   8.677 -0.7647 -0.0764  0.6132
 8189SOL    HW136029   0.568   3.265   8.716 -0.0418  0.1198  1.0160
 8189SOL    HW236030   0.689   3.230   8.644 -1.1930 -0.7302 -1.2158
 8190SOL     OW36031   1.779   2.834  17.395  0.3327 -0.2490 -0.5360
 8190SOL    HW136032   1.757   2.765  17.333 -3.2849  0.7838 -0.3692
 8190SOL    HW236033   1.864   2.810  17.431  1.5445  1.3600 -2.3286
 8191SOL     OW36034   2.562   3.985   1.827  0.5872  0.3430  0.0723
 8191SOL    HW136035   2.481   4.033   1.840 -0.3241 -1.1041 -0.3043
 8191SOL    HW236036   2.522   3.900   1.848  1.0728  0.6106  2.0988
 8192SOL     OW36037   2.217   2.138   8.429 -0.5726  0.2416  0.1453
 8192SOL    HW136038   2.296   2.142   8.482 -1.2328 -1.2639  1.2399
 8192SOL    HW236039   2.182   2.224   8.452 -1.2113  0.3353 -1.1825
 8193SOL     OW36040   3.883   3.215  14.032  0.3139 -0.1619  0.3439
 8193SOL    HW136041   3.927   3.161  14.098 -0.2566 -1.9311 -0.7190
 8193SOL    HW236042   3.821   3.144  14.012  0.4294  0.0567 -0.7776
 8194SOL     OW36043   3.854   3.624   2.447  0.3245  0.2881  0.4521
 8194SOL    HW136044   3.939   3.619   2.403 -0.0552 -0.0520 -0.2434
 8194SOL    HW236045   3.870   3.565   2.521 -0.5058  1.7717  1.8416
 8195SOL     OW36046   2.199   1.495   6.837  0.0025 -0.3833 -0.0900
 8195SOL    HW136047   2.137   1.556   6.878 -0.6203 -1.2688  0.2896
 8195SOL    HW236048   2.270   1.551   6.806  1.0889 -0.0982  2.9764
 8196SOL     OW36049   0.800   0.986   7.741 -0.3818 -0.0601  0.3406
 8196SOL    HW136050   0.895   0.979   7.737 -0.4364  0.4631 -1.5899
 8196SOL    HW236051   0.779   0.921   7.808  2.8604 -1.1749  0.2614
 8197SOL     OW36052   3.019   1.390  14.009  0.0337 -0.0775 -0.4677
 8197SOL    HW136053   3.061   1.411  14.093 -2.2705 -1.0338  0.9199
 8197SOL    HW236054   2.990   1.477  13.981  1.2794  0.9088  1.2432
 8198SOL     OW36055   3.150   3.354   5.583 -0.3059 -0.1453  0.4940
 8198SOL    HW136056   3.211   3.381   5.515  2.3026 -0.2120  2.7974
 8198SOL    HW236057   3.160   3.259   5.591 -2.4476 -0.3909  0.3009
 8199SOL     OW36058   3.837   4.363   5.216  0.0129  0.1848  0.1060
 8199SOL    HW136059   3.879   4.296   5.270  2.3993  2.2551  0.7970
 8199SOL    HW236060   3.758   4.314   5.190  1.0581 -1.7520  0.5739
 8200SOL     OW36061   0.933   2.374   5.157  0.3470 -0.0024  0.1553
 8200SOL    HW136062   0.981   2.296   5.131 -2.5102 -1.5156 -0.6001
 8200SOL    HW236063   0.952   2.359   5.250 -0.9415 -0.4705  0.3584
 8201SOL     OW36064   2.990   1.676   6.410  0.3120 -0.2844 -0.0013
 8201SOL    HW136065   3.015   1.588   6.437  2.2530  0.2957  0.1098
 8201SOL    HW236066   3.028   1.728   6.481 -0.4762  0.1923  0.0712
 8202SOL     OW36067   2.247   1.155   0.637  0.3603 -0.1976  0.3728
 8202SOL    HW136068   2.245   1.066   0.602 -1.6761  0.5664 -1.5293
 8202SOL    HW236069   2.287   1.134   0.721  3.0854  2.0153 -0.3932
 8203SOL     OW36070   2.804   4.242   9.631  0.2721 -0.7258 -0.6794
 8203SOL    HW136071   2.881   4.246   9.688 -1.5968  1.3745  1.6689
 8203SOL    HW236072   2.772   4.331   9.644  3.9569  0.6577 -1.0664
 8204SOL     OW36073   2.180   0.284   0.955 -0.0727 -0.2727  0.2526
 8204SOL    HW136074   2.205   0.247   1.040 -0.8961 -2.5019 -0.4661
 8204SOL    HW236075   2.090   0.253   0.947  0.3040 -2.1839  2.9949
 8205SOL     OW36076   2.432   0.930   5.391 -0.4040 -0.4584 -0.2091
 8205SOL    HW136077   2.458   0.883   5.470 -0.3286 -0.7425 -0.4032
 8205SOL    HW236078   2.337   0.922   5.395 -0.6048 -0.0275 -4.2338
 8206SOL     OW36079   0.776   4.271   4.067  0.2708 -0.2297  0.0316
 8206SOL    HW136080   0.727   4.189   4.070 -0.5362  0.2780  0.4847
 8206SOL    HW236081   0.796   4.275   3.974 -0.9556 -0.0038 -0.2092
 8207SOL     OW36082   3.322   0.034   4.488  0.0019  0.0341  0.1490
 8207SOL    HW136083   3.310   0.124   4.518 -0.6919  0.4687 -1.4325
 8207SOL    HW236084   3.411   0.044   4.456 -0.6088 -0.0873 -1.5936
 8208SOL     OW36085   3.351   1.591   7.218 -0.6885 -0.0154 -0.5475
 8208SOL    HW136086   3.416   1.524   7.195 -0.8107 -0.9536  1.8866
 8208SOL    HW236087   3.405   1.647   7.274 -2.3480  0.7056  0.3256
 8209SOL     OW36088   4.125   4.298  12.190 -0.3321 -0.2124 -0.7417
 8209SOL    HW136089   4.057   4.230  12.184 -0.5628 -0.1740  1.3571
 8209SOL    HW236090   4.070   4.375  12.207 -3.2695 -2.5121  0.3090
 8210SOL     OW36091   1.825   3.765   3.175 -0.2255  0.3119 -0.2659
 8210SOL    HW136092   1.804   3.756   3.268 -0.5628 -2.6843 -0.6164
 8210SOL    HW236093   1.855   3.675   3.163 -1.5766 -0.4346  2.0316
 8211SOL     OW36094   2.914   1.685  13.483 -0.3120 -0.4205 -0.6316
 8211SOL    HW136095   2.986   1.633  13.449  2.5680  1.7464  2.1786
 8211SOL    HW236096   2.902   1.651  13.572  1.2163  1.5579  0.3177
 8212SOL     OW36097   3.841   3.042   2.365 -0.1824 -0.2347  0.2417
 8212SOL    HW136098   3.888   3.049   2.282  1.3320  2.7025  1.3316
 8212SOL    HW236099   3.912   3.067   2.423  0.9086 -0.0810 -1.1727
 8213SOL     OW36100   1.285   0.981  16.413  0.0684 -0.2643 -0.4035
 8213SOL    HW136101   1.265   0.890  16.434 -1.3983  0.6645  2.2238
 8213SOL    HW236102   1.355   0.965  16.349  1.6299  2.0507  0.7407
 8214SOL     OW36103   2.419   3.334  14.202 -0.5154 -0.1022  0.3201
 8214SOL    HW136104   2.431   3.428  14.213  0.9405 -0.3210  0.5208
 8214SOL    HW236105   2.345   3.323  14.262  0.4197 -1.0170  1.3034
 8215SOL     OW36106   4.072   3.375   2.295 -0.1902  0.2093 -0.5753
 8215SOL    HW136107   4.015   3.337   2.228 -1.0464  0.2363  0.1394
 8215SOL    HW236108   4.160   3.372   2.256  0.3614  0.2205  0.6694
 8216SOL     OW36109   2.645   2.251  11.494  0.0828  0.1162 -0.4543
 8216SOL    HW136110   2.636   2.208  11.579  1.4650  3.2679  1.2839
 8216SOL    HW236111   2.725   2.207  11.466  0.0550 -1.1283  1.4205
 8217SOL     OW36112   4.689   3.969   1.828 -0.1922  0.4399  0.4608
 8217SOL    HW136113   4.628   3.903   1.861  1.3606 -0.0065  2.4602
 8217SOL    HW236114   4.696   4.001   1.918 -1.4474 -0.3939  0.8562
 8218SOL     OW36115   0.029   1.045   2.917  0.3301 -0.0509 -0.5508
 8218SOL    HW136116   0.028   1.064   2.823 -0.4562  2.5016 -0.0232
 8218SOL    HW236117   4.669   1.003   2.915 -0.7491  2.2512 -2.1553
 8219SOL     OW36118   4.716   2.441   9.284  0.2023  0.3817 -0.3231
 8219SOL    HW136119   0.040   2.376   9.235 -3.3121 -1.3305 -1.6489
 8219SOL    HW236120   4.660   2.385   9.337  1.2157  0.5623  0.9438
 8220SOL     OW36121   3.342   0.320   3.654 -0.2200  0.5690 -0.2701
 8220SOL    HW136122   3.283   0.371   3.709 -0.3315 -0.1445  0.2619
 8220SOL    HW236123   3.269   0.268   3.622  0.4186 -0.9718  0.7845
 8221SOL     OW36124   0.787   3.690   7.001 -0.2800 -0.0327 -0.5547
 8221SOL    HW136125   0.826   3.774   6.976  2.1581 -1.8780 -2.9091
 8221SOL    HW236126   0.851   3.633   6.960 -0.5154  0.9440 -2.2750
 8222SOL     OW36127   3.357   4.621   5.214 -0.7412 -0.4327 -0.0197
 8222SOL    HW136128   3.338   4.623   5.120 -0.0731 -3.1056 -0.2276
 8222SOL    HW236129   3.391   4.531   5.218  0.7931  0.1647  0.4317
 8223SOL     OW36130   1.095   0.607   6.143  0.0154  0.6922 -0.1287
 8223SOL    HW136131   1.155   0.588   6.071 -0.8609  0.2671 -0.7451
 8223SOL    HW236132   1.013   0.595   6.096 -1.0184  0.5354  1.6986
 8224SOL     OW36133   1.507   4.031   5.106 -0.0471 -0.1388 -0.0439
 8224SOL    HW136134   1.459   4.111   5.086  0.2510  0.1550  0.4216
 8224SOL    HW236135   1.510   3.983   5.023 -0.2939 -0.9564  0.4163
 8225SOL     OW36136   1.445   3.848   7.426  0.3038 -0.0031  0.3443
 8225SOL    HW136137   1.527   3.885   7.461  1.5092 -0.0763 -2.4659
 8225SOL    HW236138   1.394   3.903   7.486  0.0211 -0.8710  0.8927
 8226SOL     OW36139   3.852   2.091   8.098  0.4359  0.2270 -0.0676
 8226SOL    HW136140   3.794   2.112   8.025  1.5932  1.1808 -0.7096
 8226SOL    HW236141   3.803   2.092   8.180  1.0152 -0.8516  0.2952
 8227SOL     OW36142   3.718   3.041   8.523 -0.1694  0.3065  0.3647
 8227SOL    HW136143   3.720   3.136   8.513 -1.9310  0.2835 -0.3439
 8227SOL    HW236144   3.760   3.018   8.440  0.2413  0.7291  0.4521
 8228SOL     OW36145   4.333   4.238  11.929  0.0455 -0.1225 -0.1265
 8228SOL    HW136146   4.348   4.148  11.898 -1.5881 -0.7722  1.0171
 8228SOL    HW236147   4.347   4.287  11.847  2.3046  1.9627  1.5045
 8229SOL     OW36148   0.298   3.429  12.928  0.7074  0.2004 -0.0019
 8229SOL    HW136149   0.257   3.425  12.842  1.5857 -1.1484 -0.3592
 8229SOL    HW236150   0.360   3.356  12.920 -0.7240 -0.5958 -3.6069
 8230SOL     OW36151   4.668   3.030   5.248 -0.3500  0.1907  0.4413
 8230SOL    HW136152   4.665   3.028   5.344 -1.0650  0.0594  0.4130
 8230SOL    HW236153   4.607   2.969   5.206  0.9991 -0.8620 -0.0092
 8231SOL     OW36154   1.265   0.310   1.452 -0.0721  0.8127  0.1780
 8231SOL    HW136155   1.220   0.279   1.374 -0.2213 -1.6527  1.2619
 8231SOL    HW236156   1.199   0.286   1.517 -0.2862 -0.0213 -0.3559
 8232SOL     OW36157   1.643   1.493   9.243  0.7387 -0.2217 -0.2242
 8232SOL    HW136158   1.644   1.419   9.304 -0.2640  0.8580  1.0908
 8232SOL    HW236159   1.708   1.467   9.177  2.7467  1.2836  1.1774
 8233SOL     OW36160   4.357   1.451  16.114  0.2617  0.1422 -0.2074
 8233SOL    HW136161   4.393   1.466  16.027 -1.4003  0.1898 -0.8797
 8233SOL    HW236162   4.405   1.371  16.136 -0.6897 -0.1101  0.9568
 8234SOL     OW36163   4.397   3.398  10.615 -0.4822 -0.3444 -0.3062
 8234SOL    HW136164   4.469   3.349  10.652  0.0646 -0.1983 -1.1839
 8234SOL    HW236165   4.388   3.362  10.527 -0.2469  0.7587 -0.7842
 8235SOL     OW36166   1.499   1.810  14.090  0.2929 -0.9094 -0.3595
 8235SOL    HW136167   1.553   1.889  14.089 -0.6437 -0.2922 -0.8690
 8235SOL    HW236168   1.512   1.789  14.183 -0.8434 -1.2366 -0.2804
 8236SOL     OW36169   4.403   1.969   3.332  0.2517 -0.3034 -0.6476
 8236SOL    HW136170   4.330   1.996   3.277 -0.5049 -0.6044  0.2097
 8236SOL    HW236171   4.462   2.042   3.313  0.0392 -0.0417 -0.3082
 8237SOL     OW36172   1.442   0.622  11.936 -0.1885 -0.4384 -0.5841
 8237SOL    HW136173   1.446   0.600  11.843  2.0190 -0.7767 -0.4180
 8237SOL    HW236174   1.488   0.705  11.936  0.7224 -0.9338  1.4591
 8238SOL     OW36175   2.558   0.076   1.057 -0.1509 -0.1669 -0.0973
 8238SOL    HW136176   2.638   0.112   1.094 -1.5520  3.2515 -0.3637
 8238SOL    HW236177   2.576   0.070   0.963 -0.7017 -0.4357 -0.1827
 8239SOL     OW36178   1.563   2.416   7.841  0.1361  0.1910  0.1813
 8239SOL    HW136179   1.484   2.398   7.791 -0.1695 -0.6852  0.9694
 8239SOL    HW236180   1.550   2.511   7.846  3.1667  0.6203 -0.2768
 8240SOL     OW36181   0.661   4.418   5.058  0.6175 -0.2456  0.1291
 8240SOL    HW136182   0.582   4.397   5.009  0.5983  1.0702 -0.3868
 8240SOL    HW236183   0.623   4.466   5.131 -0.5598 -0.7272 -0.1761
 8241SOL     OW36184   1.712   3.468   7.454  0.2147 -0.2693  0.2603
 8241SOL    HW136185   1.771   3.543   7.450  0.2741 -0.2615  1.2278
 8241SOL    HW236186   1.727   3.436   7.543  2.1772 -0.0359 -0.0007
 8242SOL     OW36187   0.463   3.032   8.819  0.6148 -0.0668  0.3349
 8242SOL    HW136188   0.539   3.066   8.773  0.1943  2.2093  1.3652
 8242SOL    HW236189   0.401   3.018   8.748 -0.6032 -0.0496  1.3871
 8243SOL     OW36190   1.697   1.609   4.850 -0.0687 -0.2394 -0.3316
 8243SOL    HW136191   1.668   1.606   4.941 -0.5558 -1.5263 -0.5234
 8243SOL    HW236192   1.744   1.525   4.854  1.9994  1.1057  3.3068
 8244SOL     OW36193   1.102   3.654   8.648  0.3002  0.5306 -0.5035
 8244SOL    HW136194   1.108   3.588   8.579 -1.8709 -0.1453 -0.0453
 8244SOL    HW236195   1.062   3.603   8.719 -0.6679  3.6281  1.1797
 8245SOL     OW36196   0.596   3.754   2.239  0.3065  0.2643 -0.7636
 8245SOL    HW136197   0.674   3.698   2.242  1.2047  1.5790  0.2837
 8245SOL    HW236198   0.592   3.794   2.325  2.0938 -0.4532 -0.3547
 8246SOL     OW36199   0.161   4.419   5.608  0.0291 -0.3397 -0.5481
 8246SOL    HW136200   0.252   4.447   5.590  0.0982 -1.4277 -1.9102
 8246SOL    HW236201   0.127   4.509   5.603  0.2514 -0.2366 -0.2167
 8247SOL     OW36202   3.616   0.187   1.359 -0.4475  0.2334  0.2889
 8247SOL    HW136203   3.581   0.122   1.420 -0.7852 -0.3081 -0.4804
 8247SOL    HW236204   3.563   0.177   1.279  0.9169  0.7468 -0.6868
 8248SOL     OW36205   0.781   2.459   4.947 -0.5300  0.1892  0.5719
 8248SOL    HW136206   0.854   2.443   5.006 -0.4154  1.7076  0.8538
 8248SOL    HW236207   0.772   2.554   4.940  0.7353  0.3160  0.6580
 8249SOL     OW36208   4.205   2.720  15.443  0.6152 -0.0086  0.3695
 8249SOL    HW136209   4.281   2.774  15.419 -0.5957  0.2999 -2.7916
 8249SOL    HW236210   4.183   2.674  15.363 -1.0063 -1.2006  1.5046
 8250SOL     OW36211   0.296   2.854  13.383 -0.2090 -0.1633  0.1075
 8250SOL    HW136212   0.205   2.827  13.386  0.0759 -1.0367  0.5755
 8250SOL    HW236213   0.320   2.831  13.293  1.8203  0.6999  0.4274
 8251SOL     OW36214   0.425   3.628   6.618 -0.2592  0.1773  0.5765
 8251SOL    HW136215   0.467   3.555   6.572 -0.7109  0.0220  0.4150
 8251SOL    HW236216   0.465   3.711   6.590  1.9949 -0.6757  1.2393
 8252SOL     OW36217   4.559   4.369   7.425  0.0700  0.3542  0.0410
 8252SOL    HW136218   4.600   4.454   7.440  0.3648  0.0340  1.0480
 8252SOL    HW236219   4.540   4.351   7.517  0.0790 -1.0659 -0.2346
 8253SOL     OW36220   0.717   3.914  10.142 -0.0116  0.0763 -1.1956
 8253SOL    HW136221   0.633   3.886  10.177  0.8699 -1.1295 -0.0328
 8253SOL    HW236222   0.690   3.896  10.052 -0.1478 -1.3881 -0.8640
 8254SOL     OW36223   3.571   1.710   7.326 -0.2478 -0.3386  0.4304
 8254SOL    HW136224   3.564   1.619   7.356  0.5630 -0.9459 -1.2353
 8254SOL    HW236225   3.554   1.772   7.396  2.2991  0.4944  0.2821
 8255SOL     OW36226   2.453   3.540   3.999 -0.3668  0.0677  0.1082
 8255SOL    HW136227   2.373   3.584   4.026  1.4631  3.3829  0.1582
 8255SOL    HW236228   2.497   3.544   4.084  0.1511  1.0056 -0.2031
 8256SOL     OW36229   1.970   1.258   7.412 -0.4899 -0.3443 -0.1161
 8256SOL    HW136230   1.945   1.348   7.436 -2.7863 -1.0278  0.0985
 8256SOL    HW236231   2.038   1.251   7.479  0.6555 -0.4737 -1.3023
 8257SOL     OW36232   3.549   4.593   5.674 -0.3096 -0.0241  0.6594
 8257SOL    HW136233   3.625   4.560   5.722  0.9997  1.0017 -0.6964
 8257SOL    HW236234   3.580   4.551   5.593 -1.8219 -2.4104  1.3220
 8258SOL     OW36235   2.025   0.358   5.814  0.0556 -0.0921 -0.0844
 8258SOL    HW136236   2.087   0.312   5.757  0.8641 -1.3709  1.8424
 8258SOL    HW236237   2.073   0.345   5.896 -0.3762  1.0330  0.3422
 8259SOL     OW36238   3.227   2.805  14.721  0.8209  0.5748 -0.5821
 8259SOL    HW136239   3.224   2.865  14.796 -0.0836 -0.9327  0.5857
 8259SOL    HW236240   3.224   2.863  14.645  1.3193  0.8463 -0.3914
 8260SOL     OW36241   3.207   4.344  10.773  0.1710  0.4121  0.4087
 8260SOL    HW136242   3.217   4.277  10.705 -1.0104  0.9663 -0.3096
 8260SOL    HW236243   3.285   4.393  10.748  0.2469  0.4670  0.7662
 8261SOL     OW36244   1.485   3.429   8.901  0.1101  0.3143 -0.3205
 8261SOL    HW136245   1.528   3.477   8.971  0.3764  1.3322 -1.1850
 8261SOL    HW236246   1.480   3.342   8.940  2.6097 -0.2094 -1.2245
 8262SOL     OW36247   3.077   3.792   2.046  0.2006  0.2535 -0.6616
 8262SOL    HW136248   3.164   3.752   2.041 -0.4369 -0.8425 -2.7910
 8262SOL    HW236249   3.028   3.764   1.969  0.5636  0.4891 -0.9824
 8263SOL     OW36250   0.055   0.238  16.783 -0.1443  0.2332 -0.2633
 8263SOL    HW136251   4.696   0.197  16.792  0.2842 -0.4090  0.9947
 8263SOL    HW236252   0.077   0.246  16.876 -0.1067 -3.6403  0.0920
 8264SOL     OW36253   2.427   2.360   5.164  0.2174  0.5334  0.4017
 8264SOL    HW136254   2.473   2.278   5.180 -1.2792 -0.2793  0.5191
 8264SOL    HW236255   2.386   2.392   5.244  0.8525 -0.9424  1.3131
 8265SOL     OW36256   1.297   4.220   9.142  0.2787  0.1809 -0.4740
 8265SOL    HW136257   1.315   4.250   9.053 -0.5832  0.9827 -0.3808
 8265SOL    HW236258   1.226   4.162   9.117  0.7875  0.0350 -1.5822
 8266SOL     OW36259   3.866   1.728  11.800  0.0735  0.0918  0.3782
 8266SOL    HW136260   3.891   1.734  11.707  1.5130 -1.4572  0.6823
 8266SOL    HW236261   3.949   1.749  11.842  0.3122 -0.9945  0.4303
 8267SOL     OW36262   3.711   1.094  17.529  0.5144  0.7683  0.7690
 8267SOL    HW136263   3.730   1.144  17.450 -0.7526  0.6212  0.3771
 8267SOL    HW236264   3.617   1.106  17.545  0.7189  2.0625  1.0384
 8268SOL     OW36265   4.208   2.493   2.154 -0.1842 -0.4447  0.1067
 8268SOL    HW136266   4.275   2.543   2.202 -1.3700 -1.0710  2.4032
 8268SOL    HW236267   4.139   2.495   2.220 -1.9371 -0.3836 -1.7204
 8269SOL     OW36268   4.597   2.299  17.276 -0.2033 -0.1624 -0.4468
 8269SOL    HW136269   4.686   2.294  17.310 -0.2501 -1.5818 -0.5375
 8269SOL    HW236270   4.544   2.253  17.341 -0.7240  0.6993 -0.2484
 8270SOL     OW36271   1.230   1.243   8.841  0.1709  0.2274 -0.6142
 8270SOL    HW136272   1.155   1.247   8.782 -1.4316  1.9208  1.5476
 8270SOL    HW236273   1.245   1.325   8.887  1.1283 -1.4414  2.0621
 8271SOL     OW36274   3.357   2.385   4.921 -0.3100  0.1726  0.5497
 8271SOL    HW136275   3.404   2.424   4.994 -0.0333 -0.5627  0.7620
 8271SOL    HW236276   3.313   2.459   4.879  0.3094  0.0223 -0.3623
 8272SOL     OW36277   2.101   1.745   8.144 -0.0234  0.0945 -0.0808
 8272SOL    HW136278   2.164   1.801   8.100 -0.1486  1.4355  1.4465
 8272SOL    HW236279   2.125   1.758   8.236  0.9988 -0.7963 -0.2235
 8273SOL     OW36280   3.182   0.367   7.241 -0.3570 -0.0278 -0.0808
 8273SOL    HW136281   3.104   0.334   7.196 -0.2671 -1.1428  0.5943
 8273SOL    HW236282   3.140   0.449   7.269 -0.2484 -0.1295  0.3803
 8274SOL     OW36283   4.632   3.565  16.619  0.0453 -0.2173  0.0024
 8274SOL    HW136284   4.697   3.510  16.575 -0.4837  0.2111 -1.2844
 8274SOL    HW236285   4.611   3.618  16.543  4.5727  1.1506 -0.3235
 8275SOL     OW36286   1.660   1.359  11.220 -0.4352  0.0982  0.1323
 8275SOL    HW136287   1.756   1.359  11.224 -0.4018  2.9791 -0.4266
 8275SOL    HW236288   1.643   1.266  11.232 -0.0448  0.1080  0.7642
 8276SOL     OW36289   4.727   2.515   3.465  0.2576 -0.0930 -0.2970
 8276SOL    HW136290   0.059   2.587   3.446  2.1897 -1.4486  0.6050
 8276SOL    HW236291   4.647   2.562   3.489  0.9057  1.1181 -0.5132
 8277SOL     OW36292   0.658   1.607  12.790 -0.8113 -0.4607  0.7424
 8277SOL    HW136293   0.597   1.575  12.724  0.6603 -1.4513 -0.1319
 8277SOL    HW236294   0.614   1.690  12.808 -2.5496 -1.5913  1.7089
 8278SOL     OW36295   1.852   0.176   8.924 -0.0233 -0.2241 -0.3831
 8278SOL    HW136296   1.838   0.129   9.006 -2.0110 -1.2123 -1.3029
 8278SOL    HW236297   1.944   0.153   8.912  0.2254  0.8477 -0.5618
 8279SOL     OW36298   4.654   1.828   5.095  0.1148 -0.2862 -0.2816
 8279SOL    HW136299   4.632   1.737   5.112 -1.3034 -0.1241 -1.2443
 8279SOL    HW236300   4.592   1.842   5.023  1.3907 -0.9278 -1.5043
 8280SOL     OW36301   2.931   3.023   6.093  0.3048  0.0417  0.2796
 8280SOL    HW136302   2.904   3.104   6.050 -1.6710 -0.2474  0.9625
 8280SOL    HW236303   2.898   3.050   6.179 -0.3979  1.9641 -0.5986
 8281SOL     OW36304   4.160   4.223   3.674  0.3566  0.4508  0.1978
 8281SOL    HW136305   4.122   4.145   3.716 -2.3481  1.1066 -1.0554
 8281SOL    HW236306   4.128   4.218   3.583 -0.7524  3.0962  0.4456
 8282SOL     OW36307   1.906   4.637   7.996 -0.6378 -0.0371 -0.0669
 8282SOL    HW136308   1.878   4.647   7.905  0.3462 -0.7852 -0.4551
 8282SOL    HW236309   1.820   4.612   8.030 -1.2785 -0.8233 -2.2567
 8283SOL     OW36310   2.616   1.724   3.978 -0.4697 -0.0191  0.3518
 8283SOL    HW136311   2.664   1.797   4.017 -0.9143  0.2479  0.4033
 8283SOL    HW236312   2.548   1.769   3.929  1.0154 -0.3799 -2.0078
 8284SOL     OW36313   0.763   0.586   8.115 -0.2261  0.2118 -0.3051
 8284SOL    HW136314   0.700   0.553   8.051 -1.3155  0.3583  0.6819
 8284SOL    HW236315   0.789   0.499   8.144 -2.3761 -0.1263  0.5990
 8285SOL     OW36316   2.744   3.046   7.964 -0.6022  0.3289 -0.5337
 8285SOL    HW136317   2.728   3.086   8.050  1.0239  3.0926 -1.5115
 8285SOL    HW236318   2.664   2.996   7.947 -0.2297 -0.3297 -0.3550
 8286SOL     OW36319   2.579   0.208   5.426 -0.2052  0.2667 -0.3926
 8286SOL    HW136320   2.641   0.205   5.354  0.5450  1.1097  0.2158
 8286SOL    HW236321   2.539   0.294   5.416 -3.2526 -0.9058  1.7991
 8287SOL     OW36322   2.186   3.367   9.951  0.3684  0.6116  0.1188
 8287SOL    HW136323   2.227   3.299  10.005 -0.5809 -0.6376 -0.7327
 8287SOL    HW236324   2.205   3.445  10.002  1.1728  0.5065 -0.0069
 8288SOL     OW36325   4.052   0.918   2.123  0.3310  0.0596 -0.1998
 8288SOL    HW136326   4.091   0.831   2.121  1.7787  0.8096 -3.6423
 8288SOL    HW236327   4.130   0.968   2.102 -0.5234  1.4332 -0.1240
 8289SOL     OW36328   3.302   2.501   6.459 -0.0232 -0.7270  0.1012
 8289SOL    HW136329   3.210   2.526   6.453 -0.3249 -1.7234  0.6589
 8289SOL    HW236330   3.302   2.468   6.549 -1.4540 -0.3344  0.2397
 8290SOL     OW36331   0.861   3.673   5.590 -0.1694 -0.1446  0.4674
 8290SOL    HW136332   0.917   3.699   5.663  0.0141  1.3733 -0.2136
 8290SOL    HW236333   0.887   3.731   5.518 -0.2375  0.5046  0.9693
 8291SOL     OW36334   2.626   1.286   5.251 -0.3654  0.0962 -0.5408
 8291SOL    HW136335   2.626   1.190   5.252  0.5520  0.1362  1.3950
 8291SOL    HW236336   2.535   1.289   5.281 -0.7115  1.2515 -1.7280
 8292SOL     OW36337   2.242   3.705   8.038  0.3038  0.6689 -0.2144
 8292SOL    HW136338   2.265   3.616   8.064 -5.2596  0.1019  2.9262
 8292SOL    HW236339   2.259   3.759   8.116  0.9828  1.4846 -0.9357
 8293SOL     OW36340   4.626   4.706   6.896  0.3020  0.5139  0.0491
 8293SOL    HW136341   4.536   4.719   6.925  0.0468 -2.0045  0.3887
 8293SOL    HW236342   4.671   4.725   6.979 -0.9538 -1.6469  1.2052
 8294SOL     OW36343   1.216   4.265   0.555  0.0522 -0.6499  0.0887
 8294SOL    HW136344   1.127   4.253   0.522  0.0931 -1.7558  0.3891
 8294SOL    HW236345   1.202   4.228   0.642  1.4201  0.5668  0.8172
 8295SOL     OW36346   3.436   1.630  11.952 -0.0110 -0.0280 -0.5328
 8295SOL    HW136347   3.422   1.634  11.857  1.5236  0.2946 -0.7390
 8295SOL    HW236348   3.448   1.724  11.962  1.2944  0.0675 -2.9474
 8296SOL     OW36349   1.310   1.413   3.013 -0.0477 -0.2857  0.0041
 8296SOL    HW136350   1.284   1.505   3.007 -0.4216 -0.4927 -1.4078
 8296SOL    HW236351   1.229   1.371   2.986 -0.5262  0.6636 -0.0510
 8297SOL     OW36352   3.273   2.512  12.180 -0.4670  0.4577  0.2045
 8297SOL    HW136353   3.231   2.510  12.094 -2.2372 -0.0725  1.0739
 8297SOL    HW236354   3.358   2.551  12.162 -0.1763 -0.6287 -0.7730
 8298SOL     OW36355   3.597   2.325  17.057  0.7621 -0.2539  0.0047
 8298SOL    HW136356   3.580   2.233  17.037 -2.4346  0.6274 -1.2491
 8298SOL    HW236357   3.688   2.326  17.088  1.1713 -0.5017 -1.1871
 8299SOL     OW36358   0.069   2.653   5.951 -0.0802  0.4153  0.0169
 8299SOL    HW136359   0.137   2.715   5.977  1.6305 -1.0675 -0.9429
 8299SOL    HW236360   0.055   2.680   5.860  1.4116  0.9213 -0.0511
 8300SOL     OW36361   1.388   3.988   5.382  0.8747 -0.8942 -0.3784
 8300SOL    HW136362   1.458   3.998   5.447 -0.0307  2.5978  0.0913
 8300SOL    HW236363   1.438   3.997   5.301 -0.5446 -1.3580 -1.3039
 8301SOL     OW36364   0.544   2.231   4.932  0.4227  0.5162  0.0356
 8301SOL    HW136365   0.625   2.184   4.952  0.8562  1.2351 -0.0353
 8301SOL    HW236366   0.551   2.307   4.989  2.6227 -0.5911  1.2561
 8302SOL     OW36367   3.155   4.107   9.100  0.1296 -0.2445 -0.0647
 8302SOL    HW136368   3.133   4.165   9.173 -0.3069 -2.3233  1.4530
 8302SOL    HW236369   3.151   4.018   9.134 -0.0146 -0.0499  0.4404
 8303SOL     OW36370   0.571   3.465   6.144 -0.0327 -0.7488  0.1168
 8303SOL    HW136371   0.488   3.514   6.140  1.1400  1.2405 -0.0040
 8303SOL    HW236372   0.627   3.517   6.201  0.6218 -0.3288 -0.8986
 8304SOL     OW36373   4.346   4.693   6.938  0.2137  0.0289  0.3446
 8304SOL    HW136374   4.275   4.639   6.904  0.3966 -0.1656  0.2754
 8304SOL    HW236375   4.387   4.621   6.986 -1.2186  0.7669  2.6871
 8305SOL     OW36376   1.692   0.416   0.870 -0.1413  0.3777  0.4436
 8305SOL    HW136377   1.723   0.499   0.834 -0.7987 -0.4085 -1.9419
 8305SOL    HW236378   1.598   0.413   0.851  0.1110  0.5210 -0.8272
 8306SOL     OW36379   0.204   4.509  12.883  0.1464 -0.6750 -0.0789
 8306SOL    HW136380   0.247   4.425  12.900 -1.5045 -1.3650  0.7319
 8306SOL    HW236381   0.280   4.564  12.902  0.8356 -1.1609 -1.4924
 8307SOL     OW36382   0.524   4.094   6.157  0.2347 -0.6108  0.2440
 8307SOL    HW136383   0.613   4.070   6.180  0.7512  0.6237 -0.4694
 8307SOL    HW236384   0.514   4.069   6.065 -1.7859 -0.5900  0.4513
 8308SOL     OW36385   3.757   3.997   8.300 -0.1090  0.1581 -0.4249
 8308SOL    HW136386   3.757   4.010   8.205 -2.7928 -2.5675 -0.7856
 8308SOL    HW236387   3.688   4.056   8.328 -2.0490 -1.5801 -1.5596
 8309SOL     OW36388   0.417   2.257   3.887 -0.7558 -0.7166  0.4191
 8309SOL    HW136389   0.428   2.165   3.863  2.4527  0.0492 -1.0347
 8309SOL    HW236390   0.429   2.256   3.982  0.4881 -2.1044  0.2467
 8310SOL     OW36391   3.601   4.120   3.973  0.1972  0.3441  0.2802
 8310SOL    HW136392   3.509   4.094   3.978  0.5088 -1.0372 -1.0282
 8310SOL    HW236393   3.596   4.198   4.027 -4.6468  0.3526 -0.1734
 8311SOL     OW36394   3.102   1.212   7.792  0.1894  0.7889  0.1694
 8311SOL    HW136395   3.064   1.152   7.856 -0.5526  1.0440 -0.0284
 8311SOL    HW236396   3.084   1.297   7.832 -0.0091  0.9265 -0.2129
 8312SOL     OW36397   0.638   1.825   6.719  0.3222 -0.3719  0.5765
 8312SOL    HW136398   0.657   1.890   6.787  0.0477  0.4773 -0.1724
 8312SOL    HW236399   0.674   1.862   6.639  1.4343 -0.5178  1.0097
 8313SOL     OW36400   0.637   3.918   6.776 -0.6476 -0.8521 -0.0636
 8313SOL    HW136401   0.573   3.922   6.705  0.2200  1.0124 -0.7392
 8313SOL    HW236402   0.651   4.008   6.805  2.2636 -0.6110 -2.2237
 8314SOL     OW36403   1.873   0.657  11.355 -0.0873  0.2531 -0.0773
 8314SOL    HW136404   1.838   0.734  11.399 -0.1352  0.3107 -0.2161
 8314SOL    HW236405   1.947   0.648  11.415 -0.4664 -0.9306  0.2179
 8315SOL     OW36406   1.158   2.682   3.061  0.3424 -0.0332  0.2471
 8315SOL    HW136407   1.176   2.589   3.054  0.2503 -0.0543  0.2900
 8315SOL    HW236408   1.069   2.681   3.098 -0.0021 -1.8671 -0.6657
 8316SOL     OW36409   4.572   3.648   6.683 -0.3120 -0.7234 -0.1618
 8316SOL    HW136410   4.611   3.734   6.667 -1.5281 -0.0403  0.5209
 8316SOL    HW236411   4.588   3.597   6.603 -0.7377  0.1680 -0.8107
 8317SOL     OW36412   4.153   1.860   1.756  0.0010 -0.1482  0.7512
 8317SOL    HW136413   4.219   1.857   1.825 -0.5899  1.1830  1.3729
 8317SOL    HW236414   4.210   1.854   1.679 -1.2366 -1.0698 -0.0936
 8318SOL     OW36415   1.450   0.105   7.016 -0.5046 -0.3467 -0.3591
 8318SOL    HW136416   1.535   0.091   7.058  0.1551  0.1192 -1.5433
 8318SOL    HW236417   1.468   0.167   6.946  0.4522 -0.7748 -0.4969
 8319SOL     OW36418   1.586   4.150   1.001 -0.3974 -0.4739 -0.5718
 8319SOL    HW136419   1.633   4.223   0.960  0.3640  0.1208  1.3491
 8319SOL    HW236420   1.590   4.092   0.925 -1.3342 -1.1724 -0.0840
 8320SOL     OW36421   3.166   2.185  14.812 -0.0827  0.0900  0.3995
 8320SOL    HW136422   3.115   2.197  14.733 -3.6067 -1.1429  2.4754
 8320SOL    HW236423   3.243   2.234  14.785  0.7074 -1.2434  0.2435
 8321SOL     OW36424   1.381   0.490   5.190 -0.3224  0.3916  0.0136
 8321SOL    HW136425   1.287   0.489   5.208 -0.3779  0.0503 -0.2927
 8321SOL    HW236426   1.389   0.460   5.099  3.7979 -2.8437  1.4359
 8322SOL     OW36427   4.355   0.127   8.032 -0.5211 -0.2174  0.0831
 8322SOL    HW136428   4.397   0.182   8.098  2.6013 -2.0267 -0.3933
 8322SOL    HW236429   4.419   0.109   7.964  0.2747  1.3668  0.4151
 8323SOL     OW36430   2.645   3.204   6.866 -0.2618  0.3626  0.3801
 8323SOL    HW136431   2.694   3.122   6.866 -1.7724 -0.5431  3.4738
 8323SOL    HW236432   2.708   3.273   6.885 -2.1332  1.7902  1.4824
 8324SOL     OW36433   1.114   4.291   6.130  0.0467  0.0697  0.3052
 8324SOL    HW136434   1.169   4.215   6.113 -0.3965 -0.4122  1.0215
 8324SOL    HW236435   1.031   4.254   6.159 -0.3081 -0.7751 -1.7915
 8325SOL     OW36436   4.564   3.353   2.575 -0.7883  0.0550  0.1571
 8325SOL    HW136437   4.503   3.421   2.601 -1.8320 -0.1997 -1.6119
 8325SOL    HW236438   4.601   3.386   2.493 -2.7804  0.2657 -0.6451
 8326SOL     OW36439   1.814   0.806  13.617  0.6688  0.1535 -0.5994
 8326SOL    HW136440   1.766   0.843  13.691  1.2828  1.0354 -0.6465
 8326SOL    HW236441   1.783   0.867  13.550 -0.0954 -0.7628 -1.0895
 8327SOL     OW36442   3.238   3.084   6.910  0.1647 -0.5052 -0.0395
 8327SOL    HW136443   3.225   3.162   6.964  1.0294 -0.9534  0.8127
 8327SOL    HW236444   3.323   3.044   6.930 -0.1763 -1.7241 -0.9822
 8328SOL     OW36445   2.356   4.072  13.282 -0.0787  0.2126 -0.3198
 8328SOL    HW136446   2.448   4.096  13.274 -0.1439 -0.1889 -2.4132
 8328SOL    HW236447   2.325   4.126  13.354  0.9514  1.0006 -0.4719
 8329SOL     OW36448   1.796   3.856   8.677 -0.2020  0.1333 -0.3949
 8329SOL    HW136449   1.772   3.765   8.665 -2.4381  0.9609 -2.1563
 8329SOL    HW236450   1.889   3.836   8.686 -0.9818 -2.2966  2.1778
 8330SOL     OW36451   4.249   3.145   7.233 -0.1849 -0.1273 -0.1736
 8330SOL    HW136452   4.240   3.109   7.321 -2.5511  0.0530 -0.3446
 8330SOL    HW236453   4.209   3.074   7.182  2.2263 -1.6184  0.0396
 8331SOL     OW36454   1.801   1.511   6.911 -0.3745  0.0928 -0.3688
 8331SOL    HW136455   1.895   1.495   6.901 -0.0860  1.8174 -0.5472
 8331SOL    HW236456   1.785   1.465   6.993 -0.2399 -0.1990 -0.5090
 8332SOL     OW36457   4.624   4.637   3.137 -0.2815 -0.5104 -0.0890
 8332SOL    HW136458   4.588   4.548   3.138  0.2253 -0.7279 -1.2265
 8332SOL    HW236459   4.562   4.694   3.183  1.5295  1.1297  0.2988
 8333SOL     OW36460   3.555   1.665   5.415 -0.3921 -1.0407 -0.6196
 8333SOL    HW136461   3.459   1.663   5.412 -0.3822 -1.7020 -0.5711
 8333SOL    HW236462   3.566   1.691   5.506 -1.1049 -0.1200 -0.7938
 8334SOL     OW36463   1.613   3.169  14.030  0.6966  0.2947  0.7865
 8334SOL    HW136464   1.620   3.192  13.937  0.7317  1.3820  1.0579
 8334SOL    HW236465   1.704   3.149  14.049  0.4120 -0.2150  1.5830
 8335SOL     OW36466   1.645   0.630   7.438  0.8053 -0.1170  0.2327
 8335SOL    HW136467   1.614   0.607   7.350  1.4486 -1.4137  0.3559
 8335SOL    HW236468   1.733   0.665   7.421  1.5285 -2.2097 -0.2528
 8336SOL     OW36469   2.063   2.937  15.808  0.4131  0.0850 -0.1865
 8336SOL    HW136470   1.986   2.925  15.753  1.8101  2.2451 -2.6004
 8336SOL    HW236471   2.055   3.026  15.840 -0.7766  0.5041 -1.6749
 8337SOL     OW36472   0.384   4.436  12.052  0.0430 -0.2092  0.6986
 8337SOL    HW136473   0.441   4.407  11.980 -0.3867 -0.0720  0.3028
 8337SOL    HW236474   0.432   4.422  12.134 -1.0760 -1.0085  1.2091
 8338SOL     OW36475   3.433   0.405  16.433 -0.2294 -0.4384 -0.2521
 8338SOL    HW136476   3.475   0.491  16.442  0.1576 -0.6424 -0.0928
 8338SOL    HW236477   3.434   0.395  16.338  0.0350  2.3391 -0.5427
 8339SOL     OW36478   0.108   3.099   7.459 -0.5809  0.1789  0.0283
 8339SOL    HW136479   0.189   3.127   7.501 -2.4136  0.4741  3.3459
 8339SOL    HW236480   0.131   3.095   7.366 -0.7959 -3.1974  0.1351
 8340SOL     OW36481   0.268   2.046   1.015  0.7062 -0.2885  0.0176
 8340SOL    HW136482   0.363   2.039   1.011  0.8242  1.1260  0.1871
 8340SOL    HW236483   0.265   2.109   1.086  0.9679 -1.5677  1.1555
 8341SOL     OW36484   3.441   1.333  17.151 -0.3045  0.0692  0.4219
 8341SOL    HW136485   3.418   1.348  17.243  1.8111 -0.4639  1.0249
 8341SOL    HW236486   3.369   1.385  17.113 -0.9532 -1.5796 -0.5761
 8342SOL     OW36487   0.171   1.225  15.066 -0.5149 -0.1303 -0.0803
 8342SOL    HW136488   0.246   1.278  15.094  1.5492 -2.0304 -2.0365
 8342SOL    HW236489   0.100   1.274  15.107 -2.7476 -1.2884 -2.6294
 8343SOL     OW36490   2.526   3.786   4.512 -0.1019 -0.1898 -0.6750
 8343SOL    HW136491   2.516   3.693   4.532 -0.8757  0.3249  1.3921
 8343SOL    HW236492   2.563   3.813   4.596  1.0962 -0.7791 -1.0057
 8344SOL     OW36493   2.736   1.043   1.445 -0.7598  0.0048 -1.0759
 8344SOL    HW136494   2.663   1.031   1.384 -2.9648  1.0030  1.3210
 8344SOL    HW236495   2.745   1.137   1.459 -0.3203 -0.2807  0.5288
 8345SOL     OW36496   2.331   0.512   9.253  0.0776 -0.0795  0.4980
 8345SOL    HW136497   2.313   0.598   9.292 -0.5548 -0.8070  1.8043
 8345SOL    HW236498   2.241   0.478   9.252 -0.2407  0.7529  0.1538
 8346SOL     OW36499   2.588   1.136   4.219  0.6406  0.3733 -0.1971
 8346SOL    HW136500   2.532   1.207   4.188 -0.0897 -0.0406  0.1971
 8346SOL    HW236501   2.662   1.135   4.157  0.3014 -0.5391 -0.5895
 8347SOL     OW36502   0.879   0.248  15.773 -0.4030 -0.0275 -0.7121
 8347SOL    HW136503   0.902   0.340  15.771  1.0048 -0.4056 -1.5188
 8347SOL    HW236504   0.911   0.218  15.688 -0.2353  1.2674 -1.0932
 8348SOL     OW36505   0.335   3.696  12.919 -0.4353  0.0103 -0.0811
 8348SOL    HW136506   0.335   3.601  12.911 -2.3258  0.2023 -2.4683
 8348SOL    HW236507   0.259   3.708  12.976 -1.2843 -2.7192 -0.6576
 8349SOL     OW36508   3.847   0.212   3.359  0.4046 -0.3693 -0.8556
 8349SOL    HW136509   3.798   0.193   3.279 -1.6588  2.7101 -0.3430
 8349SOL    HW236510   3.821   0.304   3.370 -0.0760 -0.5638 -0.3813
 8350SOL     OW36511   2.521   2.959   3.356 -0.8683  0.0028  0.7475
 8350SOL    HW136512   2.430   2.936   3.373 -1.7168  0.5757 -2.8502
 8350SOL    HW236513   2.524   2.904   3.277  0.3430  0.8895  0.1713
 8351SOL     OW36514   3.148   3.231   6.215 -0.2053  0.2555 -0.0919
 8351SOL    HW136515   3.155   3.158   6.276  0.9432  0.9336  0.5909
 8351SOL    HW236516   3.085   3.290   6.256  1.7891  0.3163  2.8411
 8352SOL     OW36517   1.606   2.398   9.332  0.0605  0.3866  0.0607
 8352SOL    HW136518   1.665   2.415   9.406  0.7493 -1.6971  0.0024
 8352SOL    HW236519   1.672   2.371   9.268 -0.3915  0.6887 -0.5281
 8353SOL     OW36520   4.206   1.958   7.697  0.1029  0.2906 -0.0458
 8353SOL    HW136521   4.173   1.943   7.786  1.5176 -3.3605 -0.1123
 8353SOL    HW236522   4.298   1.930   7.697 -0.5745 -1.9204  0.3275
 8354SOL     OW36523   4.500   4.719  10.543 -0.2619 -0.0969  0.3744
 8354SOL    HW136524   4.458   0.068  10.505 -0.4929 -0.3235  0.1779
 8354SOL    HW236525   4.427   4.676  10.587  2.2528 -1.7786  2.9845
 8355SOL     OW36526   3.812   0.620   6.696 -0.0273  0.3002  0.1925
 8355SOL    HW136527   3.844   0.556   6.760  0.2702  0.6712  0.4164
 8355SOL    HW236528   3.752   0.672   6.750  0.2953  0.6633  0.2007
 8356SOL     OW36529   0.366   0.528  10.186  0.0115 -0.2562 -0.5948
 8356SOL    HW136530   0.311   0.605  10.174 -0.5488 -0.5195  0.2630
 8356SOL    HW236531   0.429   0.538  10.115 -1.0212  0.1890 -1.4406
 8357SOL     OW36532   1.999   1.999   5.332 -0.1372 -0.0369 -0.4083
 8357SOL    HW136533   2.086   2.037   5.342  0.3145 -0.1491 -4.0035
 8357SOL    HW236534   1.987   2.039   5.246  1.9925 -0.9323 -1.1144
 8358SOL     OW36535   0.132   4.258   3.922 -0.0452 -0.0627 -0.0639
 8358SOL    HW136536   0.203   4.195   3.911  0.6215  0.7853 -0.5403
 8358SOL    HW236537   0.063   4.233   3.861  0.7768  1.9016 -1.7938
 8359SOL     OW36538   3.958   2.743   8.195 -0.5416  0.1401 -0.5814
 8359SOL    HW136539   3.960   2.722   8.288 -1.7659 -1.3042 -0.8706
 8359SOL    HW236540   3.945   2.652   8.167 -0.0976 -0.5802  1.6023
 8360SOL     OW36541   2.357   3.108   5.650 -0.0234  0.0391  0.2148
 8360SOL    HW136542   2.395   3.163   5.582 -1.6238  3.1696  1.8432
 8360SOL    HW236543   2.435   3.081   5.699  0.4800  1.0190 -0.0477
 8361SOL     OW36544   1.529   0.403   3.623  0.1801  0.0955  0.2020
 8361SOL    HW136545   1.599   0.453   3.581  0.1557 -0.5624 -0.6052
 8361SOL    HW236546   1.458   0.433   3.566 -0.1326 -0.0051  0.5350
 8362SOL     OW36547   0.549   0.121   9.526  0.0826 -0.6986  0.0951
 8362SOL    HW136548   0.632   0.115   9.573  1.2147 -2.5573 -2.1538
 8362SOL    HW236549   0.581   0.168   9.449  1.2542 -0.1859  0.8784
 8363SOL     OW36550   4.521   0.981  16.656 -0.1817  0.0855  0.3663
 8363SOL    HW136551   4.438   1.004  16.698 -3.2815 -2.6504 -4.2782
 8363SOL    HW236552   4.565   0.941  16.731  1.2387  1.3621  0.2100
 8364SOL     OW36553   2.881   4.461   2.238 -0.3909  0.0634 -0.6712
 8364SOL    HW136554   2.950   4.402   2.209  0.6683  0.9944 -0.0238
 8364SOL    HW236555   2.915   4.543   2.202  3.1996 -0.3020  1.9186
 8365SOL     OW36556   3.527   3.787   0.771 -0.0747 -0.6839  0.7136
 8365SOL    HW136557   3.459   3.719   0.767 -0.1182 -0.6609  1.0784
 8365SOL    HW236558   3.520   3.800   0.866 -1.5921 -0.7079  0.6066
 8366SOL     OW36559   0.807   2.958  10.488  0.4292 -0.2205  0.1076
 8366SOL    HW136560   0.886   2.909  10.463 -0.0657 -1.3260  0.6941
 8366SOL    HW236561   0.793   2.917  10.574  2.0704  2.3174  1.5876
 8367SOL     OW36562   0.615   3.986   7.201 -0.2837  0.1703  0.2188
 8367SOL    HW136563   0.675   4.043   7.153 -0.5738  1.1312  1.0051
 8367SOL    HW236564   0.532   4.005   7.158 -0.1606  0.5089  0.1362
 8368SOL     OW36565   4.149   0.240   7.857 -0.2604  0.4300  0.1589
 8368SOL    HW136566   4.083   0.191   7.906 -1.7587  2.2927 -0.0227
 8368SOL    HW236567   4.201   0.269   7.932  1.2556  1.1963 -1.1746
 8369SOL     OW36568   0.643   1.907   6.160 -0.5003 -0.5369  0.7328
 8369SOL    HW136569   0.710   1.861   6.210 -0.7989 -2.2432 -0.4305
 8369SOL    HW236570   0.670   1.998   6.162  1.3571 -1.0913  0.2031
 8370SOL     OW36571   3.435   4.002   3.530 -0.4801 -0.1121 -0.0890
 8370SOL    HW136572   3.442   3.955   3.447  1.3454  0.2271 -0.1339
 8370SOL    HW236573   3.375   3.954   3.587 -0.9188  0.8350  0.2406
 8371SOL     OW36574   2.798   0.419   5.678 -0.5848  0.1611  0.2944
 8371SOL    HW136575   2.881   0.436   5.723  0.7020 -1.9255 -1.2940
 8371SOL    HW236576   2.821   0.385   5.592  0.7626 -0.8252  1.0533
 8372SOL     OW36577   1.426   2.862  11.512  0.1804 -0.3329  0.1928
 8372SOL    HW136578   1.521   2.847  11.507 -0.0167 -1.6613  0.3606
 8372SOL    HW236579   1.420   2.940  11.457 -0.2263 -0.2108  0.4112
 8373SOL     OW36580   3.323   3.918   4.114  0.3948 -0.0623 -0.1360
 8373SOL    HW136581   3.260   3.852   4.085  0.1363 -0.6976  1.8651
 8373SOL    HW236582   3.332   3.962   4.029  1.9460  1.2598  0.7131
 8374SOL     OW36583   2.159   1.546  17.671  0.6048  0.3267 -0.1996
 8374SOL    HW136584   2.164   1.617  17.607 -1.1929  1.4829  0.9452
 8374SOL    HW236585   2.132   1.598   0.038 -1.3891 -0.2266 -0.5178
 8375SOL     OW36586   0.946   0.833   4.135 -0.1796  0.8488  0.0794
 8375SOL    HW136587   1.027   0.881   4.150  1.2445 -1.6834  0.4915
 8375SOL    HW236588   0.985   0.746   4.121 -0.4165  0.7689 -0.0895
 8376SOL     OW36589   4.665   1.825   7.166 -0.1131  0.0043  0.2763
 8376SOL    HW136590   4.648   1.867   7.081 -0.9813  0.6589  0.7767
 8376SOL    HW236591   4.633   1.889   7.228 -0.1205 -1.3597  1.6725
 8377SOL     OW36592   1.465   0.598   1.135  1.0807  0.3656  0.5795
 8377SOL    HW136593   1.431   0.682   1.105 -1.0784  0.2262  2.6599
 8377SOL    HW236594   1.553   0.631   1.152  1.2803 -0.5258  1.2494
 8378SOL     OW36595   4.419   0.127  13.496  0.5769 -0.3546  0.1642
 8378SOL    HW136596   4.443   0.219  13.486  2.2507 -1.0027 -1.9046
 8378SOL    HW236597   4.473   0.095  13.568  0.4917  0.3724  0.5535
 8379SOL     OW36598   3.019   4.614   4.822  0.4198 -0.0898  0.0671
 8379SOL    HW136599   2.925   4.605   4.805  0.3589  1.0387 -0.2174
 8379SOL    HW236600   3.067   4.561   4.758  0.8432  1.7370 -1.1246
 8380SOL     OW36601   2.379   4.355  12.365  0.1360  0.0492 -0.0416
 8380SOL    HW136602   2.368   4.356  12.460 -1.0176 -0.2140 -0.1734
 8380SOL    HW236603   2.419   4.438  12.342 -0.5600  0.2567 -0.4994
 8381SOL     OW36604   4.029   1.944   9.807 -0.0059 -0.1705 -0.0340
 8381SOL    HW136605   3.959   1.931   9.744  1.5706  2.1356 -2.2858
 8381SOL    HW236606   4.105   1.904   9.764 -0.6720 -0.8806 -0.5438
 8382SOL     OW36607   0.227   0.266   8.997  0.5304 -0.3493  0.2870
 8382SOL    HW136608   0.304   0.285   8.944  1.5205  1.2533  2.3035
 8382SOL    HW236609   0.271   0.233   9.076 -0.4744 -1.7130  0.2787
 8383SOL     OW36610   3.533   1.012   5.126  0.1741 -0.2743  0.5470
 8383SOL    HW136611   3.587   1.091   5.135  0.6729 -0.4317 -1.1092
 8383SOL    HW236612   3.533   0.970   5.212  0.5655  1.1741  1.2646
 8384SOL     OW36613   1.478   0.522   9.908  0.0635 -0.3623 -0.1935
 8384SOL    HW136614   1.490   0.461   9.835  0.4159 -0.6734  0.1222
 8384SOL    HW236615   1.562   0.518   9.954  1.4344  2.0002 -2.4129
 8385SOL     OW36616   1.617   4.275  11.267 -0.2809  0.3854  0.1781
 8385SOL    HW136617   1.581   4.193  11.299  3.0051 -0.7450  0.9662
 8385SOL    HW236618   1.703   4.250  11.300  0.5505  1.4834 -1.1828
 8386SOL     OW36619   2.323   1.291  16.587  0.2011  0.1237 -0.2312
 8386SOL    HW136620   2.383   1.362  16.559 -0.5631  1.0259  0.4364
 8386SOL    HW236621   2.379   1.223  16.624  1.4354  0.9618 -0.5195
 8387SOL     OW36622   3.971   1.063   2.984  0.1300  0.3078  0.3953
 8387SOL    HW136623   3.960   1.143   3.036 -0.4893  2.1114 -2.5200
 8387SOL    HW236624   3.974   1.104   2.898 -0.3462 -1.9046 -0.6577
 8388SOL     OW36625   2.324   3.231   1.810 -0.3364  0.2034 -0.0205
 8388SOL    HW136626   2.385   3.279   1.866 -2.8520  2.4293  0.8186
 8388SOL    HW236627   2.253   3.293   1.828  1.9337  2.8170 -0.1062
 8389SOL     OW36628   4.368   1.104   8.682  0.1013 -0.1940  0.0768
 8389SOL    HW136629   4.437   1.042   8.660 -0.4936 -0.9187  0.2361
 8389SOL    HW236630   4.297   1.041   8.697  0.2272 -1.0646 -2.9701
 8390SOL     OW36631   4.202   0.408   0.503  0.0510  0.0148 -0.0032
 8390SOL    HW136632   4.249   0.477   0.551 -1.3890  1.3867 -0.5589
 8390SOL    HW236633   4.227   0.324   0.542 -0.9064 -0.7941 -1.1395
 8391SOL     OW36634   2.744   1.510   1.118 -0.4246  0.4856 -0.1395
 8391SOL    HW136635   2.743   1.576   1.049  1.0826 -0.4625 -1.0628
 8391SOL    HW236636   2.653   1.524   1.146 -0.3838 -0.2312  0.3705
 8392SOL     OW36637   2.823   2.568   6.748 -0.3969 -0.0097 -0.4636
 8392SOL    HW136638   2.757   2.542   6.811 -1.2840  1.0023 -0.9679
 8392SOL    HW236639   2.876   2.489   6.752 -2.6736 -1.4481  1.1601
 8393SOL     OW36640   2.924   2.728  11.427  0.0232 -0.6482 -0.0889
 8393SOL    HW136641   2.881   2.720  11.513  0.6930 -2.1081  0.1053
 8393SOL    HW236642   2.919   2.636  11.400 -2.4749 -0.4917 -0.1599
 8394SOL     OW36643   2.593   3.851   4.107 -0.0120 -0.7262 -0.0222
 8394SOL    HW136644   2.666   3.879   4.052  1.1743  0.0002  1.8953
 8394SOL    HW236645   2.524   3.855   4.041  0.0506 -0.8847 -0.0982
 8395SOL     OW36646   0.755   2.391   9.308  0.0946  0.0104 -0.5965
 8395SOL    HW136647   0.754   2.350   9.221  0.2852 -0.9770 -0.1370
 8395SOL    HW236648   0.692   2.339   9.357 -0.5806  0.8804 -0.5536
 8396SOL     OW36649   2.540   0.183   8.957 -0.0028 -0.2502 -0.7790
 8396SOL    HW136650   2.611   0.220   8.905  0.5817  0.5982  0.6285
 8396SOL    HW236651   2.594   0.161   9.033 -2.5774 -0.4104  1.0082
 8397SOL     OW36652   3.694   3.652   4.077  0.5416  0.6054 -0.3255
 8397SOL    HW136653   3.602   3.667   4.096  0.1682 -0.7314 -1.1157
 8397SOL    HW236654   3.723   3.731   4.031  2.9670 -0.2244 -0.2536
 8398SOL     OW36655   2.051   3.371   2.267  0.2538 -0.5439 -0.0041
 8398SOL    HW136656   2.103   3.305   2.313  1.5965  0.9962  0.6969
 8398SOL    HW236657   1.975   3.325   2.230  0.4249 -0.8620  0.0392
 8399SOL     OW36658   2.910   1.993   6.648 -0.1318  0.0559 -0.4752
 8399SOL    HW136659   2.833   1.947   6.612  0.1483 -1.6718  1.1257
 8399SOL    HW236660   2.919   2.070   6.592  1.0448  1.5115  1.7209
 8400SOL     OW36661   3.116   0.719   2.808  0.0689  0.1720 -0.4096
 8400SOL    HW136662   3.087   0.680   2.890 -0.7900  0.3363 -0.6384
 8400SOL    HW236663   3.203   0.744   2.839  1.0170 -0.7712 -2.3638
 8401SOL     OW36664   1.998   2.658   7.013  0.0952  0.1103 -0.2636
 8401SOL    HW136665   1.925   2.637   7.071  2.1780 -1.4042  1.8336
 8401SOL    HW236666   2.047   2.576   7.013 -1.6187 -0.9333 -1.7689
 8402SOL     OW36667   2.310   0.561  10.030  0.4306 -0.7624  0.1637
 8402SOL    HW136668   2.346   0.525  10.110  1.3117 -1.6301 -0.6276
 8402SOL    HW236669   2.394   0.559   9.985 -0.5024 -1.2472 -1.5549
 8403SOL     OW36670   2.161   4.339   3.244 -0.5682 -0.1046  0.2406
 8403SOL    HW136671   2.215   4.303   3.174 -0.4784  2.9321 -1.2451
 8403SOL    HW236672   2.194   4.428   3.244 -3.3694  0.9423 -0.1667
 8404SOL     OW36673   3.671   3.794   7.268 -0.0781  0.0992 -0.0389
 8404SOL    HW136674   3.696   3.723   7.208  1.0043 -0.5986  1.2372
 8404SOL    HW236675   3.631   3.754   7.345  1.8584 -1.3176  0.2293
 8405SOL     OW36676   3.614   2.887   3.028  0.2824  0.0774 -0.1457
 8405SOL    HW136677   3.677   2.957   3.009  1.4343 -1.0044 -0.2901
 8405SOL    HW236678   3.554   2.935   3.085 -0.2219 -0.1911 -0.4501
 8406SOL     OW36679   0.347   2.709  15.674  0.6508  0.1552  0.0915
 8406SOL    HW136680   0.354   2.722  15.579  0.5407 -0.5354 -0.0131
 8406SOL    HW236681   0.260   2.742  15.695  0.9303  1.5582 -0.9457
 8407SOL     OW36682   0.622   0.561  12.289 -0.4099 -0.0223 -0.3567
 8407SOL    HW136683   0.658   0.548  12.377 -1.4646  3.1666  0.5475
 8407SOL    HW236684   0.532   0.583  12.315 -0.2045 -0.6058  0.8547
 8408SOL     OW36685   3.165   2.640   3.379  0.1333 -0.0382  0.0065
 8408SOL    HW136686   3.122   2.650   3.464  0.9726  0.5073  0.3732
 8408SOL    HW236687   3.255   2.654   3.409 -0.1820 -0.0361  0.9321
 8409SOL     OW36688   3.562   1.193  16.414  0.1158  0.3407 -0.4608
 8409SOL    HW136689   3.507   1.204  16.336  1.4239  0.9388 -1.3050
 8409SOL    HW236690   3.593   1.104  16.402 -3.1480 -0.4838 -2.6757
 8410SOL     OW36691   3.148   3.629   1.436 -0.1280  0.1122  0.0639
 8410SOL    HW136692   3.177   3.659   1.350 -1.2070  0.8686 -0.0387
 8410SOL    HW236693   3.226   3.584   1.471 -1.0071 -1.6390 -0.2458
 8411SOL     OW36694   2.679   3.857   3.211 -1.0624  0.1244  0.2943
 8411SOL    HW136695   2.769   3.864   3.241 -0.4782  0.0988 -1.4886
 8411SOL    HW236696   2.694   3.804   3.133  2.0156 -1.7068  2.1507
 8412SOL     OW36697   4.594   3.437   9.465 -0.3508  0.6733  0.3607
 8412SOL    HW136698   4.503   3.413   9.480 -0.0225  0.3852  1.9034
 8412SOL    HW236699   4.615   3.408   9.376  0.5404 -0.7479  1.0353
 8413SOL     OW36700   0.231   1.385   2.309 -0.0029  0.0494 -0.5245
 8413SOL    HW136701   0.204   1.298   2.279 -1.5718  0.1277  0.6760
 8413SOL    HW236702   0.154   1.423   2.352  0.3169 -1.3353  1.2929
 8414SOL     OW36703   2.454   4.303   2.494  0.1077 -0.0034  0.2305
 8414SOL    HW136704   2.400   4.325   2.419 -0.0082  1.1741  0.6617
 8414SOL    HW236705   2.537   4.330   2.455 -0.1384  0.0385 -0.2581
 8415SOL     OW36706   4.474   4.398   5.337  0.2019  0.0108 -0.5769
 8415SOL    HW136707   4.436   4.461   5.398  1.3145  0.9021 -0.7954
 8415SOL    HW236708   4.470   4.318   5.390 -2.6442  1.3732  1.2359
 8416SOL     OW36709   1.648   0.540   4.680  0.3198  0.3970  0.4657
 8416SOL    HW136710   1.594   0.603   4.727  1.2615  0.2235  1.7924
 8416SOL    HW236711   1.641   0.467   4.742  2.7282  1.3035  1.8386
 8417SOL     OW36712   0.612   4.283   5.754 -0.2150 -0.0200 -0.0561
 8417SOL    HW136713   0.568   4.249   5.676 -0.0101  1.1604 -0.6830
 8417SOL    HW236714   0.536   4.328   5.792  0.4450  1.1933 -0.1660
 8418SOL     OW36715   1.704   1.621  15.317  0.4561 -0.1426 -0.7083
 8418SOL    HW136716   1.703   1.684  15.245 -0.1043 -0.6163 -1.1096
 8418SOL    HW236717   1.794   1.634  15.347  0.3412  0.3639 -0.5841
 8419SOL     OW36718   2.968   4.018   2.525 -0.9981 -0.4868 -0.2792
 8419SOL    HW136719   3.034   3.998   2.592 -0.2770 -1.5306 -1.2936
 8419SOL    HW236720   3.022   3.992   2.450  1.1673  3.3969 -0.0932
 8420SOL     OW36721   4.590   2.889   7.769 -0.1876  0.4864  0.5436
 8420SOL    HW136722   4.622   2.953   7.833  1.1202 -0.3855  0.7537
 8420SOL    HW236723   4.499   2.914   7.754 -0.2824  0.1532  0.5790
 8421SOL     OW36724   4.593   3.993   2.807 -0.5317 -0.4651  0.4961
 8421SOL    HW136725   4.505   4.028   2.793 -0.3841 -0.4298 -0.3509
 8421SOL    HW236726   4.623   3.980   2.717 -1.2390 -0.6194  0.2840
 8422SOL     OW36727   2.828   1.321   5.078 -0.2657  0.2818 -0.2928
 8422SOL    HW136728   2.910   1.329   5.127  0.1254 -0.0848 -0.8814
 8422SOL    HW236729   2.761   1.297   5.141 -0.6594  0.9224 -0.4687
 8423SOL     OW36730   0.947   3.614   1.685 -0.6736 -0.1789 -0.1635
 8423SOL    HW136731   0.877   3.604   1.620 -0.9761  0.1231  0.1152
 8423SOL    HW236732   0.999   3.550   1.638 -0.4727  0.0435 -0.2446
 8424SOL     OW36733   1.747   1.774  15.618  0.2161 -0.1525  0.0965
 8424SOL    HW136734   1.790   1.854  15.648  0.3339  0.5013 -1.8236
 8424SOL    HW236735   1.811   1.749  15.551 -2.6556  1.1379 -3.1275
 8425SOL     OW36736   1.920   4.408   5.863  0.5539 -0.3202 -0.5018
 8425SOL    HW136737   1.966   4.330   5.829  2.3151 -0.2369  1.7039
 8425SOL    HW236738   1.853   4.369   5.919  0.2260 -0.2183 -0.8255
 8426SOL     OW36739   2.834   4.197   7.513 -0.2128  0.0441  0.0339
 8426SOL    HW136740   2.741   4.207   7.493 -0.4127 -0.9569  0.4583
 8426SOL    HW236741   2.846   4.270   7.574 -0.9964  0.8598 -0.7871
 8427SOL     OW36742   4.019   0.415  14.053  0.0713 -0.3015 -0.2126
 8427SOL    HW136743   3.997   0.327  14.084 -0.5373 -0.7816 -1.9792
 8427SOL    HW236744   4.087   0.449  14.111 -0.5389 -2.1556  1.5719
 8428SOL     OW36745   0.850   3.192  16.882 -0.7100  0.0750  0.3088
 8428SOL    HW136746   0.902   3.180  16.803  0.2750  0.2147  0.9337
 8428SOL    HW236747   0.810   3.275  16.857 -0.9762  0.5221  2.2278
 8429SOL     OW36748   4.445   2.735   0.593  0.4832 -0.0928  0.0199
 8429SOL    HW136749   4.508   2.732   0.665 -1.2052  0.3810  1.5230
 8429SOL    HW236750   4.387   2.660   0.608  0.9627  0.2927  3.8670
 8430SOL     OW36751   4.067   4.012  10.881 -0.0666  0.0645  0.6439
 8430SOL    HW136752   4.084   4.052  10.795 -1.2351 -2.1189 -0.5997
 8430SOL    HW236753   4.145   3.960  10.900 -0.6919 -0.2866  2.1878
 8431SOL     OW36754   1.475   2.667   7.291 -0.8433  0.2489  0.4591
 8431SOL    HW136755   1.505   2.738   7.348  1.5167 -0.2030 -0.2474
 8431SOL    HW236756   1.530   2.598   7.326 -0.4493  0.5262  0.3814
 8432SOL     OW36757   0.146   0.727  10.252 -0.6578  0.7066 -0.0761
 8432SOL    HW136758   0.127   0.753  10.343 -0.6448  1.6246 -0.3349
 8432SOL    HW236759   0.083   0.776  10.201 -0.3950  1.2935  0.1623
 8433SOL     OW36760   3.070   2.439   5.735 -0.3346  0.2330 -0.2437
 8433SOL    HW136761   3.083   2.529   5.707  1.1875 -0.1008 -0.5953
 8433SOL    HW236762   2.980   2.438   5.768 -0.4222 -2.6971 -0.5139
 8434SOL     OW36763   0.840   4.564  10.803  1.0042  0.9885 -0.5934
 8434SOL    HW136764   0.765   4.557  10.744  1.9373 -0.4219 -1.6530
 8434SOL    HW236765   0.854   4.658  10.813 -2.3645  1.4542 -0.3922
 8435SOL     OW36766   1.295   3.666  13.241 -0.1644 -0.1675 -0.0988
 8435SOL    HW136767   1.293   3.743  13.298 -1.8832 -0.8000  0.6876
 8435SOL    HW236768   1.389   3.651  13.253 -0.2423 -0.7159 -0.2020
 8436SOL     OW36769   3.516   3.860   4.685 -0.0283 -0.3975  0.1491
 8436SOL    HW136770   3.569   3.834   4.760  1.0702  0.8640 -0.2026
 8436SOL    HW236771   3.577   3.814   4.628  1.4232  0.0963  1.2936
 8437SOL     OW36772   0.046   4.264  16.043 -0.0619 -0.3089 -0.4195
 8437SOL    HW136773   0.032   4.354  16.016  2.1889 -0.0472 -0.7161
 8437SOL    HW236774   0.009   4.267  16.131  1.0592  3.0279 -0.0874
 8438SOL     OW36775   3.700   0.742  17.181  0.6756 -0.3580  0.0188
 8438SOL    HW136776   3.665   0.766  17.266  1.2128 -0.7202  0.3457
 8438SOL    HW236777   3.693   0.646  17.175 -0.7432 -0.3546  1.5764
 8439SOL     OW36778   4.432   4.629   9.151  0.4106  0.3621  0.2134
 8439SOL    HW136779   4.501   4.656   9.212  0.7229  2.6533 -1.1472
 8439SOL    HW236780   4.468   4.662   9.069 -1.0233  2.2183  0.3320
 8440SOL     OW36781   1.643   3.419   6.116  0.2321 -0.4828 -0.1329
 8440SOL    HW136782   1.641   3.352   6.048  4.1334 -0.4267 -0.3252
 8440SOL    HW236783   1.737   3.426   6.134 -0.0614  0.5289  0.9970
 8441SOL     OW36784   3.633   0.726   7.839 -0.3764 -0.9847  0.5822
 8441SOL    HW136785   3.728   0.737   7.842 -0.2604 -1.6711 -0.6215
 8441SOL    HW236786   3.621   0.631   7.845 -0.2578 -0.8835  2.4694
 8442SOL     OW36787   2.088   3.403   8.081  0.4406 -0.2852  0.0053
 8442SOL    HW136788   2.177   3.431   8.100  0.1910 -0.6879  1.7825
 8442SOL    HW236789   2.057   3.383   8.170  0.5761  0.3801  0.2017
 8443SOL     OW36790   3.443   0.967  17.316 -0.2208 -0.1782  0.1217
 8443SOL    HW136791   3.369   0.991  17.260  0.7154  1.2076 -0.5407
 8443SOL    HW236792   3.403   0.922  17.390  0.1582 -0.1025  0.3711
 8444SOL     OW36793   2.173   3.819   5.112  0.1217 -1.0270 -0.0867
 8444SOL    HW136794   2.143   3.838   5.023 -3.4444 -1.1575  1.0577
 8444SOL    HW236795   2.086   3.825   5.153 -0.2660  1.0897 -1.2014
 8445SOL     OW36796   4.007   0.989   5.631 -0.4829  0.4696 -0.2861
 8445SOL    HW136797   4.007   0.900   5.595  1.9319 -0.2032  1.3604
 8445SOL    HW236798   3.949   1.027   5.565 -2.0148 -1.3061  0.0358
 8446SOL     OW36799   2.062   1.234  16.438  0.8854 -0.4564  0.1582
 8446SOL    HW136800   2.127   1.304  16.449  0.0932  0.0644  1.4667
 8446SOL    HW236801   2.027   1.208  16.523  1.1879  0.0940  0.4483
 8447SOL     OW36802   2.790   3.893   2.807 -0.3876  0.1437 -0.2572
 8447SOL    HW136803   2.732   3.819   2.819 -0.4629  0.3989  0.9712
 8447SOL    HW236804   2.858   3.862   2.747  1.4445  1.5048  1.0893
 8448SOL     OW36805   2.807   4.070   1.670  0.0567 -0.2433  0.2064
 8448SOL    HW136806   2.716   4.041   1.681  0.9151 -2.0629  2.3285
 8448SOL    HW236807   2.843   3.995   1.624 -2.2092 -0.7449 -0.7586
 8449SOL     OW36808   0.104   0.625   4.985  0.5386  0.0065 -0.0864
 8449SOL    HW136809   0.049   0.633   5.063 -0.7940 -0.5970 -0.9596
 8449SOL    HW236810   0.158   0.547   5.001  1.2388  0.4519 -0.2899
 8450SOL     OW36811   3.156   2.069  17.084 -0.0089 -0.5790 -0.2846
 8450SOL    HW136812   3.213   2.112  17.020  1.1813  1.7206  2.3103
 8450SOL    HW236813   3.195   1.982  17.091 -1.1311 -0.8829  2.2621
 8451SOL     OW36814   3.324   3.915  14.186 -0.4710  0.0192 -0.2041
 8451SOL    HW136815   3.384   3.875  14.249  1.4813  1.2580 -1.2799
 8451SOL    HW236816   3.241   3.889  14.226 -0.8481  0.1017 -0.9271
 8452SOL     OW36817   0.612   3.794   3.146  0.1148  0.1738  0.0506
 8452SOL    HW136818   0.520   3.769   3.159  0.7868 -2.0587  0.5540
 8452SOL    HW236819   0.594   3.880   3.108 -2.4621 -0.5198 -0.3268
 8453SOL     OW36820   1.370   2.103   4.365 -0.5812 -0.4787  0.7334
 8453SOL    HW136821   1.341   2.193   4.357 -2.4814 -1.1720 -0.1468
 8453SOL    HW236822   1.411   2.093   4.451  2.8670  1.4508 -0.6822
 8454SOL     OW36823   4.604   1.270   6.749 -0.4905  0.3298 -0.4922
 8454SOL    HW136824   4.660   1.198   6.778  0.5961  1.4943  0.3202
 8454SOL    HW236825   4.571   1.239   6.665 -1.5727  1.7234 -0.5814
 8455SOL     OW36826   0.823   0.469   3.071 -0.2020  0.2047 -0.1268
 8455SOL    HW136827   0.781   0.502   2.992 -1.9652  0.5977  0.9773
 8455SOL    HW236828   0.782   0.538   3.123 -0.2071 -0.0610  0.2168
 8456SOL     OW36829   3.361   0.718  14.109 -0.2892 -0.6011  0.3193
 8456SOL    HW136830   3.318   0.677  14.183  0.6637 -0.3622  1.0099
 8456SOL    HW236831   3.421   0.649  14.079  1.2364 -0.4430  3.0632
 8457SOL     OW36832   0.460   2.310  16.793  0.6006 -0.6877 -0.0790
 8457SOL    HW136833   0.505   2.238  16.747  1.4197  0.1542 -0.6062
 8457SOL    HW236834   0.431   2.362  16.718  4.7928  1.2369 -0.3893
 8458SOL     OW36835   0.855   4.465   3.488  0.0277 -0.4162 -0.1182
 8458SOL    HW136836   0.825   4.377   3.466 -0.2699 -0.7141  1.4297
 8458SOL    HW236837   0.773   4.514   3.490  0.0019 -0.3641 -2.5088
 8459SOL     OW36838   0.612   4.098  10.448 -0.0707  0.1017 -0.2391
 8459SOL    HW136839   0.536   4.088  10.391  0.2624  0.4104 -0.7397
 8459SOL    HW236840   0.571   4.140  10.524  0.9942  0.6468  0.0450
 8460SOL     OW36841   3.686   1.942  15.452  0.3913 -0.2045  0.2137
 8460SOL    HW136842   3.622   2.003  15.416 -0.1926  0.5276  2.5337
 8460SOL    HW236843   3.752   1.946  15.382 -1.2349  1.1141 -1.2345
 8461SOL     OW36844   0.663   3.845   5.393 -0.4990 -0.0635 -0.0731
 8461SOL    HW136845   0.743   3.795   5.382 -1.4070 -1.2854 -1.1921
 8461SOL    HW236846   0.615   3.762   5.401 -0.9369  0.4860  2.9946
 8462SOL     OW36847   3.945   1.994  15.307 -0.2248 -0.1880 -0.2005
 8462SOL    HW136848   4.028   2.030  15.277 -1.2347  0.4016 -2.3474
 8462SOL    HW236849   3.974   1.929  15.371  0.4809 -1.9318 -2.2706
 8463SOL     OW36850   3.604   1.745   5.654 -0.0887  0.1604 -0.2701
 8463SOL    HW136851   3.589   1.839   5.666 -1.3578  0.0486 -0.9085
 8463SOL    HW236852   3.564   1.711   5.734  0.3008  2.3620  0.8627
 8464SOL     OW36853   0.643   0.621  13.198 -0.4135  0.0740 -0.0091
 8464SOL    HW136854   0.553   0.625  13.167 -0.3134  0.6501 -0.2351
 8464SOL    HW236855   0.677   0.665  13.120 -2.7670  0.9061 -0.5558
 8465SOL     OW36856   3.491   0.679  16.469 -0.2424  0.1013 -0.5324
 8465SOL    HW136857   3.585   0.697  16.474 -0.3709  0.4945  0.5271
 8465SOL    HW236858   3.466   0.723  16.551  1.9027  2.0917 -0.9053
 8466SOL     OW36859   4.683   1.567   5.946 -0.5057  0.6054 -0.1492
 8466SOL    HW136860   4.597   1.529   5.927 -0.5903  0.2868  0.8887
 8466SOL    HW236861   4.677   1.653   5.903  0.6290  0.9306  0.3371
 8467SOL     OW36862   3.411   0.304   8.672  0.2831 -0.1583 -0.3540
 8467SOL    HW136863   3.445   0.263   8.751  0.5420  0.5835 -0.0776
 8467SOL    HW236864   3.399   0.392   8.710  0.1377 -0.6141  0.6527
 8468SOL     OW36865   3.718   3.520   9.470  0.1506 -0.3042 -0.4141
 8468SOL    HW136866   3.766   3.520   9.553  4.0653  1.8459 -2.7093
 8468SOL    HW236867   3.643   3.567   9.507  0.4529 -0.8444  0.8934
 8469SOL     OW36868   1.916   1.154  13.918 -0.9457  0.0885 -0.3360
 8469SOL    HW136869   1.921   1.178  14.010 -2.3172 -0.0679 -0.2316
 8469SOL    HW236870   1.999   1.108  13.901 -0.9773 -0.6990  1.6370
 8470SOL     OW36871   1.958   0.852   0.530 -0.0275  0.1517  0.5680
 8470SOL    HW136872   1.892   0.794   0.494 -0.9757  0.9330  1.0397
 8470SOL    HW236873   1.933   0.853   0.622  1.0637  0.0012  0.8686
 8471SOL     OW36874   3.370   3.966   5.070 -1.3740  0.0697 -0.8332
 8471SOL    HW136875   3.336   4.018   5.143  2.8019  2.3248 -0.4623
 8471SOL    HW236876   3.423   3.896   5.107 -0.4989  0.8969 -0.5111
 8472SOL     OW36877   3.918   0.723  10.144 -0.5118  0.7122 -0.0732
 8472SOL    HW136878   3.873   0.642  10.119 -1.7770  1.1860  0.6357
 8472SOL    HW236879   3.983   0.731  10.075  0.4006  1.4390  0.8537
 8473SOL     OW36880   0.126   4.624  17.393  0.2577  0.2869  0.3751
 8473SOL    HW136881   0.163   4.555  17.338  1.6512  1.6867 -0.4528
 8473SOL    HW236882   0.034   4.604  17.381  0.6091 -1.2098  0.1751
 8474SOL     OW36883   0.979   3.509   3.095  0.4208  0.2504 -0.0179
 8474SOL    HW136884   0.967   3.602   3.114 -0.9505 -0.4546  2.5554
 8474SOL    HW236885   1.005   3.474   3.180  0.6449 -0.8660 -0.5418
 8475SOL     OW36886   1.872   2.891   2.274  0.6450  0.4632 -0.2312
 8475SOL    HW136887   1.817   2.887   2.353  1.8681  0.7316  0.6296
 8475SOL    HW236888   1.814   2.845   2.213 -0.1655  2.1943 -0.7788
 8476SOL     OW36889   4.218   4.408   9.506 -0.8367  0.4670 -0.0540
 8476SOL    HW136890   4.299   4.394   9.457  1.0774  0.0618  3.2238
 8476SOL    HW236891   4.250   4.491   9.541 -1.6988 -0.1364  2.1543
 8477SOL     OW36892   0.273   1.017  11.667 -0.3602  0.2435 -0.1562
 8477SOL    HW136893   0.271   0.922  11.682  2.6748  0.5821  2.4292
 8477SOL    HW236894   0.202   1.048  11.722 -0.3196 -0.8083  0.4990
 8478SOL     OW36895   1.237   0.037   5.919  0.0859  0.0329 -1.2605
 8478SOL    HW136896   1.147   0.068   5.929 -0.9410 -3.1946 -0.4022
 8478SOL    HW236897   1.229   4.686   5.974  0.1629  0.2855 -0.8926
 8479SOL     OW36898   0.980   4.144  10.442 -0.2587 -0.0031 -0.0350
 8479SOL    HW136899   0.940   4.171  10.359  1.4904  0.3703 -0.7622
 8479SOL    HW236900   0.918   4.078  10.471  3.0583 -3.8070 -1.6215
 8480SOL     OW36901   0.874   3.396   5.033 -0.4027 -0.3840 -0.0587
 8480SOL    HW136902   0.896   3.310   4.999 -0.5605 -0.9040  1.1815
 8480SOL    HW236903   0.779   3.395   5.048 -0.4761 -1.6998 -0.6082
 8481SOL     OW36904   2.279   4.354   2.281  0.1245 -0.5507  0.4436
 8481SOL    HW136905   2.193   4.329   2.248  0.5435 -0.3287 -0.8213
 8481SOL    HW236906   2.286   4.445   2.253  0.4443 -1.3902 -2.1444
 8482SOL     OW36907   3.845   2.219   2.160 -0.1489 -0.2156  0.2336
 8482SOL    HW136908   3.905   2.184   2.225  0.1924  0.1141  0.0950
 8482SOL    HW236909   3.826   2.143   2.105 -0.6966 -0.2462  0.4676
 8483SOL     OW36910   4.118   3.156   3.538 -0.0621 -0.3020  0.3471
 8483SOL    HW136911   4.207   3.188   3.554  0.6445 -2.2277  0.1513
 8483SOL    HW236912   4.108   3.156   3.443  2.4163 -2.1617  0.1227
 8484SOL     OW36913   2.268   0.995   3.539 -0.1416 -0.3730  0.1568
 8484SOL    HW136914   2.354   0.953   3.546 -0.6762 -1.6100 -1.0093
 8484SOL    HW236915   2.293   1.084   3.564 -4.0924  1.1508 -1.3714
 8485SOL     OW36916   2.131   3.702   1.678  0.2499 -0.6209  0.2073
 8485SOL    HW136917   2.048   3.746   1.659  0.9365  0.4394 -0.3430
 8485SOL    HW236918   2.122   3.614   1.642 -1.9474 -0.8061  1.2185
 8486SOL     OW36919   3.689   1.966   2.283  0.8352 -0.5286  0.1002
 8486SOL    HW136920   3.748   1.900   2.319  0.7055 -0.5170  0.3327
 8486SOL    HW236921   3.739   1.980   2.203  2.1385 -1.0960  0.8120
 8487SOL     OW36922   1.926   1.563  12.133  0.0839 -0.4846  0.3113
 8487SOL    HW136923   2.001   1.512  12.103  0.5529 -0.0461  0.7210
 8487SOL    HW236924   1.896   1.619  12.061 -1.1422  0.6421  1.6869
 8488SOL     OW36925   1.185   4.124   9.832 -0.6281 -0.0105  0.8126
 8488SOL    HW136926   1.135   4.058   9.881 -1.0992 -1.2500 -1.3020
 8488SOL    HW236927   1.260   4.075   9.800 -1.6712 -0.5677 -0.8002
 8489SOL     OW36928   1.996   0.686   1.631  0.6396 -0.3409  0.6611
 8489SOL    HW136929   1.925   0.646   1.581  0.7763 -0.4413  0.5460
 8489SOL    HW236930   2.029   0.605   1.670 -1.2295 -2.4759 -2.1676
 8490SOL     OW36931   2.848   0.744   4.280  0.2309 -0.0759 -0.1862
 8490SOL    HW136932   2.766   0.784   4.250 -0.3055  0.0352  1.4293
 8490SOL    HW236933   2.850   0.807   4.352 -2.7307  1.5119 -1.4665
 8491SOL     OW36934   3.839   0.061   5.543  1.0344  0.0755  0.4918
 8491SOL    HW136935   3.767   0.003   5.569  0.5617 -0.7244 -2.5490
 8491SOL    HW236936   3.790   0.127   5.493 -0.8617 -1.7999 -0.1556
 8492SOL     OW36937   2.754   0.272   4.361 -0.4954  0.2310 -0.0413
 8492SOL    HW136938   2.686   0.299   4.423 -0.5922 -2.0339  0.8561
 8492SOL    HW236939   2.829   0.284   4.419 -1.6152 -1.7469  1.8071
 8493SOL     OW36940   3.301   0.427  15.712  0.0320  0.1224  0.3258
 8493SOL    HW136941   3.339   0.344  15.683  0.2613  0.7433 -1.1424
 8493SOL    HW236942   3.378   0.483  15.700  0.0511  0.1415  0.5402
 8494SOL     OW36943   3.928   2.715   4.075 -0.6008 -0.1170  0.1378
 8494SOL    HW136944   3.896   2.803   4.097 -1.4067 -0.2800 -0.3735
 8494SOL    HW236945   4.001   2.708   4.137 -0.2828  0.4941 -0.1605
 8495SOL     OW36946   3.752   2.637   8.368  0.2130  0.3564  0.5192
 8495SOL    HW136947   3.676   2.599   8.412  1.1186 -1.9280  0.1498
 8495SOL    HW236948   3.817   2.578   8.406 -1.6981 -1.6701  0.6615
 8496SOL     OW36949   1.498   2.814   1.499  0.5214  0.4054  0.5895
 8496SOL    HW136950   1.499   2.720   1.482 -0.5940  0.7412 -1.3434
 8496SOL    HW236951   1.455   2.821   1.585 -0.6414 -0.3831  0.0697
 8497SOL     OW36952   0.387   2.591   9.042  0.3644  0.1291  0.0044
 8497SOL    HW136953   0.359   2.679   9.068  0.1215  0.3219 -0.9279
 8497SOL    HW236954   0.483   2.598   9.036  0.3592 -1.1571 -1.5959
 8498SOL     OW36955   1.988   0.426   7.279 -0.8445  0.5401  0.2510
 8498SOL    HW136956   2.031   0.500   7.323  2.0786 -0.8619 -0.2451
 8498SOL    HW236957   2.064   0.389   7.234 -1.9431 -1.7429  0.3176
 8499SOL     OW36958   1.750   3.836  13.555 -0.1919  0.0145  0.6083
 8499SOL    HW136959   1.823   3.862  13.498 -3.0324  0.5329 -2.8093
 8499SOL    HW236960   1.678   3.876  13.506  1.0337  0.4656 -0.8151
 8500SOL     OW36961   2.165   1.381  11.526 -0.2724  0.7478 -0.4997
 8500SOL    HW136962   2.153   1.472  11.552 -0.4498  0.5213  0.2120
 8500SOL    HW236963   2.153   1.390  11.431  0.9293  1.2560 -0.6015
 8501SOL     OW36964   4.573   0.693   9.572  0.0098  0.0667 -0.3360
 8501SOL    HW136965   4.653   0.704   9.521  1.6357 -0.6865  2.0289
 8501SOL    HW236966   4.559   0.784   9.599  2.5693  0.5878 -0.7559
 8502SOL     OW36967   3.103   1.385  15.593 -0.6895  0.0572  0.1129
 8502SOL    HW136968   3.134   1.298  15.619 -0.8584 -0.1649 -0.4302
 8502SOL    HW236969   3.189   1.427  15.585  0.3655 -1.6961  2.1912
 8503SOL     OW36970   2.613   0.774   3.178 -0.1814  0.1761  0.3026
 8503SOL    HW136971   2.622   0.708   3.109  1.6065 -0.4645  1.1486
 8503SOL    HW236972   2.605   0.854   3.126 -1.3285 -0.8423 -1.0852
 8504SOL     OW36973   3.237   0.383  12.063  0.1055  0.4196  0.3263
 8504SOL    HW136974   3.165   0.360  12.122 -1.3528  1.6906 -0.9653
 8504SOL    HW236975   3.210   0.461  12.015 -1.6383 -0.5302 -0.2541
 8505SOL     OW36976   0.397   0.836   8.162  0.0306  0.0074 -0.1403
 8505SOL    HW136977   0.484   0.867   8.189 -0.1337  0.8077 -0.5108
 8505SOL    HW236978   0.391   0.761   8.220  1.2256 -0.7657 -1.0156
 8506SOL     OW36979   4.667   1.582  13.942 -0.0983  0.5432  0.0823
 8506SOL    HW136980   0.025   1.609  13.907 -0.6676 -1.5679 -2.9327
 8506SOL    HW236981   4.624   1.551  13.863  1.0692 -1.0219  0.0540
 8507SOL     OW36982   4.149   0.177  10.655 -0.4533  0.6976  0.3647
 8507SOL    HW136983   4.198   0.235  10.713  0.7092  0.5462 -0.4814
 8507SOL    HW236984   4.064   0.218  10.639 -0.0163  1.8953  1.1122
 8508SOL     OW36985   3.748   3.828  17.058  1.0027  0.6445 -0.3625
 8508SOL    HW136986   3.686   3.756  17.045  1.5890 -0.1773  1.3283
 8508SOL    HW236987   3.692   3.904  17.069 -0.4107 -0.8014  2.4987
 8509SOL     OW36988   2.186   1.552   8.529 -0.5323 -0.3985  0.0774
 8509SOL    HW136989   2.263   1.589   8.485 -0.4949 -0.1966  0.3128
 8509SOL    HW236990   2.206   1.587   8.616  3.7111  0.6571 -1.3261
 8510SOL     OW36991   3.889   3.837   7.964  0.1891  0.0577 -0.0884
 8510SOL    HW136992   3.919   3.883   7.886 -0.1980  0.2215 -0.1340
 8510SOL    HW236993   3.856   3.760   7.918 -0.2991 -0.3265  0.8868
 8511SOL     OW36994   0.885   3.882   4.038  0.0699  0.1189  0.0221
 8511SOL    HW136995   0.889   3.949   3.970  1.9021  0.2652  0.2701
 8511SOL    HW236996   0.846   3.920   4.117 -2.8800  1.6910 -2.1985
 8512SOL     OW36997   0.526   3.881   9.315 -0.4208  0.9384  0.0379
 8512SOL    HW136998   0.441   3.884   9.360 -0.5875 -2.9587 -0.0023
 8512SOL    HW236999   0.589   3.878   9.388 -1.0094 -2.9579  0.3569
 8513SOL     OW37000   2.607   3.612  10.313 -0.4003 -0.2251  0.4007
 8513SOL    HW137001   2.616   3.537  10.254 -0.1926 -0.6668  0.9975
 8513SOL    HW237002   2.528   3.650  10.275  1.2101  3.4352  0.7337
 8514SOL     OW37003   0.603   3.153   5.013 -0.3364 -0.1311 -0.2358
 8514SOL    HW137004   0.602   3.142   5.108 -4.1776 -0.6478 -0.3372
 8514SOL    HW237005   0.603   3.248   4.997  0.8595 -0.5771 -2.9040
 8515SOL     OW37006   1.278   2.436   2.501 -0.3764  0.3486 -0.4637
 8515SOL    HW137007   1.228   2.495   2.443 -0.4845  0.6025 -0.1160
 8515SOL    HW237008   1.207   2.390   2.545 -1.1798 -0.9339 -3.0610
 8516SOL     OW37009   2.644   0.426   5.939 -0.1599 -0.0781 -0.8280
 8516SOL    HW137010   2.681   0.477   6.011  1.5125 -1.4607 -0.7219
 8516SOL    HW237011   2.691   0.462   5.864 -0.5748  0.8768 -0.6361
 8517SOL     OW37012   2.648   4.496   9.976 -0.2046  0.1066  0.4891
 8517SOL    HW137013   2.570   4.530   9.931 -1.0235 -0.2737  1.6204
 8517SOL    HW237014   2.601   4.446  10.042  2.0960 -0.0780  1.9588
 8518SOL     OW37015   0.002   1.172   9.094  0.3327 -0.4076 -0.3916
 8518SOL    HW137016   4.686   1.257   9.080 -0.1554 -0.3814  1.2388
 8518SOL    HW237017   0.085   1.197   9.135 -0.5481 -0.9583  1.7682
 8519SOL     OW37018   0.588   2.330   6.907 -0.3145 -0.1389 -0.7676
 8519SOL    HW137019   0.633   2.372   6.980  1.7759 -0.2340 -2.0118
 8519SOL    HW237020   0.494   2.349   6.912  0.0397  1.3329  0.5746
 8520SOL     OW37021   2.390   1.193  17.201 -0.2114  0.2156 -0.0967
 8520SOL    HW137022   2.342   1.232  17.128  0.4614  3.7928  1.3279
 8520SOL    HW237023   2.477   1.212  17.166 -0.6990  0.7527 -1.0238
 8521SOL     OW37024   2.738   1.251   3.732 -0.1519 -0.3011 -0.1430
 8521SOL    HW137025   2.766   1.191   3.801  0.0913 -2.2726 -1.9397
 8521SOL    HW237026   2.679   1.309   3.780  1.3673 -0.8248  2.3425
 8522SOL     OW37027   3.169   1.905  11.241  0.1831 -0.3944  1.0604
 8522SOL    HW137028   3.124   1.878  11.161  1.9038 -1.6449  0.5341
 8522SOL    HW237029   3.255   1.868  11.222  1.1718  1.0609  2.6574
 8523SOL     OW37030   0.556   4.151   9.036  0.5573 -0.6225 -0.1179
 8523SOL    HW137031   0.623   4.144   8.968  2.0130  0.7925  1.1663
 8523SOL    HW237032   0.480   4.112   8.995 -0.7653  0.1798  1.5564
 8524SOL     OW37033   0.317   3.513   1.886  0.2440 -0.3142  0.1170
 8524SOL    HW137034   0.274   3.598   1.901  0.4619  0.0466 -1.3260
 8524SOL    HW237035   0.352   3.491   1.972 -0.4189  1.9046  0.9583
 8525SOL     OW37036   2.632   1.032   5.247  0.7422  0.7541  0.5436
 8525SOL    HW137037   2.567   0.989   5.303  0.3608 -0.9774 -1.2440
 8525SOL    HW237038   2.678   0.954   5.218 -1.2184 -0.0039 -0.5508
 8526SOL     OW37039   2.538   0.868   2.437  0.3693  0.1057  0.1299
 8526SOL    HW137040   2.548   0.826   2.351 -0.6260 -0.6508  0.3804
 8526SOL    HW237041   2.446   0.848   2.455  0.1757  0.3454 -0.5962
 8527SOL     OW37042   2.707   2.341   5.951 -0.0667 -0.0167  0.1142
 8527SOL    HW137043   2.684   2.249   5.968  1.0011 -0.0954  1.1212
 8527SOL    HW237044   2.706   2.375   6.040  1.9883 -0.4298  0.2803
 8528SOL     OW37045   1.435   2.036   4.112  0.5087 -0.5023  0.3475
 8528SOL    HW137046   1.406   2.057   4.201 -2.7997 -0.6191 -0.7187
 8528SOL    HW237047   1.366   2.079   4.062 -0.4850 -1.0816  1.2116
 8529SOL     OW37048   1.682   0.845   2.443  0.2926  0.2863  0.6696
 8529SOL    HW137049   1.716   0.873   2.358 -0.0196 -0.2980  0.3514
 8529SOL    HW237050   1.694   0.750   2.433 -0.7950  0.2248  0.0510
 8530SOL     OW37051   2.536   4.657   2.115 -0.2644 -0.4701  0.3939
 8530SOL    HW137052   2.586   4.669   2.035 -0.8591  0.6139  0.1846
 8530SOL    HW237053   2.553   4.563   2.124  1.1209 -0.4208 -2.0545
 8531SOL     OW37054   1.905   0.829  14.489 -0.1440  0.1929  0.4197
 8531SOL    HW137055   1.918   0.916  14.451 -2.1254  0.3588  0.1490
 8531SOL    HW237056   1.939   0.779  14.415 -2.6991 -1.8444  0.6378
 8532SOL     OW37057   1.052   1.373   2.882  0.7217  0.0172 -0.1663
 8532SOL    HW137058   0.998   1.408   2.811  0.3716 -1.6964 -0.7416
 8532SOL    HW237059   1.076   1.287   2.847 -0.8507 -1.1379  1.6254
 8533SOL     OW37060   0.166   3.163   8.129 -0.1092 -0.4025  0.4833
 8533SOL    HW137061   0.153   3.243   8.180 -1.3179 -0.5561  0.4132
 8533SOL    HW237062   0.212   3.213   8.061 -0.0400 -0.1927  0.6818
 8534SOL     OW37063   0.858   3.141   4.506 -0.0410  0.2463 -0.2000
 8534SOL    HW137064   0.908   3.088   4.568 -1.7082  0.0863  1.0249
 8534SOL    HW237065   0.859   3.077   4.435  0.0034  1.6496 -1.4595
 8535SOL     OW37066   2.641   3.624   8.577 -0.6271 -0.0002  0.1182
 8535SOL    HW137067   2.725   3.580   8.563 -0.9937 -0.5523 -0.3329
 8535SOL    HW237068   2.670   3.693   8.636 -0.0580  0.5736 -0.8171
 8536SOL     OW37069   4.691   1.360  14.350  0.1910 -0.0156 -0.1732
 8536SOL    HW137070   0.004   1.426  14.294 -0.6262  1.1710  0.6700
 8536SOL    HW237071   0.004   1.277  14.323 -0.6746 -0.7891  0.8855
 8537SOL     OW37072   4.688   4.134   3.738 -0.0833  0.4021  0.1410
 8537SOL    HW137073   4.609   4.172   3.697  0.4024  0.2055 -0.9715
 8537SOL    HW237074   4.662   4.043   3.728 -1.2221  0.7077  0.2595
 8538SOL     OW37075   0.803   0.455   3.557  0.0277  0.0008 -0.1158
 8538SOL    HW137076   0.713   0.453   3.524 -0.2835 -2.1317  0.9039
 8538SOL    HW237077   0.853   0.447   3.475  0.9291  1.1247  0.3211
 8539SOL     OW37078   2.999   0.006   7.344 -0.1593 -0.4061 -0.5834
 8539SOL    HW137079   3.030   0.091   7.374  0.5855 -0.7465 -0.3837
 8539SOL    HW237080   2.983   4.695   7.431  1.3899  0.1387 -0.0667
 8540SOL     OW37081   3.829   1.206  13.733  0.0585  0.6059  0.0304
 8540SOL    HW137082   3.806   1.176  13.821 -0.2411  0.7588  0.0050
 8540SOL    HW237083   3.770   1.282  13.729  0.4044  0.9186  0.9222
 8541SOL     OW37084   3.322   2.643   4.585  0.1663  0.2758 -0.3755
 8541SOL    HW137085   3.401   2.665   4.536  0.0950  3.3028  0.9359
 8541SOL    HW237086   3.260   2.694   4.533 -1.0677 -0.0119  0.8236
 8542SOL     OW37087   1.564   3.382  10.656 -0.2290  0.2048  0.2476
 8542SOL    HW137088   1.650   3.349  10.683 -0.6560 -1.5061 -0.4885
 8542SOL    HW237089   1.567   3.470  10.694 -3.4444  0.5494 -0.2837
 8543SOL     OW37090   0.465   4.628   7.264 -0.0789 -0.4733  0.5148
 8543SOL    HW137091   0.459   4.560   7.330 -0.9263  0.3252  1.2429
 8543SOL    HW237092   0.459   4.572   7.186  3.0698 -1.2076  0.7969
 8544SOL     OW37093   2.077   0.353  13.387  0.3131  0.3953 -0.2654
 8544SOL    HW137094   1.988   0.351  13.423  1.2891 -1.4648  2.0686
 8544SOL    HW237095   2.119   0.410  13.452 -0.2611  2.1822 -1.4683
 8545SOL     OW37096   3.801   1.479  11.887 -0.5194 -0.5777 -0.3119
 8545SOL    HW137097   3.885   1.435  11.903 -1.0329 -0.6437  2.1807
 8545SOL    HW237098   3.836   1.557  11.845 -3.2471 -0.0633 -1.5821
 8546SOL     OW37099   2.567   0.356  15.941  0.0858 -0.0210 -0.6889
 8546SOL    HW137100   2.541   0.408  15.865  0.5731  3.1629  1.3474
 8546SOL    HW237101   2.603   0.280  15.895  0.5606 -1.5592  2.2619
 8547SOL     OW37102   0.115   3.954   6.936 -0.1143  0.1606  0.3686
 8547SOL    HW137103   0.061   4.014   6.885 -0.5451 -1.3447 -0.9346
 8547SOL    HW237104   0.160   3.910   6.864  0.0008  0.7171  0.1035
 8548SOL     OW37105   0.276   2.118   4.194  0.5007  0.4041  0.2375
 8548SOL    HW137106   0.271   2.027   4.224 -1.0926  0.3508 -0.2197
 8548SOL    HW237107   0.362   2.138   4.231  1.3201 -1.8267 -0.4400
 8549SOL     OW37108   2.557   3.493   4.926 -0.1453  0.1681  0.3688
 8549SOL    HW137109   2.576   3.532   5.011 -0.9178  1.7666 -0.1920
 8549SOL    HW237110   2.465   3.472   4.943  0.8305 -1.8420  3.2140
 8550SOL     OW37111   0.950   1.202   0.896  0.2179  0.0690  0.0183
 8550SOL    HW137112   1.029   1.193   0.843  2.1322  1.0190  2.7798
 8550SOL    HW237113   0.888   1.214   0.824 -0.2229 -2.7378 -0.0697
 8551SOL     OW37114   1.366   3.049  13.568 -0.5768 -0.7462 -0.2483
 8551SOL    HW137115   1.378   3.033  13.474  0.0026 -0.2043 -0.2611
 8551SOL    HW237116   1.362   2.957  13.595 -2.3776 -0.6257 -0.1091
 8552SOL     OW37117   3.696   2.956   9.155  0.2060  0.3370 -0.2304
 8552SOL    HW137118   3.626   2.941   9.092  0.7026 -2.2996 -0.1723
 8552SOL    HW237119   3.713   2.867   9.186  2.2436 -0.2750 -3.0506
 8553SOL     OW37120   2.129   3.188   6.891 -0.7590 -0.0649 -0.5245
 8553SOL    HW137121   2.157   3.226   6.974  1.2700 -0.2017 -1.1361
 8553SOL    HW237122   2.160   3.099   6.907  1.0565  0.7645  0.5180
 8554SOL     OW37123   1.607   4.059   2.880 -0.0776 -0.0069  0.6587
 8554SOL    HW137124   1.608   3.978   2.930  3.2472 -0.5122 -0.2478
 8554SOL    HW237125   1.561   4.121   2.936 -0.4868 -0.0968  0.4255
 8555SOL     OW37126   0.370   2.832   7.608 -0.6230  0.1512  0.0260
 8555SOL    HW137127   0.280   2.859   7.626 -1.1560 -2.0559  0.7147
 8555SOL    HW237128   0.351   2.754   7.555  1.7987  1.2987 -2.5078
 8556SOL     OW37129   0.043   1.457   4.852 -0.3005  0.1120 -0.1583
 8556SOL    HW137130   4.692   1.420   4.893 -0.4740 -0.1127 -0.6920
 8556SOL    HW237131   0.063   1.382   4.796 -0.0098  0.3581 -0.3835
 8557SOL     OW37132   0.032   3.510   7.593 -0.2840  0.1318  0.1395
 8557SOL    HW137133   0.117   3.466   7.586  0.4670  1.7501 -1.0220
 8557SOL    HW237134   4.696   3.446   7.560 -0.7661  0.8302 -0.2817
 8558SOL     OW37135   1.139   1.349  11.651  0.0450 -0.1027  0.8368
 8558SOL    HW137136   1.152   1.259  11.622  2.8138  1.1991 -2.0464
 8558SOL    HW237137   1.197   1.392  11.588  0.1502 -0.6174  0.5798
 8559SOL     OW37138   4.440   2.443   6.908 -0.3128  0.4161 -0.1568
 8559SOL    HW137139   4.519   2.421   6.959 -0.6770  1.0062  0.6695
 8559SOL    HW237140   4.371   2.410   6.965 -0.5135  0.7804 -0.1868
 8560SOL     OW37141   0.235   0.598   6.729 -0.2827 -0.2870  0.2515
 8560SOL    HW137142   0.206   0.516   6.691 -1.0372  0.5061 -0.8695
 8560SOL    HW237143   0.265   0.569   6.816  0.8074 -0.2433 -0.1082
 8561SOL     OW37144   3.915   3.009   6.793  0.3345  0.8475  1.0556
 8561SOL    HW137145   3.896   2.916   6.781 -1.7988  1.3234  0.8251
 8561SOL    HW237146   3.907   3.036   6.701 -1.9146 -0.6185  0.8086
 8562SOL     OW37147   0.644   0.442  17.502 -0.1558  0.1100 -0.0931
 8562SOL    HW137148   0.613   0.531  17.519  0.3966 -0.2663  2.7876
 8562SOL    HW237149   0.566   0.387  17.510 -0.6477  1.0718  1.7131
 8563SOL     OW37150   3.159   2.025  11.463  0.3978  0.2366  0.2676
 8563SOL    HW137151   3.251   2.019  11.490  0.8473 -0.9179 -1.5147
 8563SOL    HW237152   3.150   1.974  11.383 -1.8606  2.4614 -0.8721
 8564SOL     OW37153   4.007   0.419   4.801 -0.2595 -0.1143 -0.4923
 8564SOL    HW137154   3.921   0.454   4.823 -0.9707 -2.0161 -0.2660
 8564SOL    HW237155   3.994   0.335   4.844 -0.7420  1.0617  1.6801
 8565SOL     OW37156   1.259   4.662   2.133  0.2094 -0.4062  0.0341
 8565SOL    HW137157   1.284   4.673   2.224  0.4898 -1.0627  0.0346
 8565SOL    HW237158   1.292   4.574   2.114  0.6791  0.0842 -1.4365
 8566SOL     OW37159   1.220   2.460   5.785  0.0987 -0.2179 -0.1583
 8566SOL    HW137160   1.219   2.454   5.881  1.0793  1.5900 -0.0425
 8566SOL    HW237161   1.298   2.410   5.760 -0.0516 -0.3655 -0.3282
 8567SOL     OW37162   1.438   3.582   9.688  0.2308  0.4129 -0.3031
 8567SOL    HW137163   1.441   3.617   9.777 -1.3487  0.9289 -0.4541
 8567SOL    HW237164   1.449   3.658   9.631 -1.1074 -0.3380 -1.5429
 8568SOL     OW37165   0.587   4.398   6.036 -0.4473 -0.1199  0.2538
 8568SOL    HW137166   0.658   4.348   6.077 -0.5203  0.7277  1.4109
 8568SOL    HW237167   0.518   4.405   6.103 -0.9521 -0.5771 -0.2216
 8569SOL     OW37168   3.435   1.501  10.080  0.4281 -0.0700  0.0719
 8569SOL    HW137169   3.490   1.427  10.105  0.0985 -0.1927  0.4246
 8569SOL    HW237170   3.371   1.514  10.150  1.5517 -1.4298  1.3561
 8570SOL     OW37171   3.213   0.171  16.941 -0.6204 -0.8156 -0.1303
 8570SOL    HW137172   3.139   0.118  16.969 -1.5057  0.3032 -0.3747
 8570SOL    HW237173   3.254   0.203  17.022 -0.3208 -3.1165  0.6213
 8571SOL     OW37174   0.948   2.031  17.636 -1.0069  0.1372  0.0272
 8571SOL    HW137175   1.012   1.960  17.645 -1.3492  0.1744  2.7643
 8571SOL    HW237176   1.003   2.104  17.606  1.0818 -0.4140  2.4824
 8572SOL     OW37177   1.549   3.843  15.552  0.3802 -0.2066  0.1305
 8572SOL    HW137178   1.576   3.809  15.638  0.0696 -1.9671 -0.4652
 8572SOL    HW237179   1.624   3.807  15.504  0.1083 -0.0883 -0.3756
 8573SOL     OW37180   2.888   1.843   3.217 -1.0733  0.1761  0.2171
 8573SOL    HW137181   2.841   1.762   3.236  0.1206 -0.7804 -0.9655
 8573SOL    HW237182   2.823   1.883   3.159 -0.4588 -0.2507 -0.7504
 8574SOL     OW37183   1.629   4.502  10.678  0.0500 -0.2355  0.5807
 8574SOL    HW137184   1.705   4.450  10.653  0.1849 -0.1417  0.7989
 8574SOL    HW237185   1.666   4.588  10.699  1.6853 -0.6154 -0.7625
 8575SOL     OW37186   2.066   1.889   4.898  0.3672  0.6473  0.1834
 8575SOL    HW137187   1.972   1.873   4.891  0.1688  1.0002  2.1713
 8575SOL    HW237188   2.094   1.878   4.807 -2.3295  0.9254 -0.6920
 8576SOL     OW37189   4.040   3.892   6.573 -0.4366  0.4899  0.0125
 8576SOL    HW137190   3.975   3.830   6.540  1.9638 -0.3702 -3.1788
 8576SOL    HW237191   4.073   3.825   6.633 -0.0888  1.3884  0.8209
 8577SOL     OW37192   2.647   0.632   2.952 -1.0008 -0.1699  0.2340
 8577SOL    HW137193   2.705   0.693   2.906 -1.2934 -0.7358 -0.8815
 8577SOL    HW237194   2.681   0.552   2.912 -0.3270  0.1261  0.2202
 8578SOL     OW37195   0.107   1.141   2.158  0.1508 -0.1342  0.2262
 8578SOL    HW137196   0.080   1.060   2.200  0.6389  0.4117  1.6220
 8578SOL    HW237197   0.068   1.124   2.073  0.9854 -1.6042  0.1398
 8579SOL     OW37198   3.827   4.285   6.394  0.0709 -0.4111 -0.1750
 8579SOL    HW137199   3.793   4.238   6.471 -1.4071 -0.2372 -0.7259
 8579SOL    HW237200   3.837   4.215   6.329  1.0815 -0.9397  0.5389
 8580SOL     OW37201   4.013   3.147   7.988  0.2696 -0.1075 -0.0320
 8580SOL    HW137202   4.019   3.111   8.077 -0.4672  1.1025  0.5133
 8580SOL    HW237203   3.951   3.218   8.008  1.5561  0.5096  1.7622
 8581SOL     OW37204   1.035   1.007   5.950 -0.2228 -0.0957 -0.2213
 8581SOL    HW137205   1.088   0.961   5.886  0.9051 -0.7197  1.1756
 8581SOL    HW237206   1.027   1.087   5.898  1.2819  1.6297  2.1854
 8582SOL     OW37207   3.065   2.720   0.312 -0.1584 -0.3498 -0.4523
 8582SOL    HW137208   3.147   2.707   0.359 -0.1834 -0.5756 -0.4694
 8582SOL    HW237209   3.061   2.816   0.309 -0.9816 -0.3939 -0.8330
 8583SOL     OW37210   3.994   1.806   5.589 -0.3354 -0.2836 -0.0119
 8583SOL    HW137211   3.979   1.850   5.505 -2.4734 -2.1583 -0.6133
 8583SOL    HW237212   4.089   1.808   5.600 -0.5522  1.1862  1.6338
 8584SOL     OW37213   0.198   1.049   3.681 -0.1159 -0.0676 -0.2485
 8584SOL    HW137214   0.165   1.024   3.595  1.5647 -2.8760 -0.0744
 8584SOL    HW237215   0.117   1.074   3.726 -0.1379  0.0972 -0.3772
 8585SOL     OW37216   1.176   0.374  15.699 -0.0798  0.4019  0.2205
 8585SOL    HW137217   1.108   0.399  15.762  0.5139  0.6668  0.7636
 8585SOL    HW237218   1.220   0.316  15.762  0.7809 -1.1842 -1.8530
 8586SOL     OW37219   3.433   1.996   7.394  0.5264  0.1477  0.1562
 8586SOL    HW137220   3.402   1.937   7.463  1.3198 -3.2073 -2.3486
 8586SOL    HW237221   3.395   2.075   7.431  0.2648  0.2049 -0.2392
 8587SOL     OW37222   1.318   4.307   1.059  0.0957  0.6717  0.0873
 8587SOL    HW137223   1.344   4.240   1.122  1.5173  2.7044  1.6362
 8587SOL    HW237224   1.382   4.372   1.086 -0.7484  0.8211  1.7521
 8588SOL     OW37225   0.441   1.052   0.875  0.0919 -0.0042  0.0301
 8588SOL    HW137226   0.359   1.008   0.852 -0.1436  0.4035  0.0829
 8588SOL    HW237227   0.508   1.011   0.820  0.6409  0.4284  0.3780
 8589SOL     OW37228   3.057   2.950   6.787 -0.2298  0.2686  0.8060
 8589SOL    HW137229   3.120   2.984   6.851 -0.2715 -1.1407  1.5932
 8589SOL    HW237230   3.107   2.885   6.739 -0.8234  0.4873 -0.1013
 8590SOL     OW37231   0.427   3.365   2.380  0.6966 -0.2190  0.0449
 8590SOL    HW137232   0.493   3.315   2.428  0.4179 -0.0897  0.5645
 8590SOL    HW237233   0.348   3.321   2.411 -0.1843  0.6011 -1.0093
 8591SOL     OW37234   4.387   1.023   3.391 -0.4260  0.2977 -0.6681
 8591SOL    HW137235   4.362   1.066   3.309 -0.7515 -2.2699 -1.9282
 8591SOL    HW237236   4.361   0.937   3.358  0.2839 -0.0631 -0.2754
 8592SOL     OW37237   3.961   4.153   8.823  0.1545 -0.5930 -0.0905
 8592SOL    HW137238   3.932   4.240   8.794 -0.2677 -1.4285 -2.1297
 8592SOL    HW237239   4.016   4.131   8.747 -0.6512 -0.3678 -0.7374
 8593SOL     OW37240   0.230   4.478   3.776  0.4500 -0.1657  0.1683
 8593SOL    HW137241   0.228   4.425   3.856 -1.2866  0.1186  0.3095
 8593SOL    HW237242   0.144   4.456   3.741  2.3483 -2.2831 -3.1809
 8594SOL     OW37243   0.398   3.892  10.666 -0.1286 -0.0402 -0.0331
 8594SOL    HW137244   0.371   3.932  10.583 -1.0792 -0.5998  0.0091
 8594SOL    HW237245   0.481   3.855  10.635  0.2444 -1.1209  2.2447
 8595SOL     OW37246   1.319   2.616   4.238 -0.3620  0.6079  0.0788
 8595SOL    HW137247   1.230   2.585   4.219 -0.1364  1.0655 -1.6836
 8595SOL    HW237248   1.363   2.537   4.270  1.5821  1.6999  0.0990
 8596SOL     OW37249   2.221   2.134   5.452 -0.0003 -0.2080 -0.5202
 8596SOL    HW137250   2.316   2.141   5.461 -0.1589  1.3481  0.0516
 8596SOL    HW237251   2.195   2.102   5.539  0.6329  0.6009 -0.0267
 8597SOL     OW37252   0.502   3.804  10.259  0.2215 -0.1352 -0.1715
 8597SOL    HW137253   0.429   3.855  10.293  0.4054  0.3757 -0.5454
 8597SOL    HW237254   0.508   3.746  10.335  0.6261  0.0463 -0.0616
 8598SOL     OW37255   0.420   4.651  12.938  0.3715  0.3014  0.2981
 8598SOL    HW137256   0.459   4.714  12.878  1.2247 -0.5708 -0.0708
 8598SOL    HW237257   0.445   4.684  13.025 -1.1356  1.0860  0.4329
 8599SOL     OW37258   3.684   2.392   5.298  0.1444 -0.1508  0.1114
 8599SOL    HW137259   3.778   2.381   5.287  0.0325  1.1664 -2.1178
 8599SOL    HW237260   3.648   2.313   5.257 -0.7197  0.3369 -0.0554
 8600SOL     OW37261   0.046   1.990   3.222  0.1742  0.6246  0.0630
 8600SOL    HW137262   4.716   2.013   3.148  1.5315 -0.4021 -1.2990
 8600SOL    HW237263   4.717   2.021   3.292 -1.2371 -0.8150 -0.4275
 8601SOL     OW37264   4.200   4.109   8.425 -0.3317 -0.5350  0.0049
 8601SOL    HW137265   4.106   4.109   8.405 -0.6678  0.8383  1.5896
 8601SOL    HW237266   4.184   4.081   8.515  3.3703 -0.9174  0.5275
 8602SOL     OW37267   1.548   4.111   9.167 -0.0452 -0.4901 -0.7179
 8602SOL    HW137268   1.463   4.155   9.165  1.5897  2.6728  0.7022
 8602SOL    HW237269   1.531   4.022   9.135 -1.9868 -0.7549  1.0026
 8603SOL     OW37270   0.043   4.710   1.986 -0.5269  0.1300  0.2305
 8603SOL    HW137271   4.680   4.683   1.971 -0.5057  1.2570 -2.0117
 8603SOL    HW237272   0.063   4.649   2.057 -0.5839  1.7526  1.6574
 8604SOL     OW37273   3.782   0.648   6.420 -0.8445 -0.3322 -0.1794
 8604SOL    HW137274   3.687   0.640   6.410 -0.8890 -0.0820  0.0651
 8604SOL    HW237275   3.792   0.652   6.515  0.6125 -1.3442 -0.2903
 8605SOL     OW37276   1.784   2.365   5.982  0.0993  0.2689 -0.0342
 8605SOL    HW137277   1.801   2.372   6.075 -0.6736 -0.6264  0.1803
 8605SOL    HW237278   1.849   2.299   5.958 -0.7182 -0.2774 -0.7635
 8606SOL     OW37279   0.710   2.872   0.573 -0.3276  0.1701  0.1570
 8606SOL    HW137280   0.668   2.837   0.494 -1.2497 -0.9333  1.1301
 8606SOL    HW237281   0.755   2.946   0.533 -4.2563  1.5396 -1.8097
 8607SOL     OW37282   0.824   2.983  14.991 -0.2977 -0.0811 -0.5293
 8607SOL    HW137283   0.792   2.893  15.004  1.3032 -0.6767 -0.5911
 8607SOL    HW237284   0.746   3.034  14.973 -0.0087  0.7847  0.7064
 8608SOL     OW37285   2.594   0.813  10.335 -0.2341  0.2274 -0.0771
 8608SOL    HW137286   2.584   0.855  10.421  0.2838  1.1544 -0.4752
 8608SOL    HW237287   2.689   0.815  10.337 -0.1872  0.3598 -2.4165
 8609SOL     OW37288   2.454   4.082   7.270 -0.2922 -0.1016 -0.0136
 8609SOL    HW137289   2.374   4.063   7.221 -1.4898  2.3694  0.9808
 8609SOL    HW237290   2.514   4.013   7.244  0.3789 -0.0169  1.3041
 8610SOL     OW37291   0.193   2.959   3.107  0.0772  0.1872  0.2949
 8610SOL    HW137292   0.129   2.963   3.035  1.0545 -0.1746 -0.5869
 8610SOL    HW237293   0.185   2.870   3.142  1.0350 -1.4168 -3.5443
 8611SOL     OW37294   4.345   2.443   9.704  0.4154  0.0101 -0.1638
 8611SOL    HW137295   4.335   2.534   9.676  1.2278 -0.3349 -1.5818
 8611SOL    HW237296   4.274   2.429   9.767  0.9859 -3.1324 -0.1854
 8612SOL     OW37297   3.276   2.422   4.057 -0.2996  0.1987  0.0426
 8612SOL    HW137298   3.208   2.465   4.109  0.4355  0.7535  0.5477
 8612SOL    HW237299   3.290   2.487   3.989 -1.4370  0.3580 -0.0422
 8613SOL     OW37300   2.580   3.718   3.437  0.1623 -0.1462 -0.1043
 8613SOL    HW137301   2.540   3.767   3.509  0.3395  2.7092 -1.9614
 8613SOL    HW237302   2.600   3.789   3.377 -0.9866 -1.4423 -1.9959
 8614SOL     OW37303   2.478   2.879   8.843 -0.3287 -0.4400 -0.5140
 8614SOL    HW137304   2.552   2.933   8.817  0.2378 -1.1670 -0.4264
 8614SOL    HW237305   2.487   2.870   8.937 -2.1280 -0.0839 -0.3005
 8615SOL     OW37306   2.091   2.715   9.001  0.0070  0.2832  0.4938
 8615SOL    HW137307   2.121   2.689   8.914 -0.7099  0.2189  0.2649
 8615SOL    HW237308   2.152   2.661   9.051  2.7963  0.8927 -2.2906
 8616SOL     OW37309   3.875   0.001   4.036 -0.1494 -0.2163 -0.1926
 8616SOL    HW137310   3.861   0.020   4.129  0.9652  1.5056 -0.3804
 8616SOL    HW237311   3.817   4.652   4.024  0.4583 -1.2413  3.2410
 8617SOL     OW37312   3.153   4.246   3.694 -0.0152  0.1300  0.0941
 8617SOL    HW137313   3.203   4.276   3.618 -0.1515  0.5850  0.1864
 8617SOL    HW237314   3.087   4.192   3.650  0.9818 -0.7692 -0.3050
 8618SOL     OW37315   2.036   1.861  14.842 -0.6503 -1.1113  0.5724
 8618SOL    HW137316   1.995   1.898  14.920 -0.5240 -0.1208  0.1712
 8618SOL    HW237317   1.978   1.897  14.775 -1.2764 -3.2020 -0.0104
 8619SOL     OW37318   0.594   3.461   8.952 -0.1720  0.0986  0.4712
 8619SOL    HW137319   0.580   3.455   8.858 -0.1247  0.4369  0.4405
 8619SOL    HW237320   0.665   3.526   8.957 -0.3366  0.0990  2.8636
 8620SOL     OW37321   1.733   3.515  10.033 -0.6157 -0.6441  0.2660
 8620SOL    HW137322   1.768   3.539  10.119 -0.9700 -2.7651  0.9922
 8620SOL    HW237323   1.653   3.566  10.038  0.1487  0.4668  1.2059
 8621SOL     OW37324   1.636   4.071   4.432 -0.0597 -0.1005 -0.3559
 8621SOL    HW137325   1.634   4.054   4.526  2.2073 -0.0349 -0.3035
 8621SOL    HW237326   1.545   4.056   4.405 -0.5085  0.1679  1.0131
 8622SOL     OW37327   4.519   1.533   2.595  0.3886  0.0891 -0.0858
 8622SOL    HW137328   4.437   1.532   2.545  0.1641 -1.8484  0.3059
 8622SOL    HW237329   4.573   1.572   2.527 -0.9169  0.2255 -1.0398
 8623SOL     OW37330   0.251   1.947   3.603 -0.4332 -0.4143  0.4973
 8623SOL    HW137331   0.165   1.988   3.595 -0.1265  0.4042  1.4482
 8623SOL    HW237332   0.223   1.856   3.613 -0.1109 -0.5756 -0.0783
 8624SOL     OW37333   4.482   4.258  11.400  0.2890 -0.1852 -0.4422
 8624SOL    HW137334   4.493   4.164  11.387  0.2587 -0.1200 -0.9532
 8624SOL    HW237335   4.507   4.279  11.490 -2.1923  0.6787  0.0262
 8625SOL     OW37336   0.259   0.561   6.990  0.4399 -0.1463 -0.1286
 8625SOL    HW137337   0.196   0.510   7.041 -0.0237 -0.7593 -1.3060
 8625SOL    HW237338   0.324   0.497   7.017  1.4050  1.0056  0.2585
 8626SOL     OW37339   1.170   0.581   6.838 -0.7302  0.2753 -0.5313
 8626SOL    HW137340   1.154   0.627   6.920  0.6193 -0.3771  0.0925
 8626SOL    HW237341   1.254   0.621   6.816 -1.5949  2.5402  0.2969
 8627SOL     OW37342   3.012   0.731   8.448  0.1453 -0.0871 -0.3205
 8627SOL    HW137343   2.981   0.652   8.403 -1.6532  1.9477 -2.7101
 8627SOL    HW237344   2.996   0.799   8.383  2.0420  1.0557  0.4180
 8628SOL     OW37345   3.734   4.344   6.796 -0.5480 -0.4606  0.2175
 8628SOL    HW137346   3.688   4.272   6.753 -1.3998  1.4126 -1.9947
 8628SOL    HW237347   3.826   4.329   6.773 -0.9215 -2.2704 -0.1417
 8629SOL     OW37348   4.682   2.343  16.961  0.3369 -0.4646 -0.0011
 8629SOL    HW137349   4.625   2.322  17.035 -0.6504  1.2650 -0.2850
 8629SOL    HW237350   4.720   2.257  16.940  0.7585 -0.4723  0.7723
 8630SOL     OW37351   2.683   0.788   3.778  0.5204  0.4097 -0.1364
 8630SOL    HW137352   2.619   0.856   3.800 -2.0285 -1.0328 -3.2550
 8630SOL    HW237353   2.760   0.845   3.766  0.9688 -0.0078  0.7794
 8631SOL     OW37354   1.692   4.593   5.091  0.7293  0.5263  0.1161
 8631SOL    HW137355   1.616   4.568   5.039  1.2412 -2.3201  0.7072
 8631SOL    HW237356   1.674   4.686   5.102 -3.7548 -0.1231 -2.1678
 8632SOL     OW37357   4.541   3.232   7.816  0.0025 -0.5044  0.1654
 8632SOL    HW137358   4.520   3.312   7.864 -1.6470 -2.0968  2.0925
 8632SOL    HW237359   4.553   3.265   7.727  0.9959 -0.1610  0.4295
 8633SOL     OW37360   0.669   2.814   9.177  0.0279  0.2466 -0.1001
 8633SOL    HW137361   0.741   2.865   9.213 -0.2958 -1.1760  2.5322
 8633SOL    HW237362   0.611   2.877   9.134  0.4649 -1.2641 -2.9298
 8634SOL     OW37363   1.514   2.207   8.196  0.4555 -0.0486  0.0575
 8634SOL    HW137364   1.525   2.273   8.127  1.2550 -1.1384 -0.8656
 8634SOL    HW237365   1.602   2.173   8.211  0.4456  0.3230  0.9674
 8635SOL     OW37366   1.792   4.337   4.627  0.1446 -0.0737  0.2137
 8635SOL    HW137367   1.885   4.323   4.608 -0.2576 -0.6910 -1.2606
 8635SOL    HW237368   1.747   4.271   4.575 -0.4473 -0.8120  1.6421
 8636SOL     OW37369   0.917   3.926  14.073 -0.1980 -0.0997  0.3001
 8636SOL    HW137370   1.006   3.897  14.092  0.1009  1.0879  0.7319
 8636SOL    HW237371   0.923   4.002  14.131 -0.0759  1.4255 -1.7215
 8637SOL     OW37372   1.933   1.567   5.720 -0.2928  0.4621 -0.2370
 8637SOL    HW137373   1.930   1.471   5.712 -1.9254  0.8763 -4.5987
 8637SOL    HW237374   2.000   1.583   5.654 -1.7208 -0.6828 -1.9605
 8638SOL     OW37375   2.648   2.389   6.241  0.1425  0.0942 -0.0224
 8638SOL    HW137376   2.689   2.398   6.328  0.4989  1.1839 -0.3009
 8638SOL    HW237377   2.579   2.455   6.250 -0.2031 -0.6775  3.1601
 8639SOL     OW37378   4.548   2.796   1.557  0.0893  0.2891 -0.7019
 8639SOL    HW137379   4.631   2.808   1.512  0.7381 -0.4773  0.2845
 8639SOL    HW237380   4.560   2.830   1.646 -3.0781 -0.0666 -0.1298
 8640SOL     OW37381   2.556   0.944   6.526  0.8924 -0.1870  0.2740
 8640SOL    HW137382   2.488   0.880   6.547  0.4856  0.6553  1.4975
 8640SOL    HW237383   2.629   0.885   6.505  0.0895 -1.2315  0.4134
 8641SOL     OW37384   4.698   4.639   5.564  0.3644  0.2397  0.2695
 8641SOL    HW137385   4.663   4.705   5.623 -1.7397 -0.5126 -0.1315
 8641SOL    HW237386   0.029   4.695   5.513 -1.4094  0.5009 -1.4657
 8642SOL     OW37387   0.057   2.046   5.169  0.1393 -0.3462  0.3259
 8642SOL    HW137388   0.074   2.089   5.085  1.7976 -0.2308  0.7110
 8642SOL    HW237389   0.024   1.961   5.140  0.8153 -0.6326  0.3930
 8643SOL     OW37390   3.402   1.171  13.803  0.4860 -0.1882 -0.0033
 8643SOL    HW137391   3.457   1.097  13.780  1.3615  0.5311 -0.2566
 8643SOL    HW237392   3.376   1.151  13.892 -0.8683  1.5898  0.0145
 8644SOL     OW37393   1.291   1.599   8.632 -0.0609 -0.6052  0.2055
 8644SOL    HW137394   1.280   1.606   8.537 -3.1514  0.3984  0.6609
 8644SOL    HW237395   1.315   1.506   8.637  1.3814 -0.2840 -0.5120
 8645SOL     OW37396   4.048   3.366   2.544  0.5606  0.0609  0.5077
 8645SOL    HW137397   4.137   3.334   2.559  0.1579 -1.2307  0.1101
 8645SOL    HW237398   4.054   3.371   2.448  2.3718 -5.2564  0.3176
 8646SOL     OW37399   0.553   0.923   2.399  0.0902 -0.0618  0.2126
 8646SOL    HW137400   0.577   1.007   2.440 -2.3567  1.0505 -0.6281
 8646SOL    HW237401   0.527   0.959   2.315  0.1961 -1.1580 -0.2840
 8647SOL     OW37402   3.151   3.027   2.382 -0.0015 -0.3398  0.1644
 8647SOL    HW137403   3.148   2.948   2.436 -0.4760  1.2917  2.5520
 8647SOL    HW237404   3.098   2.991   2.311 -0.0173  1.3248 -0.6663
 8648SOL     OW37405   2.373   4.296   9.578 -0.1572 -0.6250 -0.3602
 8648SOL    HW137406   2.437   4.253   9.521  1.0652  0.4278  0.2184
 8648SOL    HW237407   2.395   4.388   9.562 -3.1800  0.1501 -0.0475
 8649SOL     OW37408   2.059   2.735  17.132  0.2459 -0.0905  0.2803
 8649SOL    HW137409   2.102   2.762  17.051  1.6185 -0.4213  0.8957
 8649SOL    HW237410   2.120   2.772  17.196 -0.2659  0.4813  0.4410
 8650SOL     OW37411   0.747   0.695   3.211  0.0057  0.4497 -0.0220
 8650SOL    HW137412   0.702   0.773   3.179 -0.1244  0.2619 -0.2960
 8650SOL    HW237413   0.780   0.728   3.294 -0.8429 -0.8595  0.8300
 8651SOL     OW37414   3.294   0.273   6.869  0.7766  0.2908  0.2982
 8651SOL    HW137415   3.337   0.280   6.954 -0.4160  0.9408  0.8511
 8651SOL    HW237416   3.260   0.361   6.852  2.2326  0.4479 -1.7395
 8652SOL     OW37417   1.466   2.002   9.575 -0.1752 -0.0406  0.2327
 8652SOL    HW137418   1.456   2.095   9.558 -1.1676 -0.0621  0.7317
 8652SOL    HW237419   1.562   2.001   9.569 -0.3246  1.6855 -2.4088
 8653SOL     OW37420   2.815   3.578  12.360 -0.3300  0.1206  0.1118
 8653SOL    HW137421   2.861   3.515  12.415  0.4673  0.2583 -0.3931
 8653SOL    HW237422   2.725   3.564  12.388  0.0586  0.9538  1.7816
 8654SOL     OW37423   1.470   4.388   4.604  0.3963  0.2601 -0.0351
 8654SOL    HW137424   1.382   4.407   4.636  0.1095 -1.0477 -0.0556
 8654SOL    HW237425   1.450   4.341   4.523  0.1413 -0.2436  0.3233
 8655SOL     OW37426   2.264   1.740   4.465 -0.3382  0.5232  0.4357
 8655SOL    HW137427   2.352   1.775   4.448  0.4144 -2.4109 -1.8071
 8655SOL    HW237428   2.261   1.733   4.560 -1.9313  0.5382  0.3854
 8656SOL     OW37429   3.497   3.492   5.957  0.2559 -0.1373  0.3086
 8656SOL    HW137430   3.487   3.579   5.994 -0.0630 -0.0437 -0.0007
 8656SOL    HW237431   3.425   3.463   6.013  1.9070 -1.1682  1.9132
 8657SOL     OW37432   4.538   2.858   8.919 -0.3007  0.0216 -0.5002
 8657SOL    HW137433   4.529   2.936   8.975 -1.6778 -1.1858  0.9467
 8657SOL    HW237434   4.601   2.888   8.854  0.1340 -2.2820 -1.1203
 8658SOL     OW37435   3.763   3.125   1.874 -0.6957  0.0083  0.8021
 8658SOL    HW137436   3.787   3.044   1.829  0.3926  1.0394 -0.4805
 8658SOL    HW237437   3.693   3.096   1.932 -0.0358 -2.0577  0.5936
 8659SOL     OW37438   0.294   3.221   6.021  0.1945  0.0497 -0.3626
 8659SOL    HW137439   0.359   3.228   6.091 -0.2129 -1.3922  0.1735
 8659SOL    HW237440   0.350   3.187   5.952 -1.5003 -0.1727 -1.6315
 8660SOL     OW37441   2.072   3.639   7.645  0.3301 -0.0364  0.3932
 8660SOL    HW137442   2.068   3.567   7.708 -1.6540 -0.5185 -0.2665
 8660SOL    HW237443   2.070   3.590   7.562 -1.7208 -0.9255  0.9797
 8661SOL     OW37444   2.784   0.165  13.295  0.2070 -0.6726  0.0252
 8661SOL    HW137445   2.764   0.259  13.291  0.2492 -0.7189 -1.3610
 8661SOL    HW237446   2.712   0.136  13.351 -0.2332 -0.2507 -0.3230
 8662SOL     OW37447   2.741   0.459  12.200  0.0424 -0.0704 -0.0017
 8662SOL    HW137448   2.729   0.453  12.295  0.1878  2.3468  0.1719
 8662SOL    HW237449   2.656   0.491  12.171  0.8263  0.7402 -1.4091
 8663SOL     OW37450   1.695   1.464   2.365  0.4118  0.1219 -0.2008
 8663SOL    HW137451   1.761   1.435   2.303  0.1024  2.6438 -1.7081
 8663SOL    HW237452   1.710   1.558   2.364 -2.4631  0.5947 -0.1172
 8664SOL     OW37453   0.250   2.417  13.179 -0.0950  0.2228 -0.1763
 8664SOL    HW137454   0.322   2.435  13.240  0.4599  0.3268 -0.8748
 8664SOL    HW237455   0.297   2.355  13.123 -1.8763 -0.7208 -0.6426
 8665SOL     OW37456   2.402   4.053   6.013 -0.4027 -0.5241  0.3589
 8665SOL    HW137457   2.400   4.140   6.052 -0.0672  0.0425 -0.8711
 8665SOL    HW237458   2.470   4.044   5.946  0.2842  0.0342  0.9787
 8666SOL     OW37459   1.425   1.994  10.920  0.8951 -0.0281 -0.3986
 8666SOL    HW137460   1.410   2.077  10.874 -3.1456 -0.2342  0.5740
 8666SOL    HW237461   1.426   2.023  11.011 -0.0368  0.2969 -0.4891
 8667SOL     OW37462   0.295   3.561   6.167  0.1783  0.3977  0.1592
 8667SOL    HW137463   0.227   3.503   6.133  0.7775  0.0885 -0.4884
 8667SOL    HW237464   0.307   3.630   6.102 -1.9643 -0.2392 -0.9032
 8668SOL     OW37465   4.185   1.270   6.378 -0.1796 -0.0569  0.7732
 8668SOL    HW137466   4.212   1.347   6.428 -2.6433  0.7001  0.9402
 8668SOL    HW237467   4.255   1.214   6.412  0.0341  0.3945  1.0810
 8669SOL     OW37468   2.314   2.102   4.932  0.2056  0.1434 -0.3235
 8669SOL    HW137469   2.241   2.080   4.990 -0.4425  0.0981 -1.1608
 8669SOL    HW237470   2.370   2.026   4.949 -0.1933 -0.1618 -0.3907
 8670SOL     OW37471   4.632   2.041   7.331  0.1479  0.3096 -0.3075
 8670SOL    HW137472   4.554   2.048   7.386  0.5816  2.6665  0.0084
 8670SOL    HW237473   4.652   2.133   7.314 -1.6333  1.0144  1.3986
 8671SOL     OW37474   0.933   4.380   0.615 -0.3920  0.0029  0.0924
 8671SOL    HW137475   0.989   4.381   0.693 -0.3416 -1.1648  0.0841
 8671SOL    HW237476   0.987   4.431   0.556 -0.5246  0.6539  0.5323
 8672SOL     OW37477   2.980   0.916   3.459  0.2106  0.5168 -0.2648
 8672SOL    HW137478   2.967   0.972   3.383 -1.8958 -1.4563 -1.3118
 8672SOL    HW237479   3.042   0.853   3.422 -1.3513 -1.9362  1.3318
 8673SOL     OW37480   2.471   2.331  12.307 -0.2601  0.8443  0.0697
 8673SOL    HW137481   2.416   2.259  12.275  1.8287 -1.5429  1.8383
 8673SOL    HW237482   2.431   2.408  12.266  1.8508  1.0105 -1.6606
 8674SOL     OW37483   0.913   2.955   5.514 -0.0970  0.2213 -0.2234
 8674SOL    HW137484   0.886   3.046   5.526  1.9360  0.8880 -0.6518
 8674SOL    HW237485   0.973   2.967   5.440 -0.0398 -1.3570 -0.4292
 8675SOL     OW37486   0.238   1.261   9.173  0.8511  0.4983 -0.0473
 8675SOL    HW137487   0.310   1.270   9.111  0.5135 -0.1348 -0.5333
 8675SOL    HW237488   0.293   1.255   9.252 -0.3161  1.8960  0.8712
 8676SOL     OW37489   0.767   0.636   6.369  0.2296  0.0043  0.1731
 8676SOL    HW137490   0.746   0.707   6.309  0.6291 -0.9260 -1.0429
 8676SOL    HW237491   0.854   0.660   6.401  0.7319 -1.0465 -0.4184
 8677SOL     OW37492   1.072   2.087   3.034  0.4811 -0.5023  0.1102
 8677SOL    HW137493   0.988   2.064   2.995  0.5728 -1.0052  0.2050
 8677SOL    HW237494   1.077   2.010   3.091 -0.4439  0.2853  1.2605
 8678SOL     OW37495   2.236   2.814  17.334  0.0186 -0.1476 -0.7520
 8678SOL    HW137496   2.313   2.819  17.390  0.2626 -0.0357 -1.0961
 8678SOL    HW237497   2.273   2.844  17.251  2.1044 -2.0057 -0.4781
 8679SOL     OW37498   0.770   3.730   7.537  0.7300 -0.1241 -0.2632
 8679SOL    HW137499   0.789   3.755   7.446 -0.2545 -3.3825 -1.3411
 8679SOL    HW237500   0.804   3.641   7.538  1.1487  0.0237 -1.8210
 8680SOL     OW37501   4.061   1.736   8.409 -0.6945 -0.3414 -0.2366
 8680SOL    HW137502   4.006   1.775   8.341  0.9725 -0.4514 -1.6393
 8680SOL    HW237503   4.000   1.708   8.477 -0.9931  0.4382 -0.1854
 8681SOL     OW37504   2.936   1.512   6.995  0.1265  0.9433  0.4193
 8681SOL    HW137505   2.985   1.431   7.004 -0.6035  0.3540 -0.7995
 8681SOL    HW237506   2.989   1.592   6.992 -0.4817  1.4569  3.1997
 8682SOL     OW37507   1.088   3.970   5.367  0.7500  0.0148 -0.2393
 8682SOL    HW137508   1.182   3.972   5.383  0.8838  3.1889 -1.5456
 8682SOL    HW237509   1.064   4.000   5.455  0.7945 -2.5123  0.6488
 8683SOL     OW37510   3.394   4.285   8.266 -0.1715 -0.4199 -0.1077
 8683SOL    HW137511   3.463   4.241   8.317  0.4903  1.6459  0.7824
 8683SOL    HW237512   3.438   4.353   8.215 -0.0686  1.1731  2.0857
 8684SOL     OW37513   4.081   3.578  12.009 -0.2358  0.0955 -0.1211
 8684SOL    HW137514   4.053   3.627  12.086  1.0487  0.5156  0.0768
 8684SOL    HW237515   4.158   3.627  11.980  0.0486  1.4882  2.9968
 8685SOL     OW37516   2.668   4.432   2.935 -0.1564 -0.8369  0.0015
 8685SOL    HW137517   2.657   4.346   2.976 -1.4224 -1.7508 -2.2531
 8685SOL    HW237518   2.593   4.435   2.875 -0.4608  1.7610  0.5363
 8686SOL     OW37519   0.149   0.329  15.205 -0.0424 -0.0901  0.6258
 8686SOL    HW137520   0.196   0.264  15.258 -1.6944 -1.1373  0.8128
 8686SOL    HW237521   0.069   0.329  15.258 -0.4297 -1.4789  0.0415
 8687SOL     OW37522   3.114   1.440  14.606 -0.1208  0.3127 -0.1467
 8687SOL    HW137523   3.090   1.430  14.514  0.9403 -2.1079 -0.1528
 8687SOL    HW237524   3.067   1.364  14.641  0.6386 -0.3995 -0.6775
 8688SOL     OW37525   0.287   2.994   1.556  0.2022 -0.3138  0.5059
 8688SOL    HW137526   0.243   3.075   1.579 -2.1146 -1.2488 -0.7220
 8688SOL    HW237527   0.259   2.985   1.465  0.1071 -1.2159  0.6259
 8689SOL     OW37528   0.388   0.165   9.195 -0.2666 -0.1617 -0.1952
 8689SOL    HW137529   0.331   0.203   9.261  0.1517  0.0570  0.0413
 8689SOL    HW237530   0.474   0.182   9.234  0.0599 -0.3116 -0.8350
 8690SOL     OW37531   2.263   1.079   8.743  0.1714  0.1197 -0.1924
 8690SOL    HW137532   2.192   1.109   8.686 -0.8375 -2.8959 -0.5210
 8690SOL    HW237533   2.264   1.151   8.806  0.1310 -0.2344  0.2164
 8691SOL     OW37534   3.844   0.756   4.496 -0.0095 -1.3570 -0.4957
 8691SOL    HW137535   3.898   0.799   4.430  1.0136 -0.0570  1.1525
 8691SOL    HW237536   3.757   0.780   4.464  0.5505 -0.7175 -1.5426
 8692SOL     OW37537   2.267   2.694  14.981 -0.4708 -0.0773  0.1717
 8692SOL    HW137538   2.273   2.602  15.007  0.0631  0.1832  0.9465
 8692SOL    HW237539   2.234   2.735  15.061 -0.6214  0.7574 -0.3226
 8693SOL     OW37540   0.633   4.235  17.602  0.3963 -0.4725  0.5768
 8693SOL    HW137541   0.627   4.276  17.515 -0.5507  1.4118  1.5426
 8693SOL    HW237542   0.545   4.256  17.635  0.7336 -1.7370  2.2778
 8694SOL     OW37543   1.539   4.519   7.213 -0.2440  0.2264  0.3348
 8694SOL    HW137544   1.471   4.496   7.276 -0.0050 -0.2596  0.4120
 8694SOL    HW237545   1.613   4.536   7.272  0.0948  0.4632 -0.1603
 8695SOL     OW37546   0.442   4.174  11.258  0.2419  0.3852 -0.5236
 8695SOL    HW137547   0.429   4.264  11.229  2.1975  1.1029  0.8745
 8695SOL    HW237548   0.514   4.175  11.320  0.8199  0.4831 -1.1983
 8696SOL     OW37549   3.782   1.317   3.096 -0.1095  0.4950  0.0915
 8696SOL    HW137550   3.715   1.282   3.038  0.2111 -1.0918  0.6477
 8696SOL    HW237551   3.729   1.337   3.173  1.0048  0.8601  0.7727
 8697SOL     OW37552   0.813   4.257   6.195 -0.2001 -0.3655  0.2874
 8697SOL    HW137553   0.772   4.303   6.268 -2.9652 -0.9104 -0.9221
 8697SOL    HW237554   0.820   4.167   6.224 -3.0286 -0.4730  0.6518
 8698SOL     OW37555   1.913   1.208   4.408 -0.3665  0.1371  0.2831
 8698SOL    HW137556   1.838   1.236   4.460 -0.8341  1.2940 -1.0107
 8698SOL    HW237557   1.871   1.146   4.349  2.0742 -0.8565 -0.4226
 8699SOL     OW37558   4.495   0.509   4.946  0.3799 -0.0101  0.0318
 8699SOL    HW137559   4.502   0.458   5.027  1.2350 -1.8736 -1.2069
 8699SOL    HW237560   4.559   0.461   4.893 -0.7173  1.9623 -3.1124
 8700SOL     OW37561   1.766   2.684   5.610  0.0720 -0.1823  0.4778
 8700SOL    HW137562   1.707   2.671   5.685 -0.9841  0.8642 -0.1785
 8700SOL    HW237563   1.845   2.722   5.650  0.2955 -1.5120  1.3018
 8701SOL     OW37564   2.742   1.588  14.645 -0.3165  0.3356 -0.5777
 8701SOL    HW137565   2.666   1.645  14.645 -0.8695 -0.3915  0.1576
 8701SOL    HW237566   2.759   1.575  14.552  0.9969 -3.1344  0.1406
 8702SOL     OW37567   1.660   2.685   9.665 -0.0306 -0.0359  0.4166
 8702SOL    HW137568   1.669   2.594   9.694  1.2742 -0.4921 -1.4482
 8702SOL    HW237569   1.731   2.694   9.602  0.3704  0.1987  0.9028
 8703SOL     OW37570   4.037   1.705  12.236  0.3220  0.0514 -0.7642
 8703SOL    HW137571   4.051   1.642  12.165 -0.2037 -1.2200  0.2548
 8703SOL    HW237572   3.956   1.670  12.273  0.0894 -0.5746 -1.8539
 8704SOL     OW37573   2.250   2.624   8.169 -0.0291  0.0806 -0.1233
 8704SOL    HW137574   2.305   2.685   8.219  1.5381 -1.7367  0.3485
 8704SOL    HW237575   2.260   2.672   8.086  0.7201 -0.2932 -0.2539
 8705SOL     OW37576   2.898   1.187   3.314 -0.1958 -0.0284 -0.6622
 8705SOL    HW137577   2.956   1.260   3.333 -0.0447 -0.3294  0.0603
 8705SOL    HW237578   2.966   1.148   3.260  0.5466 -0.7438  0.7892
 8706SOL     OW37579   2.229   2.839  15.213  0.0555  0.1226 -0.4879
 8706SOL    HW137580   2.140   2.870  15.197 -0.7980 -2.1062 -0.1363
 8706SOL    HW237581   2.227   2.826  15.308 -0.3068  2.7458 -0.1475
 8707SOL     OW37582   0.985   2.444   2.381 -0.2565 -0.3370 -0.0299
 8707SOL    HW137583   1.046   2.387   2.334 -1.7654  0.6367 -3.1623
 8707SOL    HW237584   0.896   2.412   2.366  0.2874 -1.1374 -1.5843
 8708SOL     OW37585   4.109   2.903   9.698 -0.5379  0.2053 -0.0556
 8708SOL    HW137586   4.110   2.960   9.774 -0.5251  0.1832 -0.0394
 8708SOL    HW237587   4.095   2.971   9.632 -0.6913 -0.5999 -0.8567
 8709SOL     OW37588   1.175   1.414   6.246  0.1054  0.1248 -0.0615
 8709SOL    HW137589   1.173   1.337   6.189 -0.9780 -0.6082  0.9841
 8709SOL    HW237590   1.242   1.458   6.193 -0.4401 -1.3552 -1.9773
 8710SOL     OW37591   4.341   3.273   9.918  0.1529  0.1823 -0.2850
 8710SOL    HW137592   4.324   3.203   9.856 -0.2188 -1.3843  1.5633
 8710SOL    HW237593   4.357   3.353   9.868  0.9796  0.9231  1.1540
 8711SOL     OW37594   1.456   0.149   1.577  0.2996  0.5637  0.3124
 8711SOL    HW137595   1.390   0.161   1.645  0.6333 -3.7405  1.3788
 8711SOL    HW237596   1.420   0.222   1.527 -2.6034 -3.0038 -2.8248
 8712SOL     OW37597   4.185   3.406  13.112  0.4129 -0.5469 -0.5225
 8712SOL    HW137598   4.215   3.489  13.077  0.1118 -0.7414 -1.2305
 8712SOL    HW237599   4.094   3.425  13.133  0.6253 -1.0251  0.8297
 8713SOL     OW37600   2.511   0.895   3.522  0.5653  0.7363 -0.1486
 8713SOL    HW137601   2.572   0.824   3.541  0.3962 -0.3128 -3.5578
 8713SOL    HW237602   2.574   0.966   3.507  1.0916  0.9264  3.0923
 8714SOL     OW37603   2.733   2.757   9.291 -0.2789 -0.2506  0.4164
 8714SOL    HW137604   2.772   2.843   9.277 -0.2947 -0.2035  0.6568
 8714SOL    HW237605   2.786   2.698   9.237  0.0777  0.4296  0.0222
 8715SOL     OW37606   0.100   4.478   8.997 -0.2205 -0.4377 -0.3062
 8715SOL    HW137607   0.151   4.400   8.977  0.1009 -0.6310  1.2769
 8715SOL    HW237608   0.041   4.474   8.921  0.5984 -2.1057 -0.8596
 8716SOL     OW37609   2.203   4.003   0.841 -0.1859 -0.2616 -0.9639
 8716SOL    HW137610   2.142   4.052   0.786  0.0893  2.9859  1.5551
 8716SOL    HW237611   2.148   3.927   0.862 -0.1834  0.0551  0.1864
 8717SOL     OW37612   1.617   0.789   9.476  0.1487  0.0786 -0.0172
 8717SOL    HW137613   1.650   0.789   9.387 -2.9656  1.1127 -1.1958
 8717SOL    HW237614   1.615   0.694   9.485 -2.1397  0.4989  4.3267
 8718SOL     OW37615   3.436   0.901  16.168 -0.1130 -0.4349 -0.0068
 8718SOL    HW137616   3.481   0.936  16.091 -0.6256 -1.7995 -0.9121
 8718SOL    HW237617   3.348   0.928  16.139  0.5429 -3.3674 -4.5807
 8719SOL     OW37618   4.518   3.796   1.950 -0.2575  0.6415  0.2584
 8719SOL    HW137619   4.449   3.842   1.999 -3.4114  0.2404 -3.7856
 8719SOL    HW237620   4.544   3.723   2.005 -0.4007  0.4897  0.1249
 8720SOL     OW37621   1.795   3.488  11.223 -0.0916 -0.4172 -0.0389
 8720SOL    HW137622   1.855   3.542  11.273 -0.7112 -0.0817  0.3470
 8720SOL    HW237623   1.832   3.404  11.249  1.3060 -0.1174 -1.0296
 8721SOL     OW37624   1.109   1.843   5.129 -0.2522  0.0011  0.1354
 8721SOL    HW137625   1.137   1.773   5.070 -0.0472 -0.8760  1.2857
 8721SOL    HW237626   1.019   1.820   5.153 -0.0302  0.7464  1.6869
 8722SOL     OW37627   2.412   3.735   6.474 -0.1309 -0.2368  0.5590
 8722SOL    HW137628   2.426   3.716   6.567  0.4815  1.2379  0.7677
 8722SOL    HW237629   2.332   3.786   6.483  1.1647  2.3610 -2.7671
 8723SOL     OW37630   1.530   0.174   5.203  0.1265 -0.0011  0.7813
 8723SOL    HW137631   1.608   0.230   5.199 -1.0837  1.4361 -2.5815
 8723SOL    HW237632   1.474   0.213   5.136  1.5630  0.7001 -0.0059
 8724SOL     OW37633   3.899   1.832   0.215 -0.0895  0.4366 -0.2927
 8724SOL    HW137634   3.963   1.821   0.285 -0.2855 -1.1896 -0.3710
 8724SOL    HW237635   3.876   1.924   0.220  0.5363  0.5135  0.9608
 8725SOL     OW37636   4.177   3.160   7.779 -0.6174  0.1150  0.1357
 8725SOL    HW137637   4.227   3.225   7.829  1.2432  2.4588 -4.8235
 8725SOL    HW237638   4.110   3.144   7.846  0.2800 -0.1263  0.9675
 8726SOL     OW37639   4.359   1.872   1.913  0.2291 -0.4181 -0.0737
 8726SOL    HW137640   4.422   1.895   1.845  1.6456 -0.4430  1.2422
 8726SOL    HW237641   4.388   1.931   1.982  0.8267 -1.6706  0.7479
 8727SOL     OW37642   4.094   1.082   6.050  0.1096 -0.0436 -0.4532
 8727SOL    HW137643   4.131   1.170   6.057  2.6480 -0.8784 -3.3445
 8727SOL    HW237644   4.097   1.059   5.957  1.1344 -0.3577 -0.3400
 8728SOL     OW37645   3.198   3.762   1.165  0.0435  0.1188  0.2844
 8728SOL    HW137646   3.236   3.798   1.085 -0.2307 -0.5159 -0.1363
 8728SOL    HW237647   3.262   3.788   1.230 -1.0757  1.4615  0.8547
 8729SOL     OW37648   1.374   1.692   2.917  0.2820 -0.5315 -0.2529
 8729SOL    HW137649   1.425   1.704   2.997  2.0119 -1.2066 -1.2544
 8729SOL    HW237650   1.441   1.703   2.850  1.3453  0.9372  1.0559
 8730SOL     OW37651   1.658   3.758   1.431 -0.0191 -0.3760 -0.3914
 8730SOL    HW137652   1.631   3.725   1.345  2.6024  0.8587 -1.7262
 8730SOL    HW237653   1.740   3.806   1.421  1.0113 -2.0667 -0.0416
 8731SOL     OW37654   1.852   0.527   8.596 -0.3135 -0.2046 -0.1978
 8731SOL    HW137655   1.801   0.448   8.578  0.1165 -0.9264  1.7584
 8731SOL    HW237656   1.880   0.529   8.687 -2.1185 -1.9701  0.3872
 8732SOL     OW37657   0.304   3.373  15.977  0.3662  0.4325 -0.4188
 8732SOL    HW137658   0.398   3.387  15.961  0.5312  0.8136  0.8557
 8732SOL    HW237659   0.299   3.406  16.066  0.1547 -1.3310  0.2284
 8733SOL     OW37660   2.655   2.489   6.507 -0.3576  0.1851 -0.0033
 8733SOL    HW137661   2.697   2.529   6.583  2.6153 -2.0453 -0.4613
 8733SOL    HW237662   2.571   2.461   6.544 -0.3072  1.5679  1.1708
 8734SOL     OW37663   1.503   2.692   2.944 -0.6095  0.5037  0.6760
 8734SOL    HW137664   1.509   2.597   2.952 -2.0917  0.5452  2.1154
 8734SOL    HW237665   1.591   2.725   2.963 -1.3585  0.8158  3.4965
 8735SOL     OW37666   3.263   3.569   5.746 -0.3890 -0.1484  0.7494
 8735SOL    HW137667   3.232   3.516   5.673 -1.1187 -0.1997  1.0925
 8735SOL    HW237668   3.357   3.556   5.737 -0.2906  1.9822 -1.1070
 8736SOL     OW37669   2.255   4.185   8.335 -0.7766  0.4675 -0.6689
 8736SOL    HW137670   2.213   4.267   8.362  1.2197  1.8397 -1.7595
 8736SOL    HW237671   2.318   4.168   8.406 -1.7481  1.1492  0.3574
 8737SOL     OW37672   3.305   2.419  14.465 -0.6552 -0.6046  0.0644
 8737SOL    HW137673   3.228   2.365  14.485 -1.2195  0.7800  1.6039
 8737SOL    HW237674   3.268   2.507  14.465  2.2054  0.6062  0.7502
 8738SOL     OW37675   1.617   4.177  10.963  0.1511  0.0663 -0.6148
 8738SOL    HW137676   1.645   4.203  11.051 -0.6769 -0.6324 -0.1425
 8738SOL    HW237677   1.559   4.104  10.984 -0.5648  0.5366 -0.9336
 8739SOL     OW37678   3.675   3.187   3.894 -0.1002  0.2359  0.2048
 8739SOL    HW137679   3.696   3.276   3.865  1.9246 -0.4985 -0.5549
 8739SOL    HW237680   3.637   3.205   3.980 -0.3815  0.7866 -0.0339
 8740SOL     OW37681   2.078   1.937   2.446  0.3419 -0.1559 -0.2337
 8740SOL    HW137682   2.103   1.949   2.538 -0.7194  0.6806 -0.0548
 8740SOL    HW237683   2.144   1.993   2.406  1.0392 -1.0275 -0.3096
 8741SOL     OW37684   4.052   2.258   3.953  0.1626 -0.4110  0.7405
 8741SOL    HW137685   4.085   2.292   3.869  1.2282  0.8619  1.6748
 8741SOL    HW237686   4.021   2.172   3.924  1.5577 -1.0357  1.0554
 8742SOL     OW37687   3.688   2.485   6.014  0.1726 -0.2647  0.0016
 8742SOL    HW137688   3.769   2.454   6.054  0.1168 -1.0879 -0.5257
 8742SOL    HW237689   3.625   2.461   6.083 -1.1706 -1.0802 -1.4960
 8743SOL     OW37690   0.057   2.011   6.636  0.0205  0.1218 -0.7455
 8743SOL    HW137691   0.062   1.919   6.610 -0.1050  0.4001 -1.7275
 8743SOL    HW237692   0.144   2.025   6.673 -0.6736 -0.8371  1.2529
 8744SOL     OW37693   0.996   1.065   6.237  0.3008  0.4532 -0.0425
 8744SOL    HW137694   1.010   0.979   6.277  1.3008  0.3828 -0.5406
 8744SOL    HW237695   0.987   1.028   6.149  0.6262  0.9366 -0.2821
 8745SOL     OW37696   0.241   0.047  13.943  0.5282  0.4919  0.8691
 8745SOL    HW137697   0.202   4.688  13.929  2.2845 -0.3662  1.2582
 8745SOL    HW237698   0.176   0.089  14.000  0.5530 -0.0798  1.3105
 8746SOL     OW37699   4.217   2.203   4.189 -0.7237 -0.5983  0.1063
 8746SOL    HW137700   4.223   2.272   4.255 -2.4269  0.5870 -0.9789
 8746SOL    HW237701   4.167   2.248   4.121 -0.7140  0.4346  0.7826
 8747SOL     OW37702   1.790   1.235   8.373  0.8711 -0.0518  0.0973
 8747SOL    HW137703   1.772   1.241   8.467 -1.3809  0.0268 -0.3198
 8747SOL    HW237704   1.875   1.279   8.376  0.1176  1.4474 -0.3211
 8748SOL     OW37705   2.420   3.322  16.434  0.6198 -0.4026  0.8697
 8748SOL    HW137706   2.391   3.238  16.470 -0.5009 -0.4260 -0.0969
 8748SOL    HW237707   2.363   3.376  16.489 -2.5180 -1.8201 -1.0151
 8749SOL     OW37708   1.017   0.588   4.569 -0.1925  0.3510 -0.0138
 8749SOL    HW137709   0.949   0.571   4.503  0.9697  0.8755 -1.3384
 8749SOL    HW237710   1.057   0.665   4.527  1.2872 -0.6959 -0.4856
 8750SOL     OW37711   2.458   3.829   3.851  1.0436 -0.1811  0.5401
 8750SOL    HW137712   2.445   3.882   3.772 -0.9631 -0.4021  0.7148
 8750SOL    HW237713   2.396   3.875   3.909  0.7581  2.4940 -1.8611
 8751SOL     OW37714   2.933   0.264   1.548 -0.7368  0.3822 -0.0155
 8751SOL    HW137715   3.027   0.246   1.548 -0.4610  1.7726 -2.0717
 8751SOL    HW237716   2.928   0.316   1.629 -1.8930  2.0045 -1.1458
 8752SOL     OW37717   3.791   3.732   8.341  0.2834 -0.1065  0.4680
 8752SOL    HW137718   3.780   3.824   8.316  0.1419 -0.7653 -1.8399
 8752SOL    HW237719   3.854   3.744   8.412 -0.1384  1.4605  0.5791
 8753SOL     OW37720   0.303   1.309  13.971 -0.1987  0.0265 -0.0068
 8753SOL    HW137721   0.303   1.347  13.883 -0.3435 -0.9479 -0.4227
 8753SOL    HW237722   0.212   1.308  14.002 -0.0067 -2.3576  0.4562
 8754SOL     OW37723   2.546   3.428   2.234 -0.2934  0.4638 -0.3492
 8754SOL    HW137724   2.588   3.420   2.320 -2.1197  0.7962  0.5741
 8754SOL    HW237725   2.500   3.509   2.256 -1.5047 -0.3055 -0.0489
 8755SOL     OW37726   4.284   0.174  10.036  0.0218 -0.0395  0.2812
 8755SOL    HW137727   4.233   0.167  10.117  1.7570 -0.3910  1.3489
 8755SOL    HW237728   4.293   0.268  10.019  0.4023  0.0057  0.7199
 8756SOL     OW37729   3.363   4.045   4.367 -0.3549  0.0845 -0.7080
 8756SOL    HW137730   3.326   4.024   4.281  0.6061 -1.5827 -0.7180
 8756SOL    HW237731   3.307   4.116   4.398  1.1505  0.8342  0.2390
 8757SOL     OW37732   1.730   2.984  15.397 -0.0501 -0.0740 -0.2278
 8757SOL    HW137733   1.763   2.942  15.318  0.4066 -0.4217  0.1474
 8757SOL    HW237734   1.636   2.992  15.381 -0.1769  0.6532  0.8926
 8758SOL     OW37735   4.368   1.124  12.411  0.4056  0.0601 -0.4354
 8758SOL    HW137736   4.382   1.207  12.456  1.2975  0.0212 -0.6300
 8758SOL    HW237737   4.345   1.058  12.477 -0.0580  1.7832  1.1005
 8759SOL     OW37738   2.949   1.046  15.151  0.2568  0.4163  0.0167
 8759SOL    HW137739   3.039   1.012  15.152  0.9576  2.2237  0.0650
 8759SOL    HW237740   2.944   1.115  15.085 -0.9772  0.3253  0.0270
 8760SOL     OW37741   0.174   2.837   8.917  0.0325 -0.8399 -0.0509
 8760SOL    HW137742   0.200   2.837   9.009 -0.6881  0.2893  0.1655
 8760SOL    HW237743   0.086   2.800   8.925  0.2960 -1.2770  0.7558
 8761SOL     OW37744   1.602   2.729  14.547 -0.4817  0.3489  0.1522
 8761SOL    HW137745   1.557   2.658  14.501  0.9231 -1.3384  1.4054
 8761SOL    HW237746   1.589   2.801  14.485 -0.0279  0.1431 -0.1838
 8762SOL     OW37747   4.215   2.328   3.744  0.4069 -0.0615 -0.4450
 8762SOL    HW137748   4.258   2.276   3.677  2.0541 -1.3307  1.6152
 8762SOL    HW237749   4.291   2.354   3.795  0.1166 -1.9823  0.9297
 8763SOL     OW37750   3.579   4.009   0.339  0.1757 -0.2212  0.4761
 8763SOL    HW137751   3.642   3.938   0.327 -0.1573 -0.9924  3.2939
 8763SOL    HW237752   3.538   3.977   0.419 -0.4786  1.5398  0.8527
 8764SOL     OW37753   4.391   4.296   8.420 -0.2504 -0.1810  0.3330
 8764SOL    HW137754   4.351   4.209   8.420 -0.1214 -0.2384  0.4918
 8764SOL    HW237755   4.402   4.306   8.514  0.3344  0.7560  0.1646
 8765SOL     OW37756   2.068   4.675   9.003 -0.2600 -0.0541 -0.1233
 8765SOL    HW137757   2.078   4.590   9.046  3.9342  1.3855  1.7531
 8765SOL    HW237758   2.008   4.650   8.932 -0.5048 -0.2951  0.1663
 8766SOL     OW37759   4.714   4.142  14.749 -0.0427 -0.4200  0.1966
 8766SOL    HW137760   0.055   4.089  14.706  0.7640  1.1231 -0.4130
 8766SOL    HW237761   0.027   4.225  14.725  0.0317  0.0324  1.8805
 8767SOL     OW37762   3.895   1.908   6.996  0.2337 -1.0202 -0.2080
 8767SOL    HW137763   3.934   1.953   7.072 -1.5153  0.7155 -0.3268
 8767SOL    HW237764   3.891   1.819   7.030 -0.6521 -0.4569  1.1748
 8768SOL     OW37765   0.926   2.966   0.031 -0.2705 -0.2737  0.6159
 8768SOL    HW137766   0.839   3.000   0.009 -1.5126 -2.9935  1.3056
 8768SOL    HW237767   0.913   2.934   0.120  2.3127 -1.0304  0.7205
 8769SOL     OW37768   1.325   4.330   6.864 -0.5181 -0.1245 -0.1598
 8769SOL    HW137769   1.406   4.280   6.856  0.0301  0.8341 -0.5725
 8769SOL    HW237770   1.346   4.418   6.896  1.3582  1.1878 -5.0523
 8770SOL     OW37771   2.041   0.874   4.266 -0.4432  0.1903  0.4300
 8770SOL    HW137772   2.035   0.886   4.361  0.2404  1.0791  0.3594
 8770SOL    HW237773   2.135   0.886   4.254 -0.1266 -0.4238  2.2098
 8771SOL     OW37774   2.234   4.527   6.766 -0.0730  0.5769  0.2532
 8771SOL    HW137775   2.168   4.524   6.835 -0.1358  2.8857  0.2939
 8771SOL    HW237776   2.314   4.492   6.807 -0.3818 -0.6555 -0.1772
 8772SOL     OW37777   2.961   1.412   4.366 -0.6581 -0.2742  0.2658
 8772SOL    HW137778   2.905   1.489   4.368 -2.1150 -1.3074 -0.7854
 8772SOL    HW237779   2.959   1.386   4.274 -0.1927 -0.3385  0.2718
 8773SOL     OW37780   3.387   0.979   0.689  0.2215  0.4458  0.2687
 8773SOL    HW137781   3.347   0.927   0.759 -0.8197 -0.7509 -1.2233
 8773SOL    HW237782   3.482   0.970   0.703  0.0949 -0.1856  0.7478
 8774SOL     OW37783   4.399   2.923   9.491 -0.7346 -0.2503 -0.1063
 8774SOL    HW137784   4.490   2.927   9.462 -1.2882 -0.9231 -1.8991
 8774SOL    HW237785   4.365   2.952   9.406  0.6386  0.9071 -0.2605
 8775SOL     OW37786   3.135   3.074   5.623 -0.3733 -0.3908  0.1780
 8775SOL    HW137787   3.085   3.124   5.687  2.4774  0.0538  2.0444
 8775SOL    HW237788   3.088   2.991   5.634 -0.6917  0.0261  2.0237
 8776SOL     OW37789   4.482   1.683  15.661 -0.2974 -0.3671 -0.5995
 8776SOL    HW137790   4.419   1.741  15.618 -1.2486 -2.0773 -1.5009
 8776SOL    HW237791   4.561   1.737  15.666 -0.5772  0.1059 -1.4025
 8777SOL     OW37792   1.778   0.010   8.300  0.3277 -0.9428 -0.3664
 8777SOL    HW137793   1.693   4.693   8.299 -0.4900  0.7007 -1.6545
 8777SOL    HW237794   1.749   0.101   8.302  0.6574 -0.8693  1.1210
 8778SOL     OW37795   2.006   1.394   8.389  0.0806 -0.0427  0.1705
 8778SOL    HW137796   1.970   1.453   8.323  1.5247  1.5130  0.7955
 8778SOL    HW237797   2.062   1.448   8.445  1.1877  0.8915 -1.8625
 8779SOL     OW37798   4.124   0.093   7.444 -0.4030 -0.1165 -0.4110
 8779SOL    HW137799   4.070   0.169   7.422  2.0884  1.3146 -1.5746
 8779SOL    HW237800   4.065   0.068   7.515  1.1584 -1.2085  0.4954
 8780SOL     OW37801   2.936   0.439   3.917 -0.0751 -0.0674  0.0778
 8780SOL    HW137802   2.905   0.417   3.829  1.1074  0.0332 -0.3542
 8780SOL    HW237803   3.013   0.383   3.919 -0.4619 -0.6948 -2.3325
 8781SOL     OW37804   4.523   4.388   2.941 -0.6970  0.3654  0.2881
 8781SOL    HW137805   4.455   4.406   3.005 -1.7561 -0.8510 -0.4983
 8781SOL    HW237806   4.500   4.446   2.869 -2.3246  2.4161  2.4729
 8782SOL     OW37807   2.142   3.804   2.330 -0.6039 -0.3536  0.4989
 8782SOL    HW137808   2.153   3.751   2.409  1.6704 -0.3695  0.1655
 8782SOL    HW237809   2.074   3.863   2.362  1.1756  0.4500  2.8458
 8783SOL     OW37810   2.963   0.653   5.019 -0.0232  0.3891  0.0666
 8783SOL    HW137811   2.955   0.619   5.108  1.2924  1.8620  0.7637
 8783SOL    HW237812   3.054   0.631   5.004 -0.3800  0.0226 -1.5231
 8784SOL     OW37813   0.850   3.990   4.683 -0.3742  0.1593 -0.1036
 8784SOL    HW137814   0.927   3.933   4.685 -1.4222 -1.2471  0.3608
 8784SOL    HW237815   0.825   3.958   4.770 -1.0076  2.4084  0.5386
 8785SOL     OW37816   2.032   0.814   2.726 -0.1754 -0.5038 -0.0277
 8785SOL    HW137817   1.969   0.742   2.721 -2.2291  1.4145 -1.6412
 8785SOL    HW237818   2.060   0.807   2.818  2.2822 -0.7832 -0.7987
 8786SOL     OW37819   1.281   4.683   9.932  0.9422 -0.2609  0.0661
 8786SOL    HW137820   1.323   4.650  10.011 -0.1593 -2.0605 -0.1005
 8786SOL    HW237821   1.194   4.644   9.940  1.3043 -0.7683  1.3383
 8787SOL     OW37822   3.578   4.439   6.409  0.4664 -0.1958 -0.0760
 8787SOL    HW137823   3.582   4.529   6.375  0.8270 -0.1294  0.1409
 8787SOL    HW237824   3.666   4.419   6.441  0.2721  0.6514  0.9910
 8788SOL     OW37825   3.468   4.194  10.053 -0.2007  0.1444  0.1729
 8788SOL    HW137826   3.522   4.265  10.017  0.1171 -0.4025 -0.4436
 8788SOL    HW237827   3.406   4.248  10.102  0.9057  0.3390  1.3583
 8789SOL     OW37828   4.639   2.311   5.436 -0.2524 -0.1009 -0.0868
 8789SOL    HW137829   4.694   2.333   5.511 -2.8513  4.4512  0.4816
 8789SOL    HW237830   4.562   2.286   5.488 -0.4390  1.7879  0.5302
 8790SOL     OW37831   0.926   4.266  12.656  0.5547 -0.1362 -0.4676
 8790SOL    HW137832   1.012   4.279  12.695  0.9036  1.2517 -1.7123
 8790SOL    HW237833   0.912   4.339  12.596  1.3788  0.7638  0.4601
 8791SOL     OW37834   4.374   1.811   7.928  0.4739  0.0585  0.8183
 8791SOL    HW137835   4.302   1.816   7.990  1.2109 -1.2076  1.7755
 8791SOL    HW237836   4.445   1.846   7.980  1.0399 -2.6695  1.9025
 8792SOL     OW37837   3.980   3.975   7.303  0.1364  0.3460  0.4950
 8792SOL    HW137838   3.946   3.894   7.265  0.9037 -0.6051  1.8145
 8792SOL    HW237839   4.075   3.965   7.303 -0.2518 -3.2330 -1.7292
 8793SOL     OW37840   2.281   3.453   4.968 -0.2374  0.1328 -0.4179
 8793SOL    HW137841   2.196   3.468   5.009 -0.6597  1.0331 -1.6265
 8793SOL    HW237842   2.252   3.377   4.917  1.5925 -0.2606 -0.8660
 8794SOL     OW37843   1.953   1.257  14.150 -0.4926  0.3387  0.1435
 8794SOL    HW137844   1.986   1.235  14.238 -0.2144  1.2513  0.2636
 8794SOL    HW237845   1.976   1.349  14.142 -0.0710  0.5927  4.1433
 8795SOL     OW37846   0.276   0.861   6.663 -0.9399  0.4745  0.9644
 8795SOL    HW137847   0.276   0.770   6.693 -0.1944  0.5955  1.3215
 8795SOL    HW237848   0.355   0.867   6.610 -1.9644 -1.8954 -0.7972
 8796SOL     OW37849   0.044   1.004   7.178  0.1850 -0.0037 -0.4624
 8796SOL    HW137850   0.102   1.060   7.126  1.0458 -0.7673 -0.3449
 8796SOL    HW237851   0.094   0.923   7.188  0.4627  0.4001  1.3565
 8797SOL     OW37852   4.334   4.623   1.473  0.2574 -0.5964 -0.5327
 8797SOL    HW137853   4.258   4.587   1.427 -0.9355  1.1474  0.0382
 8797SOL    HW237854   4.397   4.553   1.454  2.6200  1.4016 -0.0306
 8798SOL     OW37855   1.999   3.255   3.528  0.2709 -0.2254  0.2469
 8798SOL    HW137856   2.023   3.325   3.589  0.1087  0.2976 -0.2855
 8798SOL    HW237857   1.954   3.294   3.453 -1.2510  1.0510  1.8277
 8799SOL     OW37858   0.359   0.610  14.950  0.4005 -0.7220  0.1958
 8799SOL    HW137859   0.353   0.660  15.032  0.5740 -0.7017  0.1973
 8799SOL    HW237860   0.319   0.674  14.892 -0.2077 -0.1625  1.2198
 8800SOL     OW37861   0.839   2.235   6.432 -0.1993  0.5840  0.0952
 8800SOL    HW137862   0.762   2.198   6.475  0.1926 -0.5440 -0.1469
 8800SOL    HW237863   0.870   2.294   6.500 -1.0620 -0.3449  1.3023
 8801SOL     OW37864   2.352   3.014   1.480 -1.0599 -0.2321 -0.3022
 8801SOL    HW137865   2.289   3.062   1.533 -1.2830 -2.3302  1.3698
 8801SOL    HW237866   2.373   2.927   1.516 -1.5344 -0.5319 -0.7494
 8802SOL     OW37867   3.063   1.747   6.986 -0.7069  0.2327  1.0770
 8802SOL    HW137868   3.077   1.789   7.071  1.3199 -0.5033  1.1003
 8802SOL    HW237869   3.153   1.719   6.969 -0.9852  0.7185 -1.2327
 8803SOL     OW37870   1.396   3.634   3.136 -0.2285  0.0601  0.2054
 8803SOL    HW137871   1.461   3.704   3.145  0.0520 -0.3302  1.2235
 8803SOL    HW237872   1.376   3.630   3.043 -0.7655  1.4717  0.2536
 8804SOL     OW37873   2.308   0.875   4.191  0.8932 -0.3688  0.1111
 8804SOL    HW137874   2.373   0.923   4.140  0.0095 -0.0918 -0.7490
 8804SOL    HW237875   2.308   0.785   4.159 -0.9843 -0.2324 -0.3206
 8805SOL     OW37876   0.754   1.863   6.449  0.3772  0.5572  0.0515
 8805SOL    HW137877   0.775   1.770   6.442  0.2280  0.4257  1.3673
 8805SOL    HW237878   0.826   1.908   6.406  0.1682  1.6364  0.8392
 8806SOL     OW37879   2.611   0.868   4.239 -0.2804  0.6535 -0.2890
 8806SOL    HW137880   2.599   0.828   4.153 -0.5325 -0.3903  0.2403
 8806SOL    HW237881   2.616   0.963   4.226  0.5422  0.2508 -2.8501
 8807SOL     OW37882   1.755   3.579   0.469  0.4038 -0.3731  0.1942
 8807SOL    HW137883   1.761   3.628   0.551  1.0911  2.0600 -1.3147
 8807SOL    HW237884   1.664   3.551   0.467  0.0600  0.6779  1.2017
 8808SOL     OW37885   0.972   2.761   7.829 -0.5951 -0.0978  0.2048
 8808SOL    HW137886   1.012   2.677   7.851 -0.9583 -0.1804  0.5467
 8808SOL    HW237887   0.991   2.797   7.916 -3.2500 -0.1200  0.7958
 8809SOL     OW37888   0.680   1.490   8.171  0.0652 -0.2296  0.9918
 8809SOL    HW137889   0.764   1.511   8.130 -0.1179 -1.5919 -0.0955
 8809SOL    HW237890   0.624   1.545   8.118  1.3945 -1.7634 -2.0032
 8810SOL     OW37891   2.742   0.597  17.673 -0.4396 -0.4635 -0.5093
 8810SOL    HW137892   2.675   0.659  17.699 -0.9998 -1.4189  0.3447
 8810SOL    HW237893   2.799   0.650  17.618  0.9498 -1.6182 -0.1805
 8811SOL     OW37894   3.770   1.615   4.469 -0.3739  0.0076 -0.3167
 8811SOL    HW137895   3.860   1.628   4.499 -0.0090 -1.8838 -0.5805
 8811SOL    HW237896   3.778   1.595   4.376 -0.0153  1.7356 -0.6702
 8812SOL     OW37897   1.791   0.583   7.126  0.0551 -0.3143 -0.2049
 8812SOL    HW137898   1.843   0.525   7.181 -0.2261  0.9945  1.4582
 8812SOL    HW237899   1.806   0.651   7.193  1.0374  0.9318 -1.6864
 8813SOL     OW37900   3.065   3.569   6.936 -0.0901 -0.2141 -0.4627
 8813SOL    HW137901   3.113   3.551   7.017 -1.9449  0.4922  0.7939
 8813SOL    HW237902   3.115   3.641   6.899 -1.0159  0.3043 -0.7099
 8814SOL     OW37903   1.406   1.628   4.351 -0.2675  0.1812 -0.4736
 8814SOL    HW137904   1.345   1.696   4.381  0.3422 -0.4702  2.2671
 8814SOL    HW237905   1.486   1.680   4.337  0.0458 -0.3901 -0.7777
 8815SOL     OW37906   2.706   2.812   6.239  0.0328 -0.4525  0.3930
 8815SOL    HW137907   2.732   2.904   6.229  0.7246 -0.8909 -1.8457
 8815SOL    HW237908   2.612   2.812   6.227  0.1415  0.1241 -0.4672
 8816SOL     OW37909   1.168   3.124   2.992  0.0303  0.0043 -0.3740
 8816SOL    HW137910   1.255   3.083   2.993  0.1678  0.3101  0.1609
 8816SOL    HW237911   1.193   3.216   2.995  0.5079 -0.0423 -2.6154
 8817SOL     OW37912   4.374   2.555   5.331  0.0340  0.2538  0.1417
 8817SOL    HW137913   4.303   2.584   5.273  1.3714  0.4909 -1.3651
 8817SOL    HW237914   4.328   2.541   5.414 -1.1734 -0.3671 -0.6252
 8818SOL     OW37915   3.526   1.550   7.972 -0.3013  0.1298 -1.0459
 8818SOL    HW137916   3.542   1.492   7.898 -2.4340 -0.0189 -1.3902
 8818SOL    HW237917   3.519   1.494   8.050  4.2398  3.2948  1.6675
 8819SOL     OW37918   1.749   0.414   8.141 -0.3066 -0.0064  0.2141
 8819SOL    HW137919   1.743   0.348   8.210  1.5583  0.4558  0.8025
 8819SOL    HW237920   1.656   0.420   8.117 -0.1689  0.8032 -0.1165
 8820SOL     OW37921   2.347   2.606  12.274  0.0159  0.6585 -0.1203
 8820SOL    HW137922   2.293   2.685  12.282 -1.6769 -0.4556 -0.6323
 8820SOL    HW237923   2.357   2.585  12.367 -1.9281  0.9962  0.1493
 8821SOL     OW37924   1.772   1.946  11.036 -0.8136  0.0312  0.5066
 8821SOL    HW137925   1.702   1.920  11.095  0.1599 -2.0196  0.7269
 8821SOL    HW237926   1.750   1.883  10.968 -0.3130 -0.4616  0.8053
 8822SOL     OW37927   2.070   3.134   4.576  0.7922  0.3573  0.2877
 8822SOL    HW137928   2.003   3.162   4.512  1.9227 -0.5505 -1.2939
 8822SOL    HW237929   2.152   3.133   4.528  1.2353  0.1693  1.0617
 8823SOL     OW37930   0.441   1.922   5.470  0.5468  0.3512 -0.2336
 8823SOL    HW137931   0.353   1.947   5.498  0.1864 -0.9009 -0.2626
 8823SOL    HW237932   0.489   1.957   5.545  2.1982 -0.3208 -0.9799
 8824SOL     OW37933   0.214   0.761   7.179 -0.1911  0.5065  0.0915
 8824SOL    HW137934   0.228   0.690   7.117  2.2105  0.4340  0.7184
 8824SOL    HW237935   0.202   0.709   7.258  1.2992 -2.1812 -1.4423
 8825SOL     OW37936   3.702   1.964   0.984  0.5744 -0.1729 -0.1606
 8825SOL    HW137937   3.756   1.891   1.015  1.5931  1.1729  1.2013
 8825SOL    HW237938   3.766   2.023   0.945  3.3594 -0.6449  3.8051
 8826SOL     OW37939   3.999   2.894  15.535  0.2094  0.0716  0.2313
 8826SOL    HW137940   4.049   2.944  15.472 -1.3724  1.1507 -0.1555
 8826SOL    HW237941   4.042   2.809  15.522 -1.4393 -0.8093  0.4358
 8827SOL     OW37942   0.114   1.260   1.400 -0.6031  0.3855 -0.0543
 8827SOL    HW137943   0.120   1.180   1.347 -0.6023  0.7342 -0.5857
 8827SOL    HW237944   0.101   1.216   1.484 -0.2207  0.5887  0.1078
 8828SOL     OW37945   0.614   0.533  11.308  0.8514 -0.2221 -0.0761
 8828SOL    HW137946   0.538   0.489  11.270  0.3873  0.4861  0.0293
 8828SOL    HW237947   0.688   0.491  11.264 -1.7492 -1.9677 -2.7667
 8829SOL     OW37948   0.995   1.383  11.149 -0.3134  0.1830  0.2793
 8829SOL    HW137949   1.089   1.402  11.151 -0.5085  0.8373  2.8476
 8829SOL    HW237950   0.985   1.337  11.232 -1.7100  0.1066  0.0740
 8830SOL     OW37951   0.976   2.728   4.177 -0.2000 -0.2124 -0.0245
 8830SOL    HW137952   0.899   2.762   4.132  0.2838  1.9255  0.7597
 8830SOL    HW237953   0.940   2.708   4.264  1.2572 -0.3365  0.5540
 8831SOL     OW37954   2.158   0.502   8.329 -0.1101  0.6016  0.6220
 8831SOL    HW137955   2.109   0.529   8.252  1.1792  1.0914 -0.0384
 8831SOL    HW237956   2.124   0.571   8.386  1.0457 -0.9359  3.1817
 8832SOL     OW37957   4.727   4.535  15.956 -0.4303  0.6288  0.1013
 8832SOL    HW137958   4.635   4.547  15.981 -0.7613  0.9103 -1.1961
 8832SOL    HW237959   4.719   4.506  15.865  1.0361  1.2198 -0.2115
 8833SOL     OW37960   3.026   0.424   6.217 -0.6570 -0.2731 -0.1816
 8833SOL    HW137961   3.031   0.379   6.301 -0.5287  0.3556  0.1509
 8833SOL    HW237962   3.101   0.483   6.219 -0.6030 -0.3561  0.2689
 8834SOL     OW37963   1.900   2.127   3.542 -0.5524  0.2428  0.1016
 8834SOL    HW137964   1.921   2.078   3.462 -0.4060  1.7849 -0.8012
 8834SOL    HW237965   1.835   2.065   3.577 -1.9807  1.2749 -0.7045
 8835SOL     OW37966   3.606   3.572   5.711 -0.1194  0.8365  0.1348
 8835SOL    HW137967   3.614   3.574   5.806 -2.0257 -1.9698  0.3940
 8835SOL    HW237968   3.577   3.483   5.690  0.1786  0.7687  0.0115
 8836SOL     OW37969   3.392   2.497  16.867 -0.4286  0.6853  0.3255
 8836SOL    HW137970   3.354   2.413  16.841 -0.7539  0.8667  0.2168
 8836SOL    HW237971   3.457   2.465  16.930 -0.1981  1.9432  0.7237
 8837SOL     OW37972   2.560   0.741   8.186  0.6685  0.0402 -0.4011
 8837SOL    HW137973   2.589   0.767   8.273  1.3912  0.6245 -0.8207
 8837SOL    HW237974   2.643   0.709   8.152  0.3460 -1.3360  0.1078
 8838SOL     OW37975   0.978   3.624  15.338  0.0392 -0.0824  0.1051
 8838SOL    HW137976   0.900   3.669  15.372 -0.2759  1.1679 -2.2287
 8838SOL    HW237977   1.042   3.694  15.323 -1.3479  1.1480 -0.0993
 8839SOL     OW37978   2.217   2.892   6.372 -0.3444 -0.3910  0.0992
 8839SOL    HW137979   2.312   2.908   6.365 -0.4269  0.2498  0.3771
 8839SOL    HW237980   2.213   2.799   6.394 -2.9295 -0.3331 -0.1495
 8840SOL     OW37981   0.721   3.667   6.628  0.1719  0.0002  0.6331
 8840SOL    HW137982   0.699   3.736   6.690  1.5967  0.7496  0.2903
 8840SOL    HW237983   0.801   3.639   6.673  1.2557  0.1602 -1.1730
 8841SOL     OW37984   2.049   3.701  17.448  0.0678  0.1676 -0.5275
 8841SOL    HW137985   1.980   3.646  17.485 -0.2201  1.1630  0.4007
 8841SOL    HW237986   2.107   3.667  17.516 -0.9320  2.5461  1.4989
 8842SOL     OW37987   1.475   2.252  15.737  0.2067 -0.2213 -0.6674
 8842SOL    HW137988   1.551   2.302  15.766  1.1522 -2.2371  0.3577
 8842SOL    HW237989   1.496   2.176  15.792 -1.2571  0.3490  0.6768
 8843SOL     OW37990   2.263   0.071   8.777  0.6237  0.1768  0.3949
 8843SOL    HW137991   2.352   0.105   8.792  1.4407 -1.4108 -0.8767
 8843SOL    HW237992   2.245   0.029   8.861  0.6803 -1.3811 -0.3844
 8844SOL     OW37993   3.898   3.268  12.894  0.4692  0.5462  0.2217
 8844SOL    HW137994   3.868   3.274  12.985 -0.3592 -0.1570 -0.0116
 8844SOL    HW237995   3.837   3.328  12.852 -0.2441 -0.2954  0.0568
 8845SOL     OW37996   2.714   3.617   1.712 -0.3727  0.7141 -0.0755
 8845SOL    HW137997   2.748   3.571   1.636 -1.0023  1.1597 -0.6212
 8845SOL    HW237998   2.620   3.603   1.705 -0.1189 -0.8557 -0.2750
 8846SOL     OW37999   4.359   1.633   3.857  0.0916  0.5287  0.3553
 8846SOL    HW138000   4.348   1.689   3.780  1.3071  3.6944  2.4842
 8846SOL    HW238001   4.449   1.610   3.834 -0.9095 -2.4564 -0.5583
 8847SOL     OW38002   2.834   0.560  17.179 -0.1081  0.4203  0.2670
 8847SOL    HW138003   2.842   0.552  17.274 -2.5890 -0.3765  0.4159
 8847SOL    HW238004   2.769   0.491  17.163  0.6064 -0.3403  0.6019
 8848SOL     OW38005   4.673   3.642   6.117  0.1175  0.3974 -0.0121
 8848SOL    HW138006   4.677   3.691   6.199 -1.7140 -1.7668  1.3850
 8848SOL    HW238007   4.720   3.563   6.141 -0.2408  0.2263  0.1331
 8849SOL     OW38008   2.932   3.137   0.248  0.1562 -0.4004  0.5557
 8849SOL    HW138009   2.961   3.066   0.190  0.4542  1.7984 -2.0208
 8849SOL    HW238010   2.920   3.206   0.183  4.4732 -0.2377 -0.0760
 8850SOL     OW38011   2.406   3.705   7.816 -0.0603 -0.3081  0.2488
 8850SOL    HW138012   2.328   3.694   7.871  0.9417 -1.8064  1.3790
 8850SOL    HW238013   2.429   3.793   7.845 -0.7868  0.7430 -2.4108
 8851SOL     OW38014   4.323   2.941   7.727 -0.1290 -0.9758  0.5650
 8851SOL    HW138015   4.284   2.901   7.804 -0.7862  4.4803  3.0537
 8851SOL    HW238016   4.273   3.022   7.713 -1.4859 -1.9414 -0.1495
 8852SOL     OW38017   4.699   0.818  16.830  0.3039 -0.1034 -0.2159
 8852SOL    HW138018   4.700   0.729  16.863  0.3935  0.3195  0.9161
 8852SOL    HW238019   0.066   0.839  16.833  0.7457 -1.7289 -2.5429
 8853SOL     OW38020   0.153   3.039   2.153 -0.3082  0.5995  0.4565
 8853SOL    HW138021   0.190   3.082   2.076 -1.3830 -0.8453 -0.8661
 8853SOL    HW238022   0.207   2.960   2.145 -1.6323 -0.4592  1.9009
 8854SOL     OW38023   0.133   0.417   0.747  0.0082 -0.4233 -0.0811
 8854SOL    HW138024   0.166   0.346   0.802  0.0470 -1.8574 -1.9464
 8854SOL    HW238025   0.207   0.422   0.686  0.6280 -0.3732  0.6796
 8855SOL     OW38026   0.535   2.125   7.151  0.5249 -0.1453  0.1464
 8855SOL    HW138027   0.464   2.080   7.105  0.7056 -0.2290 -0.0541
 8855SOL    HW238028   0.494   2.209   7.174 -0.8686 -0.8752  0.3153
 8856SOL     OW38029   0.457   3.189  17.261  0.5037 -0.0105  0.3365
 8856SOL    HW138030   0.461   3.265  17.318  3.9479 -0.5875  0.8349
 8856SOL    HW238031   0.535   3.202  17.208 -0.7055 -0.2866 -1.5324
 8857SOL     OW38032   2.699   3.591   6.971 -0.0425  0.1181 -0.3412
 8857SOL    HW138033   2.644   3.551   6.904 -1.2791 -1.9866  1.9457
 8857SOL    HW238034   2.642   3.660   7.005  0.8786  0.3035  0.8236
 8858SOL     OW38035   1.293   0.190   9.280  0.5434 -0.4041 -0.3045
 8858SOL    HW138036   1.388   0.181   9.293  0.7693 -1.0282 -2.3895
 8858SOL    HW238037   1.251   0.140   9.350  1.9700  1.3557  1.7905
 8859SOL     OW38038   4.306   1.524   7.979  0.4415  0.3254 -0.0060
 8859SOL    HW138039   4.309   1.620   7.981  1.9867  0.3063 -1.0490
 8859SOL    HW238040   4.280   1.521   7.887 -1.3698  0.7004  0.5034
 8860SOL     OW38041   1.038   0.220  16.283 -0.4753 -0.1958 -0.0091
 8860SOL    HW138042   1.017   0.240  16.192 -0.5939 -0.5573 -0.0615
 8860SOL    HW238043   1.066   0.305  16.317 -1.1195 -0.1924  0.5254
 8861SOL     OW38044   1.305   4.331   9.700 -0.5974  0.8315  0.8072
 8861SOL    HW138045   1.244   4.266   9.736  1.6573 -1.8916 -0.2351
 8861SOL    HW238046   1.383   4.300   9.747 -0.9990 -0.6409  0.5253
 8862SOL     OW38047   4.446   1.355   2.789 -0.4062 -0.4091 -0.1871
 8862SOL    HW138048   4.440   1.272   2.741 -1.5727  0.0628 -0.8564
 8862SOL    HW238049   4.449   1.425   2.723  1.2590 -0.9508 -0.7088
 8863SOL     OW38050   0.441   1.797  13.644 -0.5560 -0.5687 -0.2072
 8863SOL    HW138051   0.512   1.850  13.681 -0.5280 -1.7792  1.4646
 8863SOL    HW238052   0.390   1.863  13.597  0.8972  0.0235 -0.9516
 8864SOL     OW38053   1.996   3.915   0.536 -0.1279 -0.0316  0.0477
 8864SOL    HW138054   2.050   3.863   0.477  0.7774  1.2764 -0.2662
 8864SOL    HW238055   1.940   3.853   0.583 -0.0852 -0.1365 -0.0401
 8865SOL     OW38056   3.726   2.539   6.744  0.2024  0.4590 -0.2192
 8865SOL    HW138057   3.652   2.536   6.805  0.7231  0.1027  0.3965
 8865SOL    HW238058   3.726   2.445   6.729  0.6870  0.4395 -0.0799
 8866SOL     OW38059   0.146   3.275   0.017 -1.1379  0.8014 -0.2880
 8866SOL    HW138060   0.176   3.215   0.085  0.3208  0.6059 -1.1017
 8866SOL    HW238061   0.056   3.271   0.049 -0.6453  0.4330  1.0447
 8867SOL     OW38062   2.969   0.402   6.708 -0.2083 -0.5699 -0.2611
 8867SOL    HW138063   3.052   0.436   6.739  0.5374 -1.8188 -0.8882
 8867SOL    HW238064   2.910   0.413   6.783  1.3492  0.2985  0.8378
 8868SOL     OW38065   0.620   3.412   3.488 -0.1251 -0.5489 -0.1452
 8868SOL    HW138066   0.554   3.474   3.518 -0.4115 -0.7277 -0.3969
 8868SOL    HW238067   0.653   3.460   3.412  0.3745 -0.2480  0.2617
 8869SOL     OW38068   4.603   0.569  13.694 -0.3754  0.8630  0.5541
 8869SOL    HW138069   4.566   0.640  13.746  1.7274  0.8755  2.0429
 8869SOL    HW238070   4.693   0.573  13.727 -0.2253  0.1738  0.2149
 8870SOL     OW38071   3.896   4.401  11.191  0.0563 -0.1108 -0.6293
 8870SOL    HW138072   3.919   4.344  11.118  2.0569  1.4123 -1.2122
 8870SOL    HW238073   3.834   4.341  11.233 -2.5120  2.0787 -1.2679
 8871SOL     OW38074   3.510   3.804   1.057 -0.2177 -0.3390  0.1767
 8871SOL    HW138075   3.480   3.766   1.140 -1.0415  1.0938  0.5267
 8871SOL    HW238076   3.592   3.848   1.081  0.1316 -0.6991 -0.3525
 8872SOL     OW38077   0.701   3.126   9.566  0.2136 -0.0495 -0.0358
 8872SOL    HW138078   0.608   3.140   9.586  0.2072  1.1175 -0.9530
 8872SOL    HW238079   0.735   3.214   9.579 -3.0229  0.9150  1.9307
 8873SOL     OW38080   1.628   4.153   2.628 -0.2115  0.4613  0.0126
 8873SOL    HW138081   1.596   4.134   2.716  1.2653  1.0451  0.6741
 8873SOL    HW238082   1.684   4.077   2.618 -0.6445  0.1517 -0.0846
 8874SOL     OW38083   3.308   0.999  16.446  0.3825 -0.2290  0.4461
 8874SOL    HW138084   3.365   0.954  16.508  0.8815  1.6091  1.2859
 8874SOL    HW238085   3.332   0.965  16.360 -0.8099 -1.3545  0.5520
 8875SOL     OW38086   1.072   1.334  14.973 -0.3467  0.2795  0.3038
 8875SOL    HW138087   1.019   1.413  14.963  0.1464  0.4396 -1.0433
 8875SOL    HW238088   1.154   1.363  14.931 -0.3269  0.9343  0.8026
 8876SOL     OW38089   3.723   0.757   2.464 -0.0017 -0.4411  0.1943
 8876SOL    HW138090   3.819   0.761   2.459  0.0146 -0.9848  0.1475
 8876SOL    HW238091   3.724   0.666   2.494 -0.2210 -0.2867  0.6652
 8877SOL     OW38092   2.666   0.692   1.423 -0.4153  0.5706  0.2785
 8877SOL    HW138093   2.629   0.621   1.371 -2.3357  0.6472  1.5272
 8877SOL    HW238094   2.618   0.686   1.505 -1.0490  3.2340  0.0879
 8878SOL     OW38095   4.463   1.393   3.533  0.3049  0.1630  0.1615
 8878SOL    HW138096   4.465   1.456   3.461  1.8697  1.3950  1.3050
 8878SOL    HW238097   4.529   1.330   3.502  1.0828  1.8238 -1.6169
 8879SOL     OW38098   2.193   0.381   4.966 -0.4307 -0.1649 -0.2757
 8879SOL    HW138099   2.154   0.367   4.880 -2.1083 -0.8472  0.5902
 8879SOL    HW238100   2.283   0.399   4.939 -0.6175  1.4082  0.1129
 8880SOL     OW38101   1.772   0.662   0.422  0.7005 -0.3100 -0.0503
 8880SOL    HW138102   1.725   0.723   0.367  0.5499  0.2485  0.7048
 8880SOL    HW238103   1.738   0.580   0.387  0.1062 -0.3214  0.5679
 8881SOL     OW38104   2.203   2.065   3.164 -0.3346 -0.5585 -0.2389
 8881SOL    HW138105   2.216   2.108   3.080  1.1350  0.4530  0.4959
 8881SOL    HW238106   2.280   2.008   3.169  1.6213  1.9911 -1.3285
 8882SOL     OW38107   2.929   3.417   0.043 -0.2738  0.3092 -0.3300
 8882SOL    HW138108   3.006   3.362   0.024 -1.4786 -1.6157  0.2959
 8882SOL    HW238109   2.943   3.485  17.685  0.5252  1.0885  0.6425
 8883SOL     OW38110   2.614   0.391  11.419 -0.3656 -0.1070 -0.1533
 8883SOL    HW138111   2.553   0.449  11.465 -0.5619  0.1501 -0.7341
 8883SOL    HW238112   2.584   0.403  11.329  1.8993  1.8178 -0.6386
 8884SOL     OW38113   3.876   3.489   3.320  0.2062  0.0265  0.5427
 8884SOL    HW138114   3.830   3.485   3.236 -2.0151  0.4766  1.7562
 8884SOL    HW238115   3.890   3.583   3.327  1.1139 -0.0926  0.4038
 8885SOL     OW38116   0.442   3.143   9.427  0.2727 -0.1874 -0.2066
 8885SOL    HW138117   0.510   3.104   9.372  0.3680 -1.9489  1.1619
 8885SOL    HW238118   0.401   3.067   9.468  0.4064 -0.3697 -0.4122
 8886SOL     OW38119   0.880   1.698   5.214  0.7211  0.3511  0.2917
 8886SOL    HW138120   0.947   1.631   5.226 -0.7335 -1.1951 -0.1652
 8886SOL    HW238121   0.841   1.693   5.302  2.6881 -0.9861  1.0729
 8887SOL     OW38122   2.372   0.929   0.189 -0.4312 -0.3247  0.4789
 8887SOL    HW138123   2.279   0.918   0.211  0.3645 -2.3770  2.8027
 8887SOL    HW238124   2.378   1.024   0.189  0.3413 -0.3780  0.3698
 8888SOL     OW38125   0.878   0.507   9.612 -0.1933  0.1333  0.2310
 8888SOL    HW138126   0.792   0.518   9.652 -0.7313  4.4712 -2.1896
 8888SOL    HW238127   0.878   0.578   9.548  2.6284 -1.8271 -1.9372
 8889SOL     OW38128   1.115   3.865   7.673  0.5060  0.0348  0.4119
 8889SOL    HW138129   1.129   3.932   7.606 -1.3316 -2.2405 -2.2211
 8889SOL    HW238130   1.059   3.801   7.630 -1.6022  1.4492  1.0229
 8890SOL     OW38131   0.308   3.701  10.824 -0.0149  0.5478 -0.5162
 8890SOL    HW138132   0.392   3.672  10.857 -0.0244 -0.0172 -0.9929
 8890SOL    HW238133   0.341   3.773  10.770  1.1016  0.1052 -0.4155
 8891SOL     OW38134   1.564   0.945   8.133  0.3810 -0.3674 -0.3755
 8891SOL    HW138135   1.472   0.968   8.116  0.9827  0.5484 -2.4209
 8891SOL    HW238136   1.572   0.988   8.218 -2.9810  0.5949 -0.5610
 8892SOL     OW38137   2.725   0.732   3.422 -0.0988 -1.1279  0.1511
 8892SOL    HW138138   2.685   0.745   3.336  0.9689 -0.6847 -0.2786
 8892SOL    HW238139   2.788   0.803   3.426  1.2904 -2.2837 -0.8247
 8893SOL     OW38140   0.642   2.381   6.014 -0.0829 -0.1478 -0.1417
 8893SOL    HW138141   0.581   2.437   6.063 -0.7742 -1.2555  0.2414
 8893SOL    HW238142   0.724   2.429   6.024 -0.9623  0.8605  2.1530
 8894SOL     OW38143   2.188   4.169  13.085 -0.1887 -0.6645 -0.1030
 8894SOL    HW138144   2.261   4.141  13.141  0.1745  1.3620  0.4589
 8894SOL    HW238145   2.142   4.086  13.075 -0.7753  0.0205 -3.0719
 8895SOL     OW38146   0.139   1.654   1.603  0.5224  0.2712  0.0644
 8895SOL    HW138147   0.143   1.721   1.671 -0.1820  0.3586  0.0204
 8895SOL    HW238148   0.124   1.579   1.660  3.3227 -2.0785 -2.3018
 8896SOL     OW38149   4.341   2.626  10.784 -0.2646  0.0463  0.0624
 8896SOL    HW138150   4.365   2.718  10.788 -0.2480  0.0007  0.9065
 8896SOL    HW238151   4.413   2.584  10.831  0.1615 -1.8894 -2.2728
 8897SOL     OW38152   3.362   3.842  16.410  0.3958 -0.3937 -0.6742
 8897SOL    HW138153   3.370   3.830  16.505  3.1356 -0.8845 -0.9656
 8897SOL    HW238154   3.310   3.923  16.403  1.1029  0.2543  1.6180
 8898SOL     OW38155   3.954   1.528   5.229  0.0426 -0.2280  0.1470
 8898SOL    HW138156   3.867   1.554   5.200  1.4131  3.3645 -0.7771
 8898SOL    HW238157   3.995   1.494   5.150 -0.3211 -0.5248  0.0877
 8899SOL     OW38158   0.443   3.867  11.673 -0.3163 -0.2022  0.7003
 8899SOL    HW138159   0.457   3.837  11.583  0.2361  0.2354  0.6398
 8899SOL    HW238160   0.520   3.835  11.720  0.1054 -0.2014  0.0123
 8900SOL     OW38161   1.072   0.242  14.100  0.5615 -0.2079  0.1277
 8900SOL    HW138162   1.093   0.295  14.178 -1.4307 -0.3166  0.7282
 8900SOL    HW238163   0.985   0.209  14.118 -0.1303  0.2361 -2.4156
 8901SOL     OW38164   1.620   4.574   7.715 -1.0279  0.1157  0.0874
 8901SOL    HW138165   1.601   4.517   7.789  0.2932 -2.1769 -1.3513
 8901SOL    HW238166   1.627   4.659   7.759  2.1532 -0.7586  1.2255
 8902SOL     OW38167   0.571   1.888   3.245 -0.0910  0.3871 -0.3114
 8902SOL    HW138168   0.522   1.806   3.231 -0.5391  0.5594  0.2493
 8902SOL    HW238169   0.496   1.943   3.265  0.1158 -0.4023  2.7474
 8903SOL     OW38170   2.140   2.002   3.624 -0.0649 -0.0819  0.5877
 8903SOL    HW138171   2.059   2.053   3.626 -0.1721 -0.2833  1.5118
 8903SOL    HW238172   2.115   1.927   3.680  0.5145  0.0160  0.9787
 8904SOL     OW38173   1.570   3.910   6.045 -0.3989  0.0954  0.2121
 8904SOL    HW138174   1.560   3.815   6.051 -2.2096  0.3835  1.7733
 8904SOL    HW238175   1.524   3.921   5.961  1.1556 -2.9950 -1.0373
 8905SOL     OW38176   1.046   4.536  12.868  0.0672  0.8129  0.4721
 8905SOL    HW138177   0.979   4.603  12.851  0.3624  0.5937 -1.5361
 8905SOL    HW238178   0.994   4.481  12.927  0.5718  3.0641  3.0216
 8906SOL     OW38179   1.180   4.317  12.780 -0.1980  0.2867  0.1031
 8906SOL    HW138180   1.268   4.356  12.778  0.2850 -0.7918 -0.3006
 8906SOL    HW238181   1.145   4.399  12.814 -0.4516  0.1338  0.2057
 8907SOL     OW38182   0.908   2.113   2.643 -0.1752  0.3149 -0.5186
 8907SOL    HW138183   0.964   2.056   2.590 -2.0012 -1.9417 -0.0164
 8907SOL    HW238184   0.976   2.179   2.661  0.3743 -1.1710  2.8134
 8908SOL     OW38185   0.175   1.386   0.026  0.4131 -0.2280 -0.0096
 8908SOL    HW138186   0.133   1.472   0.020  0.8426  0.0768  1.2694
 8908SOL    HW238187   0.136   1.347  17.657 -1.3099  1.2522  0.1094
 8909SOL     OW38188   2.441   4.616  12.322 -0.2981  0.1937 -0.2522
 8909SOL    HW138189   2.489   4.659  12.393 -1.0757 -1.5686  1.3390
 8909SOL    HW238190   2.361   4.667  12.317  0.9162  2.1410 -0.0187
 8910SOL     OW38191   4.117   4.368   4.768  0.9030  0.4350  0.1035
 8910SOL    HW138192   4.158   4.418   4.698 -3.0274  1.9037 -1.1258
 8910SOL    HW238193   4.187   4.388   4.831 -0.6010  2.6843  1.0619
 8911SOL     OW38194   3.973   0.571   3.015 -1.0277  0.9208  0.5822
 8911SOL    HW138195   4.008   0.567   3.104 -2.1024  3.5926  1.1071
 8911SOL    HW238196   3.990   0.480   2.991 -0.0105  2.2970 -3.7991
 8912SOL     OW38197   3.387   4.295   4.040  0.3791 -0.0904  0.3395
 8912SOL    HW138198   3.350   4.365   3.987  1.6413  2.3432  2.6526
 8912SOL    HW238199   3.319   4.233   4.014 -0.9856  2.4421 -2.2565
 8913SOL     OW38200   0.420   1.664   6.436 -0.4002 -0.1160 -0.4223
 8913SOL    HW138201   0.348   1.659   6.499  0.5438  2.0689  0.8162
 8913SOL    HW238202   0.454   1.575   6.445 -1.3641 -0.6569 -2.0388
 8914SOL     OW38203   3.160   0.015   3.998 -0.3750 -0.1517 -0.3680
 8914SOL    HW138204   3.186   0.022   3.906  2.8163 -0.3116  0.5166
 8914SOL    HW238205   3.072   4.710   3.979 -0.5678 -0.4746  1.0459
 8915SOL     OW38206   2.485   3.522   1.368 -0.2474  0.6688  0.2296
 8915SOL    HW138207   2.442   3.506   1.452 -0.3088 -1.8417 -0.2811
 8915SOL    HW238208   2.461   3.441   1.322  0.2069  1.4961 -1.4130
 8916SOL     OW38209   3.281   3.321  11.388  0.1585  0.6126  0.2147
 8916SOL    HW138210   3.269   3.363  11.473  2.6146  0.3114  0.7023
 8916SOL    HW238211   3.239   3.236  11.404 -1.6879  1.0782 -2.2241
 8917SOL     OW38212   3.716   3.865   4.899  0.8783  0.0558 -0.2085
 8917SOL    HW138213   3.696   3.793   4.959 -0.7777 -0.5591 -1.4820
 8917SOL    HW238214   3.755   3.926   4.961  0.8648 -0.0015 -0.1443
 8918SOL     OW38215   0.326   2.034   8.865  0.3502  0.5932  0.1646
 8918SOL    HW138216   0.276   2.091   8.806  1.1080  0.0778 -0.9572
 8918SOL    HW238217   0.293   2.069   8.948 -1.4970 -0.8443  0.0369
 8919SOL     OW38218   1.081   3.862   5.693  0.4854 -0.0519  0.9948
 8919SOL    HW138219   1.045   3.871   5.782 -0.9648 -1.2448  0.5211
 8919SOL    HW238220   1.078   3.955   5.672 -1.1242 -0.0437  1.2810
 8920SOL     OW38221   4.046   3.713   3.552  0.4701  0.1466 -0.0886
 8920SOL    HW138222   3.982   3.657   3.595 -0.4201  1.4801  0.3351
 8920SOL    HW238223   4.106   3.649   3.514 -0.3001 -1.0913  0.8056
 8921SOL     OW38224   0.644   3.264  14.064 -0.0367  0.0514  0.0805
 8921SOL    HW138225   0.722   3.216  14.092 -0.3054 -0.5943 -0.2894
 8921SOL    HW238226   0.610   3.197  14.004 -1.2438  1.9958 -1.4026
 8922SOL     OW38227   3.816   4.455   2.447 -0.4161  0.0603 -0.6848
 8922SOL    HW138228   3.890   4.512   2.424 -0.9622  1.1620  0.3062
 8922SOL    HW238229   3.800   4.405   2.367  0.0394  0.7292 -1.1980
 8923SOL     OW38230   3.004   1.131  16.757  0.3220 -0.4614 -0.3085
 8923SOL    HW138231   2.957   1.215  16.752  0.9145  0.0742  3.4155
 8923SOL    HW238232   2.929   1.077  16.780  0.4234 -0.6027 -0.3118
 8924SOL     OW38233   3.737   0.936  16.642  0.2312  0.1679 -0.4691
 8924SOL    HW138234   3.697   0.991  16.710  0.5929  2.3610 -2.0286
 8924SOL    HW238235   3.695   0.968  16.562 -0.3732  0.9925  0.1689
 8925SOL     OW38236   1.933   4.045  10.044 -0.4045 -0.1914  0.4840
 8925SOL    HW138237   2.014   4.011  10.007  1.0264  3.4265  0.3425
 8925SOL    HW238238   1.925   4.116   9.980 -0.5986 -1.9402 -1.4321
 8926SOL     OW38239   0.900   4.597   7.350 -0.5495 -0.6961 -0.1142
 8926SOL    HW138240   0.988   4.630   7.367 -0.6429 -0.5974  0.1779
 8926SOL    HW238241   0.858   4.585   7.435  0.3665 -1.0008  0.2958
 8927SOL     OW38242   0.336   1.390   2.866  0.1277  0.3767 -0.4460
 8927SOL    HW138243   0.422   1.423   2.894  0.0022  0.8431 -0.6121
 8927SOL    HW238244   0.314   1.334   2.940 -0.6792  2.7506  1.1023
 8928SOL     OW38245   2.169   4.522   9.658  0.2170  0.0432 -0.1995
 8928SOL    HW138246   2.262   4.501   9.652  0.0492 -1.3838  2.2980
 8928SOL    HW238247   2.137   4.487   9.574 -0.6581 -0.3279  0.2852
 8929SOL     OW38248   0.144   3.487   4.452  0.2741 -0.3801 -0.0164
 8929SOL    HW138249   0.110   3.398   4.447 -1.5606  0.5026 -2.8428
 8929SOL    HW238250   0.237   3.469   4.462  0.2846 -0.5117 -0.3856
 8930SOL     OW38251   3.911   1.142   4.590  0.1066  0.0772 -0.1049
 8930SOL    HW138252   3.865   1.168   4.510 -1.3045  2.3081  1.4277
 8930SOL    HW238253   3.891   1.049   4.586 -1.2714  0.3488  0.3769
 8931SOL     OW38254   1.538   1.007   6.786  0.2524  0.0212 -0.0950
 8931SOL    HW138255   1.568   1.078   6.844  0.2352  0.2156 -0.3212
 8931SOL    HW238256   1.508   0.938   6.844  0.8396 -0.1977 -0.0532
 8932SOL     OW38257   4.167   3.837  14.101  1.0180  0.3361  0.1639
 8932SOL    HW138258   4.105   3.897  14.059  3.2304  1.8383 -1.0062
 8932SOL    HW238259   4.218   3.821  14.021  0.5266 -1.1687  0.1697
 8933SOL     OW38260   3.793   0.559   6.022  0.7470 -0.0477  0.3888
 8933SOL    HW138261   3.725   0.626   6.012  0.9028 -0.0880 -0.8978
 8933SOL    HW238262   3.742   0.488   6.061 -1.4207  1.6562  0.7052
 8934SOL     OW38263   1.329   0.896   9.146 -0.3030  0.1019  0.1552
 8934SOL    HW138264   1.377   0.956   9.089 -1.0390  1.0948  0.5917
 8934SOL    HW238265   1.262   0.961   9.168  0.4266  1.0983 -0.5500
 8935SOL     OW38266   3.378   2.092  14.486 -0.2773 -0.3798  0.2187
 8935SOL    HW138267   3.402   2.032  14.415  1.6684  0.3335  0.2674
 8935SOL    HW238268   3.289   2.121  14.464  0.3577 -0.8536 -2.9734
 8936SOL     OW38269   0.114   1.872   6.901 -0.3682  0.2278 -0.0902
 8936SOL    HW138270   0.049   1.930   6.940 -1.5888 -1.6347  0.5880
 8936SOL    HW238271   0.050   1.814   6.861 -0.6157  1.9768 -2.2126
 8937SOL     OW38272   3.023   2.741   4.852 -0.5245  0.6151  0.6042
 8937SOL    HW138273   2.971   2.822   4.854  0.8227  1.5002 -0.3603
 8937SOL    HW238274   3.035   2.729   4.947 -0.1875 -1.3201  0.3157
 8938SOL     OW38275   1.352   0.551   4.896 -0.4043 -0.5408  0.3101
 8938SOL    HW138276   1.306   0.634   4.909  1.9163  0.2793  3.3027
 8938SOL    HW238277   1.289   0.505   4.840 -2.0104 -2.2543  3.5294
 8939SOL     OW38278   2.664   4.594   0.517 -0.1939  0.3320 -0.0974
 8939SOL    HW138279   2.703   4.548   0.592 -1.0750  0.6042  0.5249
 8939SOL    HW238280   2.572   4.577   0.536 -0.7389  2.5770 -0.6904
 8940SOL     OW38281   2.404   1.341   0.499 -0.2339 -0.0844  0.4292
 8940SOL    HW138282   2.357   1.356   0.417 -2.3318  1.7440  1.9821
 8940SOL    HW238283   2.342   1.283   0.544 -2.7374  2.3097  0.0764
 8941SOL     OW38284   2.708   2.878   7.348 -0.3187  0.0364  0.0969
 8941SOL    HW138285   2.661   2.876   7.431  0.9620  0.0174  0.8132
 8941SOL    HW238286   2.698   2.969   7.319  0.9623  0.0143 -0.4253
 8942SOL     OW38287   1.256   2.856   7.117  0.3347 -0.7257 -0.8388
 8942SOL    HW138288   1.234   2.883   7.027  2.3432  3.7608  0.0244
 8942SOL    HW238289   1.334   2.908   7.137 -0.3182 -0.1650  0.2759
 8943SOL     OW38290   4.231   2.105  16.152  0.2213 -0.1388 -0.6279
 8943SOL    HW138291   4.237   2.043  16.224 -2.0517 -0.0747 -0.3697
 8943SOL    HW238292   4.143   2.142  16.161  0.7865  1.2775 -0.8386
 8944SOL     OW38293   4.174   2.333   3.320 -0.0057  0.0614  0.0797
 8944SOL    HW138294   4.087   2.369   3.336  0.2600 -0.7356  3.3242
 8944SOL    HW238295   4.194   2.265   3.384 -1.0575 -0.0366  0.3044
 8945SOL     OW38296   4.633   1.974   2.553  0.8768 -0.0658 -0.1769
 8945SOL    HW138297   4.668   1.948   2.638  1.4860  0.5753 -0.2362
 8945SOL    HW238298   4.713   2.014   2.518  0.6699 -0.7262 -1.4255
 8946SOL     OW38299   4.068   3.117   9.538  0.2357 -0.3812  0.0427
 8946SOL    HW138300   4.075   3.193   9.596  0.8088 -1.2290  1.0944
 8946SOL    HW238301   3.974   3.115   9.523  0.0130  1.6158  1.2583
 8947SOL     OW38302   3.184   3.296   1.610 -0.0879 -0.5354  0.3815
 8947SOL    HW138303   3.104   3.307   1.558  0.2062 -2.1182 -0.3778
 8947SOL    HW238304   3.246   3.364   1.584 -1.3857  0.1788 -0.8331
 8948SOL     OW38305   0.206   1.595   6.645 -0.3653  0.3749  0.1438
 8948SOL    HW138306   0.154   1.568   6.720 -1.1998 -0.9348 -0.9022
 8948SOL    HW238307   0.145   1.593   6.572  2.8587  1.1553 -2.5831
 8949SOL     OW38308   0.727   2.139   6.210 -0.3567  0.5631 -0.2078
 8949SOL    HW138309   0.775   2.165   6.288  0.7140 -0.3237 -0.5690
 8949SOL    HW238310   0.651   2.198   6.207 -0.2925  0.5836 -1.4243
 8950SOL     OW38311   2.020   0.093   3.758  0.6886 -0.5077  0.3587
 8950SOL    HW138312   2.100   0.050   3.789  0.2282 -1.2279  0.5439
 8950SOL    HW238313   1.955   0.053   3.816  0.7669  1.9367  2.1595
 8951SOL     OW38314   2.959   4.066   6.713 -0.5854  0.5127 -0.1012
 8951SOL    HW138315   2.899   4.056   6.639 -0.5126 -0.8274  0.0267
 8951SOL    HW238316   3.022   4.131   6.681 -1.5177  1.1533 -0.6270
 8952SOL     OW38317   2.411   0.733   0.365 -0.2690 -0.1341  0.6569
 8952SOL    HW138318   2.506   0.727   0.367 -0.1884  0.9276  0.0476
 8952SOL    HW238319   2.398   0.799   0.297  0.0668  0.9387  1.6452
 8953SOL     OW38320   4.615   2.530   6.088  0.0478 -0.8294  0.4206
 8953SOL    HW138321   4.653   2.521   6.175  0.7447 -0.4689  0.1595
 8953SOL    HW238322   4.687   2.575   6.043  0.9730 -3.8193 -1.1019
 8954SOL     OW38323   4.153   0.763   8.058  0.4491 -0.1324 -0.3638
 8954SOL    HW138324   4.195   0.678   8.067  1.2394  0.3687  0.8303
 8954SOL    HW238325   4.213   0.790   7.988 -0.4977  1.0621 -0.7223
 8955SOL     OW38326   3.287   1.068  15.614 -0.2424 -0.1716 -0.2763
 8955SOL    HW138327   3.344   0.991  15.613 -0.7921 -0.5586 -2.3001
 8955SOL    HW238328   3.342   1.138  15.578 -0.0397  0.5788  1.5022
 8956SOL     OW38329   3.140   2.455  13.273 -0.7420 -0.0809 -0.5808
 8956SOL    HW138330   3.203   2.440  13.203  0.0040  1.4963 -0.2592
 8956SOL    HW238331   3.071   2.402  13.234 -0.6775 -2.1117  2.0912
 8957SOL     OW38332   3.255   3.734  11.453 -0.6179 -0.2483  0.0649
 8957SOL    HW138333   3.186   3.721  11.387  0.0502  0.2142 -0.7232
 8957SOL    HW238334   3.329   3.720  11.394 -1.3417 -0.8592 -0.7081
 8958SOL     OW38335   3.822   0.073   2.605 -0.0693  0.0256  0.6272
 8958SOL    HW138336   3.784   0.144   2.553  0.5332 -0.4703 -0.5021
 8958SOL    HW238337   3.872   0.035   2.533 -0.1025  0.6865  0.2627
 8959SOL     OW38338   3.392   0.745   7.366  0.2645 -0.6307  0.0659
 8959SOL    HW138339   3.454   0.771   7.434  0.2592  1.5806 -0.7909
 8959SOL    HW238340   3.313   0.788   7.400  1.1842 -0.7686  2.3514
 8960SOL     OW38341   4.667   3.075   4.538  0.3536  0.0683 -0.4896
 8960SOL    HW138342   4.679   3.165   4.506 -0.6151 -0.2004 -1.5860
 8960SOL    HW238343   0.014   3.025   4.502  0.8605 -0.3647  1.1414
 8961SOL     OW38344   4.271   3.540   5.540  0.5342 -0.8362 -0.1693
 8961SOL    HW138345   4.325   3.608   5.580 -0.6298  1.6805 -2.8851
 8961SOL    HW238346   4.218   3.535   5.620 -3.3766 -1.1961 -2.8082
 8962SOL     OW38347   2.489   1.679   3.090  0.5104  0.0167  0.3504
 8962SOL    HW138348   2.421   1.724   3.141  0.5129 -0.3491  0.6808
 8962SOL    HW238349   2.557   1.663   3.156  0.3397 -1.8741  0.0548
 8963SOL     OW38350   1.641   2.051  15.834 -0.4237  0.1022 -0.3137
 8963SOL    HW138351   1.732   2.044  15.804  0.1049 -0.1021  1.3367
 8963SOL    HW238352   1.639   1.989  15.907 -2.6874  0.5220 -0.0100
 8964SOL     OW38353   3.533   1.457   4.617  0.5671 -0.1703  0.4325
 8964SOL    HW138354   3.460   1.506   4.654 -1.2572 -0.5502 -2.6973
 8964SOL    HW238355   3.590   1.523   4.579 -0.1833  0.2171 -0.0135
 8965SOL     OW38356   1.717   1.974   7.085  0.8305 -0.0822  0.2480
 8965SOL    HW138357   1.675   1.924   7.155  1.7986 -0.3944  0.6073
 8965SOL    HW238358   1.685   2.063   7.097  0.9039 -0.2131  1.4738
 8966SOL     OW38359   0.449   0.519   3.221  0.0597 -0.1776  0.8809
 8966SOL    HW138360   0.486   0.435   3.193  0.0525 -0.3970  1.5337
 8966SOL    HW238361   0.473   0.569   3.143  2.8570 -1.2778  1.0190
 8967SOL     OW38362   2.338   2.031   4.077  0.1159 -0.3971 -0.3575
 8967SOL    HW138363   2.315   1.943   4.049  2.5440 -0.8671 -0.8582
 8967SOL    HW238364   2.268   2.052   4.139  1.1817 -1.9889  1.3589
 8968SOL     OW38365   0.219   1.272   5.254  0.3301  0.4286 -0.2518
 8968SOL    HW138366   0.200   1.362   5.228  0.4292  0.0569 -1.6141
 8968SOL    HW238367   0.172   1.233   5.181 -0.1785 -0.7853  0.7202
 8969SOL     OW38368   0.226   3.783  17.347 -0.4245  0.4185 -0.1034
 8969SOL    HW138369   0.201   3.707  17.398  1.4766 -0.0787  0.0843
 8969SOL    HW238370   0.153   3.802  17.288 -0.7703 -0.4191  0.0639
 8970SOL     OW38371   2.506   3.231   9.749  0.1127  0.0851 -0.2764
 8970SOL    HW138372   2.570   3.300   9.762  1.9295 -1.8678  1.1223
 8970SOL    HW238373   2.437   3.271   9.697 -1.7068 -0.8647  1.3849
 8971SOL     OW38374   1.547   1.060   3.042 -0.4207 -0.5204 -0.1517
 8971SOL    HW138375   1.537   1.067   2.947 -0.3113 -1.5232 -0.2348
 8971SOL    HW238376   1.640   1.077   3.057 -0.1653 -1.5843 -0.5920
 8972SOL     OW38377   1.476   1.483   4.603 -0.3222 -0.0214  0.1935
 8972SOL    HW138378   1.413   1.522   4.665  1.1109 -0.1110  1.6805
 8972SOL    HW238379   1.444   1.505   4.516  1.2820  2.3892  0.2004
 8973SOL     OW38380   2.774   1.289  15.272  0.1146  0.9950 -0.0105
 8973SOL    HW138381   2.846   1.296  15.210  0.3089  1.8891  0.3184
 8973SOL    HW238382   2.748   1.381  15.273  0.9216  1.2329 -1.0945
 8974SOL     OW38383   2.105   0.977   0.276 -0.7315  0.0255 -0.2911
 8974SOL    HW138384   2.094   1.064   0.238  1.9492  2.0518  3.6364
 8974SOL    HW238385   2.051   0.984   0.355  0.6257  2.3477  0.4087
 8975SOL     OW38386   1.454   1.339   6.738  0.4119  0.1367 -0.2629
 8975SOL    HW138387   1.423   1.276   6.673  0.4457 -0.0233 -0.1268
 8975SOL    HW238388   1.549   1.339   6.729  0.3007  0.3196 -1.3445
 8976SOL     OW38389   2.828   4.083  16.288  0.0333  0.3157  0.2899
 8976SOL    HW138390   2.787   4.154  16.238  2.3156  0.6811 -1.0627
 8976SOL    HW238391   2.916   4.088  16.250  0.0357 -1.1181  0.1132
 8977SOL     OW38392   2.892   3.457   4.026 -0.0125 -0.3202  0.8096
 8977SOL    HW138393   2.941   3.434   4.105 -0.9025  1.3871  1.8534
 8977SOL    HW238394   2.947   3.418   3.957 -0.2683  1.1812 -0.2582
 8978SOL     OW38395   0.538   0.920   3.362 -0.3318 -0.0779  0.3904
 8978SOL    HW138396   0.480   0.853   3.326  1.1792 -0.8796 -0.5930
 8978SOL    HW238397   0.487   0.988   3.406 -0.7053  0.0194 -0.1914
 8979SOL     OW38398   3.475   4.671   7.028  0.0182 -0.3183  0.2496
 8979SOL    HW138399   3.457   0.038   7.030 -3.3599 -1.0341  2.1991
 8979SOL    HW238400   3.389   4.644   6.996 -1.1090  2.8575  0.5241
 8980SOL     OW38401   3.186   2.066  16.645 -0.4617  0.0249  0.3433
 8980SOL    HW138402   3.235   2.082  16.564  1.0594 -3.7029  0.5118
 8980SOL    HW238403   3.225   1.979  16.661  1.5783  1.3135  2.4420
 8981SOL     OW38404   0.625   0.397   2.421  0.1583  0.5611  0.5687
 8981SOL    HW138405   0.613   0.491   2.413 -0.8222  0.4313  0.4301
 8981SOL    HW238406   0.693   0.392   2.488 -0.2481 -2.2578  0.8087
 8982SOL     OW38407   1.678   0.219   9.929 -0.3694 -0.0657  0.2304
 8982SOL    HW138408   1.660   0.177   9.845 -1.7350  0.8940  0.0292
 8982SOL    HW238409   1.590   0.243   9.959 -0.8541 -1.6599  0.0998
 8983SOL     OW38410   4.415   1.896  12.499  0.3064 -0.6073 -0.2032
 8983SOL    HW138411   4.447   1.834  12.564 -2.2021  1.0407  2.5785
 8983SOL    HW238412   4.439   1.983  12.530 -0.1494 -0.4524 -0.2804
 8984SOL     OW38413   1.081   4.249   0.120  0.0987 -0.5472  0.0316
 8984SOL    HW138414   1.160   4.219   0.075 -0.5681 -0.8726 -0.9261
 8984SOL    HW238415   1.031   4.296   0.053 -0.4901 -0.1006  0.7874
 8985SOL     OW38416   3.414   2.056   6.498  0.0033  0.1418  0.4972
 8985SOL    HW138417   3.420   2.143   6.458  1.2999  0.1942  0.7974
 8985SOL    HW238418   3.504   2.055   6.530 -0.1381  0.3199  0.9017
 8986SOL     OW38419   2.649   0.204   8.035 -0.1857 -0.9110 -0.9226
 8986SOL    HW138420   2.723   0.261   8.010  0.8227 -1.1117  1.6243
 8986SOL    HW238421   2.588   0.257   8.085  0.6501 -0.2063 -0.6465
 8987SOL     OW38422   3.919   0.806  16.995  0.0160 -0.3272  0.7977
 8987SOL    HW138423   3.831   0.776  17.018  0.9317 -1.9297  2.2480
 8987SOL    HW238424   3.958   0.823  17.082  1.7596  0.3829 -0.1183
 8988SOL     OW38425   2.781   0.931   2.067  0.2781  0.0948  0.3532
 8988SOL    HW138426   2.806   0.841   2.087  2.3842  0.8982  1.2818
 8988SOL    HW238427   2.854   0.955   2.010 -0.8845 -0.0696 -1.1874
 8989SOL     OW38428   1.773   0.357   5.259  0.1725 -0.0339 -0.1701
 8989SOL    HW138429   1.791   0.424   5.192  1.1298 -1.8021 -1.6647
 8989SOL    HW238430   1.795   0.400   5.342  3.0397 -1.2455 -0.2919
 8990SOL     OW38431   1.231   2.464   9.496 -0.1174  0.3821  0.0962
 8990SOL    HW138432   1.233   2.450   9.402 -1.5725 -1.6349  0.3563
 8990SOL    HW238433   1.151   2.416   9.516  1.3404 -1.6082  1.2317
 8991SOL     OW38434   3.200   3.502   8.495 -0.3570  0.2167 -0.1314
 8991SOL    HW138435   3.272   3.559   8.521 -2.2497  2.4436  0.2485
 8991SOL    HW238436   3.174   3.475   8.583  0.3109 -0.5430 -0.1658
 8992SOL     OW38437   1.732   0.290   5.642 -0.2270 -0.2910  0.3585
 8992SOL    HW138438   1.804   0.227   5.635 -0.6659 -0.9351  1.6428
 8992SOL    HW238439   1.781   0.373   5.640 -0.9317  0.0893 -1.0585
 8993SOL     OW38440   4.033   1.452   5.496 -0.7711  0.3794 -0.1608
 8993SOL    HW138441   3.987   1.505   5.431  1.2732  0.4148 -1.5886
 8993SOL    HW238442   3.959   1.442   5.557  0.0497 -2.2697  0.3961
 8994SOL     OW38443   1.220   1.640  16.524 -0.0734  0.3199  0.6982
 8994SOL    HW138444   1.214   1.646  16.619  0.1605 -2.4357  0.8775
 8994SOL    HW238445   1.310   1.638  16.490 -0.0359 -0.3533  0.8346
 8995SOL     OW38446   3.246   0.725   4.289 -0.5332  0.5302  0.8040
 8995SOL    HW138447   3.214   0.765   4.370 -0.7607 -0.0690  1.0090
 8995SOL    HW238448   3.320   0.673   4.320 -0.5141 -0.1684 -0.4297
 8996SOL     OW38449   0.902   4.153   6.670 -0.1690  0.0916  0.1291
 8996SOL    HW138450   0.982   4.120   6.712 -0.9316 -0.3179  1.2602
 8996SOL    HW238451   0.937   4.214   6.605  1.5521  0.7675  1.6587
 8997SOL     OW38452   1.937   2.675   9.578 -0.1284  0.0139 -0.3728
 8997SOL    HW138453   1.994   2.747   9.553  1.9271 -1.3138  0.5607
 8997SOL    HW238454   1.973   2.651   9.663 -0.7327 -2.7599 -0.8860
 8998SOL     OW38455   0.928   2.554  17.341  0.3041 -0.3759 -0.2167
 8998SOL    HW138456   0.846   2.505  17.336 -1.7134  3.1334 -1.1956
 8998SOL    HW238457   0.948   2.562  17.248 -1.4801 -0.8358 -0.6485
 8999SOL     OW38458   1.726   4.126   5.814  0.6880 -0.6256 -0.0783
 8999SOL    HW138459   1.664   4.154   5.881  0.2056 -1.8978  0.0222
 8999SOL    HW238460   1.810   4.133   5.858  0.6011  2.1318 -0.3484
 9000SOL     OW38461   1.391   0.992  14.435  0.0745 -0.3297 -0.8028
 9000SOL    HW138462   1.390   1.005  14.530 -1.1647  1.4577 -1.0534
 9000SOL    HW238463   1.388   0.898  14.422  0.9541 -0.6811  1.4739
 9001SOL     OW38464   0.165   1.399  17.301  0.2992  0.1458  0.1233
 9001SOL    HW138465   0.131   1.374  17.387 -3.7551 -2.3001 -2.1705
 9001SOL    HW238466   0.169   1.319  17.249 -0.7787 -0.2511  0.6603
 9002SOL     OW38467   0.205   2.978   4.791  0.1317 -0.2116  0.8467
 9002SOL    HW138468   0.289   2.962   4.750 -0.7161 -3.6239  0.4911
 9002SOL    HW238469   0.227   3.049   4.852  0.4841 -1.5546  2.2785
 9003SOL     OW38470   4.092   3.825   5.633  0.3072  0.0731  0.4205
 9003SOL    HW138471   4.050   3.742   5.613  0.9460  0.0938 -1.0542
 9003SOL    HW238472   4.148   3.815   5.710 -0.3488 -3.2319  0.4652
 9004SOL     OW38473   2.314   3.879   8.299  0.1850 -0.6824  0.3761
 9004SOL    HW138474   2.296   3.973   8.304 -1.1504 -0.8338 -1.9302
 9004SOL    HW238475   2.232   3.843   8.332 -0.6359  0.5111 -0.3738
 9005SOL     OW38476   0.851   1.434   3.580 -0.5921  0.1011  0.0057
 9005SOL    HW138477   0.822   1.363   3.637  0.3468 -1.7667 -1.8622
 9005SOL    HW238478   0.775   1.493   3.571  0.1228  1.1330  0.6677
 9006SOL     OW38479   0.160   2.019  11.898  0.3106  0.1141 -0.6255
 9006SOL    HW138480   0.087   2.073  11.868 -2.3439 -2.1119  1.8726
 9006SOL    HW238481   0.235   2.079  11.894 -0.9096  1.7325  1.0505
 9007SOL     OW38482   3.465   4.196   6.938 -0.0277  0.3905 -0.0217
 9007SOL    HW138483   3.427   4.189   7.025 -0.9881 -0.1212 -0.4888
 9007SOL    HW238484   3.396   4.163   6.880 -0.3474 -0.8300  1.0422
 9008SOL     OW38485   3.412   1.653   4.165  0.4918 -0.2185 -0.2000
 9008SOL    HW138486   3.505   1.671   4.149  0.2094  2.2845  0.9469
 9008SOL    HW238487   3.371   1.693   4.088 -0.5341  2.9479  2.0156
 9009SOL     OW38488   2.224   2.065   5.706 -0.1633  0.4773  0.6382
 9009SOL    HW138489   2.168   2.024   5.772  0.0257  0.1997  0.6261
 9009SOL    HW238490   2.313   2.050   5.739  0.0326  1.2481  0.4669
 9010SOL     OW38491   2.651   1.904  10.452 -0.2948 -0.2751 -0.6458
 9010SOL    HW138492   2.679   1.819  10.486  2.0718  0.4698 -0.6838
 9010SOL    HW238493   2.631   1.949  10.534  2.0271 -0.2070 -0.1079
 9011SOL     OW38494   0.555   0.539   9.444 -0.2072 -0.3065 -0.4734
 9011SOL    HW138495   0.466   0.551   9.476 -0.1406  1.1715 -0.8682
 9011SOL    HW238496   0.590   0.517   9.530  0.4262 -1.2248 -0.9585
 9012SOL     OW38497   2.160   1.600   7.570 -0.2080  0.2955 -0.6027
 9012SOL    HW138498   2.207   1.633   7.493 -0.4830 -1.5219 -1.5454
 9012SOL    HW238499   2.179   1.672   7.630 -1.5839  0.1141  0.0375
 9013SOL     OW38500   1.858   2.113   5.584 -0.7689 -0.2166 -0.7394
 9013SOL    HW138501   1.809   2.194   5.568 -1.0727 -0.1888  0.3398
 9013SOL    HW238502   1.841   2.064   5.503 -2.3064 -0.2297 -0.4169
 9014SOL     OW38503   0.658   4.466   5.349  0.3559  0.1385 -0.7168
 9014SOL    HW138504   0.710   4.386   5.347  0.7295  0.3383  1.6709
 9014SOL    HW238505   0.726   4.532   5.365 -0.7447  1.4138 -1.3239
 9015SOL     OW38506   0.564   2.971   6.679  0.2930  0.0098  0.9675
 9015SOL    HW138507   0.619   3.044   6.707 -0.6145  0.0333  2.7008
 9015SOL    HW238508   0.550   2.912   6.754  0.4114  1.1341  1.8731
 9016SOL     OW38509   0.640   1.435  16.274  0.6016 -0.0246  0.4620
 9016SOL    HW138510   0.714   1.432  16.335  1.8568 -1.5211 -1.1366
 9016SOL    HW238511   0.665   1.366  16.213 -1.7760  0.6415 -1.2637
 9017SOL     OW38512   2.702   0.890  13.858 -0.2613 -0.7983  0.7474
 9017SOL    HW138513   2.793   0.915  13.879  1.0533 -2.2140 -3.2795
 9017SOL    HW238514   2.655   0.970  13.882  1.2997 -0.3083  2.1804
 9018SOL     OW38515   4.288   1.666   2.068 -0.1919 -0.0045  0.0644
 9018SOL    HW138516   4.316   1.739   2.013 -0.2870  1.2174  1.6618
 9018SOL    HW238517   4.233   1.722   2.123 -2.7792 -0.4593 -2.0223
 9019SOL     OW38518   1.973   2.178   6.542 -0.3952  0.0672  0.1791
 9019SOL    HW138519   1.964   2.103   6.600  2.2632 -1.3837 -1.2825
 9019SOL    HW238520   2.008   2.251   6.593  1.3277 -0.4186 -0.3194
 9020SOL     OW38521   1.485   0.404   8.106  0.2104  0.5571  0.5518
 9020SOL    HW138522   1.492   0.390   8.012  1.9703  2.7738  0.3408
 9020SOL    HW238523   1.394   0.385   8.126 -0.0665 -1.1382 -2.4144
 9021SOL     OW38524   1.818   4.162   6.653  0.0981  0.8182 -0.3979
 9021SOL    HW138525   1.729   4.166   6.689 -0.1324 -1.9049 -0.6822
 9021SOL    HW238526   1.875   4.193   6.722  0.7491  1.6142 -1.2926
 9022SOL     OW38527   1.290   4.374   7.654  0.1600  0.0790 -0.2535
 9022SOL    HW138528   1.204   4.353   7.691  0.8353 -0.6014  0.9351
 9022SOL    HW238529   1.331   4.411   7.732 -1.1474  0.4921  0.2317
 9023SOL     OW38530   2.195   3.217   5.355 -0.2560  0.3290 -0.3195
 9023SOL    HW138531   2.153   3.176   5.279 -1.4590  0.5822  0.2118
 9023SOL    HW238532   2.287   3.206   5.333  0.0161  0.4999  0.7239
 9024SOL     OW38533   3.114   4.657   3.416 -0.2955  0.1797  0.6230
 9024SOL    HW138534   3.082   4.601   3.487 -0.7043  0.8916  1.0008
 9024SOL    HW238535   3.035   4.660   3.361 -0.6991  1.8362  1.2814
 9025SOL     OW38536   3.631   0.863   4.376  0.3725 -0.3797  0.1219
 9025SOL    HW138537   3.620   0.857   4.282 -1.0397  1.4379  0.1650
 9025SOL    HW238538   3.606   0.956   4.379 -0.4707 -0.5961 -0.0211
 9026SOL     OW38539   2.172   1.856   8.397 -0.5175  0.9772 -0.2105
 9026SOL    HW138540   2.111   1.840   8.469  0.1286 -0.1551  0.0734
 9026SOL    HW238541   2.204   1.945   8.414 -2.0675  1.4930  0.0074
 9027SOL     OW38542   4.278   2.542   6.329  0.6336  0.0517 -0.2109
 9027SOL    HW138543   4.305   2.450   6.328 -1.8478 -0.6814 -0.6076
 9027SOL    HW238544   4.307   2.556   6.239 -0.6073  0.5535 -0.5352
 9028SOL     OW38545   1.871   2.736   2.853  0.0357  0.3063  0.1600
 9028SOL    HW138546   1.948   2.711   2.803  0.7512  1.8527  0.5192
 9028SOL    HW238547   1.922   2.723   2.933  0.5747  0.5681 -0.1433
 9029SOL     OW38548   0.756   0.103  10.792 -0.0756 -0.2684  0.1499
 9029SOL    HW138549   0.714   0.034  10.740 -1.1619  0.3202  0.2640
 9029SOL    HW238550   0.709   0.182  10.764 -1.4001 -0.7515  1.0319
 9030SOL     OW38551   2.724   1.649  10.506  0.2987 -0.6350 -0.0971
 9030SOL    HW138552   2.720   1.615  10.596 -1.0940 -1.0500 -0.3132
 9030SOL    HW238553   2.793   1.596  10.465  0.0066 -0.6465 -0.5652
 9031SOL     OW38554   2.441   2.469   3.171  0.0711 -0.1345  0.1124
 9031SOL    HW138555   2.508   2.481   3.104  0.3040  0.1771  0.4013
 9031SOL    HW238556   2.372   2.440   3.111 -1.8641  1.5840  1.4919
 9032SOL     OW38557   0.336   2.345   8.168  0.4510  0.3834 -0.5277
 9032SOL    HW138558   0.254   2.355   8.119 -0.4707 -0.7883  0.7475
 9032SOL    HW238559   0.401   2.377   8.106  0.7496  0.5260 -0.1396
 9033SOL     OW38560   2.599   4.533   7.393  0.2747  0.4286 -0.1448
 9033SOL    HW138561   2.579   4.558   7.483 -0.5853  0.0357 -0.2223
 9033SOL    HW238562   2.688   4.559   7.370  0.6529 -0.4603  0.2941
 9034SOL     OW38563   4.535   0.919   4.328  0.1126  0.6634  0.2791
 9034SOL    HW138564   4.441   0.914   4.343 -0.0553 -0.7680 -1.2614
 9034SOL    HW238565   4.529   0.942   4.236  3.8442 -0.5401 -0.2602
 9035SOL     OW38566   0.190   4.687   6.165 -0.2268 -0.2176 -0.4333
 9035SOL    HW138567   0.231   0.027   6.221 -0.9365 -0.2029  0.0612
 9035SOL    HW238568   0.268   4.638   6.137  0.2277 -0.5913  1.4667
 9036SOL     OW38569   4.578   1.704   4.781 -0.2845  0.2779 -0.1015
 9036SOL    HW138570   4.622   1.665   4.857  1.2661  0.8426 -0.6999
 9036SOL    HW238571   4.511   1.754   4.828 -1.2591 -0.0271 -1.1796
 9037SOL     OW38572   0.202   2.862  11.645  0.0694  0.0684  0.2304
 9037SOL    HW138573   0.109   2.847  11.663 -0.2594 -0.2053 -1.7370
 9037SOL    HW238574   0.198   2.884  11.552 -4.4397  3.6810  1.2379
 9038SOL     OW38575   1.035   3.241   7.686 -0.2956  1.0262 -0.1598
 9038SOL    HW138576   1.012   3.303   7.755 -0.2882  0.8732 -0.0207
 9038SOL    HW238577   0.971   3.170   7.689 -0.8432  1.5073 -0.6002
 9039SOL     OW38578   2.130   3.393   5.541 -0.6096 -0.5786 -0.0460
 9039SOL    HW138579   2.144   3.339   5.463  2.9606 -1.0708  0.9444
 9039SOL    HW238580   2.211   3.435   5.568  0.0254  0.0026 -2.7989
 9040SOL     OW38581   4.191   2.391  13.574 -0.0555  0.0524  0.3619
 9040SOL    HW138582   4.245   2.427  13.504 -0.4601 -0.4533 -0.2193
 9040SOL    HW238583   4.255   2.335  13.619 -0.5953 -2.0574 -1.4756
 9041SOL     OW38584   3.264   4.415   7.607 -0.0272 -0.3211 -0.0487
 9041SOL    HW138585   3.203   4.371   7.548  1.2960 -0.4727 -1.2990
 9041SOL    HW238586   3.216   4.425   7.689 -0.6314 -1.8421 -0.2145
 9042SOL     OW38587   0.851   1.410   5.775  0.6088 -0.4135  0.4756
 9042SOL    HW138588   0.818   1.488   5.731  1.2739 -1.1785 -1.3664
 9042SOL    HW238589   0.910   1.458   5.834  0.2851 -0.0014  0.4642
 9043SOL     OW38590   0.128   3.461   6.376  0.1841  0.0030 -0.1513
 9043SOL    HW138591   0.182   3.382   6.374  0.3435  0.1341 -1.1654
 9043SOL    HW238592   0.169   3.522   6.315  0.2044  1.1164  0.9698
 9044SOL     OW38593   4.399   3.693  13.369 -0.2350  0.2189 -0.0318
 9044SOL    HW138594   4.361   3.605  13.380 -1.2739  0.4956 -1.2839
 9044SOL    HW238595   4.313   3.734  13.358 -0.9612 -1.6534 -1.4776
 9045SOL     OW38596   1.863   3.776   1.673  0.1080  0.7312  0.4245
 9045SOL    HW138597   1.767   3.779   1.676  0.0788  0.8240 -0.5470
 9045SOL    HW238598   1.883   3.866   1.650 -0.6301  1.3372  2.1452
 9046SOL     OW38599   1.056   1.702   8.451  0.4389 -0.3370 -0.6977
 9046SOL    HW138600   1.012   1.755   8.517  2.1165 -0.7158  0.7285
 9046SOL    HW238601   1.034   1.739   8.366  2.4484 -1.1031 -1.5369
 9047SOL     OW38602   3.632   2.296   3.395  0.1737 -0.4205  0.1581
 9047SOL    HW138603   3.648   2.205   3.422  0.7481 -0.1946  0.5771
 9047SOL    HW238604   3.674   2.343   3.467 -0.4773 -0.2085  0.4014
 9048SOL     OW38605   4.290   2.660   8.435 -0.6851  0.1745 -0.3563
 9048SOL    HW138606   4.281   2.754   8.449  2.1125  0.0348  2.4720
 9048SOL    HW238607   4.299   2.656   8.340  2.1575 -3.2768  0.0445
 9049SOL     OW38608   1.905   3.682   1.172  0.5476  0.5166  0.1941
 9049SOL    HW138609   1.925   3.749   1.237  0.6644  0.7044 -0.0388
 9049SOL    HW238610   1.935   3.599   1.210  0.0734  0.4057  0.3284
 9050SOL     OW38611   4.670   1.143  12.642  0.0838 -0.3296  0.2458
 9050SOL    HW138612   0.000   1.101  12.578 -2.0431  0.0415 -1.8985
 9050SOL    HW238613   4.622   1.063  12.663  0.9788 -0.6589  1.0446
 9051SOL     OW38614   1.459   2.390   3.291  0.1205 -0.4544  0.2396
 9051SOL    HW138615   1.421   2.309   3.257  0.5882 -0.2184 -0.8228
 9051SOL    HW238616   1.389   2.425   3.348  0.1742 -1.3514  0.8542
 9052SOL     OW38617   2.502   3.825  14.957 -0.3811  0.3276 -0.1064
 9052SOL    HW138618   2.467   3.797  15.041  3.2172  0.4365  1.4379
 9052SOL    HW238619   2.449   3.772  14.897  0.2184 -0.8275  0.3992
 9053SOL     OW38620   0.656   2.784   8.478  0.1054  0.2076  0.2128
 9053SOL    HW138621   0.673   2.794   8.572 -1.1920 -0.0576  0.4748
 9053SOL    HW238622   0.691   2.867   8.446 -0.1462  0.3564  0.3181
 9054SOL     OW38623   1.946   0.967  11.372 -0.2960 -0.1441  0.2202
 9054SOL    HW138624   1.998   0.913  11.430 -0.3901  1.7914  2.1031
 9054SOL    HW238625   1.920   1.041  11.426 -1.2918 -0.8347  0.6738
 9055SOL     OW38626   1.168   1.207   4.297  0.0446 -1.2264 -0.1585
 9055SOL    HW138627   1.192   1.209   4.390 -1.1786 -0.1414  0.1436
 9055SOL    HW238628   1.235   1.267   4.264 -2.5665  1.8097  0.1239
 9056SOL     OW38629   0.117   2.038   7.788  0.3987 -0.1973  0.0362
 9056SOL    HW138630   0.059   1.965   7.811 -0.3194  0.0303 -1.0639
 9056SOL    HW238631   0.129   2.016   7.695  2.3304 -0.2662  0.3054
 9057SOL     OW38632   0.599   0.666   2.474  0.5525 -0.4795 -0.3443
 9057SOL    HW138633   0.684   0.690   2.511  0.4267  0.0362 -0.3965
 9057SOL    HW238634   0.574   0.755   2.448 -1.7794 -1.1538 -0.4161
 9058SOL     OW38635   4.724   1.508   1.430  0.0674 -0.9422 -0.0335
 9058SOL    HW138636   0.022   1.421   1.398  1.3553  0.1997 -2.1172
 9058SOL    HW238637   0.076   1.530   1.480  0.6109 -0.5579 -1.0651
 9059SOL     OW38638   1.739   0.473   3.044  0.1579 -0.4254  0.2021
 9059SOL    HW138639   1.668   0.412   3.021 -1.2789  1.4660 -0.3704
 9059SOL    HW238640   1.811   0.409   3.045  2.2368  1.9217  1.1779
 9060SOL     OW38641   2.033   0.544   0.803  0.4102 -0.4747  0.3165
 9060SOL    HW138642   1.947   0.583   0.786  0.3222  1.1573  4.3180
 9060SOL    HW238643   2.080   0.539   0.720  1.0246 -0.4637  0.6626
 9061SOL     OW38644   0.737   4.703   7.175  0.4927  0.0547 -0.1264
 9061SOL    HW138645   0.682   4.625   7.176  0.6747 -0.0728  0.0127
 9061SOL    HW238646   0.801   4.672   7.239 -2.7222  0.4322  3.2878
 9062SOL     OW38647   0.309   0.224   5.251  0.9000  0.5484 -0.6736
 9062SOL    HW138648   0.220   0.239   5.283  0.6749  1.5845 -1.8030
 9062SOL    HW238649   0.311   0.137   5.211 -0.0276 -0.4168  1.3806
 9063SOL     OW38650   2.247   4.665   0.964 -0.3734  0.4543  0.6690
 9063SOL    HW138651   2.168   4.682   1.014  0.9101 -0.4194  3.0021
 9063SOL    HW238652   2.301   0.014   0.986  0.8401  0.0226 -0.7596
 9064SOL     OW38653   2.062   1.228   3.582 -0.1103 -0.1540 -0.5393
 9064SOL    HW138654   2.145   1.249   3.624 -0.5187 -2.0553  1.2158
 9064SOL    HW238655   2.030   1.317   3.565 -0.6457 -0.4363 -1.0478
 9065SOL     OW38656   4.498   3.068   6.290 -0.8831 -0.2677  0.3600
 9065SOL    HW138657   4.562   3.004   6.258 -0.0187  2.1924 -2.8675
 9065SOL    HW238658   4.475   3.039   6.378  0.3713 -1.7296  0.1996
 9066SOL     OW38659   1.775   4.346   0.052  0.0150  0.4182 -0.5998
 9066SOL    HW138660   1.710   4.287   0.090 -0.3631  1.2377  0.0289
 9066SOL    HW238661   1.857   4.324   0.097 -1.0774 -2.0224  0.1422
 9067SOL     OW38662   1.492   3.000   3.959  0.0811 -0.5656 -0.0978
 9067SOL    HW138663   1.565   2.962   3.909 -0.9491 -1.7761 -0.6748
 9067SOL    HW238664   1.486   2.936   4.030  0.8485  1.3461  1.7205
 9068SOL     OW38665   3.675   1.524   8.308  0.4967 -0.0809  0.6058
 9068SOL    HW138666   3.760   1.481   8.319  0.9718  0.6220 -0.3239
 9068SOL    HW238667   3.634   1.459   8.251  0.4149  0.1934  0.3540
 9069SOL     OW38668   0.919   0.686  17.318 -0.4635 -0.5351 -0.2875
 9069SOL    HW138669   0.909   0.749  17.390 -0.4134 -0.7635 -0.0802
 9069SOL    HW238670   0.829   0.680  17.288 -0.3945 -0.4572 -0.5123
 9070SOL     OW38671   1.345   4.108   6.195 -0.2462  0.0606 -0.0207
 9070SOL    HW138672   1.301   4.048   6.135 -0.7078  0.3343  0.0445
 9070SOL    HW238673   1.275   4.116   6.260  0.5946  0.9904  0.7616
 9071SOL     OW38674   1.107   2.005  13.514 -0.1620 -0.3409  0.0121
 9071SOL    HW138675   1.198   2.035  13.516 -0.6654  1.1439  1.0213
 9071SOL    HW238676   1.111   1.974  13.604 -1.6458  0.0390  0.2092
 9072SOL     OW38677   4.351   2.330  11.715  0.3005  1.1130  0.0698
 9072SOL    HW138678   4.279   2.362  11.662  1.0986  0.6128 -1.3153
 9072SOL    HW238679   4.408   2.297  11.646 -2.3764 -0.0459 -1.5439
 9073SOL     OW38680   4.040   2.979  16.418 -0.0506 -0.6073  0.3040
 9073SOL    HW138681   3.959   2.981  16.469  0.1669 -0.9392  0.6647
 9073SOL    HW238682   4.017   2.914  16.352 -1.7581  0.6815 -0.3628
 9074SOL     OW38683   1.618   1.293   6.116 -0.0924 -0.0543  0.4082
 9074SOL    HW138684   1.546   1.245   6.158 -0.7508 -0.7431 -1.4638
 9074SOL    HW238685   1.691   1.261   6.169 -0.5149  2.0864  2.2657
 9075SOL     OW38686   3.189   0.642  12.003  0.5626  0.0505  0.5167
 9075SOL    HW138687   3.103   0.661  11.967 -0.5939 -0.6116  2.9264
 9075SOL    HW238688   3.166   0.642  12.096 -2.5067 -0.2452 -0.2578
 9076SOL     OW38689   4.345   0.281   9.686 -0.3858 -0.1733  0.0695
 9076SOL    HW138690   4.381   0.192   9.694  0.8543  0.1124 -2.3500
 9076SOL    HW238691   4.394   0.319   9.613  1.3832 -0.9479  0.8340
 9077SOL     OW38692   2.100   2.042   7.648  0.9008  0.1434  0.2592
 9077SOL    HW138693   2.053   2.119   7.616  1.7501  0.6746  0.2915
 9077SOL    HW238694   2.056   2.044   7.733  0.4735  1.1152  0.0168
 9078SOL     OW38695   3.371   3.655  14.819 -0.0421  0.3695 -0.2387
 9078SOL    HW138696   3.378   3.591  14.748  2.0073 -2.2647  2.2718
 9078SOL    HW238697   3.292   3.706  14.802 -2.7908 -3.9145 -0.3037
 9079SOL     OW38698   2.973   0.409   2.447  0.4130 -0.0438 -0.2560
 9079SOL    HW138699   2.946   0.422   2.538 -0.3276  4.3255 -1.0761
 9079SOL    HW238700   2.897   0.420   2.389 -0.4918  1.5958  1.2074
 9080SOL     OW38701   3.892   2.440   3.388  0.0194  0.4686 -0.3855
 9080SOL    HW138702   3.860   2.430   3.478 -2.3606 -1.6210 -1.4643
 9080SOL    HW238703   3.909   2.533   3.375  1.1798  0.4632  1.0194
 9081SOL     OW38704   1.894   1.725   7.679  0.2632  0.2274  0.1465
 9081SOL    HW138705   1.937   1.804   7.646  2.1327 -0.7359  0.3022
 9081SOL    HW238706   1.806   1.762   7.687  0.5313  0.9897 -0.3804
 9082SOL     OW38707   1.482   4.002   3.688 -0.2765  0.0514  0.3146
 9082SOL    HW138708   1.421   3.945   3.734  0.8211  0.3147  2.0571
 9082SOL    HW238709   1.555   4.001   3.749 -0.2903 -2.8842  0.2771
 9083SOL     OW38710   4.115   3.855   4.191  0.2096 -0.3059 -0.3238
 9083SOL    HW138711   4.075   3.869   4.277  0.8225 -0.8424  0.0482
 9083SOL    HW238712   4.185   3.920   4.199  0.7553 -0.8144 -1.0358
 9084SOL     OW38713   2.145   0.387   5.401  0.0831  0.0774  0.1372
 9084SOL    HW138714   2.123   0.439   5.323  1.0528 -1.7639 -1.3782
 9084SOL    HW238715   2.119   0.299   5.375 -0.6555  0.4567 -0.4021
 9085SOL     OW38716   2.171   1.599   5.508 -0.3689 -0.2389 -0.3163
 9085SOL    HW138717   2.184   1.534   5.438  3.8431  0.1851  0.0542
 9085SOL    HW238718   2.261   1.630   5.511  0.0884 -1.5366 -0.6318
 9086SOL     OW38719   3.184   4.128  11.320 -0.1387 -0.3700  0.0145
 9086SOL    HW138720   3.229   4.048  11.348 -0.2720 -0.3207  0.3753
 9086SOL    HW238721   3.200   4.138  11.226  0.8511 -1.0033  0.1180
 9087SOL     OW38722   3.915   3.570   5.600 -0.1818 -0.6114 -0.2908
 9087SOL    HW138723   3.838   3.557   5.656  1.1435 -0.3530  1.6058
 9087SOL    HW238724   3.980   3.537   5.662  0.4223 -0.1551 -0.6939
 9088SOL     OW38725   2.977   0.897   0.953  0.0134 -0.2073 -0.5514
 9088SOL    HW138726   3.059   0.867   0.993 -0.1117 -0.7953 -0.7293
 9088SOL    HW238727   2.928   0.939   1.023  0.6390 -1.0460  0.3953
 9089SOL     OW38728   0.271   3.687   7.289 -0.2283 -0.0114  0.9676
 9089SOL    HW138729   0.315   3.764   7.253  0.1875  0.2108  1.9487
 9089SOL    HW238730   0.198   3.682   7.227  1.1744  0.9723 -0.7681
 9090SOL     OW38731   2.830   3.866  13.026 -0.3724  0.3689 -0.4761
 9090SOL    HW138732   2.918   3.866  13.063  0.2543 -3.2235 -1.9683
 9090SOL    HW238733   2.862   3.908  12.947  1.8338  0.7363  0.6044
 9091SOL     OW38734   0.007   4.246   3.060 -0.0054 -0.3368  0.1828
 9091SOL    HW138735   4.670   4.302   3.015  1.0187  0.6149 -0.0778
 9091SOL    HW238736   0.079   4.305   3.080  0.3118 -0.3358 -0.9960
 9092SOL     OW38737   0.452   1.116   6.389 -0.0441  0.2466  0.0877
 9092SOL    HW138738   0.516   1.123   6.318  0.2775  3.1132  0.6456
 9092SOL    HW238739   0.402   1.044   6.351 -0.1967 -0.6445  1.9919
 9093SOL     OW38740   1.547   4.213  17.393 -0.1829  0.1572  0.2409
 9093SOL    HW138741   1.519   4.293  17.438  0.9222  0.0691  1.0822
 9093SOL    HW238742   1.552   4.161  17.473 -1.1492  0.2801  0.3723
 9094SOL     OW38743   1.489   0.134   9.726  0.3311 -0.0210 -0.3225
 9094SOL    HW138744   1.470   0.040   9.719 -1.0407  0.3472 -1.5460
 9094SOL    HW238745   1.453   0.149   9.813 -0.3018 -3.3817  0.0110
 9095SOL     OW38746   2.424   3.656   9.912 -0.0266 -0.1393  0.0597
 9095SOL    HW138747   2.516   3.680   9.911  0.0030 -0.2432  0.3163
 9095SOL    HW238748   2.403   3.669  10.005 -2.5011  2.2304 -0.7874
 9096SOL     OW38749   3.525   3.715  15.592  0.0906  0.3502 -0.2610
 9096SOL    HW138750   3.602   3.663  15.569  0.7187  1.5860 -0.9325
 9096SOL    HW238751   3.470   3.692  15.517  1.5797 -1.5738 -0.7562
 9097SOL     OW38752   3.601   4.540  16.571  0.4115 -1.4449 -0.0354
 9097SOL    HW138753   3.569   4.625  16.543  0.7712 -1.5469 -0.7637
 9097SOL    HW238754   3.529   4.477  16.569  0.0147 -0.9875 -0.1681
 9098SOL     OW38755   3.366   2.800   1.771 -0.0453 -0.3901 -0.0663
 9098SOL    HW138756   3.412   2.790   1.855 -0.4595 -0.1294  0.1913
 9098SOL    HW238757   3.366   2.896   1.771 -1.0604 -0.3900 -0.2823
 9099SOL     OW38758   0.326   4.068  15.733 -0.4609  0.7593  0.1091
 9099SOL    HW138759   0.307   3.975  15.745  1.2525  0.3443 -0.3491
 9099SOL    HW238760   0.241   4.112  15.742 -0.2024  0.9066  1.7393
 9100SOL     OW38761   0.421   2.348   7.221  0.0599 -0.7781  0.0721
 9100SOL    HW138762   0.407   2.441   7.204  0.1178 -0.2104  3.0957
 9100SOL    HW238763   0.377   2.328   7.304 -0.7845  2.0765  0.2958
 9101SOL     OW38764   0.885   0.029   8.870 -0.2163  0.4922  0.3549
 9101SOL    HW138765   0.857   0.055   8.958 -0.1743 -0.2422  0.5817
 9101SOL    HW238766   0.924   4.671   8.889  1.2032  1.5369  2.0842
 9102SOL     OW38767   2.457   0.787   5.872  0.0770 -0.0330  0.8195
 9102SOL    HW138768   2.383   0.726   5.865  0.0566  0.3979 -2.7158
 9102SOL    HW238769   2.503   0.775   5.790  2.0723 -0.7421  2.0469
 9103SOL     OW38770   1.192   2.130   4.778  0.3437 -0.3162  0.2456
 9103SOL    HW138771   1.190   2.223   4.800 -1.5850 -0.6990  1.6572
 9103SOL    HW238772   1.098   2.125   4.763  0.3196 -0.2700  0.3825
 9104SOL     OW38773   0.918   0.410   3.320  0.1658 -0.4304 -0.5739
 9104SOL    HW138774   0.968   0.329   3.307  0.2758 -0.3116 -0.8810
 9104SOL    HW238775   0.876   0.429   3.237 -1.9684 -0.0716  0.6078
 9105SOL     OW38776   0.246   3.132  11.487  0.3691  0.8206  0.2416
 9105SOL    HW138777   0.184   3.102  11.554 -2.2781 -1.2783 -3.1397
 9105SOL    HW238778   0.277   3.057  11.437 -0.7777 -0.5991  1.6135
 9106SOL     OW38779   1.741   4.216   7.864  0.2344 -0.3046  0.1423
 9106SOL    HW138780   1.713   4.128   7.836 -0.0937 -0.4412  0.8923
 9106SOL    HW238781   1.824   4.185   7.900  0.6032  1.4060  0.7265
 9107SOL     OW38782   1.933   3.142  17.651  0.1445 -0.0279  0.1580
 9107SOL    HW138783   1.979   3.076  17.704  0.6869 -0.1864 -0.5101
 9107SOL    HW238784   2.005   3.176  17.598 -1.7669  0.9108 -1.8267
 9108SOL     OW38785   1.803   3.972  14.470 -0.0489 -0.3076  0.4081
 9108SOL    HW138786   1.721   4.003  14.509 -0.3415 -0.8701  0.2290
 9108SOL    HW238787   1.781   4.022  14.391 -1.2146 -0.9238  0.3416
 9109SOL     OW38788   3.809   3.849  11.860 -0.0501  0.5930 -0.2692
 9109SOL    HW138789   3.795   3.939  11.889 -0.2749 -0.0506  1.6632
 9109SOL    HW238790   3.722   3.839  11.821  1.6376  1.2707 -4.1779
 9110SOL     OW38791   2.601   0.638  13.789 -0.5050 -0.4304  0.3646
 9110SOL    HW138792   2.673   0.613  13.847  0.7282  0.1232 -0.9323
 9110SOL    HW238793   2.603   0.732  13.805 -1.0580 -0.4223  0.3949
 9111SOL     OW38794   2.324   4.008   4.039 -0.2304 -0.2574  0.0688
 9111SOL    HW138795   2.239   3.975   4.071 -0.0079  0.2571  1.1963
 9111SOL    HW238796   2.332   4.094   4.078 -0.4450 -0.8675  1.4692
 9112SOL     OW38797   4.464   1.472  15.815  0.3984  0.0551 -0.2751
 9112SOL    HW138798   4.415   1.431  15.743  0.8507  3.0210 -2.2822
 9112SOL    HW238799   4.467   1.556  15.769 -0.3048 -0.1611 -0.7155
 9113SOL     OW38800   2.402   2.987  13.622  0.1004 -0.3674 -0.3112
 9113SOL    HW138801   2.447   2.997  13.538  0.0556  0.0024 -0.2905
 9113SOL    HW238802   2.318   3.020  13.591 -1.2602 -2.8011  0.7303
 9114SOL     OW38803   2.438   1.317   4.072 -0.2404 -0.4872 -0.2933
 9114SOL    HW138804   2.346   1.337   4.088 -0.4183 -1.1048 -0.5541
 9114SOL    HW238805   2.456   1.368   3.994  1.3268 -0.3946  0.1143
 9115SOL     OW38806   2.969   1.205  13.795 -0.1911 -0.4345 -0.0209
 9115SOL    HW138807   2.956   1.123  13.843 -0.5136 -0.0404  0.5621
 9115SOL    HW238808   2.980   1.258  13.874 -3.3498 -0.5441  0.4739
 9116SOL     OW38809   0.004   3.493   7.882  0.1481 -0.3644 -0.2191
 9116SOL    HW138810   0.068   3.423   7.898 -0.1702 -0.4215  0.7866
 9116SOL    HW238811   0.016   3.514   7.789  1.0525 -0.4230 -0.1203
 9117SOL     OW38812   4.106   1.518  15.782  0.2450  0.5422  0.6308
 9117SOL    HW138813   4.078   1.584  15.719  0.4404 -0.8683 -0.9411
 9117SOL    HW238814   4.172   1.565  15.832 -0.1143  1.1501  0.5280
 9118SOL     OW38815   3.856   4.041   5.125  0.5475  0.7500  0.2405
 9118SOL    HW138816   3.874   4.069   5.215 -0.0054  2.0324 -0.0551
 9118SOL    HW238817   3.945   4.025   5.093 -0.4714 -0.2353 -2.0063
 9119SOL     OW38818   4.081   4.384  12.569 -0.2674 -0.2733 -0.8052
 9119SOL    HW138819   4.175   4.398  12.558  0.0327 -2.7235 -1.4168
 9119SOL    HW238820   4.056   4.462  12.520  1.8063  0.3184 -0.9233
 9120SOL     OW38821   1.639   3.505   9.374 -0.0935  0.5725  0.5713
 9120SOL    HW138822   1.560   3.454   9.393  0.0090 -0.0190 -0.6119
 9120SOL    HW238823   1.657   3.546   9.459 -0.4920 -1.0890  1.4556
 9121SOL     OW38824   0.934   0.207  10.960 -0.2295  0.0615  0.0377
 9121SOL    HW138825   1.000   0.195  10.892  0.1547 -2.2238  0.8352
 9121SOL    HW238826   0.856   0.185  10.909 -0.6446 -2.7340  1.8703
 9122SOL     OW38827   4.331   1.634  10.580 -0.2904  0.0769  0.5735
 9122SOL    HW138828   4.393   1.576  10.535 -1.5731  1.5188 -3.0256
 9122SOL    HW238829   4.355   1.712  10.530 -0.8651  0.0255  0.2176
 9123SOL     OW38830   2.204   4.068   8.083  0.1399  0.3142 -0.0152
 9123SOL    HW138831   2.221   4.158   8.055 -0.7512  1.1325  2.1071
 9123SOL    HW238832   2.200   4.079   8.178 -0.0621  3.3425 -0.4000
 9124SOL     OW38833   4.196   4.396   8.241 -0.0932 -0.4239 -0.3024
 9124SOL    HW138834   4.276   4.350   8.268  0.0685 -0.9661 -1.7159
 9124SOL    HW238835   4.238   4.480   8.224  0.1132 -0.0634  1.9509
 9125SOL     OW38836   1.329   4.091  12.733 -0.0628 -0.1031  0.0562
 9125SOL    HW138837   1.288   4.046  12.659  0.2748 -1.1388  0.5099
 9125SOL    HW238838   1.272   4.167  12.738 -1.8185 -1.4802  0.6477
 9126SOL     OW38839   2.017   4.686  10.613  0.0899  0.1238 -0.0199
 9126SOL    HW138840   1.933   4.724  10.637  0.5750  0.9417  0.3986
 9126SOL    HW238841   2.058   0.034  10.569  0.6139 -0.4694 -0.5494
 9127SOL     OW38842   4.194   4.324   9.139 -0.4553 -0.0436 -0.0472
 9127SOL    HW138843   4.131   4.391   9.164 -1.5239 -0.6984 -1.0134
 9127SOL    HW238844   4.145   4.242   9.129  1.1707 -1.0819  0.3751
 9128SOL     OW38845   0.206   3.101   6.924 -0.0317  0.0067 -0.0414
 9128SOL    HW138846   0.194   3.012   6.892  2.2025 -0.8365  1.5222
 9128SOL    HW238847   0.140   3.146   6.871 -1.6365 -1.8678  0.4017
 9129SOL     OW38848   1.935   0.391   6.772  0.0469 -0.0784  0.3037
 9129SOL    HW138849   1.925   0.351   6.858 -1.3713 -0.5809 -0.0799
 9129SOL    HW238850   2.029   0.405   6.765 -0.0070 -0.0869 -0.4680
 9130SOL     OW38851   2.099   4.256   7.224 -0.4602 -0.1838 -0.2917
 9130SOL    HW138852   2.015   4.260   7.178 -0.5791 -1.5617 -0.1831
 9130SOL    HW238853   2.071   4.232   7.312 -1.7030 -0.9302 -0.9079
 9131SOL     OW38854   3.330   1.027   3.928  0.7267  0.3279 -0.5260
 9131SOL    HW138855   3.299   0.986   3.848  0.0628  2.4479 -1.3503
 9131SOL    HW238856   3.259   0.989   3.980  1.3279 -0.6266 -0.4100
 9132SOL     OW38857   4.480   0.918   6.641  0.4353 -0.4323 -0.1895
 9132SOL    HW138858   4.565   0.876   6.634  0.2878 -0.5163 -1.5491
 9132SOL    HW238859   4.474   0.926   6.736  2.0124 -0.9549 -0.0513
 9133SOL     OW38860   1.131   3.580   2.355  0.0188  0.1995 -0.0071
 9133SOL    HW138861   1.082   3.565   2.436  1.6109 -0.5075  0.8338
 9133SOL    HW238862   1.075   3.644   2.312 -0.9161 -1.7057 -1.6012
 9134SOL     OW38863   1.603   0.285   2.200 -0.4059 -0.3195  0.2506
 9134SOL    HW138864   1.621   0.251   2.288 -0.9887 -2.9543 -0.6613
 9134SOL    HW238865   1.526   0.233   2.180 -0.7663  0.7128 -0.9920
 9135SOL     OW38866   0.632   2.416   7.444 -0.0249 -0.3195  0.2116
 9135SOL    HW138867   0.664   2.485   7.503  0.8290 -0.1972 -0.3980
 9135SOL    HW238868   0.547   2.397   7.485 -1.5295  1.0181 -2.2926
 9136SOL     OW38869   4.132   1.151  15.433 -0.6514  0.1969 -0.1950
 9136SOL    HW138870   4.141   1.191  15.519  0.4669 -1.4537  0.4506
 9136SOL    HW238871   4.071   1.079  15.447  1.1262 -1.9485 -3.4871
 9137SOL     OW38872   3.356   1.290  14.528  0.6029 -0.0354 -0.1107
 9137SOL    HW138873   3.384   1.283  14.619  0.2790  1.4352  0.0978
 9137SOL    HW238874   3.271   1.245  14.531  0.6121  0.0762  1.8195
 9138SOL     OW38875   1.651   1.611   7.383  0.2061  0.3773 -0.7093
 9138SOL    HW138876   1.595   1.535   7.363  0.0588  0.1350  0.6534
 9138SOL    HW238877   1.633   1.668   7.308 -0.0986  0.9555 -0.1967
 9139SOL     OW38878   4.392   3.031   4.499 -0.2147  0.7510  0.1798
 9139SOL    HW138879   4.398   3.124   4.523  2.0105  0.9492 -1.1734
 9139SOL    HW238880   4.484   3.014   4.521 -0.5696 -1.3822 -0.0191
 9140SOL     OW38881   1.831   2.313   2.273  0.6616 -0.4903 -0.0455
 9140SOL    HW138882   1.793   2.284   2.190 -2.7429 -0.7434  1.5906
 9140SOL    HW238883   1.817   2.234   2.325  1.3635 -0.7732 -0.2880
 9141SOL     OW38884   1.773   3.493   5.053 -0.8545 -0.4202  0.1077
 9141SOL    HW138885   1.784   3.522   5.143 -0.0438  2.5627 -0.9644
 9141SOL    HW238886   1.779   3.400   5.075  0.7733 -0.1741  0.6557
 9142SOL     OW38887   0.808   3.052   6.233 -0.2011  0.4370 -0.6031
 9142SOL    HW138888   0.754   3.097   6.169  0.1495  1.9800  0.1812
 9142SOL    HW238889   0.750   2.983   6.264 -1.1803  2.3735  1.8527
 9143SOL     OW38890   0.689   2.922   3.425  0.0729  0.2892 -0.3402
 9143SOL    HW138891   0.741   3.003   3.419  1.4821 -0.6366 -0.5797
 9143SOL    HW238892   0.657   2.936   3.514  0.1448  0.1290 -0.2903
 9144SOL     OW38893   3.519   1.406  16.575 -0.5123 -0.1374  0.3095
 9144SOL    HW138894   3.452   1.372  16.634 -0.5059  1.1380  1.0558
 9144SOL    HW238895   3.549   1.331  16.524 -0.5198  1.0062 -1.3688
 9145SOL     OW38896   4.531   3.212   5.948  0.0272  0.4640  0.2747
 9145SOL    HW138897   4.491   3.226   5.862 -0.0782 -1.6394 -0.0267
 9145SOL    HW238898   4.515   3.120   5.969  0.7903 -0.3242 -2.6281
 9146SOL     OW38899   2.083   4.109   2.174  0.7196  0.3145 -0.5963
 9146SOL    HW138900   2.037   4.069   2.247  1.4323  2.1001  0.8333
 9146SOL    HW238901   2.019   4.084   2.107 -1.1472  2.6311  0.3137
 9147SOL     OW38902   3.998   2.564  13.482  0.0253  0.6278  0.3152
 9147SOL    HW138903   4.006   2.469  13.480 -0.5568  0.5095  3.2869
 9147SOL    HW238904   4.047   2.577  13.563  0.4726  0.3190  0.0906
 9148SOL     OW38905   1.351   1.164   5.264 -0.1958 -0.1116 -0.6203
 9148SOL    HW138906   1.410   1.131   5.331 -1.2278  0.2450  0.4594
 9148SOL    HW238907   1.263   1.141   5.292 -0.2493  1.2551  0.2888
 9149SOL     OW38908   2.776   3.108   6.344 -0.0506  0.2792  0.0088
 9149SOL    HW138909   2.761   3.134   6.435 -1.0868 -2.1991  0.5689
 9149SOL    HW238910   2.731   3.185   6.311 -0.8355 -0.1246  0.1228
 9150SOL     OW38911   1.515   1.056  14.003  0.4110  0.3890 -0.3150
 9150SOL    HW138912   1.465   1.002  14.064 -1.3334  0.7874 -1.3696
 9150SOL    HW238913   1.449   1.115  13.965  0.5603  0.3950 -0.5635
 9151SOL     OW38914   2.206   0.381   8.718  0.5252  0.1230 -0.1858
 9151SOL    HW138915   2.238   0.330   8.791  2.3138 -0.0040 -1.0654
 9151SOL    HW238916   2.251   0.349   8.640  0.2106  1.0315 -0.7518
 9152SOL     OW38917   4.089   2.863  12.603  0.1304 -0.3349  1.0099
 9152SOL    HW138918   4.084   2.937  12.663 -1.0363 -0.6197  1.2574
 9152SOL    HW238919   4.175   2.825  12.620  1.4036  1.1435 -2.2360
 9153SOL     OW38920   3.226   0.762  12.552 -0.5487 -0.0555  0.7823
 9153SOL    HW138921   3.224   0.733  12.461  0.7759  2.2331  0.0053
 9153SOL    HW238922   3.284   0.695  12.588 -0.2666 -0.1192  0.2060
 9154SOL     OW38923   4.164   3.201   2.982  0.4854 -0.5592 -0.1663
 9154SOL    HW138924   4.106   3.128   2.961  1.9210 -1.5683 -0.6377
 9154SOL    HW238925   4.145   3.267   2.915  0.7598 -1.3184 -1.0037
 9155SOL     OW38926   1.548   3.985  12.930 -0.0069 -0.5072 -0.3244
 9155SOL    HW138927   1.627   4.016  12.885 -0.1052  0.4720  0.1817
 9155SOL    HW238928   1.479   4.016  12.872  1.6833  3.0999 -0.4145
 9156SOL     OW38929   3.863   0.513   2.342  0.0124 -0.9670 -0.0728
 9156SOL    HW138930   3.888   0.551   2.258 -1.0408 -0.9973 -0.3866
 9156SOL    HW238931   3.768   0.517   2.332 -0.0471 -1.1851  0.3871
 9157SOL     OW38932   1.741   2.025   6.090  0.8858  0.2714 -0.5500
 9157SOL    HW138933   1.646   2.033   6.076  0.7566 -1.3891 -0.5424
 9157SOL    HW238934   1.730   2.037   6.184 -1.3574 -0.1534 -0.7703
 9158SOL     OW38935   2.074   0.177  13.162  0.2165  0.6891 -0.1493
 9158SOL    HW138936   2.089   0.251  13.104  0.3702 -0.1886 -1.2250
 9158SOL    HW238937   2.084   0.220  13.247 -0.8555  0.8739 -0.1184
 9159SOL     OW38938   2.334   2.516   1.921  0.0236 -0.3043 -0.0821
 9159SOL    HW138939   2.412   2.472   1.956 -1.6293 -2.0494  1.4051
 9159SOL    HW238940   2.274   2.441   1.920 -0.2955 -0.0478  0.0367
 9160SOL     OW38941   0.713   3.366   4.280  0.6658  0.1007  0.2757
 9160SOL    HW138942   0.752   3.279   4.273 -1.0718 -0.5986 -0.8548
 9160SOL    HW238943   0.761   3.419   4.344  0.3348  1.7454 -0.8416
 9161SOL     OW38944   3.346   2.989  16.498 -0.0059 -0.2536  0.9083
 9161SOL    HW138945   3.402   3.016  16.426  0.3665 -0.0369  1.2784
 9161SOL    HW238946   3.400   2.932  16.553 -0.6826 -0.9782  0.8081
 9162SOL     OW38947   4.074   2.390   4.591  0.3508 -0.6106  0.1277
 9162SOL    HW138948   4.005   2.367   4.653  0.0300  1.5419  0.5566
 9162SOL    HW238949   4.034   2.459   4.538 -0.6581 -1.7633 -0.6121
 9163SOL     OW38950   4.597   3.792   9.716  0.4680 -0.0044  0.1200
 9163SOL    HW138951   4.672   3.820   9.768 -0.7336 -1.9519  2.9355
 9163SOL    HW238952   4.620   3.813   9.626  0.5910  0.5128  0.2701
 9164SOL     OW38953   3.456   1.060   7.499 -0.8931 -0.5808  0.1590
 9164SOL    HW138954   3.508   0.979   7.503 -0.2800 -0.2586 -1.2229
 9164SOL    HW238955   3.378   1.029   7.546 -1.2717  2.3376  1.4189
 9165SOL     OW38956   4.371   2.518  12.953 -0.1956  0.0966  0.2495
 9165SOL    HW138957   4.310   2.497  13.024 -2.1741  1.5832 -1.0322
 9165SOL    HW238958   4.418   2.595  12.983 -0.3361 -0.0405  0.8216
 9166SOL     OW38959   2.420   4.595   9.862  0.2857  0.1115 -0.2920
 9166SOL    HW138960   2.325   4.600   9.853  0.3302 -1.8859 -1.7300
 9166SOL    HW238961   2.430   4.683   9.898 -0.5473 -0.6681  1.7949
 9167SOL     OW38962   0.335   4.413   3.436  0.2024  0.1232  0.0004
 9167SOL    HW138963   0.257   4.451   3.395  1.3065  2.0697 -0.3034
 9167SOL    HW238964   0.396   4.427   3.363  0.3284 -1.8915 -0.2901
 9168SOL     OW38965   4.143   1.840   0.009 -0.1346  0.0742 -0.4286
 9168SOL    HW138966   4.141   1.897   0.086  2.7916  0.5296 -0.6999
 9168SOL    HW238967   4.228   1.866  17.681 -0.3903  1.3554 -0.1281
 9169SOL     OW38968   3.209   0.138   6.356  0.0116 -0.0070  0.2613
 9169SOL    HW138969   3.143   0.194   6.397  1.3868  1.9636 -0.2053
 9169SOL    HW238970   3.240   0.087   6.431  0.4541  0.4195  0.3706
 9170SOL     OW38971   1.039   0.965  12.324 -0.4181  0.2918 -0.4521
 9170SOL    HW138972   1.084   0.915  12.392  0.1832 -2.1702 -2.6805
 9170SOL    HW238973   1.120   0.998  12.285  0.6317 -0.9458  0.6974
 9171SOL     OW38974   3.394   1.765   1.088 -0.1765 -0.6709  0.5132
 9171SOL    HW138975   3.347   1.697   1.135 -0.4331 -1.2648 -0.6010
 9171SOL    HW238976   3.473   1.724   1.054 -0.6154 -0.5056 -0.6942
 9172SOL     OW38977   2.811   4.306   1.923 -0.6454 -0.1491  0.2895
 9172SOL    HW138978   2.857   4.328   2.004  1.0245  0.0086 -0.6985
 9172SOL    HW238979   2.807   4.211   1.932 -1.4545 -0.0506  0.9635
 9173SOL     OW38980   1.774   2.220  14.288  0.2986 -0.2192  0.0776
 9173SOL    HW138981   1.853   2.238  14.340 -0.2066  2.0307  0.0636
 9173SOL    HW238982   1.733   2.306  14.278 -0.7660 -0.4327  2.5187
 9174SOL     OW38983   0.991   3.338   5.640 -0.5783  0.8210  0.5592
 9174SOL    HW138984   1.015   3.250   5.610 -1.6136  0.0329  2.0413
 9174SOL    HW238985   0.962   3.372   5.555  1.0272 -0.3512 -0.4629
 9175SOL     OW38986   1.746   3.075  17.282  0.1929  0.2108 -0.6237
 9175SOL    HW138987   1.807   3.081  17.208  1.2606 -0.1415  0.2248
 9175SOL    HW238988   1.760   2.986  17.314  1.5590  1.2524  1.6821
 9176SOL     OW38989   1.743   2.722  14.777  0.0735 -0.0038 -0.1518
 9176SOL    HW138990   1.700   2.726  14.691 -1.1050  0.5158  0.4584
 9176SOL    HW238991   1.682   2.776  14.827 -0.3393  0.4853 -1.1902
 9177SOL     OW38992   0.997   2.286  11.185 -0.7974  0.7999  0.7269
 9177SOL    HW138993   1.041   2.247  11.261  1.3295 -1.7586 -1.8051
 9177SOL    HW238994   1.041   2.254  11.106 -3.3532 -0.3209 -0.2422
 9178SOL     OW38995   1.675   4.557   8.860  0.0642  0.2042 -0.4149
 9178SOL    HW138996   1.657   4.601   8.943 -0.8026  1.1830 -1.1128
 9178SOL    HW238997   1.756   4.600   8.833  0.8203 -1.7567 -1.2912
 9179SOL     OW38998   2.383   4.664  16.253  0.3372 -0.0506  0.3867
 9179SOL    HW138999   2.447   4.617  16.200 -1.3904 -0.1451 -1.5705
 9179SOL    HW239000   2.356   4.585  16.300  1.3333 -1.2766 -1.1073
 9180SOL     OW39001   1.927   0.923  13.186 -0.2854 -0.1338 -0.1300
 9180SOL    HW139002   1.968   1.004  13.157  0.8214 -0.1232  1.4310
 9180SOL    HW239003   1.868   0.912  13.112 -0.4734 -3.1446  0.4501
 9181SOL     OW39004   2.255   4.725   3.836 -0.1785 -0.0933 -0.0037
 9181SOL    HW139005   2.347   0.011   3.856  0.4751 -0.1462 -3.0466
 9181SOL    HW239006   2.252   4.717   3.741  0.1690 -1.3403  0.0836
 9182SOL     OW39007   1.442   3.011  13.302  0.2138 -0.3829 -0.6406
 9182SOL    HW139008   1.451   3.058  13.219 -0.0859  0.3028 -0.2835
 9182SOL    HW239009   1.493   2.935  13.275  0.0742  0.1514 -2.3689
 9183SOL     OW39010   3.670   1.184   0.644 -0.0248 -0.3966 -0.0248
 9183SOL    HW139011   3.724   1.192   0.565  0.7653  0.5334  0.6070
 9183SOL    HW239012   3.730   1.231   0.702  0.0666 -0.4321 -0.0893
 9184SOL     OW39013   3.752   2.045   1.221  1.0198  0.6049  0.8095
 9184SOL    HW139014   3.766   2.009   1.133  0.8469 -1.8591  1.8079
 9184SOL    HW239015   3.681   2.108   1.204 -0.4388 -0.5864  2.4356
 9185SOL     OW39016   2.765   0.992  11.164  0.1818  0.2839 -0.3053
 9185SOL    HW139017   2.802   1.076  11.192  0.7504 -0.2781  0.6341
 9185SOL    HW239018   2.677   0.991  11.201  0.4587 -2.0379  0.3152
 9186SOL     OW39019   0.338   3.130  13.359  0.2259 -0.2492  0.2966
 9186SOL    HW139020   0.313   3.041  13.383 -1.7874 -0.5081 -2.7316
 9186SOL    HW239021   0.269   3.161  13.301 -0.4578 -1.8972  0.2179
 9187SOL     OW39022   2.175   2.633   5.536 -0.0770  0.6656  0.4620
 9187SOL    HW139023   2.189   2.715   5.582 -0.9559  2.4736 -2.5315
 9187SOL    HW239024   2.099   2.595   5.581  1.1823 -0.2849  1.8086
 9188SOL     OW39025   4.229   2.908   8.993  0.7261 -0.3502  0.3478
 9188SOL    HW139026   4.190   2.926   8.908  1.4926  0.6275  0.1958
 9188SOL    HW239027   4.271   2.823   8.985 -0.8763 -1.1203  0.2621
 9189SOL     OW39028   1.053   2.879   9.067  0.4358 -0.1861  0.1411
 9189SOL    HW139029   1.063   2.786   9.088  1.6025  0.8869  4.3927
 9189SOL    HW239030   1.145   2.906   9.059  0.3794  0.5937  2.2805
 9190SOL     OW39031   1.584   0.415   1.875  0.4413  0.3728  0.1187
 9190SOL    HW139032   1.502   0.443   1.833 -1.1234 -0.7604  2.3899
 9190SOL    HW239033   1.559   0.419   1.967 -3.3482 -1.1690 -0.8288
 9191SOL     OW39034   4.183   3.778   6.163 -0.3760 -0.2451 -0.4596
 9191SOL    HW139035   4.129   3.847   6.123  0.1490  1.2840  1.5015
 9191SOL    HW239036   4.206   3.815   6.248  1.8116  1.3597 -1.7560
 9192SOL     OW39037   2.404   0.674  16.413 -0.4346 -0.2196 -0.1689
 9192SOL    HW139038   2.320   0.665  16.368 -0.4030 -1.0912 -0.0550
 9192SOL    HW239039   2.447   0.616  16.350  0.0231  1.9933 -1.8845
 9193SOL     OW39040   2.479   2.827   8.569 -0.0449  0.1512 -0.3938
 9193SOL    HW139041   2.573   2.840   8.582  0.2498 -1.8927 -0.5015
 9193SOL    HW239042   2.442   2.813   8.656  2.3617  1.6688  0.8862
 9194SOL     OW39043   4.454   0.833  15.842 -0.7423 -0.2882  0.2158
 9194SOL    HW139044   4.367   0.873  15.831 -0.2917  0.2348 -1.3754
 9194SOL    HW239045   4.482   0.827  15.751 -0.2628  1.3855  0.2536
 9195SOL     OW39046   0.301   0.199   4.228  0.2427 -0.2009 -0.1685
 9195SOL    HW139047   0.340   0.225   4.144 -0.7169 -0.3182 -0.6527
 9195SOL    HW239048   0.221   0.163   4.190  0.4582 -0.3082 -0.5145
 9196SOL     OW39049   1.340   2.050   6.344 -0.2492 -0.9050 -0.2845
 9196SOL    HW139050   1.313   2.001   6.266 -1.0666 -1.4465  0.3405
 9196SOL    HW239051   1.283   2.126   6.342  2.5461  1.1810 -0.6338
 9197SOL     OW39052   2.184   4.428   8.436  0.3080 -0.0398  0.8571
 9197SOL    HW139053   2.207   4.503   8.491  1.2081  1.1432 -1.1360
 9197SOL    HW239054   2.097   4.459   8.411  0.8473  1.0265  0.3238
 9198SOL     OW39055   2.943   2.887   3.624  0.3463  0.3130 -0.5201
 9198SOL    HW139056   3.031   2.896   3.661  0.8052 -0.3685 -1.4441
 9198SOL    HW239057   2.933   2.793   3.637  0.7680  0.1490 -1.3907
 9199SOL     OW39058   4.209   4.495   3.623  0.4147  0.2262 -0.2260
 9199SOL    HW139059   4.190   4.405   3.649 -2.0790  0.4313 -1.3867
 9199SOL    HW239060   4.154   4.505   3.545 -0.2910 -1.1433  0.0983
 9200SOL     OW39061   4.595   0.299   8.413  0.1718 -0.0039  0.1935
 9200SOL    HW139062   4.643   0.225   8.448  0.5450 -0.4269 -1.2092
 9200SOL    HW239063   4.630   0.297   8.324 -0.4406  0.1566 -0.0516
 9201SOL     OW39064   3.868   0.543  10.815  0.1678 -0.2496 -0.2667
 9201SOL    HW139065   3.846   0.472  10.875  1.1408 -0.3395 -0.0029
 9201SOL    HW239066   3.963   0.529  10.826 -0.2474 -2.5336  0.4725
 9202SOL     OW39067   0.119   3.249   1.596 -0.0021 -0.2453 -0.0227
 9202SOL    HW139068   0.030   3.266   1.566  0.5064  2.1218 -0.2309
 9202SOL    HW239069   0.108   3.303   1.674 -0.0016  0.2974 -0.3966
 9203SOL     OW39070   2.970   2.858   5.615 -0.1955  0.2950  0.1186
 9203SOL    HW139071   2.874   2.859   5.611 -0.2403 -3.5041  0.9952
 9203SOL    HW239072   2.985   2.800   5.690 -2.8813  0.1605  0.5782
 9204SOL     OW39073   2.100   4.107  11.189 -0.2080 -0.1182 -0.3014
 9204SOL    HW139074   2.042   4.177  11.158 -0.1802  0.3967  0.8321
 9204SOL    HW239075   2.029   4.048  11.213  0.1555  0.2983  1.7750
 9205SOL     OW39076   2.396   3.377  13.082 -0.1847  0.0890  0.1790
 9205SOL    HW139077   2.368   3.466  13.059  0.7687  0.4183  0.2528
 9205SOL    HW239078   2.387   3.390  13.176 -2.0169 -1.6072  0.2314
 9206SOL     OW39079   0.605   4.433   8.319  0.3126  0.0790 -0.2603
 9206SOL    HW139080   0.532   4.384   8.357  1.3083 -1.4884 -0.3431
 9206SOL    HW239081   0.613   4.505   8.381 -1.0314 -1.6304  1.8837
 9207SOL     OW39082   3.235   3.750  11.930 -0.1641  0.2387  0.3300
 9207SOL    HW139083   3.215   3.790  11.846  0.0608  0.8499  0.5669
 9207SOL    HW239084   3.204   3.813  11.995  0.6019  2.8284 -1.8220
 9208SOL     OW39085   2.941   2.009   8.359 -0.4251 -0.0713 -0.4057
 9208SOL    HW139086   2.921   1.968   8.443  0.8104  1.6370  0.7370
 9208SOL    HW239087   2.852   2.025   8.326  0.2009  2.1352 -1.0421
 9209SOL     OW39088   0.707   2.554   9.624 -0.2559 -0.2223 -0.4475
 9209SOL    HW139089   0.678   2.467   9.598 -0.5763 -0.5703  1.0763
 9209SOL    HW239090   0.802   2.544   9.615 -0.1917 -0.3798  0.4089
 9210SOL     OW39091   0.151   1.154   4.488  0.0954 -0.1442  0.3974
 9210SOL    HW139092   0.144   1.212   4.413 -1.3016 -0.1178  0.5538
 9210SOL    HW239093   0.083   1.088   4.472 -1.0670  0.6801  1.9998
 9211SOL     OW39094   2.550   4.543  16.062 -0.6854 -0.0139 -0.3769
 9211SOL    HW139095   2.524   4.590  15.983 -2.2410 -2.4201 -1.2678
 9211SOL    HW239096   2.646   4.550  16.068 -0.5044 -1.8089 -1.3563
 9212SOL     OW39097   0.673   2.211   5.295  0.0415 -0.4992  0.1558
 9212SOL    HW139098   0.610   2.140   5.293 -0.7239  0.1452  1.2362
 9212SOL    HW239099   0.744   2.172   5.347 -0.0588  0.3605  0.9496
 9213SOL     OW39100   1.421   0.862   1.050 -0.3635 -0.2711  0.4384
 9213SOL    HW139101   1.368   0.942   1.058 -0.9769 -0.4569 -1.8982
 9213SOL    HW239102   1.506   0.898   1.024  0.0356 -0.8838  0.8889
 9214SOL     OW39103   3.141   0.559   3.621  0.7156 -0.9643 -0.4488
 9214SOL    HW139104   3.122   0.465   3.619  1.3209 -0.9948 -4.2025
 9214SOL    HW239105   3.074   0.582   3.685  0.5623  1.1049 -1.3675
 9215SOL     OW39106   2.154   3.457   1.856  0.6924 -0.7853  0.6665
 9215SOL    HW139107   2.181   3.489   1.942 -1.0411  1.3694  0.3799
 9215SOL    HW239108   2.062   3.480   1.848  1.0021  0.0652 -0.4167
 9216SOL     OW39109   3.596   0.469   7.884 -0.5042  0.3124  0.7120
 9216SOL    HW139110   3.602   0.377   7.857 -1.3605 -0.0070  1.6116
 9216SOL    HW239111   3.553   0.454   7.968  2.7673  0.7777  2.4386
 9217SOL     OW39112   0.462   1.431  16.578  0.4556  0.3292  0.4324
 9217SOL    HW139113   0.370   1.432  16.606  1.0512 -1.3729  2.5215
 9217SOL    HW239114   0.487   1.344  16.611 -0.4548 -0.7207 -1.6669
 9218SOL     OW39115   2.033   2.965   4.058 -0.1234  0.2248 -0.0525
 9218SOL    HW139116   1.950   2.926   4.087  0.2021 -1.3085 -1.1678
 9218SOL    HW239117   2.013   3.057   4.040  1.5628  0.8854  1.5066
 9219SOL     OW39118   2.609   3.235  13.187  0.1337 -0.1643  0.1006
 9219SOL    HW139119   2.544   3.183  13.234  0.1747 -0.0699  0.2627
 9219SOL    HW239120   2.548   3.287  13.134  0.7922  2.3299  1.8138
 9220SOL     OW39121   1.067   2.463   7.804 -0.2567 -0.2528  0.2256
 9220SOL    HW139122   1.083   2.410   7.882  1.5624 -0.0651 -0.0239
 9220SOL    HW239123   1.146   2.452   7.752  1.1556  0.7681  2.1196
 9221SOL     OW39124   4.652   1.710   2.434  0.5788 -0.4975 -0.1011
 9221SOL    HW139125   4.679   1.787   2.484 -1.9362 -0.0301  0.5341
 9221SOL    HW239126   0.010   1.669   2.416  0.1091 -1.7375  0.4826
 9222SOL     OW39127   4.151   2.183  10.104 -0.1664  0.1321 -0.1553
 9222SOL    HW139128   4.140   2.243  10.030  1.0569  1.0932  0.4270
 9222SOL    HW239129   4.109   2.239  10.169 -0.4872  1.1137 -1.2002
 9223SOL     OW39130   4.258   2.619   8.172  0.0887  0.3368 -0.0399
 9223SOL    HW139131   4.311   2.545   8.143  0.3386  0.6116 -0.2867
 9223SOL    HW239132   4.240   2.666   8.090 -1.7149  1.4781  1.0026
 9224SOL     OW39133   2.954   0.726  17.531  0.7756  1.2959  0.0913
 9224SOL    HW139134   2.927   0.805  17.485 -0.7486  0.6849 -0.0562
 9224SOL    HW239135   2.979   0.759  17.617  1.3739  2.1125 -0.3970
 9225SOL     OW39136   0.125   3.712   5.484 -0.2061  0.0634 -0.3899
 9225SOL    HW139137   0.208   3.705   5.532 -0.6146 -0.0108  0.3026
 9225SOL    HW239138   0.089   3.624   5.491 -0.4799  0.2221  0.1356
 9226SOL     OW39139   3.059   0.762   0.323 -0.5449 -0.5536  0.0731
 9226SOL    HW139140   3.026   0.726   0.405 -1.2521 -0.4289 -0.1593
 9226SOL    HW239141   3.120   0.829   0.353  0.9722 -0.5051 -3.1051
 9227SOL     OW39142   4.313   0.650   0.618 -0.0251  0.0923  0.4703
 9227SOL    HW139143   4.249   0.699   0.669  0.2986  0.5759  0.4156
 9227SOL    HW239144   4.293   0.686   0.532  1.6601 -2.1363 -0.8804
 9228SOL     OW39145   2.270   4.590   2.178 -0.1083 -0.3889  0.2248
 9228SOL    HW139146   2.225   4.615   2.097  2.1035 -0.3274 -0.9772
 9228SOL    HW239147   2.327   4.666   2.188  2.8697 -2.7461  0.8987
 9229SOL     OW39148   3.972   1.003   5.009 -0.8726  0.1458 -0.3479
 9229SOL    HW139149   4.028   1.079   4.991 -2.6599  1.2923 -1.0286
 9229SOL    HW239150   3.945   0.967   4.924  2.1678  0.9969 -1.6636
 9230SOL     OW39151   0.857   1.234   9.524 -0.0912  0.2964  0.9322
 9230SOL    HW139152   0.949   1.210   9.537 -1.1437 -3.5834  1.1563
 9230SOL    HW239153   0.843   1.160   9.465  2.4558 -0.2384  0.9776
 9231SOL     OW39154   4.437   0.625   9.828  0.2034  0.7330  0.1507
 9231SOL    HW139155   4.471   0.623   9.739 -1.1926 -0.4449 -0.3653
 9231SOL    HW239156   4.441   0.720   9.843  2.2633  0.6939 -0.1086
 9232SOL     OW39157   0.094   4.370  11.543  0.1073  0.2433  0.0403
 9232SOL    HW139158   0.186   4.394  11.537  0.1018 -0.3053 -2.4072
 9232SOL    HW239159   0.046   4.391  11.462  2.2254  1.0322 -0.9977
 9233SOL     OW39160   2.769   4.139   0.579 -0.3127 -0.4172 -0.6710
 9233SOL    HW139161   2.844   4.190   0.547  1.8761 -1.1457  3.3332
 9233SOL    HW239162   2.699   4.181   0.529 -0.2181  0.1419 -0.3343
 9234SOL     OW39163   1.612   4.584   2.410  0.7283 -0.5841  0.1478
 9234SOL    HW139164   1.691   4.572   2.358  2.1804 -0.6589  2.3878
 9234SOL    HW239165   1.635   4.520   2.478 -0.4616 -0.0314  1.0761
 9235SOL     OW39166   3.965   0.870  15.889  0.3847 -0.3817 -0.1746
 9235SOL    HW139167   4.031   0.811  15.852 -0.1690  0.2331 -2.1770
 9235SOL    HW239168   3.952   0.932  15.817 -0.1731 -0.0789  0.1841
 9236SOL     OW39169   2.569   3.949  12.980 -0.2484 -0.4367  0.0051
 9236SOL    HW139170   2.650   3.920  13.022  0.5281 -0.6088 -1.6085
 9236SOL    HW239171   2.569   4.041  13.007 -0.0460 -1.1307  2.4469
 9237SOL     OW39172   1.799   2.655   7.958 -0.7497  0.1531  0.0764
 9237SOL    HW139173   1.868   2.598   7.993 -1.2836 -0.4477  0.1512
 9237SOL    HW239174   1.847   2.734   7.936 -2.0492  0.4874 -1.4750
 9238SOL     OW39175   4.604   0.644  15.392  0.9365  0.1689  0.1163
 9238SOL    HW139176   4.644   0.729  15.373 -0.9563  1.4395  1.8304
 9238SOL    HW239177   4.524   0.655  15.341  1.4110  3.0652 -0.0044
 9239SOL     OW39178   0.070   3.670   2.619 -0.4872  0.4058  0.5367
 9239SOL    HW139179   0.139   3.729   2.648  0.3321 -0.1295 -0.3228
 9239SOL    HW239180   0.076   3.592   2.674  1.4445 -0.2813 -0.6827
 9240SOL     OW39181   2.109   2.870   9.508  0.3977  0.0810 -0.4840
 9240SOL    HW139182   2.049   2.934   9.469 -0.8610 -0.5680  0.3722
 9240SOL    HW239183   2.183   2.917   9.546  0.0673 -0.3677  0.6861
 9241SOL     OW39184   1.829   0.397  15.868  0.1587 -0.2569  0.1543
 9241SOL    HW139185   1.743   0.438  15.857 -0.3664 -1.3609  0.1952
 9241SOL    HW239186   1.891   0.463  15.836  0.4660 -0.5634  0.1244
 9242SOL     OW39187   0.036   1.203   3.823 -0.2685 -0.5766  0.1422
 9242SOL    HW139188   0.101   1.183   3.891  1.2974 -2.3917 -1.8768
 9242SOL    HW239189   4.679   1.185   3.866 -1.1663  1.8436 -0.6366
 9243SOL     OW39190   1.196   2.132   8.957 -0.0219 -0.1266 -0.2882
 9243SOL    HW139191   1.242   2.053   8.929 -1.1936 -0.4520 -1.2929
 9243SOL    HW239192   1.197   2.113   9.050 -0.1255 -0.0913 -0.2790
 9244SOL     OW39193   3.543   3.087   2.106  0.0654  0.3415  0.5678
 9244SOL    HW139194   3.564   2.996   2.085  0.6150  0.5097  0.3720
 9244SOL    HW239195   3.480   3.085   2.178  1.1686  1.4711  1.5740
 9245SOL     OW39196   2.442   2.378   7.710  0.4544 -0.1810 -0.1894
 9245SOL    HW139197   2.349   2.402   7.712  0.7548  0.9349  0.1590
 9245SOL    HW239198   2.477   2.427   7.784  1.0758  2.9454 -2.5184
 9246SOL     OW39199   1.791   3.378   9.172 -0.0365 -0.1977 -0.3202
 9246SOL    HW139200   1.739   3.388   9.252  0.9992  0.0543  0.3290
 9246SOL    HW239201   1.876   3.405   9.207  0.0447 -1.6133  0.5726
 9247SOL     OW39202   1.293   2.045   3.787 -0.1905 -0.2007  0.0681
 9247SOL    HW139203   1.256   2.116   3.840 -0.4019 -0.6000  0.4613
 9247SOL    HW239204   1.276   2.087   3.703  1.3865 -1.1256 -0.6943
 9248SOL     OW39205   2.888   3.893   1.461  0.4057 -0.2179 -0.2715
 9248SOL    HW139206   2.912   3.883   1.369 -2.3853 -1.2343 -0.8794
 9248SOL    HW239207   2.814   3.832   1.466 -0.8682  1.2924 -0.9357
 9249SOL     OW39208   0.630   0.388   2.879  0.1278 -0.5193  0.0348
 9249SOL    HW139209   0.690   0.425   2.814 -0.6455  1.1608  0.2722
 9249SOL    HW239210   0.568   0.340   2.825  1.0711 -2.5949  0.7809
 9250SOL     OW39211   1.418   1.509   3.565  0.2699  0.4369  0.4346
 9250SOL    HW139212   1.426   1.447   3.638 -0.7238  0.4332  0.5386
 9250SOL    HW239213   1.416   1.442   3.497 -1.2778  1.2552 -0.3152
 9251SOL     OW39214   2.841   3.845  12.355  0.4604  0.4986 -0.6708
 9251SOL    HW139215   2.837   3.750  12.349  0.8528  0.4723 -0.5576
 9251SOL    HW239216   2.825   3.863  12.448 -3.2132  3.4099 -1.8723
 9252SOL     OW39217   1.444   3.389   6.629  0.0699  0.7009  0.2554
 9252SOL    HW139218   1.450   3.420   6.538 -0.4699 -2.1944 -0.7570
 9252SOL    HW239219   1.467   3.297   6.628  0.1908  0.7373 -0.1052
 9253SOL     OW39220   0.936   1.763   3.921 -0.5501  0.0765  0.4624
 9253SOL    HW139221   0.931   1.809   3.837  0.1761 -3.4763 -1.5244
 9253SOL    HW239222   1.010   1.803   3.967 -1.3301  2.6616 -0.5284
 9254SOL     OW39223   0.923   1.499   2.350  0.1517  0.0286  0.5849
 9254SOL    HW139224   0.877   1.563   2.404  0.4779 -0.1222  1.0441
 9254SOL    HW239225   0.882   1.518   2.266  0.1798  0.8809  0.7705
 9255SOL     OW39226   4.417   1.027   0.362 -0.2587 -0.0963 -0.1478
 9255SOL    HW139227   4.466   1.036   0.443 -0.0736  1.4082 -0.4347
 9255SOL    HW239228   4.478   1.080   0.310  0.8987 -0.9984  0.3006
 9256SOL     OW39229   0.432   2.289   3.116  0.7742 -0.2155  0.3189
 9256SOL    HW139230   0.396   2.259   3.199  2.4427 -0.9793  0.7648
 9256SOL    HW239231   0.480   2.364   3.149  0.9784 -0.9443  1.6573
 9257SOL     OW39232   0.262   3.105   5.366  0.5507  0.0503 -0.1905
 9257SOL    HW139233   0.255   3.038   5.298 -2.1673 -1.8769  2.0223
 9257SOL    HW239234   0.268   3.045   5.440  0.2000 -1.3086 -1.2810
 9258SOL     OW39235   4.562   2.850   7.257 -0.2574 -0.5818 -0.8707
 9258SOL    HW139236   4.575   2.920   7.193  0.3559 -0.6625 -0.8397
 9258SOL    HW239237   4.469   2.842   7.275 -0.0724  2.0095  1.2592
 9259SOL     OW39238   0.861   2.668   2.475 -0.5969  0.0735  0.1445
 9259SOL    HW139239   0.921   2.602   2.440  0.1394  1.3870 -1.0944
 9259SOL    HW239240   0.910   2.750   2.464  0.4814 -0.8044 -1.7834
 9260SOL     OW39241   0.947   0.251   4.426  0.1659 -0.2542  0.1138
 9260SOL    HW139242   0.856   0.223   4.425 -0.0896  0.5996  0.4477
 9260SOL    HW239243   0.941   0.346   4.417  0.0114 -0.3566 -0.8786
 9261SOL     OW39244   0.573   1.477   3.977 -0.6309 -0.1425  0.3468
 9261SOL    HW139245   0.614   1.392   3.987  1.1382  0.7113  0.3629
 9261SOL    HW239246   0.511   1.455   3.908 -1.2918  0.8708  0.6120
 9262SOL     OW39247   2.639   4.459   8.206  0.1508 -0.4404  0.3515
 9262SOL    HW139248   2.577   4.499   8.266 -0.3431  2.0617 -1.8452
 9262SOL    HW239249   2.692   4.536   8.185  2.0673 -2.5681 -2.6309
 9263SOL     OW39250   0.949   3.816  12.008  0.3946  0.1131 -0.1617
 9263SOL    HW139251   1.018   3.829  11.943 -0.0345  0.3842 -0.5534
 9263SOL    HW239252   0.963   3.894  12.061 -1.5015  0.2362  0.1594
 9264SOL     OW39253   3.120   2.651  13.435 -0.3985  0.0719 -0.4539
 9264SOL    HW139254   3.119   2.573  13.380 -0.7134 -2.1556  2.6809
 9264SOL    HW239255   3.135   2.611  13.521 -0.5174 -1.2972 -1.0666
 9265SOL     OW39256   4.382   3.481  14.917 -0.0907 -0.0691  0.6639
 9265SOL    HW139257   4.440   3.558  14.917  1.6883 -1.4030 -0.9567
 9265SOL    HW239258   4.435   3.419  14.867  1.2028 -0.7713  2.8735
 9266SOL     OW39259   0.340   2.385   2.882  1.1210 -0.2201  0.2217
 9266SOL    HW139260   0.369   2.338   2.960 -2.0982 -0.8620  1.0627
 9266SOL    HW239261   0.352   2.477   2.908  1.9733 -0.7668  1.7084
 9267SOL     OW39262   2.638   1.818  15.373  0.8718  0.0818 -0.1431
 9267SOL    HW139263   2.681   1.889  15.325 -1.7703  1.5368 -0.3591
 9267SOL    HW239264   2.570   1.868  15.417 -2.0832 -2.7154 -1.4679
 9268SOL     OW39265   1.439   1.987   2.756  0.7850  0.0791 -0.0424
 9268SOL    HW139266   1.512   1.983   2.817 -0.2613 -3.4423  0.9431
 9268SOL    HW239267   1.438   1.896   2.727  0.3430 -0.4085  1.5206
 9269SOL     OW39268   2.792   0.432   4.838 -0.6170 -0.4602  0.6243
 9269SOL    HW139269   2.870   0.483   4.818 -0.0772 -0.9438  1.5512
 9269SOL    HW239270   2.754   0.489   4.904 -0.5618 -0.6256  0.7985
 9270SOL     OW39271   1.177   1.438  15.774  0.0201  0.2235 -0.1924
 9270SOL    HW139272   1.127   1.370  15.729  0.5715  0.5124 -1.2589
 9270SOL    HW239273   1.122   1.513  15.752 -0.2318  0.1539  0.2081
 9271SOL     OW39274   0.378   2.300   0.161 -0.4779 -0.7763 -0.1127
 9271SOL    HW139275   0.412   2.363   0.225  2.4432 -1.2411 -1.2244
 9271SOL    HW239276   0.342   2.362   0.098 -1.0346 -0.6152  0.3578
 9272SOL     OW39277   2.990   0.310  11.842 -0.0537  0.5122  0.8343
 9272SOL    HW139278   2.930   0.246  11.803  2.0862 -0.9922 -0.0216
 9272SOL    HW239279   3.076   0.268  11.837 -0.5564 -0.1491 -2.6145
 9273SOL     OW39280   4.118   4.552  11.911 -0.4170  0.1906  0.0785
 9273SOL    HW139281   4.099   4.497  11.834  1.0079  0.7657 -0.6920
 9273SOL    HW239282   4.044   4.536  11.969 -1.0909 -1.0935 -1.1164
 9274SOL     OW39283   0.460   3.154   7.010  0.3677  0.1760 -0.0154
 9274SOL    HW139284   0.381   3.142   6.957  0.1385  0.7222  0.2014
 9274SOL    HW239285   0.439   3.242   7.042  2.0597  0.1050  1.2451
 9275SOL     OW39286   2.114   2.686   0.354 -0.6424  0.3867  0.1983
 9275SOL    HW139287   2.177   2.616   0.373 -0.5649  0.9109  1.9194
 9275SOL    HW239288   2.088   2.717   0.441  0.0780  1.9493 -0.1370
 9276SOL     OW39289   0.028   2.451  15.685  0.3999  0.5574  0.2558
 9276SOL    HW139290   4.723   2.408  15.606  0.3904  1.6020 -0.3047
 9276SOL    HW239291   4.678   2.438  15.742 -1.4123  2.4140 -1.7630
 9277SOL     OW39292   0.611   2.363  10.630  0.3112  0.4974 -0.0075
 9277SOL    HW139293   0.675   2.324  10.689  0.5305  1.9172  0.6921
 9277SOL    HW239294   0.549   2.290  10.625  0.2425  0.6102 -0.8845
 9278SOL     OW39295   2.841   3.591  12.791  0.2273  0.1918  0.3742
 9278SOL    HW139296   2.749   3.610  12.809  0.4528  1.0548  0.6281
 9278SOL    HW239297   2.879   3.589  12.879 -3.0161  4.1339  1.8436
 9279SOL     OW39298   3.426   0.910   6.075  0.4910  0.6338  0.2030
 9279SOL    HW139299   3.498   0.940   6.130  0.4299  2.4091 -0.6933
 9279SOL    HW239300   3.354   0.957   6.118  2.7108  2.4125  1.9974
 9280SOL     OW39301   1.559   0.875   4.835 -0.2747 -0.6851  0.4698
 9280SOL    HW139302   1.611   0.946   4.798  0.5199 -0.0446  2.8160
 9280SOL    HW239303   1.500   0.925   4.892  1.4979  0.0292  1.6615
 9281SOL     OW39304   2.513   0.125   4.620  0.3560 -0.3506  0.0830
 9281SOL    HW139305   2.522   0.213   4.581 -0.6640 -0.1420  0.3355
 9281SOL    HW239306   2.567   0.073   4.560  1.1503 -1.3335  1.6621
 9282SOL     OW39307   0.203   3.170   2.411 -0.6156  0.2852  0.3290
 9282SOL    HW139308   0.219   3.111   2.337 -0.2598 -0.0307  0.6611
 9282SOL    HW239309   0.108   3.176   2.418 -1.0108 -2.2156 -2.8191
 9283SOL     OW39310   0.059   2.476   2.841  0.1660 -0.2743  0.3523
 9283SOL    HW139311   0.143   2.451   2.881 -0.4758 -1.3414  1.0448
 9283SOL    HW239312   0.094   2.527   2.768 -0.4050  2.2319  1.8249
 9284SOL     OW39313   2.865   4.429   4.447  0.1701 -0.3173 -0.4365
 9284SOL    HW139314   2.783   4.447   4.493  1.8220 -1.3103  2.8916
 9284SOL    HW239315   2.851   4.465   4.359 -0.9223  0.3758  0.0204
 9285SOL     OW39316   1.804   2.200   6.855  0.2921 -0.4040 -0.0367
 9285SOL    HW139317   1.747   2.192   6.779 -0.1002 -1.1594  0.3314
 9285SOL    HW239318   1.739   2.198   6.926  1.7817 -0.6922  1.3183
 9286SOL     OW39319   3.304   0.346   5.753 -0.1815 -0.4403  0.1597
 9286SOL    HW139320   3.263   0.282   5.811  1.7118 -2.7245 -1.0180
 9286SOL    HW239321   3.345   0.278   5.699  3.0344 -0.2227  2.3170
 9287SOL     OW39322   3.693   0.983  15.691 -0.3393 -0.2629  0.1591
 9287SOL    HW139323   3.702   1.029  15.607  0.9704  2.8519  2.0215
 9287SOL    HW239324   3.633   0.914  15.660 -1.7846  1.1965 -0.3223
 9288SOL     OW39325   2.597   2.800   6.568 -0.9217  0.0956  0.2142
 9288SOL    HW139326   2.670   2.766   6.516  0.5633  2.4700  0.7527
 9288SOL    HW239327   2.620   2.892   6.581  0.6058 -0.3729  0.8565
 9289SOL     OW39328   1.096   3.337   2.692  0.3994 -0.0192 -0.2684
 9289SOL    HW139329   1.157   3.322   2.764 -0.8267  0.1543  0.7986
 9289SOL    HW239330   1.125   3.286   2.617 -2.6215 -0.7100 -0.9686
 9290SOL     OW39331   1.791   1.103   3.923  0.8098 -0.3757 -0.9032
 9290SOL    HW139332   1.739   1.182   3.906  1.1554 -0.1455 -0.9022
 9290SOL    HW239333   1.725   1.060   3.977  2.5976 -0.2265  1.4003
 9291SOL     OW39334   2.973   3.381  13.947  0.3718 -0.3818 -0.3655
 9291SOL    HW139335   3.055   3.401  13.902 -2.0266  2.9424 -3.2577
 9291SOL    HW239336   2.962   3.287  13.932  1.3138 -0.1019 -2.7947
 9292SOL     OW39337   3.133   1.432   0.251  0.0678 -0.5303  0.1184
 9292SOL    HW139338   3.209   1.453   0.306  0.0160  1.8646 -0.7578
 9292SOL    HW239339   3.083   1.384   0.317 -1.0834 -0.3008 -0.5930
 9293SOL     OW39340   1.025   3.070   5.958 -0.1934 -0.6420 -0.5182
 9293SOL    HW139341   1.076   3.122   6.020 -1.0217 -0.0425 -0.3479
 9293SOL    HW239342   1.088   3.077   5.886  0.3811 -0.0501  0.0389
 9294SOL     OW39343   1.227   2.633   2.276  0.1767  0.3210 -0.1012
 9294SOL    HW139344   1.225   2.678   2.192 -1.3884 -1.1359 -0.8354
 9294SOL    HW239345   1.317   2.644   2.307 -0.2171  0.9744  0.8172
 9295SOL     OW39346   2.644   3.746   1.398  0.2010 -0.1372 -0.5730
 9295SOL    HW139347   2.586   3.795   1.340  1.2490  1.2444 -0.4680
 9295SOL    HW239348   2.621   3.656   1.374  0.0784 -0.4316  0.6801
 9296SOL     OW39349   2.948   0.890   1.855  0.5191  0.0853 -0.4109
 9296SOL    HW139350   3.026   0.944   1.866  0.9828 -0.4065 -1.3013
 9296SOL    HW239351   2.900   0.936   1.786 -0.1442  1.4678  0.9840
 9297SOL     OW39352   2.896   1.316  12.645 -0.1375  0.0887 -0.0680
 9297SOL    HW139353   2.979   1.277  12.619 -0.8004 -0.5801 -1.1776
 9297SOL    HW239354   2.927   1.347  12.730 -3.4689  0.7734  0.9239
 9298SOL     OW39355   2.072   0.985   1.106  0.2833 -0.7139 -0.3766
 9298SOL    HW139356   2.079   0.937   1.024  0.1601  1.5586 -1.7066
 9298SOL    HW239357   2.154   1.034   1.103  1.1809 -2.0830  1.4071
 9299SOL     OW39358   2.126   2.757   6.658  0.3840  0.3703 -0.1845
 9299SOL    HW139359   2.214   2.727   6.681  0.1488  0.8451  1.3711
 9299SOL    HW239360   2.073   2.681   6.682 -0.5210  1.2484  0.6092
 9300SOL     OW39361   3.374   1.301   7.789 -0.1849 -0.0343 -0.3001
 9300SOL    HW139362   3.395   1.237   7.857  0.7206  0.8120  0.2184
 9300SOL    HW239363   3.283   1.281   7.767 -0.2444  0.2288 -0.3012
 9301SOL     OW39364   1.414   2.220   2.425 -0.1264  0.0002 -0.0571
 9301SOL    HW139365   1.440   2.241   2.335 -0.4124 -0.9291 -0.3542
 9301SOL    HW239366   1.372   2.304   2.446  2.8092  2.2586 -3.2261
 9302SOL     OW39367   3.191   1.485  17.087 -0.1321 -0.3277  0.6625
 9302SOL    HW139368   3.139   1.564  17.101 -0.5740 -0.7682  1.5265
 9302SOL    HW239369   3.150   1.435  17.016 -0.7532 -0.4269  1.0895
 9303SOL     OW39370   1.589   4.025   6.304  0.2953 -0.4635 -0.0778
 9303SOL    HW139371   1.520   4.077   6.262  0.7399 -0.6456 -1.0305
 9303SOL    HW239372   1.605   3.964   6.232  2.6486 -1.3698  1.2256
 9304SOL     OW39373   2.600   1.443   8.498  0.2507 -0.1179  0.6255
 9304SOL    HW139374   2.528   1.406   8.549 -0.3581  1.6915  1.0979
 9304SOL    HW239375   2.564   1.532   8.504 -0.8365 -0.3829 -2.0214
 9305SOL     OW39376   4.425   1.204  16.246  0.2654 -0.1620 -0.2201
 9305SOL    HW139377   4.470   1.133  16.292  1.7490  0.7666 -0.2748
 9305SOL    HW239378   4.353   1.213  16.308  1.2383 -0.3173  0.9238
 9306SOL     OW39379   1.144   0.504  17.421  0.0270 -0.1657  0.3829
 9306SOL    HW139380   1.090   0.499  17.342  1.5783  0.1572 -0.7037
 9306SOL    HW239381   1.068   0.532  17.472  2.7133  3.1760  2.5152
 9307SOL     OW39382   2.735   0.692   6.955  0.0814 -0.3103  0.1601
 9307SOL    HW139383   2.674   0.623   6.928  0.1190  0.1503 -1.0923
 9307SOL    HW239384   2.679   0.740   7.016  0.1801  0.1108 -0.0856
 9308SOL     OW39385   1.483   3.636  16.946 -0.2020  0.2762 -0.0251
 9308SOL    HW139386   1.486   3.729  16.968  2.2118 -0.0388  1.0098
 9308SOL    HW239387   1.401   3.625  16.897 -0.1381 -1.0559  0.1649
 9309SOL     OW39388   0.883   4.060   3.828  0.5062 -0.2565  0.2878
 9309SOL    HW139389   0.795   4.095   3.815  0.0371 -0.3325  3.1663
 9309SOL    HW239390   0.895   4.015   3.744  2.2706 -0.1408  0.4652
 9310SOL     OW39391   1.108   0.498   4.122  0.1525  0.1681  0.2439
 9310SOL    HW139392   1.162   0.496   4.201  1.1374  0.4906 -0.4244
 9310SOL    HW239393   1.098   0.405   4.099  0.2684  1.1966 -4.0250
 9311SOL     OW39394   3.721   2.542   7.593 -0.5779 -0.1447  0.0372
 9311SOL    HW139395   3.794   2.501   7.545  1.4873  0.7450  2.3954
 9311SOL    HW239396   3.762   2.609   7.648 -3.2771 -0.4385  2.3379
 9312SOL     OW39397   0.887   3.755   3.222  0.5830 -0.1355  0.5025
 9312SOL    HW139398   0.886   3.825   3.156  1.4052 -0.2256  0.3966
 9312SOL    HW239399   0.800   3.775   3.257  1.1217  1.3044  1.0188
 9313SOL     OW39400   4.718   0.190   4.944 -0.0862 -0.2612 -0.0336
 9313SOL    HW139401   0.052   0.126   4.906  0.5326  1.0237 -1.2355
 9313SOL    HW239402   4.664   0.228   4.875 -0.2634 -1.4856 -0.5628
 9314SOL     OW39403   1.828   3.355   8.402  0.0667  0.1537  0.1316
 9314SOL    HW139404   1.809   3.286   8.465 -0.1680  1.1804  1.1904
 9314SOL    HW239405   1.839   3.430   8.460 -0.8469  0.4642 -0.0946
 9315SOL     OW39406   1.669   1.489  15.765  0.5811  0.4255  0.0042
 9315SOL    HW139407   1.723   1.529  15.696 -3.3941  4.1692 -0.8982
 9315SOL    HW239408   1.587   1.538  15.763  0.2197 -0.1741  0.1404
 9316SOL     OW39409   2.196   3.869   6.513 -0.5548 -0.3252 -0.2116
 9316SOL    HW139410   2.105   3.837   6.511 -0.6076 -0.2683  1.2030
 9316SOL    HW239411   2.196   3.945   6.570 -0.7990  0.4550 -1.2483
 9317SOL     OW39412   3.876   0.156  10.035  0.4000  0.2877 -0.0335
 9317SOL    HW139413   3.830   0.120  10.112  0.5944  0.5685  0.2159
 9317SOL    HW239414   3.823   0.141   9.957  0.6448  1.4425 -0.4239
 9318SOL     OW39415   1.204   0.320   5.758  0.6377 -0.1064  0.5119
 9318SOL    HW139416   1.165   0.282   5.679  0.3658  1.1032  0.0641
 9318SOL    HW239417   1.293   0.310   5.723  0.0714  0.5717 -1.0927
 9319SOL     OW39418   4.415   2.325   6.170  0.2795 -0.1830 -0.2734
 9319SOL    HW139419   4.484   2.379   6.131  0.5704  0.1317  0.6767
 9319SOL    HW239420   4.483   2.259   6.179  2.0142  1.8686  1.7462
 9320SOL     OW39421   0.233   1.698   2.481  0.3657  0.2161  0.3866
 9320SOL    HW139422   0.237   1.621   2.538  1.5890  1.5574  2.0904
 9320SOL    HW239423   0.297   1.673   2.414  1.1903 -0.4231  1.4066
 9321SOL     OW39424   0.816   3.300   8.424  0.2248  0.0851 -0.3550
 9321SOL    HW139425   0.733   3.278   8.381  0.0459  0.3309 -0.1353
 9321SOL    HW239426   0.859   3.215   8.415 -0.0074 -0.1225  0.4763
 9322SOL     OW39427   4.641   2.434   4.645 -0.5874 -0.0761  0.3484
 9322SOL    HW139428   4.620   2.427   4.552  0.7621 -1.3992  0.1294
 9322SOL    HW239429   4.658   2.344   4.673 -1.5163 -0.0127  1.1130
 9323SOL     OW39430   1.602   2.195  16.079  0.5275 -0.3125  0.5540
 9323SOL    HW139431   1.692   2.162  16.074  0.6404 -0.3479  2.8250
 9323SOL    HW239432   1.568   2.134  16.144  0.1063 -0.0472  0.5781
 9324SOL     OW39433   1.918   0.454   3.390  0.2934  0.4484  0.4749
 9324SOL    HW139434   1.983   0.442   3.459  1.0552 -1.0049 -0.4964
 9324SOL    HW239435   1.940   0.540   3.354  0.5116 -1.0887 -3.0135
 9325SOL     OW39436   4.053   4.662   5.451 -0.0893 -0.7227  0.5817
 9325SOL    HW139437   3.968   4.701   5.475  0.2779  0.0733  0.6097
 9325SOL    HW239438   4.110   4.681   5.525  0.2812  1.2474 -0.1972
 9326SOL     OW39439   0.943   3.457   4.419 -0.2708  0.6058 -0.2391
 9326SOL    HW139440   0.904   3.460   4.507  1.1893  1.5479  0.3673
 9326SOL    HW239441   1.032   3.472   4.450 -0.3804 -1.7825  1.1574
 9327SOL     OW39442   4.136   2.183   7.207 -0.2048  0.3519 -0.5414
 9327SOL    HW139443   4.219   2.136   7.208 -0.3969  0.0497  0.7569
 9327SOL    HW239444   4.075   2.116   7.237  1.0476 -0.5710 -0.0465
 9328SOL     OW39445   2.783   3.353   8.851  0.9135 -0.1621  0.1286
 9328SOL    HW139446   2.768   3.318   8.939 -1.1953  0.5187  0.0326
 9328SOL    HW239447   2.741   3.289   8.794  1.5696  0.1239 -0.6896
 9329SOL     OW39448   3.221   3.407   3.561  0.2690 -0.1848  0.8779
 9329SOL    HW139449   3.287   3.460   3.605 -0.5572  1.7210 -0.1429
 9329SOL    HW239450   3.251   3.317   3.566 -0.1888 -0.2454  2.4402
 9330SOL     OW39451   0.484   0.245   7.700 -0.2297  0.1225  0.3477
 9330SOL    HW139452   0.425   0.290   7.639 -0.5013 -1.3039 -0.4387
 9330SOL    HW239453   0.555   0.310   7.696  1.3558 -1.6459 -0.0478
 9331SOL     OW39454   2.316   1.793   6.228  0.1252 -0.1773  0.3333
 9331SOL    HW139455   2.315   1.698   6.218 -2.1007  0.1530 -2.5732
 9331SOL    HW239456   2.394   1.807   6.281  1.3916 -2.5011 -0.9359
 9332SOL     OW39457   0.546   2.246   7.757  0.4901  0.1415 -0.3781
 9332SOL    HW139458   0.634   2.276   7.780  0.6944 -2.2374  1.8456
 9332SOL    HW239459   0.556   2.151   7.756 -2.0516 -0.1133 -0.8783
 9333SOL     OW39460   0.418   3.080  15.122 -0.3086 -0.1988 -0.5968
 9333SOL    HW139461   0.479   3.151  15.101 -0.4992 -0.4354 -1.9509
 9333SOL    HW239462   0.369   3.129  15.188  1.7975 -0.0536  0.8875
 9334SOL     OW39463   2.061   4.330   4.018 -0.3165 -0.8085  0.0010
 9334SOL    HW139464   2.135   4.363   3.968 -1.8818  0.6636 -1.3636
 9334SOL    HW239465   2.018   4.271   3.955  0.9731 -0.9740 -0.7300
 9335SOL     OW39466   2.753   4.546   4.248  0.4240 -0.7560 -0.3134
 9335SOL    HW139467   2.758   4.638   4.223  1.0556 -0.7490 -0.1620
 9335SOL    HW239468   2.669   4.534   4.203  0.7681 -0.0072 -1.1430
 9336SOL     OW39469   0.631   2.179   2.540 -0.5372 -0.4234 -0.3726
 9336SOL    HW139470   0.549   2.164   2.588 -0.8938 -1.8634 -1.4339
 9336SOL    HW239471   0.686   2.135   2.605  0.4552 -0.3634 -1.1794
 9337SOL     OW39472   2.255   4.680  11.320  0.4586 -0.1020 -0.0676
 9337SOL    HW139473   2.293   0.014  11.382 -0.7005 -0.7891  1.3290
 9337SOL    HW239474   2.337   4.647  11.283  0.7286  1.9329 -1.2375
 9338SOL     OW39475   3.387   0.891   3.294 -0.1792 -0.3776 -0.0138
 9338SOL    HW139476   3.375   0.814   3.349  0.9885 -1.6673 -1.5789
 9338SOL    HW239477   3.393   0.953   3.367 -0.7711  1.2489 -1.3348
 9339SOL     OW39478   2.199   2.636   8.772  0.3712  0.0171 -0.0880
 9339SOL    HW139479   2.156   2.691   8.706 -0.3876 -1.4475 -0.8267
 9339SOL    HW239480   2.262   2.589   8.717  1.8081 -0.0426  1.5952
 9340SOL     OW39481   1.690   1.502   8.024 -0.1010 -0.3918  0.0953
 9340SOL    HW139482   1.603   1.470   8.000 -0.4036 -0.0665  0.7696
 9340SOL    HW239483   1.684   1.512   8.119 -1.6230  2.7165 -0.3303
 9341SOL     OW39484   0.198   0.024   4.832  0.6578  0.0133  0.2291
 9341SOL    HW139485   0.266   0.083   4.802  1.8859 -0.5314  1.9208
 9341SOL    HW239486   0.241   4.666   4.840 -0.5275 -0.5670  0.5207
 9342SOL     OW39487   2.594   2.837   4.677 -0.2358 -0.2035  0.1111
 9342SOL    HW139488   2.571   2.841   4.770 -1.9422 -0.4480 -0.2971
 9342SOL    HW239489   2.513   2.803   4.640 -0.9121  0.6666  0.7958
 9343SOL     OW39490   2.818   1.842   7.988 -0.1195 -0.4322  0.1797
 9343SOL    HW139491   2.795   1.760   7.945 -0.9799 -0.9744  1.6528
 9343SOL    HW239492   2.896   1.816   8.037  0.3196  1.5379  0.4929
 9344SOL     OW39493   1.408   2.883   3.584  0.0644 -0.3911 -0.4505
 9344SOL    HW139494   1.435   2.809   3.639  0.9907  0.1179 -0.2152
 9344SOL    HW239495   1.351   2.933   3.642 -1.2495 -3.0323  0.5234
 9345SOL     OW39496   3.612   2.130   9.269  0.2523  0.2933 -0.6756
 9345SOL    HW139497   3.693   2.110   9.222  0.2679 -0.3260 -0.3868
 9345SOL    HW239498   3.548   2.084   9.215 -1.1247  2.1306 -0.5958
 9346SOL     OW39499   2.675   3.112   7.204 -0.1456  0.2234 -0.4050
 9346SOL    HW139500   2.690   3.193   7.155  1.5350  0.5477  0.6277
 9346SOL    HW239501   2.579   3.119   7.204 -0.2034 -0.5880 -1.0313
 9347SOL     OW39502   0.133   1.919   1.722  0.3788 -0.0311 -0.2568
 9347SOL    HW139503   0.215   1.936   1.769 -1.8864  1.2419  3.1933
 9347SOL    HW239504   0.093   2.006   1.730  0.3957  0.0311 -0.8300
 9348SOL     OW39505   4.354   0.249   2.587 -0.9119  0.2178  0.2383
 9348SOL    HW139506   4.354   0.191   2.511 -2.6315  1.1998 -0.5268
 9348SOL    HW239507   4.297   0.321   2.560  1.8272  2.0336 -0.6780
 9349SOL     OW39508   0.941   1.128   7.206 -0.0662 -0.3630 -0.2505
 9349SOL    HW139509   0.878   1.065   7.172 -0.5980  1.3327 -2.3992
 9349SOL    HW239510   0.889   1.200   7.241  2.4186  0.5846  1.5324
 9350SOL     OW39511   2.213   2.683   5.936 -0.6002  0.3096 -0.5339
 9350SOL    HW139512   2.178   2.649   6.018  1.2349  0.8897  0.4813
 9350SOL    HW239513   2.161   2.764   5.937 -1.1125 -0.0841  2.9355
 9351SOL     OW39514   2.686   4.676   8.623  0.0686 -0.5868  0.3192
 9351SOL    HW139515   2.697   4.715   8.709  0.7851 -2.7731  1.2260
 9351SOL    HW239516   2.773   4.675   8.583 -0.3707  0.6174 -0.6669
 9352SOL     OW39517   3.876   0.158   6.658 -0.1937 -0.2048  0.1558
 9352SOL    HW139518   3.791   0.191   6.688 -0.7826 -2.2206  0.7125
 9352SOL    HW239519   3.936   0.231   6.669  1.3028 -1.6351  1.4656
 9353SOL     OW39520   1.456   4.294  11.572  0.0013 -0.5818 -0.1098
 9353SOL    HW139521   1.549   4.292  11.548  0.3295 -1.4680  1.2683
 9353SOL    HW239522   1.422   4.350  11.502 -0.8310  2.6152  2.8417
 9354SOL     OW39523   1.578   2.601   6.991 -0.1381 -1.0012 -0.5078
 9354SOL    HW139524   1.648   2.575   7.051 -1.6862 -1.0057  1.2994
 9354SOL    HW239525   1.574   2.695   7.012 -0.8429 -0.8884 -1.1495
 9355SOL     OW39526   3.933   2.016   6.094 -0.0971 -0.1716  0.1003
 9355SOL    HW139527   3.891   1.943   6.048 -0.5853  0.9246 -1.1624
 9355SOL    HW239528   3.855   2.067   6.116  1.6063  2.3940  0.1349
 9356SOL     OW39529   0.606   4.270   8.754 -0.2750  0.1671  0.2943
 9356SOL    HW139530   0.555   4.348   8.775 -1.9387 -0.2453 -2.2371
 9356SOL    HW239531   0.694   4.306   8.749  0.0076 -0.9655 -2.3677
 9357SOL     OW39532   3.150   0.214   5.477 -0.0104  0.0870  0.3003
 9357SOL    HW139533   3.103   0.133   5.458  2.0796 -1.6590  2.7631
 9357SOL    HW239534   3.224   0.188   5.531  1.1689  0.1685 -1.2778
 9358SOL     OW39535   1.810   2.538   7.155  0.1207 -0.3001  0.2293
 9358SOL    HW139536   1.765   2.512   7.236  0.5985 -3.2009 -0.4219
 9358SOL    HW239537   1.860   2.459   7.134 -0.6417 -0.6839 -0.1295
 9359SOL     OW39538   2.381   3.306   1.524  0.2570 -0.1875  0.4123
 9359SOL    HW139539   2.379   3.252   1.603 -0.5203 -2.6030 -1.2713
 9359SOL    HW239540   2.471   3.285   1.499  0.5242 -0.7936  1.8451
 9360SOL     OW39541   0.493   0.180  12.858  0.3099  0.0342  0.2696
 9360SOL    HW139542   0.507   0.226  12.775  3.5570 -1.8342 -0.2125
 9360SOL    HW239543   0.562   0.225  12.909  1.4094 -1.1661 -0.1683
 9361SOL     OW39544   2.966   3.812   3.240  0.4401  0.5321  0.6403
 9361SOL    HW139545   3.006   3.899   3.228 -0.8944  0.9341 -0.9477
 9361SOL    HW239546   3.002   3.795   3.327 -1.9561  0.2331  1.5976
 9362SOL     OW39547   3.197   0.154   8.615 -0.4610  0.0807  0.3266
 9362SOL    HW139548   3.227   0.129   8.528 -0.4463 -0.6251  0.5382
 9362SOL    HW239549   3.264   0.218   8.640  1.4316 -1.4490 -0.8457
 9363SOL     OW39550   3.947   1.534  14.364  0.7937 -0.4466 -0.2998
 9363SOL    HW139551   3.976   1.545  14.274  1.4741 -0.2040 -0.0512
 9363SOL    HW239552   4.003   1.594  14.413  0.7608 -0.1666 -0.6025
 9364SOL     OW39553   3.750   3.384   7.266  0.1129 -0.2777 -0.2390
 9364SOL    HW139554   3.784   3.322   7.330 -0.2030  1.4691  1.6044
 9364SOL    HW239555   3.736   3.323   7.194  1.0403 -3.1688  2.0640
 9365SOL     OW39556   3.008   0.542  12.720 -0.2228  0.2168 -0.0287
 9365SOL    HW139557   2.935   0.604  12.716  1.0441  1.7028 -0.4404
 9365SOL    HW239558   3.035   0.535  12.628 -2.2003  0.6985 -0.6584
 9366SOL     OW39559   0.454   0.994   2.156 -0.2290 -0.0926 -0.1761
 9366SOL    HW139560   0.425   1.085   2.151  1.2296  0.3784 -0.0636
 9366SOL    HW239561   0.374   0.962   2.116 -0.3636  0.1849 -0.1287
 9367SOL     OW39562   1.773   1.539   6.119 -0.3565 -0.7082 -0.3972
 9367SOL    HW139563   1.756   1.560   6.211 -0.9437 -0.0223 -0.6572
 9367SOL    HW239564   1.743   1.448   6.127  2.0007 -1.2228  2.2968
 9368SOL     OW39565   3.431   0.086   8.174 -0.5881  0.0812 -0.1844
 9368SOL    HW139566   3.515   0.046   8.195  0.4582  1.6427 -1.4290
 9368SOL    HW239567   3.414   0.134   8.255  0.1284  1.0902 -0.6334
 9369SOL     OW39568   0.576   2.351   6.319 -0.0416  0.0815 -0.3370
 9369SOL    HW139569   0.489   2.381   6.347 -1.2672 -1.7028 -2.2021
 9369SOL    HW239570   0.626   2.432   6.327  0.0508 -0.1611  1.4610
 9370SOL     OW39571   3.270   3.413   2.219  0.3815 -0.1735  0.2279
 9370SOL    HW139572   3.314   3.362   2.151  0.3770  0.8602 -0.5409
 9370SOL    HW239573   3.310   3.498   2.202  0.6643 -0.1192  1.1574
 9371SOL     OW39574   4.680   2.837   8.645 -0.4572  0.0573 -0.1311
 9371SOL    HW139575   4.688   2.825   8.550  0.2026  3.5569 -0.4996
 9371SOL    HW239576   4.723   2.761   8.683  1.3774  0.8906 -0.5491
 9372SOL     OW39577   4.655   3.242   4.930  0.5141  0.0190 -0.2654
 9372SOL    HW139578   0.014   3.243   4.972  1.3073  1.4393 -1.9300
 9372SOL    HW239579   4.654   3.156   4.887 -1.1031  0.3657 -0.9242
 9373SOL     OW39580   2.482   1.816  13.261  0.0730 -0.8692  0.2435
 9373SOL    HW139581   2.414   1.826  13.195  0.4205  0.2857  0.0592
 9373SOL    HW239582   2.460   1.724  13.277  0.3073 -0.8759  0.5371
 9374SOL     OW39583   1.704   4.473   8.600  0.8503 -0.1260  0.0762
 9374SOL    HW139584   1.766   4.424   8.655  1.0617  1.6774  1.4348
 9374SOL    HW239585   1.676   4.542   8.660 -1.0632 -2.0659  1.4447
 9375SOL     OW39586   4.437   2.409   8.552  0.6350 -0.2884 -0.4247
 9375SOL    HW139587   4.481   2.447   8.628  0.4962 -0.5789 -0.2010
 9375SOL    HW239588   4.395   2.490   8.523  0.4130  0.1173  0.9866
 9376SOL     OW39589   2.375   2.965  17.159  0.8876  0.6171 -0.6305
 9376SOL    HW139590   2.366   3.060  17.148 -2.4294  0.2758 -1.0485
 9376SOL    HW239591   2.369   2.929  17.070  1.0317  2.3344 -1.3235
 9377SOL     OW39592   2.475   2.960   2.765  0.2837 -0.5146  0.1736
 9377SOL    HW139593   2.437   2.983   2.850 -1.1646  0.1433 -0.6518
 9377SOL    HW239594   2.467   2.865   2.772  0.2549 -0.5157  0.1188
 9378SOL     OW39595   4.253   4.436   4.991 -0.4338 -0.6649 -0.0552
 9378SOL    HW139596   4.268   4.355   5.041 -0.4881 -0.3757  0.4268
 9378SOL    HW239597   4.186   4.476   5.045  1.7633  1.6791  0.9170
 9379SOL     OW39598   4.080   4.523  11.375 -0.1280 -0.4279 -0.2546
 9379SOL    HW139599   3.993   4.560  11.388  0.5040  0.4975  1.3882
 9379SOL    HW239600   4.055   4.445  11.326 -0.2929  0.6728 -1.9454
 9380SOL     OW39601   1.151   0.353  17.685  0.1499  0.3880 -0.3873
 9380SOL    HW139602   1.091   0.404  17.630 -0.1522 -1.9599 -2.2239
 9380SOL    HW239603   1.233   0.367  17.638 -0.1780  0.8131 -0.8381
 9381SOL     OW39604   1.744   0.855  12.181  0.5118  0.6577 -0.1832
 9381SOL    HW139605   1.752   0.760  12.176  0.0809  0.4451  2.6828
 9381SOL    HW239606   1.789   0.897  12.108  0.6728  0.2952 -0.2891
 9382SOL     OW39607   0.030   0.863   1.422  0.6679  0.0024  0.6398
 9382SOL    HW139608   0.050   0.894   1.511 -2.3707  1.5248  0.7814
 9382SOL    HW239609   0.073   0.928   1.366  0.6217 -0.5450 -0.0218
 9383SOL     OW39610   2.939   2.047   4.447 -0.0111 -0.0248 -0.2087
 9383SOL    HW139611   2.873   1.978   4.450 -0.9343  0.8086 -1.0441
 9383SOL    HW239612   2.966   2.056   4.538 -2.5128  1.1574  0.4268
 9384SOL     OW39613   0.082   0.599   2.349  0.1091 -0.1515 -0.1098
 9384SOL    HW139614   0.015   0.626   2.411  0.9851  0.8566  0.4008
 9384SOL    HW239615   0.104   0.513   2.386  3.6724 -0.2341 -2.3325
 9385SOL     OW39616   1.000   3.276   4.128  0.2823  0.1588  0.7816
 9385SOL    HW139617   1.084   3.323   4.131  0.5982 -0.3591  0.2516
 9385SOL    HW239618   0.982   3.265   4.221  1.1984  1.3625  1.1035
 9386SOL     OW39619   3.854   3.334   9.310  0.3456  0.1308 -0.4597
 9386SOL    HW139620   3.822   3.397   9.374  0.0415 -0.3405 -0.1440
 9386SOL    HW239621   3.794   3.259   9.316  0.4575  0.0508 -0.3425
 9387SOL     OW39622   2.244   0.622   5.731 -0.1251 -0.0895  0.5610
 9387SOL    HW139623   2.278   0.585   5.650  2.0312  1.6244  0.6776
 9387SOL    HW239624   2.245   0.552   5.796 -0.9879 -3.0467 -2.5796
 9388SOL     OW39625   4.275   2.908  15.222  0.6626 -0.0528  0.2729
 9388SOL    HW139626   4.339   2.964  15.266  1.1614  0.1422 -0.7000
 9388SOL    HW239627   4.333   2.886  15.150 -1.1493  0.3306 -1.2921
 9389SOL     OW39628   0.215   1.645   9.410  0.5480 -0.5951  0.8600
 9389SOL    HW139629   0.287   1.640   9.347  0.3524 -0.6157  0.6395
 9389SOL    HW239630   0.151   1.593   9.361  0.9959 -1.4342  1.1763
 9390SOL     OW39631   4.178   2.604   6.567 -0.6587 -0.2739 -0.6949
 9390SOL    HW139632   4.192   2.584   6.475 -0.6433 -1.5295 -0.4168
 9390SOL    HW239633   4.216   2.531   6.616 -0.5864  1.0383  1.2477
 9391SOL     OW39634   2.226   3.674  17.666 -0.2728 -0.2181 -0.0622
 9391SOL    HW139635   2.320   3.684  17.684 -0.4342  2.7367 -0.8315
 9391SOL    HW239636   2.182   3.746   0.003 -2.1746 -1.1831 -0.4071
 9392SOL     OW39637   4.566   2.768  12.487 -0.5042 -0.1191  0.3205
 9392SOL    HW139638   4.585   2.780  12.580 -1.9369  1.1929  0.4345
 9392SOL    HW239639   4.652   2.773  12.446 -0.1689  1.7278  1.2534
 9393SOL     OW39640   1.718   1.081   4.720  0.6140 -0.0149  0.4875
 9393SOL    HW139641   1.773   1.095   4.797 -1.2402 -0.0762  1.8422
 9393SOL    HW239642   1.701   1.173   4.698  0.5373 -0.3766 -0.9369
 9394SOL     OW39643   0.586   1.736   4.680  0.4491 -0.0964  0.2338
 9394SOL    HW139644   0.617   1.736   4.590 -0.5057  2.2827 -0.0949
 9394SOL    HW239645   0.493   1.717   4.672  0.9862 -2.4117 -0.5675
 9395SOL     OW39646   0.323   0.891   6.267 -0.1865  0.3455 -0.7361
 9395SOL    HW139647   0.359   0.865   6.183 -1.2185 -0.9385 -0.7890
 9395SOL    HW239648   0.354   0.830   6.334 -0.3452 -0.6013 -1.5334
 9396SOL     OW39649   2.712   4.553   7.863 -0.0264  0.1519  0.3596
 9396SOL    HW139650   2.658   4.507   7.928  2.5438  0.1331  2.4866
 9396SOL    HW239651   2.749   4.624   7.915 -0.4561  0.7634 -0.1663
 9397SOL     OW39652   4.299   0.966  16.862 -0.2428 -0.4429 -0.7781
 9397SOL    HW139653   4.209   0.945  16.836 -0.9796  0.0870  1.3226
 9397SOL    HW239654   4.283   0.990  16.954  2.2477 -0.9474 -0.2061
 9398SOL     OW39655   3.535   4.398   3.240 -0.2186 -0.0405 -0.1373
 9398SOL    HW139656   3.595   4.351   3.297 -1.4575 -1.9868 -0.4328
 9398SOL    HW239657   3.469   4.442   3.294  1.1832  1.0635  0.6614
 9399SOL     OW39658   0.031   3.657   4.144 -0.1741 -0.3250  0.3270
 9399SOL    HW139659   0.094   3.666   4.215  1.6841  1.5901 -1.5542
 9399SOL    HW239660   0.056   3.727   4.084  2.4511 -1.1734  0.4289
 9400SOL     OW39661   1.010   3.383   0.467 -0.3786 -0.3214  0.1679
 9400SOL    HW139662   0.935   3.349   0.418  1.3236 -1.9658 -1.2578
 9400SOL    HW239663   0.994   3.477   0.457 -0.4880 -0.4564 -0.8300
 9401SOL     OW39664   3.932   0.077  11.888  0.2927 -0.1825  0.0071
 9401SOL    HW139665   3.901   0.166  11.868  0.2742 -0.4060 -0.9741
 9401SOL    HW239666   3.892   0.060  11.973  0.7958 -0.9796  0.0837
 9402SOL     OW39667   0.340   1.309  16.321 -0.2518 -0.3356  0.1732
 9402SOL    HW139668   0.422   1.358  16.314  0.0082 -0.8699 -0.6202
 9402SOL    HW239669   0.347   1.282  16.412 -0.7637  0.9172  0.5781
 9403SOL     OW39670   2.690   2.311   2.151 -0.0182 -0.2246 -0.0790
 9403SOL    HW139671   2.598   2.324   2.171  0.4105  0.7885  1.1832
 9403SOL    HW239672   2.696   2.334   2.058 -2.5526  1.6295  0.2400
 9404SOL     OW39673   0.365   2.458   4.480  0.9075  0.3164 -0.1218
 9404SOL    HW139674   0.319   2.540   4.497 -0.8790 -0.5807 -0.6514
 9404SOL    HW239675   0.368   2.421   4.568  0.1672  1.5333  0.4169
 9405SOL     OW39676   1.128   3.850  15.410 -0.2712 -0.5734  0.0794
 9405SOL    HW139677   1.155   3.818  15.496 -0.9867  0.7806  0.8161
 9405SOL    HW239678   1.214   3.858  15.370  0.1079 -0.1533  0.9662
 9406SOL     OW39679   2.375   1.672   2.579 -0.2754 -0.0942  0.2746
 9406SOL    HW139680   2.343   1.616   2.508 -1.4014  0.7192  0.1320
 9406SOL    HW239681   2.431   1.731   2.529 -3.1323  2.4597  0.1006
 9407SOL     OW39682   2.655   0.184   7.314  0.6532  0.3420 -0.1176
 9407SOL    HW139683   2.683   0.241   7.386  0.3232 -1.2034  1.2202
 9407SOL    HW239684   2.723   0.188   7.247  0.5542 -0.2259 -0.2510
 9408SOL     OW39685   2.095   3.030  13.674  0.6353 -0.7650  0.7289
 9408SOL    HW139686   2.104   2.946  13.719  1.4428 -0.8175  0.4708
 9408SOL    HW239687   2.117   3.090  13.745 -0.5562  0.4824  0.0436
 9409SOL     OW39688   1.279   1.761   9.139 -0.3254  0.0836 -0.1763
 9409SOL    HW139689   1.345   1.738   9.205 -0.0139  0.8828 -0.2030
 9409SOL    HW239690   1.330   1.744   9.060  0.6539 -1.7041  0.8349
 9410SOL     OW39691   2.520   4.141   9.427  0.2808  0.1941  0.2589
 9410SOL    HW139692   2.482   4.086   9.359 -0.6272  1.7979 -0.5232
 9410SOL    HW239693   2.572   4.072   9.468 -0.2566  0.2494  1.0370
 9411SOL     OW39694   0.819   4.535   2.446  0.9325 -0.2500 -0.6976
 9411SOL    HW139695   0.846   4.522   2.537  0.1275 -0.7231 -0.5251
 9411SOL    HW239696   0.785   4.625   2.443  0.4139 -0.3650  1.5922
 9412SOL     OW39697   0.064   2.708  15.629 -0.1172 -0.7229 -0.1642
 9412SOL    HW139698   0.060   2.613  15.639 -2.4549 -0.5252  0.7630
 9412SOL    HW239699   0.041   2.733  15.718 -2.4461 -1.5524 -0.5226
 9413SOL     OW39700   4.666   0.718   8.101 -0.5108  0.0145 -0.1507
 9413SOL    HW139701   4.609   0.794   8.113  0.8695  0.9772  0.2851
 9413SOL    HW239702   4.604   0.645   8.101 -1.3914  0.7724  2.9330
 9414SOL     OW39703   0.756   3.536   5.916 -0.2352 -1.0126 -0.2182
 9414SOL    HW139704   0.705   3.611   5.884 -0.0431 -1.1830 -0.9411
 9414SOL    HW239705   0.706   3.512   5.993  1.4983 -2.0538  0.5863
 9415SOL     OW39706   1.204   4.231   8.135 -0.0709  0.1923 -0.3472
 9415SOL    HW139707   1.144   4.174   8.184  0.6468 -0.0296  0.2729
 9415SOL    HW239708   1.144   4.295   8.096 -1.2283 -0.0270  1.0768
 9416SOL     OW39709   1.621   0.585   5.492  0.5713 -0.4330  0.0406
 9416SOL    HW139710   1.608   0.637   5.412  1.4730 -0.9204 -0.4157
 9416SOL    HW239711   1.715   0.567   5.495  0.7083  0.6960  2.6424
 9417SOL     OW39712   3.956   0.158   4.910 -0.6391 -0.3648  0.3797
 9417SOL    HW139713   4.018   0.113   4.969  1.5815  1.0677 -0.8503
 9417SOL    HW239714   3.992   0.129   4.826 -0.2257  1.9048 -0.2104
 9418SOL     OW39715   2.129   4.567   1.246 -0.1524  0.0894  0.2881
 9418SOL    HW139716   2.216   4.603   1.227 -0.5947 -0.0598 -1.9652
 9418SOL    HW239717   2.074   4.605   1.178  1.2097 -0.4795 -1.1310
 9419SOL     OW39718   2.086   0.058   9.601  0.0388 -0.2502  0.0637
 9419SOL    HW139719   2.173   0.096   9.589 -0.5622  1.9161  2.4503
 9419SOL    HW239720   2.111   4.697   9.630 -1.1575 -0.1074  1.5025
 9420SOL     OW39721   0.204   3.764   3.621  0.1288  0.3096  0.8275
 9420SOL    HW139722   0.202   3.830   3.690  1.5262  2.9024 -1.6032
 9420SOL    HW239723   0.147   3.805   3.556  1.1870 -1.1317 -1.0218
 9421SOL     OW39724   0.407   1.527   5.895 -0.0908 -0.4696  0.1995
 9421SOL    HW139725   0.335   1.572   5.849  1.4040  1.0109 -0.6966
 9421SOL    HW239726   0.426   1.576   5.975  0.6435  2.2673 -1.6326
 9422SOL     OW39727   1.717   1.680   3.637 -0.4392  0.7957  0.6836
 9422SOL    HW139728   1.775   1.628   3.693 -0.0734  0.6480  0.1678
 9422SOL    HW239729   1.628   1.649   3.657  0.6697 -0.7154  3.3291
 9423SOL     OW39730   3.970   4.449   1.457 -0.2848 -0.2686  0.0147
 9423SOL    HW139731   4.018   4.528   1.434  0.6238 -0.3506  1.5820
 9423SOL    HW239732   3.994   4.394   1.383 -0.9777 -1.9835  1.0631
 9424SOL     OW39733   3.470   0.576   9.783 -0.0305  0.4623  0.2478
 9424SOL    HW139734   3.477   0.487   9.748  0.5141  0.8405 -0.6311
 9424SOL    HW239735   3.461   0.555   9.876 -2.4574  0.3772 -0.0212
 9425SOL     OW39736   1.985   0.530  10.124  0.2086  0.0426 -0.2700
 9425SOL    HW139737   1.983   0.541  10.219 -0.0236 -1.0393 -0.1433
 9425SOL    HW239738   2.026   0.443  10.128 -2.3428 -1.2319 -1.6431
 9426SOL     OW39739   4.621   3.450   3.395 -0.0344 -0.0134 -0.0746
 9426SOL    HW139740   4.592   3.446   3.303  0.0030 -1.2493 -0.0322
 9426SOL    HW239741   4.570   3.528   3.419 -2.2539 -1.5500  0.1894
 9427SOL     OW39742   0.699   0.455   8.811  0.4361 -0.2434  0.0029
 9427SOL    HW139743   0.676   0.546   8.831 -0.5437 -0.8781  1.8573
 9427SOL    HW239744   0.609   0.424   8.811  0.1806  0.4979 -2.1631
 9428SOL     OW39745   3.105   4.016   5.432  0.5952  0.1535 -0.1870
 9428SOL    HW139746   3.139   4.059   5.510  0.5152 -1.9861  1.0164
 9428SOL    HW239747   3.149   4.050   5.353 -0.7741  0.8963 -0.6254
 9429SOL     OW39748   2.073   0.074   4.242  0.2938  0.0893  0.1760
 9429SOL    HW139749   1.997   0.129   4.261  0.4480 -0.2974  1.8978
 9429SOL    HW239750   2.131   0.112   4.307  0.3019 -1.8191  1.2832
 9430SOL     OW39751   0.657   3.608   2.721  0.5983  0.3687 -0.5037
 9430SOL    HW139752   0.708   3.551   2.779  0.2149  1.5613  1.0083
 9430SOL    HW239753   0.681   3.561   2.641 -1.3195  0.5604 -1.1828
 9431SOL     OW39754   3.157   0.550   2.331 -0.1376 -0.0729 -0.1653
 9431SOL    HW139755   3.170   0.483   2.265 -1.2564  0.5616 -1.0157
 9431SOL    HW239756   3.078   0.513   2.370 -0.1057 -1.8686 -1.8279
 9432SOL     OW39757   3.364   2.955  17.403  0.0669 -0.0431 -0.1163
 9432SOL    HW139758   3.358   2.891  17.332 -2.7477 -0.1587  0.2414
 9432SOL    HW239759   3.359   2.899  17.481  1.6807  2.7487  1.9826
 9433SOL     OW39760   3.726   4.381  16.759 -0.7448  0.2017 -0.0862
 9433SOL    HW139761   3.810   4.423  16.744 -0.2723 -0.0463  1.8454
 9433SOL    HW239762   3.678   4.446  16.707  1.7615  2.2073  0.1485
 9434SOL     OW39763   1.887   3.823   2.860 -0.5552  0.2284  0.4619
 9434SOL    HW139764   1.821   3.754   2.861  0.7833 -1.0411  0.8230
 9434SOL    HW239765   1.971   3.778   2.858  0.5074  2.2085 -0.5674
 9435SOL     OW39766   1.144   1.099   3.627  0.2029 -0.4470  0.5317
 9435SOL    HW139767   1.181   1.181   3.593 -0.9150  0.0953  0.6396
 9435SOL    HW239768   1.223   1.045   3.623  0.4994  0.2225 -3.1032
 9436SOL     OW39769   0.471   1.614   8.661  0.1361 -0.6499 -0.0508
 9436SOL    HW139770   0.409   1.581   8.596 -1.6868  0.0946  1.3287
 9436SOL    HW239771   0.424   1.686   8.702  1.2035  0.1217 -0.1704
 9437SOL     OW39772   3.074   1.227   8.390 -0.2172  0.5668 -0.0712
 9437SOL    HW139773   3.120   1.308   8.410  0.1251  0.4900 -0.5356
 9437SOL    HW239774   2.989   1.265   8.369 -0.0870  1.1372  0.4456
 9438SOL     OW39775   3.391   4.456  16.960 -0.1041 -0.3111 -0.2704
 9438SOL    HW139776   3.366   4.494  17.044 -0.5206  0.2501 -0.6425
 9438SOL    HW239777   3.438   4.526  16.915  0.5685  0.1354  1.1412
 9439SOL     OW39778   1.503   1.676  14.315 -0.5737 -0.0633 -0.1045
 9439SOL    HW139779   1.555   1.652  14.392  0.8951 -1.5004 -1.5402
 9439SOL    HW239780   1.484   1.591  14.276  1.1747 -0.1594 -0.7754
 9440SOL     OW39781   1.762   2.441   4.235 -0.3032  0.0854 -0.3579
 9440SOL    HW139782   1.779   2.357   4.278 -0.1959  0.1711 -0.2333
 9440SOL    HW239783   1.788   2.415   4.147 -0.3279  0.1474 -0.3835
 9441SOL     OW39784   0.400   3.727   8.786  0.8198 -0.0719  0.3132
 9441SOL    HW139785   0.337   3.782   8.739  1.7135  1.0990  0.4637
 9441SOL    HW239786   0.346   3.657   8.822  1.1423 -0.1338  0.6725
 9442SOL     OW39787   0.478   3.888   6.540 -0.0019  0.0562 -0.8340
 9442SOL    HW139788   0.532   3.966   6.529  0.7081 -0.1363  1.3625
 9442SOL    HW239789   0.437   3.876   6.454  3.8094 -0.2210 -2.6238
 9443SOL     OW39790   0.819   3.195   5.462  0.2789 -0.1905 -0.4162
 9443SOL    HW139791   0.854   3.277   5.429  1.5762 -1.0421 -1.1762
 9443SOL    HW239792   0.745   3.180   5.403 -0.2237  1.2504 -0.1428
 9444SOL     OW39793   3.648   0.341   9.926  0.0090 -0.5044  0.8235
 9444SOL    HW139794   3.659   0.256   9.885 -1.5560 -0.3205  0.0487
 9444SOL    HW239795   3.738   0.373   9.937  0.4748 -1.8854  1.0436
 9445SOL     OW39796   0.160   4.442   8.416  0.5910 -0.0709  1.0893
 9445SOL    HW139797   0.169   4.496   8.494  0.0069  0.4228  0.8076
 9445SOL    HW239798   0.068   4.450   8.391  0.7555  0.7028  0.7112
 9446SOL     OW39799   3.010   0.154  16.720 -0.0055  0.2154 -0.3925
 9446SOL    HW139800   3.024   0.188  16.808  2.3545 -0.2280 -0.5956
 9446SOL    HW239801   3.100   0.144  16.688 -0.5378 -0.1753 -1.7963
 9447SOL     OW39802   3.018   1.533   9.682  0.2212  0.1194  0.7317
 9447SOL    HW139803   3.075   1.585   9.740 -1.1953  1.1801  1.1748
 9447SOL    HW239804   3.035   1.442   9.708 -1.3199  0.1052  1.6943
 9448SOL     OW39805   0.086   3.963   8.808  0.8490 -0.3656  0.2658
 9448SOL    HW139806   0.023   4.023   8.848  0.0298  0.3297 -2.0779
 9448SOL    HW239807   0.142   4.021   8.756 -0.1980  1.1429  0.8277
 9449SOL     OW39808   2.542   4.640   6.821 -0.5901  0.0365  0.8086
 9449SOL    HW139809   2.617   4.668   6.875  0.3485 -0.1680 -0.3979
 9449SOL    HW239810   2.575   4.676   6.739 -1.0587 -0.1756  0.5302
 9450SOL     OW39811   3.271   2.482  11.897  0.4039  0.0007  0.1109
 9450SOL    HW139812   3.361   2.457  11.877  0.2220  0.6046 -1.4409
 9450SOL    HW239813   3.260   2.565  11.851 -1.0172  0.0365  0.4996
 9451SOL     OW39814   4.104   2.304   7.743  0.4607 -0.2338 -0.6983
 9451SOL    HW139815   4.029   2.300   7.801 -0.0868  2.4743 -1.2340
 9451SOL    HW239816   4.059   2.343   7.668 -1.3641 -0.9845  0.0076
 9452SOL     OW39817   1.683   2.082   1.862  0.1904  0.2578 -0.3626
 9452SOL    HW139818   1.752   2.076   1.795 -0.2172  1.4934 -0.8792
 9452SOL    HW239819   1.676   2.177   1.866  0.7533  0.2484  0.9033
 9453SOL     OW39820   4.095   4.002  10.595 -0.3468 -0.1716  0.5316
 9453SOL    HW139821   4.124   3.994  10.504  1.4763  0.9080  1.0148
 9453SOL    HW239822   4.079   3.909  10.613  0.3386 -0.1744  1.1384
 9454SOL     OW39823   0.226   4.490  16.658 -0.2143 -0.2050 -0.3508
 9454SOL    HW139824   0.266   4.536  16.585 -0.2436  0.3720 -0.0073
 9454SOL    HW239825   0.162   4.551  16.695 -0.5283 -0.7100 -0.0604
 9455SOL     OW39826   3.153   2.587  17.040 -0.3127  0.3649 -0.3889
 9455SOL    HW139827   3.229   2.598  16.983  1.5646 -1.1097  1.8751
 9455SOL    HW239828   3.084   2.595  16.974  0.0123  0.1926 -0.7494
 9456SOL     OW39829   2.711   1.190   2.148  0.9142 -0.3018 -0.0551
 9456SOL    HW139830   2.732   1.100   2.123  2.5454  0.2574 -0.6987
 9456SOL    HW239831   2.659   1.172   2.226  0.1871 -0.0941 -0.4876
 9457SOL     OW39832   2.382   3.131   2.531 -0.6589 -0.0915 -0.0491
 9457SOL    HW139833   2.420   3.043   2.526 -1.0118 -0.1675 -1.3226
 9457SOL    HW239834   2.433   3.172   2.601 -0.2445 -0.1399 -0.3214
 9458SOL     OW39835   2.117   2.362   6.204  0.0948  0.2479 -0.5815
 9458SOL    HW139836   2.171   2.290   6.236 -1.8490 -0.3766  1.2965
 9458SOL    HW239837   2.038   2.346   6.255  0.2769  0.4771 -0.2323
 9459SOL     OW39838   2.923   2.623   9.130  0.2030  0.4359 -0.1859
 9459SOL    HW139839   2.968   2.539   9.139 -0.6060 -0.1353 -1.5113
 9459SOL    HW239840   2.879   2.612   9.046 -2.5166 -0.4652  1.3545
 9460SOL     OW39841   0.276   4.001   3.131  0.6454  0.4387 -0.1166
 9460SOL    HW139842   0.195   3.981   3.084 -0.2057  0.2796  1.4273
 9460SOL    HW239843   0.344   3.997   3.063 -0.0294 -2.1868 -0.6675
 9461SOL     OW39844   3.925   4.294  12.771 -0.0294  0.1273 -0.0943
 9461SOL    HW139845   3.971   4.318  12.690 -1.3730  0.0059 -0.8869
 9461SOL    HW239846   3.909   4.380  12.810 -1.3900 -0.7641  1.3156
 9462SOL     OW39847   1.236   2.965   0.846  0.0656  0.5754  0.8881
 9462SOL    HW139848   1.260   3.057   0.857  0.0222  0.6981 -0.0151
 9462SOL    HW239849   1.319   2.919   0.834  0.1899  1.0786 -0.1969
 9463SOL     OW39850   1.317   1.911   5.362  0.0403  0.3297 -0.0097
 9463SOL    HW139851   1.332   1.977   5.294  0.4667  0.2172 -0.0226
 9463SOL    HW239852   1.387   1.932   5.423  1.1869  0.1392 -1.2751
 9464SOL     OW39853   1.483   0.470  12.169  0.5161  0.0918  0.0622
 9464SOL    HW139854   1.442   0.395  12.126  0.0009  1.2863 -1.5087
 9464SOL    HW239855   1.478   0.537  12.101 -1.4450 -0.2060 -0.0817
 9465SOL     OW39856   0.292   3.389  17.518  0.3918 -0.1096 -0.2367
 9465SOL    HW139857   0.240   3.467  17.501 -1.4968 -1.2900  0.2010
 9465SOL    HW239858   0.243   3.337  17.580 -0.1157 -0.0824 -0.6168
 9466SOL     OW39859   1.981   3.512   6.337 -0.2609  0.0831  0.4602
 9466SOL    HW139860   1.998   3.480   6.248  2.5488 -1.5205  1.5669
 9466SOL    HW239861   2.056   3.463   6.371 -1.1952 -1.6299  0.0710
 9467SOL     OW39862   2.574   4.047   5.785 -0.2132 -0.0574 -0.2104
 9467SOL    HW139863   2.582   4.139   5.759 -2.0770  0.2314  0.2176
 9467SOL    HW239864   2.508   4.027   5.718  0.8492  3.1606 -2.2343
 9468SOL     OW39865   3.527   1.680   5.067  0.0128  0.4494 -0.8051
 9468SOL    HW139866   3.445   1.660   5.022 -0.7995 -0.8049  1.2350
 9468SOL    HW239867   3.517   1.775   5.070  0.1132  0.4293  0.2522
 9469SOL     OW39868   4.452   4.023   0.545 -0.2488  0.4264  0.0082
 9469SOL    HW139869   4.470   4.068   0.463 -2.1369  0.7254 -0.2493
 9469SOL    HW239870   4.489   4.087   0.606 -0.0467 -1.0668  1.4623
 9470SOL     OW39871   2.155   3.345   7.093  0.0483  0.2629  0.2316
 9470SOL    HW139872   2.156   3.416   7.029 -0.2817 -0.1890 -0.2638
 9470SOL    HW239873   2.193   3.388   7.170  2.5386  0.0460 -0.8857
 9471SOL     OW39874   1.880   0.513   4.136 -0.4918 -0.0084  0.8739
 9471SOL    HW139875   1.915   0.443   4.080  0.3701  0.4381  0.8508
 9471SOL    HW239876   1.932   0.495   4.215  1.4278 -1.1099 -0.6395
 9472SOL     OW39877   4.227   0.879  16.311 -0.4205 -0.3566  0.7801
 9472SOL    HW139878   4.236   0.843  16.399 -0.6952 -0.8255  0.6124
 9472SOL    HW239879   4.214   0.971  16.335 -0.5483  1.0697 -4.7294
 9473SOL     OW39880   0.810   0.309   6.796 -0.5973 -0.1353 -0.1417
 9473SOL    HW139881   0.789   0.380   6.856 -1.5437 -1.7434  1.4209
 9473SOL    HW239882   0.897   0.335   6.765 -0.4935 -1.0807 -0.6358
 9474SOL     OW39883   3.043   3.889   7.544 -0.0357 -0.9371  0.2656
 9474SOL    HW139884   3.033   3.940   7.624 -0.2772 -1.0431  0.3022
 9474SOL    HW239885   2.987   3.811   7.545 -1.1718 -0.1052  1.5785
 9475SOL     OW39886   3.767   3.588  14.375 -0.5486  0.3934 -0.3042
 9475SOL    HW139887   3.766   3.587  14.470 -0.8390 -2.1344 -0.3257
 9475SOL    HW239888   3.858   3.563  14.359  0.2236  1.8532  1.9647
 9476SOL     OW39889   0.847   4.406   8.721  0.5433  0.1225  0.0604
 9476SOL    HW139890   0.864   4.468   8.792  2.0267  0.8408 -0.9339
 9476SOL    HW239891   0.855   4.466   8.647 -0.2022 -0.6195 -0.6173
 9477SOL     OW39892   3.279   1.893  14.711  0.0886 -0.3034 -0.9080
 9477SOL    HW139893   3.327   1.960  14.662 -0.1274 -1.0658 -2.1705
 9477SOL    HW239894   3.278   1.938  14.795  0.3968  0.3188 -1.2344
 9478SOL     OW39895   2.901   0.808   2.389  0.4038 -0.0649  0.2224
 9478SOL    HW139896   2.929   0.780   2.302 -1.4145 -0.9122 -0.0904
 9478SOL    HW239897   2.967   0.877   2.396 -0.6605  0.9254  0.3758
 9479SOL     OW39898   2.082   0.807   2.324 -0.5892  0.1065 -0.6599
 9479SOL    HW139899   2.016   0.859   2.278  0.3198  0.6256 -1.3607
 9479SOL    HW239900   2.030   0.753   2.383 -0.0163  0.9658  0.6520
 9480SOL     OW39901   0.342   3.841   6.307 -0.0936  0.1339 -0.2267
 9480SOL    HW139902   0.297   3.809   6.229  2.0096 -1.1162 -0.9238
 9480SOL    HW239903   0.324   3.935   6.298  0.4667  0.5708  3.3895
 9481SOL     OW39904   2.715   3.727   9.922 -0.0509  0.1664  0.0625
 9481SOL    HW139905   2.793   3.765   9.882 -0.9375  0.3612 -1.5062
 9481SOL    HW239906   2.717   3.758  10.012 -1.9322  1.2310 -0.2606
 9482SOL     OW39907   3.382   3.821   1.347 -0.0208 -0.4615  0.8771
 9482SOL    HW139908   3.462   3.795   1.393  0.5382 -1.3924 -0.6642
 9482SOL    HW239909   3.369   3.901   1.399  0.9118  0.1283  0.1990
 9483SOL     OW39910   2.796   1.168   4.424  0.5587  0.5151  0.6250
 9483SOL    HW139911   2.872   1.163   4.367  0.6731 -0.6212  0.8808
 9483SOL    HW239912   2.723   1.179   4.364  0.9282  1.4881  0.3560
 9484SOL     OW39913   3.974   2.576   6.289  0.3424 -0.3331  0.0585
 9484SOL    HW139914   4.065   2.589   6.316  0.3398  1.1488 -0.5953
 9484SOL    HW239915   3.927   2.605   6.366 -1.5935 -0.8960 -0.9121
 9485SOL     OW39916   3.872   4.537   7.042 -0.4735 -0.0314  0.0275
 9485SOL    HW139917   3.796   4.498   7.085  0.4381 -0.9565  0.7783
 9485SOL    HW239918   3.820   4.575   6.971  0.8271  2.8711  0.6261
 9486SOL     OW39919   0.451   1.142   3.587 -0.6468  0.1048  0.4336
 9486SOL    HW139920   0.504   1.103   3.656  0.9067 -0.2699 -0.9678
 9486SOL    HW239921   0.366   1.104   3.609 -0.7097  1.5072  2.6754
 9487SOL     OW39922   0.409   3.422   9.525  0.5146  0.6633 -0.3879
 9487SOL    HW139923   0.441   3.344   9.479 -0.9481  1.7728 -3.3153
 9487SOL    HW239924   0.343   3.378   9.580  0.2935  2.8740  1.0841
 9488SOL     OW39925   2.574   1.400   0.709  0.5828 -0.5616  0.7476
 9488SOL    HW139926   2.509   1.404   0.640  1.7365 -0.1772 -0.3188
 9488SOL    HW239927   2.584   1.495   0.718  1.2494 -0.6355  0.7823
 9489SOL     OW39928   1.412   3.446   7.564 -0.1958  0.4036 -0.1262
 9489SOL    HW139929   1.499   3.448   7.523 -0.0111  2.1533  0.3419
 9489SOL    HW239930   1.419   3.368   7.620  0.5260  0.9148  0.5055
 9490SOL     OW39931   0.837   0.774  12.596 -0.2131  0.1903  0.2788
 9490SOL    HW139932   0.819   0.797  12.505 -1.4666  0.3065  0.5533
 9490SOL    HW239933   0.810   0.682  12.589 -1.5164  0.4038  2.5155
 9491SOL     OW39934   1.273   2.248  16.394  0.0067  0.2934  0.7310
 9491SOL    HW139935   1.290   2.214  16.482  0.9388  0.1439  0.4899
 9491SOL    HW239936   1.209   2.316  16.414 -1.4895 -1.1860  0.9921
 9492SOL     OW39937   0.467   3.656  10.499  0.4945  0.5140  0.3066
 9492SOL    HW139938   0.469   3.594  10.572  0.2074 -1.2982 -1.2268
 9492SOL    HW239939   0.555   3.645  10.464 -0.2513  0.3683 -1.5459
 9493SOL     OW39940   0.748   1.792   5.519 -0.5385 -0.6712  0.0460
 9493SOL    HW139941   0.771   1.868   5.571 -1.8339  0.0748 -0.4638
 9493SOL    HW239942   0.657   1.807   5.494  0.0638  2.3588 -0.3211
 9494SOL     OW39943   0.374   0.658   8.374 -0.3747 -0.4746  0.1890
 9494SOL    HW139944   0.367   0.698   8.460 -2.1841 -0.7181  0.1552
 9494SOL    HW239945   0.283   0.630   8.362 -0.8661  0.6629  1.2179
 9495SOL     OW39946   0.586   2.471   2.659  0.5199 -0.4673 -0.9234
 9495SOL    HW139947   0.667   2.520   2.677  0.6785 -1.3358  0.8304
 9495SOL    HW239948   0.595   2.392   2.713  0.5535  0.7048  0.7990
 9496SOL     OW39949   3.154   3.493  14.293  0.3699  0.5541  0.4068
 9496SOL    HW139950   3.082   3.496  14.230  1.2274  0.6169 -0.5792
 9496SOL    HW239951   3.121   3.418  14.341 -0.5551  0.6828 -0.0182
 9497SOL     OW39952   3.590   1.681  15.435  0.1762 -0.1396 -0.5261
 9497SOL    HW139953   3.631   1.767  15.447 -1.0800  0.6240 -1.7980
 9497SOL    HW239954   3.529   1.702  15.365 -0.2603  0.3143  0.0001
 9498SOL     OW39955   2.776   4.265   8.345  0.0015 -0.0735 -0.2044
 9498SOL    HW139956   2.737   4.329   8.286 -1.8508  0.9427  2.0858
 9498SOL    HW239957   2.800   4.330   8.411 -2.3963 -0.4211  1.0061
 9499SOL     OW39958   3.639   1.493   5.240  0.1507  0.2550  0.5866
 9499SOL    HW139959   3.614   1.555   5.308  3.6807  1.9090  0.4024
 9499SOL    HW239960   3.608   1.539   5.162 -0.7714  0.0506  0.8379
 9500SOL     OW39961   3.922   0.815   8.786 -0.7319  0.3935 -0.7248
 9500SOL    HW139962   3.868   0.876   8.735 -0.0350  2.1653  0.6670
 9500SOL    HW239963   3.883   0.832   8.872 -1.9008  1.7085 -1.5024
 9501SOL     OW39964   4.086   2.090   6.307 -0.4337 -0.3423 -0.5156
 9501SOL    HW139965   4.172   2.086   6.266 -0.3532  1.6692 -0.5480
 9501SOL    HW239966   4.027   2.075   6.233  0.4598  2.0350 -1.7131
 9502SOL     OW39967   1.791   0.085   4.169 -0.1488 -0.5010 -0.3254
 9502SOL    HW139968   1.714   0.140   4.159  0.8351  1.0938  0.8053
 9502SOL    HW239969   1.774   0.016   4.233 -1.5092 -1.1414 -1.3944
 9503SOL     OW39970   3.088   0.884   4.538 -0.0802 -0.1646  0.3591
 9503SOL    HW139971   3.154   0.945   4.571 -1.1852  1.2686 -0.0758
 9503SOL    HW239972   3.090   0.814   4.603 -2.2531 -0.0867  0.5234
 9504SOL     OW39973   4.555   4.235  11.663 -0.6681 -0.9579  0.7233
 9504SOL    HW139974   4.639   4.224  11.706  0.2796 -1.2261 -1.2342
 9504SOL    HW239975   4.510   4.152  11.679  2.0422 -2.4949  0.3220
 9505SOL     OW39976   4.714   1.514   9.846 -0.0496 -0.1317  0.3039
 9505SOL    HW139977   0.062   1.522   9.905 -1.2716  0.0768  1.8191
 9505SOL    HW239978   0.002   1.591   9.790  0.9230 -1.0451 -0.6733
 9506SOL     OW39979   3.315   2.225  16.836 -0.4902 -0.5404  0.0388
 9506SOL    HW139980   3.403   2.208  16.803 -1.4320 -2.2195 -1.5806
 9506SOL    HW239981   3.256   2.201  16.765 -2.1338  2.4212  0.4212
 9507SOL     OW39982   1.907   1.250   7.919  0.1158  0.2804  0.4656
 9507SOL    HW139983   1.906   1.342   7.895 -0.3015  0.2917  0.5227
 9507SOL    HW239984   1.930   1.208   7.836  1.4599  1.4633  0.2487
 9508SOL     OW39985   4.267   2.009   3.792  0.1162  0.4100 -0.4974
 9508SOL    HW139986   4.358   1.986   3.812 -0.4854  0.1734  1.8607
 9508SOL    HW239987   4.268   2.101   3.816 -0.5530 -0.1469  1.6191
 9509SOL     OW39988   3.294   1.800  12.152 -0.1013 -0.3622 -0.1266
 9509SOL    HW139989   3.244   1.823  12.074 -1.0971  1.2306  0.9828
 9509SOL    HW239990   3.242   1.725  12.182  1.2013 -1.3495 -0.3300
 9510SOL     OW39991   1.333   2.596   4.602 -0.2485  0.3517  0.0826
 9510SOL    HW139992   1.396   2.574   4.533 -0.5337  0.0707 -0.0852
 9510SOL    HW239993   1.365   2.676   4.643 -0.1284  0.0733  0.5266
 9511SOL     OW39994   2.088   0.556   7.741 -0.1554 -0.1554 -0.0531
 9511SOL    HW139995   2.064   0.464   7.731 -1.6071  0.2838 -0.5977
 9511SOL    HW239996   2.006   0.605   7.751 -1.8701 -3.4565  1.9334
 9512SOL     OW39997   3.869   2.482   2.134  0.4811 -0.3546 -0.1331
 9512SOL    HW139998   3.860   2.388   2.153 -2.1639  0.3547  2.1804
 9512SOL    HW239999   3.915   2.480   2.051  1.2711 -0.0980  0.3003
 9513SOL     OW40000   1.323   4.520   7.936 -0.1462  0.0655 -0.4519
 9513SOL    HW140001   1.385   4.592   7.925  0.2131 -0.3968 -1.4345
 9513SOL    HW240002   1.394   4.457   7.944  0.6684  0.8691 -1.3861
 9514SOL     OW40003   2.447   2.756  14.794 -0.2575 -0.0555 -0.3767
 9514SOL    HW140004   2.393   2.749  14.716  0.3852 -0.6542 -0.7693
 9514SOL    HW240005   2.388   2.720  14.860  0.2087 -0.7209 -0.3181
 9515SOL     OW40006   2.343   3.497   5.636  0.5590  0.0274 -0.0031
 9515SOL    HW140007   2.383   3.583   5.625  0.4940 -0.2489 -2.2292
 9515SOL    HW240008   2.410   3.453   5.689  0.0603 -2.1528 -1.1794
 9516SOL     OW40009   4.199   2.511   1.016  0.1691 -0.7733  0.5887
 9516SOL    HW140010   4.222   2.426   0.977 -2.3695 -2.0274  1.8653
 9516SOL    HW240011   4.274   2.569   1.001 -0.7114  0.4824  1.0371
 9517SOL     OW40012   3.479   2.476   5.168 -0.0484  0.2454 -0.6650
 9517SOL    HW140013   3.567   2.473   5.205  0.6365 -1.4686 -2.4515
 9517SOL    HW240014   3.440   2.402   5.215  1.5147  0.4473  0.9655
 9518SOL     OW40015   0.659   3.833   9.851  0.4995  0.2904  0.0345
 9518SOL    HW140016   0.748   3.854   9.822  1.1506 -1.3445  0.8713
 9518SOL    HW240017   0.609   3.824   9.769  0.5310  1.7785 -0.1438
 9519SOL     OW40018   2.833   1.061   1.136 -0.4328  0.0479  0.1747
 9519SOL    HW140019   2.768   1.094   1.198 -1.4542  0.5552 -1.1592
 9519SOL    HW240020   2.804   1.108   1.058  0.4232  1.5743  0.7705
 9520SOL     OW40021   0.412   0.402  16.247  0.6881  0.0768  0.2580
 9520SOL    HW140022   0.413   0.391  16.152 -2.7465 -1.6462  0.4387
 9520SOL    HW240023   0.475   0.335  16.273 -0.5171 -1.2726 -0.3806
 9521SOL     OW40024   3.837   0.319   8.898  0.2033 -0.2503  0.1593
 9521SOL    HW140025   3.780   0.394   8.916 -0.0118 -0.4810  0.4444
 9521SOL    HW240026   3.922   0.352   8.926 -0.5826  1.2068  0.8600
 9522SOL     OW40027   3.875   0.632  15.706 -0.3268  0.1111 -0.3611
 9522SOL    HW140028   3.798   0.617  15.761  1.5617  0.1501  2.2942
 9522SOL    HW240029   3.886   0.542  15.674  2.1147  0.7421 -1.3538
 9523SOL     OW40030   3.716   0.055  13.255  0.0531  0.2619 -1.1972
 9523SOL    HW140031   3.666   4.706  13.285 -1.1780  0.7767 -1.9817
 9523SOL    HW240032   3.705   0.114  13.329 -2.5271 -2.4354  0.5816
 9524SOL     OW40033   4.717   1.631   0.375  0.2433  0.5630 -0.1510
 9524SOL    HW140034   0.005   1.629   0.469 -1.3856 -0.4190  0.0828
 9524SOL    HW240035   4.683   1.543   0.358  2.7050 -0.5042  0.5222
 9525SOL     OW40036   4.314   3.663  11.907 -0.1535 -0.3733  0.8772
 9525SOL    HW140037   4.339   3.755  11.898  2.0403 -0.8837  1.8613
 9525SOL    HW240038   4.390   3.618  11.944  2.2658  2.1763 -0.9881
 9526SOL     OW40039   2.036   2.546  13.804  0.0659 -0.6674 -0.2870
 9526SOL    HW140040   2.011   2.472  13.860  4.7289 -1.2043  1.0771
 9526SOL    HW240041   2.065   2.495  13.728 -0.3847  0.0123 -0.9239
 9527SOL     OW40042   2.378   2.526   2.806  0.3674 -0.0366 -0.1738
 9527SOL    HW140043   2.436   2.451   2.810 -0.0417 -0.5161 -2.8409
 9527SOL    HW240044   2.338   2.518   2.719  0.8804 -1.4211 -0.2737
 9528SOL     OW40045   1.137   0.149   4.269  0.3996  0.3863  0.0590
 9528SOL    HW140046   1.205   0.211   4.294  1.2872 -0.4612 -0.2545
 9528SOL    HW240047   1.077   0.185   4.335 -1.2057  0.7406 -1.5727
 9529SOL     OW40048   2.521   0.466  15.703 -0.0983 -0.3766 -0.0615
 9529SOL    HW140049   2.600   0.484  15.651  0.1378 -0.6092  0.2178
 9529SOL    HW240050   2.461   0.536  15.678  0.7763  1.3474  2.6839
 9530SOL     OW40051   3.749   2.375   3.652  0.2558  0.2891  0.5117
 9530SOL    HW140052   3.786   2.427   3.724  0.0888  1.6352 -0.3617
 9530SOL    HW240053   3.737   2.291   3.696  1.4405 -0.7858 -1.2195
 9531SOL     OW40054   0.824   3.594   4.865  0.6609  0.0322  0.1677
 9531SOL    HW140055   0.837   3.523   4.928  0.5378 -0.7938 -0.7383
 9531SOL    HW240056   0.848   3.665   4.924  1.8255  0.9558 -1.4295
 9532SOL     OW40057   1.668   1.936  15.374  0.6696  0.7778 -0.1955
 9532SOL    HW140058   1.761   1.917  15.365  0.5089 -1.0691  2.1001
 9532SOL    HW240059   1.636   1.846  15.381 -1.2146  1.3794 -0.9884
 9533SOL     OW40060   0.553   1.134   1.915  0.9834  0.7106 -0.0425
 9533SOL    HW140061   0.473   1.176   1.948  1.8074  2.0506  0.2510
 9533SOL    HW240062   0.562   1.072   1.988  0.1817  0.5283 -0.0938
 9534SOL     OW40063   1.020   4.173   9.522 -0.0395  0.1846  0.2270
 9534SOL    HW140064   0.943   4.197   9.470 -0.2396 -0.6888  0.1215
 9534SOL    HW240065   0.980   4.192   9.607 -0.1403 -2.4930  0.7809
 9535SOL     OW40066   2.497   4.146   4.906  0.3775  0.6158 -0.3660
 9535SOL    HW140067   2.512   4.081   4.837 -0.8719  0.3809 -0.4104
 9535SOL    HW240068   2.529   4.228   4.870 -1.8903  1.1306 -1.2000
 9536SOL     OW40069   1.910   3.506   7.137  0.3633 -0.2568 -0.8005
 9536SOL    HW140070   1.973   3.574   7.111  1.0595 -0.5299  0.1597
 9536SOL    HW240071   1.830   3.555   7.118  2.1749  3.6535  1.7032
 9537SOL     OW40072   0.029   4.496   9.393 -0.4474 -0.0790  0.6093
 9537SOL    HW140073   0.093   4.473   9.326  1.6961  2.4735  1.8111
 9537SOL    HW240074   0.075   4.558   9.448 -0.2210  0.5850 -0.3394
 9538SOL     OW40075   3.448   3.643   3.884 -0.1415 -0.0257  0.1236
 9538SOL    HW140076   3.395   3.578   3.929 -0.6909  0.1536 -0.2620
 9538SOL    HW240077   3.520   3.582   3.867  1.2572  1.6223  0.1732
 9539SOL     OW40078   0.039   2.504  13.979 -0.4479 -0.0985  0.2683
 9539SOL    HW140079   4.713   2.577  14.012  0.9072  0.3281  1.4980
 9539SOL    HW240080   4.697   2.438  13.968 -0.9040  0.6111 -1.0487
 9540SOL     OW40081   2.674   2.455   9.210 -0.0494 -0.4289 -0.0816
 9540SOL    HW140082   2.613   2.478   9.139  0.5497  2.0026  0.1893
 9540SOL    HW240083   2.714   2.379   9.167 -0.6398  0.1475 -1.6550
 9541SOL     OW40084   2.809   3.999   8.487  0.2829  0.0666 -0.1598
 9541SOL    HW140085   2.735   3.968   8.435 -0.7308  2.4795 -0.1516
 9541SOL    HW240086   2.805   4.092   8.467  1.1799  0.7220  2.6774
 9542SOL     OW40087   1.908   3.878   6.677  0.5863  0.3271  0.3164
 9542SOL    HW140088   1.931   3.844   6.591 -1.6281 -0.2133 -0.0562
 9542SOL    HW240089   1.855   3.956   6.660 -0.4406 -0.0702  1.6761
 9543SOL     OW40090   4.365   0.122   4.848 -0.2771  0.4381 -0.0086
 9543SOL    HW140091   4.398   0.033   4.861 -1.2428  0.1077  0.1568
 9543SOL    HW240092   4.357   0.142   4.942 -3.7934 -1.3036  0.0864
 9544SOL     OW40093   2.879   0.729   5.634  0.4603  0.0006 -0.4492
 9544SOL    HW140094   2.880   0.647   5.683  0.7428 -0.5047 -1.3145
 9544SOL    HW240095   2.950   0.716   5.571  2.3954 -0.3778  1.7856
 9545SOL     OW40096   0.534   3.632   5.090  0.1569  0.0917 -0.0881
 9545SOL    HW140097   0.568   3.721   5.090  1.1982 -0.2919 -0.5097
 9545SOL    HW240098   0.447   3.660   5.063  0.4917 -0.1827 -1.4660
 9546SOL     OW40099   1.917   0.627   2.444  0.3918  0.4169 -0.5609
 9546SOL    HW140100   1.906   0.648   2.537 -0.1661 -0.8880 -0.3352
 9546SOL    HW240101   1.930   0.533   2.455 -0.3596  0.2675 -1.0099
 9547SOL     OW40102   1.102   4.569   6.983  0.1396 -0.1773 -0.6029
 9547SOL    HW140103   1.115   4.568   6.888  0.0655  2.8549 -0.6471
 9547SOL    HW240104   1.183   4.603   7.023 -0.2850  0.9859 -0.7164
 9548SOL     OW40105   0.042   1.107  11.833  0.0926 -0.2057 -0.9308
 9548SOL    HW140106   4.685   1.142  11.802 -0.3406 -0.1831  0.2927
 9548SOL    HW240107   0.079   1.175  11.890  2.4525  0.6476 -3.4327
 9549SOL     OW40108   1.809   3.690   5.680 -0.3338  0.0157  0.1930
 9549SOL    HW140109   1.854   3.764   5.641 -0.7567  0.6954  0.9965
 9549SOL    HW240110   1.782   3.634   5.607  0.2590 -1.2004  0.9060
 9550SOL     OW40111   4.222   0.332   9.141  0.3900 -0.2854 -0.0713
 9550SOL    HW140112   4.251   0.365   9.226  0.2588 -0.6113  0.1018
 9550SOL    HW240113   4.157   0.265   9.163  0.3660 -0.5368 -0.9079
 9551SOL     OW40114   0.362   1.542   4.577 -0.5548  0.2152  0.0139
 9551SOL    HW140115   0.281   1.573   4.618 -1.3494  1.2315 -2.2830
 9551SOL    HW240116   0.331   1.499   4.497 -1.9984 -1.4281  1.4604
 9552SOL     OW40117   4.058   4.033  14.369  0.6817 -0.3213  0.4599
 9552SOL    HW140118   3.998   3.974  14.415 -0.9229  0.1710 -1.0343
 9552SOL    HW240119   4.009   4.115  14.364 -2.3315 -2.2213 -0.9606
 9553SOL     OW40120   2.668   3.298   4.011 -0.2287  0.5615  0.3777
 9553SOL    HW140121   2.739   3.361   3.996  0.7337 -0.4938  0.4820
 9553SOL    HW240122   2.592   3.339   3.971  0.2442  2.3537  1.3295
 9554SOL     OW40123   0.869   3.406  15.931  0.1069 -0.5127  0.3555
 9554SOL    HW140124   0.930   3.360  15.872  2.1089  1.6356  0.7541
 9554SOL    HW240125   0.924   3.469  15.978  2.3537 -1.5085 -0.9289
 9555SOL     OW40126   2.899   2.439  11.367  0.0460 -0.3140  0.0265
 9555SOL    HW140127   2.901   2.356  11.414  2.7790  0.4923  1.3070
 9555SOL    HW240128   2.922   2.424  11.275 -1.7744  2.3261 -0.8635
 9556SOL     OW40129   3.587   0.354   3.568  0.0181 -0.2349 -0.9365
 9556SOL    HW140130   3.630   0.364   3.653 -1.9620  1.4180 -0.1334
 9556SOL    HW240131   3.499   0.358   3.604  0.6968 -0.9618  0.7994
 9557SOL     OW40132   0.593   3.402  14.805  0.4759 -0.3127 -0.0876
 9557SOL    HW140133   0.637   3.482  14.776  0.5544  0.3538  1.8896
 9557SOL    HW240134   0.537   3.372  14.733  2.7082 -1.0518 -1.5520
 9558SOL     OW40135   1.461   4.228   2.365  0.3165  0.4109  0.1920
 9558SOL    HW140136   1.430   4.293   2.428  0.7598  2.3010 -1.5439
 9558SOL    HW240137   1.539   4.199   2.413 -0.4432 -0.0734  1.1261
 9559SOL     OW40138   4.696   3.277  10.038 -0.2702  0.6339 -0.1617
 9559SOL    HW140139   4.659   3.359  10.004  1.8351  2.0371  0.9679
 9559SOL    HW240140   0.054   3.306  10.072 -2.2252  4.2840  1.6518
 9560SOL     OW40141   4.182   1.470   6.558  0.6372  0.9174 -0.1806
 9560SOL    HW140142   4.160   1.487   6.650 -0.1061 -1.8579  0.1599
 9560SOL    HW240143   4.124   1.530   6.511  0.5313 -1.1025 -2.6084
 9561SOL     OW40144   1.701   2.357   1.913  0.1604  0.2274 -0.2779
 9561SOL    HW140145   1.667   2.445   1.929  1.3595  0.8254 -1.0157
 9561SOL    HW240146   1.767   2.374   1.846  0.6382 -1.0095 -0.1336
 9562SOL     OW40147   1.597   0.052  14.918 -0.5532  0.1772  0.0253
 9562SOL    HW140148   1.523   0.105  14.886  1.3265  3.8452  1.6763
 9562SOL    HW240149   1.553   0.015  14.995 -0.3969  0.0407  0.0475
 9563SOL     OW40150   4.168   2.595   5.146  0.4431  0.0871 -0.0092
 9563SOL    HW140151   4.112   2.540   5.201 -1.1047  1.0198 -0.6854
 9563SOL    HW240152   4.121   2.602   5.063 -1.4651 -0.2207  1.0473
 9564SOL     OW40153   4.445   0.547  14.931 -0.4163 -0.2081  0.3033
 9564SOL    HW140154   4.418   0.459  14.904  0.8682 -0.6652  0.4900
 9564SOL    HW240155   4.474   0.581  14.847  0.1525 -0.1394  0.5265
 9565SOL     OW40156   2.859   1.672   2.703  0.3352 -0.3137  0.1080
 9565SOL    HW140157   2.950   1.648   2.687 -0.2466 -2.4294 -0.0125
 9565SOL    HW240158   2.861   1.763   2.672  1.2939 -0.3833 -0.0418
 9566SOL     OW40159   1.828   3.314   3.281 -0.2168  0.3580 -0.1576
 9566SOL    HW140160   1.763   3.358   3.336  1.4009  2.0362  0.4006
 9566SOL    HW240161   1.775   3.235   3.273  0.1573  0.1822 -0.9196
 9567SOL     OW40162   3.323   2.138   4.818  0.2138 -0.2962  0.2990
 9567SOL    HW140163   3.319   2.220   4.867  1.6839  0.5538 -0.9911
 9567SOL    HW240164   3.294   2.167   4.731  1.0167 -2.4339 -0.6911
 9568SOL     OW40165   4.529   0.932   8.160 -0.3544 -0.3782 -0.0742
 9568SOL    HW140166   4.480   0.992   8.104 -0.2533 -0.9459 -0.7706
 9568SOL    HW240167   4.602   0.995   8.159 -1.0316  0.4042 -0.5168
   4.72682   4.72682  17.70824
