Membrane in water
40167
    1TCq1    O1    1   0.404   0.744  11.630 -0.1473  0.1215 -0.1316
    1TCq1    C1    2   0.392   0.622  11.677  0.6105 -0.3561 -1.1061
    1TCq1    O2    3   0.291   0.553  11.670 -0.8508  0.0231  0.2163
    1TCq1    C2    4   0.519   0.562  11.713 -0.2130 -0.2660 -0.2082
    1TCq1    C3    5   0.635   0.620  11.671 -0.5579 -0.5355 -0.2928
    1TCq1    C4    6   0.754   0.564  11.711 -0.0622  0.0835  0.2049
    1TCq1    C5    7   0.754   0.449  11.786  0.1126  0.4981  0.3352
    1TCq1    C6    8   0.634   0.399  11.826 -0.1279 -0.5178 -0.3049
    1TCq1    C7    9   0.514   0.453  11.788  0.2475  0.1473  0.9903
    1TCq1    C8   10   0.624   0.260  11.842 -0.4185  0.1372  0.1888
    1TCq1    O4   11   0.522   0.221  11.899  0.4103 -0.6748  0.2541
    1TCq1    C9   12   0.882   0.621  11.669  0.6956  0.4129 -0.8423
    1TCq1    O5   13   0.989   0.565  11.710  0.2286  0.4181  0.3429
    1TCq1    O6   14   0.875   0.729  11.608  0.1993 -0.2620  0.5244
    1TCq1    H1   15   0.483   0.794  11.659  0.4018 -0.6154 -0.3756
    1TCq1    H2   16   0.636   0.695  11.593 -3.6294 -0.4933 -0.2697
    1TCq1    H3   17   0.846   0.409  11.826 -0.6213 -0.7486  0.8023
    1TCq1    H4   18   0.421   0.404  11.814 -0.7175  0.6386 -1.5796
    2MPD2     C   19   0.755   4.495  11.736  0.1583 -0.4375 -0.5279
    2MPD2    C1   20   0.649   4.551  11.807 -0.5670  0.5201  0.2688
    2MPD2    C2   21   0.643   4.688  11.837 -0.5361 -0.2178  0.4798
    2MPD2    C3   22   0.739   0.045  11.778 -0.6450 -0.3673 -0.5803
    2MPD2    C4   23   0.843   4.712  11.704 -0.2218 -0.1760  0.8528
    2MPD2    C5   24   0.851   4.580  11.692  0.1037  0.0598  0.0827
    2MPD2     H   25   0.566   0.008  11.899 -0.9975  2.1078 -1.8203
    2MPD2    H1   26   0.927   0.042  11.662  1.2710 -2.6400  0.6201
    2MPD2    H2   27   0.773   4.389  11.719 -1.1554 -1.0170  1.6586
    2MPD2    H3   28   0.939   4.533  11.651  0.3685  1.2546 -0.7165
    2MPD2     N   29   0.730   0.192  11.787  0.6067  0.6373 -0.3003
    2MPD2    H5   30   0.796   0.244  11.730  0.8599  2.6654  1.8246
    2MPD2    N1   31   0.548   4.466  11.862 -0.2124  0.1258  0.0532
    2MPD2    H7   32   0.467   4.504  11.911  0.0030  0.0245  0.4920
    3TCq1    O1   33   4.190   0.691   9.900  0.1642  0.0089 -0.1021
    3TCq1    C1   34   4.222   0.567   9.913  0.0405 -0.0097 -0.2420
    3TCq1    O2   35   4.174   0.468   9.860 -0.6616  0.2268 -0.4053
    3TCq1    C2   36   4.275   0.570  10.050  0.1604 -0.7099 -0.1155
    3TCq1    C3   37   4.380   0.656  10.078 -0.7412 -0.9083  0.2704
    3TCq1    C4   38   4.405   0.678  10.208  0.0915  0.1391 -0.1523
    3TCq1    C5   39   4.315   0.642  10.303  0.2171 -0.0445  0.2101
    3TCq1    C6   40   4.208   0.574  10.264 -0.1413  1.0503  0.4426
    3TCq1    C7   41   4.185   0.522  10.141  0.1851 -0.1802  0.0195
    3TCq1    C8   42   4.104   0.533  10.359  0.4266  0.1153  0.1907
    3TCq1    O4   43   4.031   0.439  10.323  0.7232  0.3144  0.4069
    3TCq1    C9   44   4.517   0.758  10.243 -0.2091  0.1370  0.1343
    3TCq1    O5   45   4.512   0.817  10.354  0.5064 -0.5118 -0.2165
    3TCq1    O6   46   4.615   0.762  10.162  1.3578  0.4269 -0.2511
    3TCq1    H1   47   4.231   0.739   9.974  2.8682 -1.3283 -0.7248
    3TCq1    H2   48   4.434   0.707  10.000  0.0418 -0.3455  1.1775
    3TCq1    H3   49   4.339   0.671  10.405  0.3314  1.0726 -0.1321
    3TCq1    H4   50   4.092   0.476  10.110  0.6506 -0.2809 -1.2242
    4MPD2     C   51   3.844   0.581  10.815 -0.1287 -0.1701 -0.0728
    4MPD2    C1   52   3.910   0.700  10.779 -0.1922 -0.2708  0.1152
    4MPD2    C2   53   3.977   0.705  10.660 -0.3683  0.5734 -0.0560
    4MPD2    C3   54   3.996   0.598  10.579  0.5148  0.1094 -0.1347
    4MPD2    C4   55   3.946   0.475  10.623 -0.2011  0.3880 -0.5087
    4MPD2    C5   56   3.859   0.473  10.733 -0.6121 -0.3326 -0.3880
    4MPD2     H   57   4.025   0.800  10.639  2.2252 -0.6072  0.5880
    4MPD2    H1   58   3.961   0.379  10.575  1.0915  0.2768  0.1139
    4MPD2    H2   59   3.777   0.561  10.898  1.7080 -1.1477  1.1781
    4MPD2    H3   60   3.821   0.378  10.768  0.0051 -0.7849 -0.9624
    4MPD2     N   61   4.083   0.623  10.465  0.4558  0.8819 -0.1719
    4MPD2    H5   62   4.124   0.714  10.449 -2.0090  2.0346  0.1104
    4MPD2    N1   63   3.921   0.816  10.858  0.0422 -0.1500 -0.1605
    4MPD2    H7   64   3.981   0.891  10.826  1.6999 -1.5054 -0.2463
    5TCq1    O1   65   1.037   3.026  10.457  0.3636 -0.5491 -0.3299
    5TCq1    C1   66   0.963   2.921  10.505 -0.1007  0.1844 -0.1113
    5TCq1    O2   67   1.009   2.818  10.548 -0.2786 -0.0659 -0.1796
    5TCq1    C2   68   0.818   2.944  10.485  0.0307  0.0456  0.5450
    5TCq1    C3   69   0.772   3.068  10.509 -0.2235  0.7700 -0.1383
    5TCq1    C4   70   0.639   3.084  10.464 -0.9119  0.7539  0.3777
    5TCq1    C5   71   0.556   2.984  10.418 -0.2752 -0.3827 -0.1085
    5TCq1    C6   72   0.615   2.861  10.390  0.3137  1.7995  0.8824
    5TCq1    C7   73   0.747   2.845  10.429  0.6826 -0.3044 -0.2392
    5TCq1    C8   74   0.546   2.749  10.337 -0.5671  1.2263  0.1442
    5TCq1    O4   75   0.587   2.638  10.364  0.4035  0.0473 -0.0899
    5TCq1    C9   76   0.578   3.208  10.494 -0.5839 -0.6085 -0.3175
    5TCq1    O5   77   0.448   3.199  10.482  1.0768 -0.1700  0.4319
    5TCq1    O6   78   0.650   3.277  10.567  0.4294  0.0569  0.0564
    5TCq1    H1   79   0.987   3.095  10.408  0.9904 -0.3562 -0.6925
    5TCq1    H2   80   0.825   3.146  10.563  2.2523 -0.3767 -0.9054
    5TCq1    H3   81   0.452   2.996  10.389 -0.0271  2.5877  0.2831
    5TCq1    H4   82   0.799   2.751  10.424  0.2005 -0.5063 -1.4243
    6MPD2     C   83   0.216   2.751  10.175 -0.2101  0.4032  0.1860
    6MPD2    C1   84   0.330   2.694  10.223  0.1722  0.4279 -0.4488
    6MPD2    C2   85   0.332   2.556  10.231  0.2520  0.1717  0.1434
    6MPD2    C3   86   0.217   2.481  10.226 -0.0364 -0.8091  0.9484
    6MPD2    C4   87   0.106   2.543  10.181  0.7017 -0.0767  0.2305
    6MPD2    C5   88   0.104   2.678  10.160 -0.3210  0.5449 -0.0261
    6MPD2     H   89   0.420   2.507  10.273  0.7073 -1.1296 -2.3519
    6MPD2    H1   90   0.014   2.495  10.151  0.4690  1.8033 -2.0240
    6MPD2    H2   91   0.220   2.858  10.164 -0.4029  0.2702 -1.2831
    6MPD2    H3   92   0.012   2.726  10.127 -1.7667 -1.4859  1.0202
    6MPD2     N   93   0.225   2.348  10.262 -0.4598  0.2445  0.6611
    6MPD2    H5   94   0.319   2.312  10.269 -0.3858 -0.3134 -3.1629
    6MPD2    N1   95   0.436   2.782  10.267 -0.4035  0.0467  0.1152
    6MPD2    H7   96   0.410   2.880  10.268 -1.2376 -0.1791  0.5377
    7TCq1    O1   97   2.215   2.451  13.061  0.2244  0.7504  0.3887
    7TCq1    C1   98   2.187   2.484  13.191 -1.0320 -0.2342  0.0134
    7TCq1    O2   99   2.086   2.447  13.254 -0.1620  0.0622  0.1059
    7TCq1    C2  100   2.318   2.483  13.246  0.1828  0.4476 -0.0360
    7TCq1    C3  101   2.426   2.521  13.161  0.0041  0.5709 -0.0617
    7TCq1    C4  102   2.549   2.476  13.185  0.0833  0.0166 -0.3238
    7TCq1    C5  103   2.571   2.377  13.271  0.4430 -0.1931  0.3564
    7TCq1    C6  104   2.468   2.333  13.352  0.7482 -0.4304 -0.3623
    7TCq1    C7  105   2.336   2.382  13.329 -0.0424  0.5119 -1.3662
    7TCq1    C8  106   2.471   2.209  13.430  0.6968 -0.1058 -0.2906
    7TCq1    O4  107   2.369   2.153  13.466  0.6451  0.1832  0.4030
    7TCq1    C9  108   2.658   2.534  13.104  0.4302 -0.3132  0.0452
    7TCq1    O5  109   2.770   2.505  13.148 -0.0591 -0.0785 -0.2016
    7TCq1    O6  110   2.632   2.629  13.027 -0.0082  0.3580  0.4414
    7TCq1    H1  111   2.308   2.463  13.033  0.0336  0.2897 -0.4522
    7TCq1    H2  112   2.409   2.606  13.097  1.2165  0.5442 -0.4235
    7TCq1    H3  113   2.667   2.330  13.286 -0.0655 -1.6758 -1.1128
    7TCq1    H4  114   2.257   2.361  13.400  0.1858  0.7259 -1.0473
    8MPD2     C  115   2.719   1.767  13.527  0.6555  0.1745 -0.4784
    8MPD2    C1  116   2.584   1.787  13.507  0.1757  0.5583  0.0076
    8MPD2    C2  117   2.541   1.917  13.483 -0.1782 -0.2946 -0.0104
    8MPD2    C3  118   2.637   2.026  13.476 -0.1208 -0.1249  0.1961
    8MPD2    C4  119   2.770   1.997  13.485 -0.0971  0.1131 -0.5709
    8MPD2    C5  120   2.811   1.869  13.502 -0.5390 -0.3318 -0.7456
    8MPD2     H  121   2.436   1.934  13.460  0.2493  1.1318 -0.9366
    8MPD2    H1  122   2.846   2.075  13.491  1.0829 -1.1189  0.5277
    8MPD2    H2  123   2.756   1.670  13.556 -0.3205  0.3936  1.4636
    8MPD2    H3  124   2.917   1.847  13.505 -0.1085  1.6025 -1.4866
    8MPD2     N  125   2.598   2.161  13.451  0.0302 -0.2140  0.6566
    8MPD2    H5  126   2.674   2.228  13.441 -0.4865  0.4042  0.8219
    8MPD2    N1  127   2.499   1.676  13.528  0.8183  0.1956 -0.7400
    8MPD2    H7  128   2.543   1.585  13.531  0.2232 -0.0699  0.0307
    9TCq1    O1  129   4.536   0.557  10.588  0.0549 -0.6435  0.2286
    9TCq1    C1  130   4.617   0.558  10.692 -0.4212  0.1287  0.6611
    9TCq1    O2  131   4.583   0.537  10.805 -0.3126  0.1135  0.3053
    9TCq1    C2  132   0.034   0.566  10.645  0.4804 -0.0202 -0.0651
    9TCq1    C3  133   0.069   0.635  10.529  0.3429  0.9404  0.0180
    9TCq1    C4  134   0.200   0.667  10.517  1.0561  0.2571 -0.2401
    9TCq1    C5  135   0.286   0.633  10.614  0.3999  0.6206 -0.3693
    9TCq1    C6  136   0.249   0.562  10.724  0.6918 -0.1002  0.2800
    9TCq1    C7  137   0.117   0.525  10.737  0.5094 -0.5272 -0.2637
    9TCq1    C8  138   0.332   0.567  10.842  0.0709  0.0354  0.2609
    9TCq1    O4  139   0.449   0.607  10.835  0.1717 -0.2185 -0.6429
    9TCq1    C9  140   0.253   0.737  10.404 -0.0556 -0.8724 -0.5263
    9TCq1    O5  141   0.370   0.787  10.404  0.4638 -0.3938 -0.3172
    9TCq1    O6  142   0.187   0.720  10.300  0.3684  0.5409 -0.0088
    9TCq1    H1  143   4.579   0.534  10.504 -0.6388 -1.0119 -0.0293
    9TCq1    H2  144   4.721   0.664  10.454 -0.5034 -1.0515  0.0647
    9TCq1    H3  145   0.391   0.662  10.607  0.5289 -0.1371 -1.5202
    9TCq1    H4  146   0.085   0.458  10.816 -2.3424  2.7325  1.3491
   10MPD2     C  147   0.436   0.588  11.121 -0.1606  0.2318 -0.5577
   10MPD2    C1  148   0.314   0.537  11.083  0.5377  0.5805 -0.1321
   10MPD2    C2  149   0.222   0.509  11.183  0.1060 -0.1123 -0.0403
   10MPD2    C3  150   0.258   0.512  11.317 -0.0232  0.7180 -0.1578
   10MPD2    C4  151   0.390   0.555  11.350 -0.0538 -0.0861 -0.0434
   10MPD2    C5  152   0.482   0.595  11.255 -0.7911 -0.2819  0.1413
   10MPD2     H  153   0.121   0.486  11.153 -0.6264 -0.7544  2.9109
   10MPD2    H1  154   0.425   0.544  11.452 -0.1803 -0.6113 -0.0567
   10MPD2    H2  155   0.515   0.611  11.051 -1.0116 -0.8622 -1.8802
   10MPD2    H3  156   0.585   0.619  11.283 -0.2370 -0.8186 -1.4387
   10MPD2     N  157   0.170   0.484  11.423  0.3167 -0.1147  0.3100
   10MPD2    H5  158   0.205   0.514  11.513 -2.0657 -0.7576  1.4436
   10MPD2    N1  159   0.265   0.537  10.954 -0.1281 -0.1082 -0.5351
   10MPD2    H7  160   0.168   0.511  10.943  0.2638 -0.5070 -3.1205
   11TCq1    O1  161   1.584   0.272  14.377  0.5189  0.1370 -0.5988
   11TCq1    C1  162   1.461   0.264  14.324 -0.7461  0.5113 -0.4427
   11TCq1    O2  163   1.403   0.155  14.311 -0.1687 -0.2275  0.0847
   11TCq1    C2  164   1.395   0.370  14.408 -0.8727  0.2174 -0.6529
   11TCq1    C3  165   1.461   0.479  14.471 -1.0783  0.7026 -0.2461
   11TCq1    C4  166   1.393   0.555  14.562  0.7709  0.2191 -0.6750
   11TCq1    C5  167   1.260   0.515  14.592 -0.1558 -0.0417  0.0299
   11TCq1    C6  168   1.202   0.404  14.536  0.1494 -0.2796 -0.0723
   11TCq1    C7  169   1.269   0.337  14.442 -0.5731 -0.3211 -0.8243
   11TCq1    C8  170   1.056   0.398  14.552  0.6852  0.4006  0.1242
   11TCq1    O4  171   1.013   0.456  14.648  0.3617  0.6264 -0.0376
   11TCq1    C9  172   1.453   0.675  14.613  0.1712 -0.0720  0.2540
   11TCq1    O5  173   1.430   0.711  14.732  0.5138  0.2467  0.1608
   11TCq1    O6  174   1.556   0.711  14.546 -0.3690 -0.0656  0.0770
   11TCq1    H1  175   1.621   0.349  14.328 -0.8787  1.1888  0.0179
   11TCq1    H2  176   1.565   0.494  14.444 -1.8180  1.1555 -2.7962
   11TCq1    H3  177   1.196   0.575  14.655 -0.6334 -0.9478  0.4083
   11TCq1    H4  178   1.216   0.256  14.392  0.9514 -2.2111  0.5841
   12MPD2     C  179   0.769   0.429  14.488 -0.1197 -0.4246  0.0233
   12MPD2    C1  180   0.844   0.326  14.430  0.7388  0.0938 -0.2710
   12MPD2    C2  181   0.775   0.241  14.338  0.0890  0.6524 -0.2024
   12MPD2    C3  182   0.643   0.265  14.302 -0.4406  0.7622  0.3930
   12MPD2    C4  183   0.576   0.376  14.355 -0.1793 -0.3184  0.1216
   12MPD2    C5  184   0.637   0.451  14.450 -0.2388 -0.2097  0.2650
   12MPD2     H  185   0.826   0.152  14.305  1.1530  1.0669  0.3234
   12MPD2    H1  186   0.471   0.398  14.344 -0.1239  0.2817  0.8312
   12MPD2    H2  187   0.807   0.504  14.556 -0.9873  0.8159 -0.8545
   12MPD2    H3  188   0.583   0.537  14.490  0.9559  0.6114  0.0961
   12MPD2     N  189   0.573   0.171  14.218  0.3897  0.8342 -0.3165
   12MPD2    H5  190   0.625   0.086  14.199 -0.8563 -0.1953  0.8855
   12MPD2    N1  191   0.983   0.324  14.458 -0.3795  0.2877  0.3160
   12MPD2    H7  192   1.035   0.275  14.386 -1.9387  0.2312 -0.7749
   13TCq1    O1  193   0.846   0.348  10.743 -0.2915 -0.2271  0.4411
   13TCq1    C1  194   0.854   0.333  10.616 -0.7426 -0.3342 -1.0619
   13TCq1    O2  195   0.953   0.350  10.549  0.8334  0.1952  0.0011
   13TCq1    C2  196   0.720   0.371  10.563  0.1510  0.1289  0.1583
   13TCq1    C3  197   0.720   0.426  10.439 -0.0700  0.0866  0.1848
   13TCq1    C4  198   0.603   0.427  10.374 -0.3864 -0.2406  0.0008
   13TCq1    C5  199   0.494   0.379  10.431  0.3261  0.3427  0.3535
   13TCq1    C6  200   0.500   0.313  10.545  0.1411  0.6134 -0.2043
   13TCq1    C7  201   0.611   0.305  10.614  0.7065  0.2485 -0.6014
   13TCq1    C8  202   0.374   0.271  10.614 -0.2145  0.2361 -0.0706
   13TCq1    O4  203   0.358   0.290  10.734 -0.2868 -0.6126  0.4232
   13TCq1    C9  204   0.592   0.483  10.239 -0.5579 -0.5372 -0.3458
   13TCq1    O5  205   0.704   0.502  10.182  0.0759 -0.0723 -0.5735
   13TCq1    O6  206   0.477   0.500  10.186 -0.5291  1.0313  0.1326
   13TCq1    H1  207   0.755   0.340  10.778  0.0783  0.0287  1.4608
   13TCq1    H2  208   0.815   0.441  10.390 -0.6416 -1.3815 -1.3691
   13TCq1    H3  209   0.400   0.392  10.379  0.3984  1.2643  0.4544
   13TCq1    H4  210   0.603   0.255  10.710  0.1981  1.2973 -0.0979
   14MPD2     C  211   0.079   0.146  10.443 -0.8391  0.7071 -0.2014
   14MPD2    C1  212   0.149   0.191  10.553  0.2337 -0.2167 -0.1867
   14MPD2    C2  213   0.087   0.204  10.676  1.0200 -0.6774  0.0367
   14MPD2    C3  214   4.685   0.157  10.688  0.3578  0.6085 -0.3312
   14MPD2    C4  215   4.614   0.115  10.578  0.3145  0.1889 -0.4844
   14MPD2    C5  216   4.668   0.119  10.449 -0.0119  0.2468  0.2035
   14MPD2     H  217   0.147   0.224  10.765 -1.3182 -2.5380  2.0409
   14MPD2    H1  218   4.512   0.081  10.578  0.3524  0.0730 -0.6914
   14MPD2    H2  219   0.129   0.142  10.347  3.0663  1.1273  1.8339
   14MPD2    H3  220   4.612   0.085  10.363  1.5220  1.5558 -1.3047
   14MPD2     N  221   4.624   0.163  10.807 -0.2584 -0.3754 -0.0362
   14MPD2    H5  222   4.680   0.203  10.881  0.1833 -1.5299  0.2475
   14MPD2    N1  223   0.281   0.232  10.524 -0.3380 -0.3980  0.7116
   14MPD2    H7  224   0.317   0.217  10.431  3.4081 -0.5563  2.1982
   15TCq1    O1  225   2.047   3.762   1.900 -0.0732 -0.1405  0.1621
   15TCq1    C1  226   2.072   3.716   1.777  0.0655 -0.3442  0.2661
   15TCq1    O2  227   2.181   3.666   1.752  0.1844 -0.3322 -0.6206
   15TCq1    C2  228   1.949   3.695   1.715  0.4745  0.1037 -0.8595
   15TCq1    C3  229   1.847   3.777   1.751  0.1120  0.1591 -0.4886
   15TCq1    C4  230   1.718   3.736   1.717  0.7582  0.3911  0.0282
   15TCq1    C5  231   1.700   3.624   1.645  0.4110  0.4498 -0.7189
   15TCq1    C6  232   1.807   3.550   1.610 -0.5908 -0.3378  0.1234
   15TCq1    C7  233   1.934   3.580   1.646 -0.4935 -0.2959 -0.8889
   15TCq1    C8  234   1.793   3.424   1.532 -0.3126 -0.5261 -0.7733
   15TCq1    O4  235   1.891   3.350   1.534 -0.3518 -0.2253 -0.5172
   15TCq1    C9  236   1.611   3.832   1.728 -0.2954 -0.1486 -0.2736
   15TCq1    O5  237   1.516   3.821   1.649  0.4171 -0.2939 -0.5840
   15TCq1    O6  238   1.631   3.938   1.797 -0.2878  0.3021 -0.4998
   15TCq1    H1  239   1.951   3.784   1.903  0.3263  1.4715  1.2810
   15TCq1    H2  240   1.868   3.874   1.795 -0.3628  0.5270 -1.0683
   15TCq1    H3  241   1.598   3.588   1.634  1.5348 -2.3249 -2.1413
   15TCq1    H4  242   2.023   3.524   1.623  0.2615  1.0151 -1.1294
   16MPD2     C  243   1.487   3.318   1.354  0.3213 -0.0660  0.3786
   16MPD2    C1  244   1.619   3.298   1.405  0.0250  1.4451 -0.5180
   16MPD2    C2  245   1.695   3.192   1.366 -0.3357  0.3443  0.3571
   16MPD2    C3  246   1.649   3.108   1.266 -0.8276 -0.5297  0.2812
   16MPD2    C4  247   1.518   3.127   1.215  0.2907 -0.4677  0.5777
   16MPD2    C5  248   1.436   3.224   1.270 -0.3416 -0.5459  0.2783
   16MPD2     H  249   1.795   3.182   1.406  0.2192  0.3586 -1.0289
   16MPD2    H1  250   1.468   3.050   1.158  0.1113  0.1245 -0.0591
   16MPD2    H2  251   1.425   3.405   1.373  0.5910  0.4128 -0.9565
   16MPD2    H3  252   1.339   3.246   1.228  0.3449 -0.3296 -1.2068
   16MPD2     N  253   1.735   2.992   1.240  0.2166  0.6088 -0.0773
   16MPD2    H5  254   1.820   2.991   1.294  0.2493 -4.7127 -0.2264
   16MPD2    N1  255   1.666   3.406   1.486 -0.0393 -0.0516 -0.3937
   16MPD2    H7  256   1.600   3.483   1.498  0.3531  0.3319 -0.6942
   17TCq1    O1  257   3.913   3.764  11.424 -0.3807 -0.7490  0.0308
   17TCq1    C1  258   3.876   3.757  11.300 -0.3275 -0.4606 -0.0740
   17TCq1    O2  259   3.860   3.650  11.243  0.0054  0.5193  0.3052
   17TCq1    C2  260   3.908   3.882  11.233  0.1715  1.4221 -0.5210
   17TCq1    C3  261   3.848   3.915  11.115  0.0770 -0.7449  1.0052
   17TCq1    C4  262   3.895   4.026  11.041 -0.5126 -0.2360  0.0923
   17TCq1    C5  263   3.988   4.108  11.097  0.6892 -0.2559  0.3631
   17TCq1    C6  264   4.036   4.073  11.222  0.6190  0.0394 -0.3610
   17TCq1    C7  265   4.003   3.960  11.283 -0.1571 -0.1775  0.5718
   17TCq1    C8  266   4.155   4.131  11.268  0.1646  0.2078  0.1684
   17TCq1    O4  267   4.184   4.125  11.387 -0.0394 -0.2589  0.1231
   17TCq1    C9  268   3.822   4.065  10.924  0.0853  0.4974  0.1282
   17TCq1    O5  269   3.755   3.974  10.863  0.6306  0.5481  0.2145
   17TCq1    O6  270   3.859   4.165  10.857  0.1348  0.3922  0.1504
   17TCq1    H1  271   3.893   3.854  11.459 -0.4455 -0.2874 -1.1875
   17TCq1    H2  272   3.772   3.851  11.072  1.4446 -1.0756 -0.9655
   17TCq1    H3  273   4.011   4.201  11.047  0.3389  0.3271  1.2794
   17TCq1    H4  274   4.068   3.937  11.367 -0.1102 -1.4670  0.1710
   18MPD2     C  275   4.380   4.332  11.307  0.3245  0.1432  0.4792
   18MPD2    C1  276   4.327   4.299  11.186 -0.0540  0.7048  0.6407
   18MPD2    C2  277   4.384   4.342  11.073 -0.0919  0.2953  0.5716
   18MPD2    C3  278   4.497   4.424  11.077 -0.1301 -0.5238  0.4305
   18MPD2    C4  279   4.561   4.443  11.195  0.3787 -0.5152 -0.3350
   18MPD2    C5  280   4.498   4.406  11.308  0.9284  0.1387  0.0549
   18MPD2     H  281   4.326   4.318  10.985 -0.5564 -0.2430  1.0311
   18MPD2    H1  282   4.650   4.504  11.203 -0.4964  0.7165 -0.0143
   18MPD2    H2  283   4.336   4.297  11.400 -0.7486  1.4383  0.4453
   18MPD2    H3  284   4.556   4.426  11.397  0.6078  1.2722  0.0115
   18MPD2     N  285   4.570   4.469  10.963 -0.4601 -0.3999 -0.2884
   18MPD2    H5  286   4.645   4.536  10.973 -0.7478  0.4997 -4.2135
   18MPD2    N1  287   4.211   4.215  11.169  0.5471  0.2282  0.1245
   18MPD2    H7  288   4.172   4.209  11.076 -0.5156  0.7787  0.5313
   19TMC2    C1  289   1.987   0.038  13.940 -0.0025  0.1126  0.3312
   19TMC2    C2  290   1.964   0.092  13.816  0.0598 -0.2286 -0.5415
   19TMC2    C3  291   1.883   0.037  13.724  0.8801 -0.1845  0.1119
   19TMC2    C4  292   1.925   4.651  13.972 -0.3356 -0.2623 -0.7766
   19TMC2    C5  293   1.837   4.596  13.875  0.8008 -0.8165  0.7008
   19TMC2    C6  294   1.820   4.643  13.750 -0.1670 -0.3632 -0.2030
   19TMC2     C  295   2.087   0.104  14.022  0.5114 -0.3009 -0.4558
   19TMC2     O  296   2.157   0.196  13.979 -0.1741 -0.3607  0.0318
   19TMC2     H  297   2.013   0.184  13.787  1.1137 -0.0772  1.6757
   19TMC2    H1  298   1.943   4.597  14.064 -1.3217  0.2387 -0.2919
   19TMC2    H2  299   1.758   4.588  13.680 -1.6569  0.8706  0.1552
   19TMC2    C7  300   1.768   4.468  13.910  0.6387  0.0728 -0.1443
   19TMC2    C8  301   1.870   0.115  13.599  0.1090  0.2272 -0.7820
   19TMC2    O1  302   1.779   4.441  14.028 -0.2954  0.0730  0.2079
   19TMC2    O2  303   1.957   0.190  13.564 -0.3970  0.5311  0.1025
   19TMC2    O5  304   1.797   0.033  13.521 -0.1961 -0.5014  0.4225
   19TMC2    H5  305   1.727   4.714  13.573  0.4319 -1.1208  0.7406
   20MPD2     C  306   2.260   0.194  14.252  0.5123 -0.5943 -0.4689
   20MPD2    C1  307   2.208   0.069  14.244 -0.3807 -0.6561  0.7351
   20MPD2    C2  308   2.233   4.700  14.341 -1.1461  0.6563  0.0951
   20MPD2    C3  309   2.319   0.014  14.436  0.4557 -0.9910  0.4016
   20MPD2    C4  310   2.359   0.147  14.457 -0.2812  0.3211  0.2536
   20MPD2    C5  311   2.326   0.240  14.365 -0.0667 -0.2312  0.7406
   20MPD2     H  312   2.191   4.601  14.330 -0.3844  0.3320  0.0996
   20MPD2    H1  313   2.424   0.183  14.536  2.3318  1.2773 -2.3212
   20MPD2    H2  314   2.240   0.266  14.173 -3.1664 -1.6090 -0.4751
   20MPD2    H3  315   2.364   0.342  14.371 -1.1960  0.1213  1.8841
   20MPD2     N  316   2.370   4.648  14.531 -0.0511 -0.5144 -0.2958
   20MPD2    H5  317   2.441   4.690  14.591 -1.2138 -0.8526  1.3040
   20MPD2    N1  318   2.109   0.037  14.140  0.8553 -0.3911  0.1720
   20MPD2    H7  319   2.066   4.670  14.149 -0.9758  0.2801 -1.6897
   21MPD2     C  320   4.699   1.099  14.407  0.4935  0.2102 -0.1988
   21MPD2    C1  321   4.569   1.046  14.431 -0.3949 -0.6674  0.2753
   21MPD2    C2  322   4.464   1.138  14.416 -0.4320 -0.2845  0.2185
   21MPD2    C3  323   4.492   1.274  14.377 -0.1852  0.8166  0.6996
   21MPD2    C4  324   4.621   1.309  14.342  0.2160 -0.2730 -0.4683
   21MPD2    C5  325   4.717   1.221  14.348  0.0236 -0.0643  0.4313
   21MPD2     H  326   4.367   1.107  14.453 -0.4650 -0.3936  0.0381
   21MPD2    H1  327   4.647   1.408  14.306 -2.7923  0.0884 -1.7094
   21MPD2    H2  328   0.058   1.030  14.407  0.7329  0.5036 -0.5187
   21MPD2    H3  329   0.089   1.258  14.316 -0.2863 -1.2846 -1.8989
   21MPD2     N  330   4.405   1.385  14.376 -0.6235 -0.2514 -0.8432
   21MPD2    H5  331   4.436   1.472  14.334  3.9286 -1.1016  0.7152
   21MPD2    N1  332   4.548   0.911  14.466  0.1760  0.2551  0.5951
   21MPD2    H7  333   4.460   0.873  14.436 -0.5413  2.4532 -0.0897
   22TCq2    C1  334   4.276   1.384  14.414  0.0178 -0.1250 -0.2188
   22TCq2    O2  335   4.217   1.290  14.468  0.2665  0.5069  0.0134
   22TCq2    C2  336   4.214   1.515  14.423 -0.7071 -0.4134  0.2936
   22TCq2    C3  337   4.296   1.619  14.454  0.3299  0.0710 -0.6923
   22TCq2    C4  338   4.242   1.738  14.492 -0.4181  0.5509  0.2950
   22TCq2    C5  339   4.108   1.745  14.519 -0.2395 -0.3437  0.2237
   22TCq2    C6  340   4.030   1.635  14.502  0.5764 -0.0370 -1.2920
   22TCq2    C7  341   4.076   1.517  14.448 -0.0180 -0.3050 -0.0970
   22TCq2    C8  342   3.892   1.666  14.519  0.1951  0.1474  0.7509
   22TCq2    O4  343   3.860   1.757  14.598  0.5064 -0.2314 -0.3650
   22TCq2    C9  344   4.331   1.856  14.502  0.3467 -0.3447 -0.8752
   22TCq2    O5  345   4.447   1.845  14.452  0.1810 -0.5634 -0.0968
   22TCq2    O6  346   4.302   1.959  14.571 -0.4630  0.5245 -0.3624
   22TCq2    H2  347   4.405   1.611  14.451  0.0883 -3.1114 -1.6668
   22TCq2    H3  348   4.067   1.838  14.556 -0.6919 -0.7901  0.8243
   22TCq2    H4  349   4.018   1.425  14.442  4.7678 -3.3862  0.4483
   23MPD2     C  350   1.175   0.995  14.257  0.1893  0.0224 -0.3605
   23MPD2    C1  351   1.101   1.079  14.339  0.0677 -1.0675 -0.3592
   23MPD2    C2  352   1.023   1.173  14.278  0.0197  0.2698  0.4393
   23MPD2    C3  353   1.000   1.175  14.137  0.0444 -0.3109 -0.1136
   23MPD2    C4  354   1.069   1.085  14.060  0.3724 -0.1766 -0.5843
   23MPD2    C5  355   1.161   1.002  14.120  0.3963 -0.2309 -0.5775
   23MPD2     H  356   0.967   1.238  14.343  1.3249  0.3570  1.4842
   23MPD2    H1  357   1.063   1.085  13.951 -1.2970  1.7174 -0.4949
   23MPD2    H2  358   1.241   0.916  14.291 -1.3293 -0.9058  0.3954
   23MPD2    H3  359   1.214   0.932  14.056  1.1417 -0.8252  0.6977
   23MPD2     N  360   0.909   1.258  14.071 -0.7097 -0.0491 -0.2176
   23MPD2    H5  361   0.912   1.244  13.971 -1.0816  0.1862 -0.2610
   23MPD2    N1  362   1.114   1.078  14.480  0.9821 -0.1907  0.6358
   23MPD2    H7  363   1.072   1.156  14.530  0.3205 -0.3794  0.3718
   24TCq2    C1  364   0.824   1.344  14.131  0.6972  0.1381  0.1719
   24TCq2    O2  365   0.808   1.383  14.248 -0.2932 -0.0848  0.6703
   24TCq2    C2  366   0.715   1.380  14.046 -0.4551 -0.4556  0.5264
   24TCq2    C3  367   0.669   1.287  13.957  0.3436 -0.6109 -0.4385
   24TCq2    C4  368   0.534   1.273  13.934 -0.2229 -0.3851  0.6693
   24TCq2    C5  369   0.441   1.348  14.000 -0.4317  0.3137  0.4513
   24TCq2    C6  370   0.485   1.428  14.094 -0.5290  0.0567  1.0346
   24TCq2    C7  371   0.620   1.449  14.116 -0.1344 -0.0506  0.1276
   24TCq2    C8  372   0.397   1.471  14.199  0.8584  0.2654 -0.5398
   24TCq2    O4  373   0.446   1.495  14.308 -0.2255  0.1541  0.0067
   24TCq2    C9  374   0.490   1.183  13.832  0.2960  0.4418 -0.0632
   24TCq2    O5  375   0.554   1.078  13.838  0.4667  0.4969 -0.0805
   24TCq2    O6  376   0.434   1.223  13.726  0.1472  0.3541 -0.1171
   24TCq2    H2  377   0.741   1.228  13.902  1.4318  0.5762 -0.2718
   24TCq2    H3  378   0.334   1.339  13.986 -0.6518  0.2558  2.1904
   24TCq2    H4  379   0.649   1.517  14.196 -0.6095  0.7269 -0.3544
   25TMC2    C1  380   4.690   4.108  11.314  0.0945 -0.5932  1.1477
   25TMC2    C2  381   0.077   4.172  11.349 -0.4739  0.4657 -0.9025
   25TMC2    C3  382   0.087   4.216  11.476  0.0233  0.5227 -0.9404
   25TMC2    C4  383   4.590   4.096  11.403  0.0364  0.0035 -0.0454
   25TMC2    C5  384   4.596   4.149  11.532  0.2604  0.4424 -0.2357
   25TMC2    C6  385   4.711   4.208  11.573 -0.0953 -0.1952 -0.6540
   25TMC2     C  386   4.657   4.087  11.174  0.5015 -0.7074 -0.6164
   25TMC2     O  387   0.003   4.145  11.090 -0.2944  0.1098  0.0055
   25TMC2     H  388   0.156   4.186  11.276 -0.2257  1.7755 -0.3928
   25TMC2    H1  389   4.485   4.089  11.374 -0.2439 -2.0545  1.4485
   25TMC2    H2  390   4.724   4.238  11.676 -0.4497 -1.4652 -0.2537
   25TMC2    C7  391   4.517   4.090  11.637  1.5029  0.2981 -0.7062
   25TMC2    C8  392   0.209   4.280  11.525 -0.1297 -0.0908 -0.5829
   25TMC2    O1  393   4.552   4.111  11.754  0.5801 -0.6975 -0.0601
   25TMC2    O2  394   0.202   4.361  11.617  0.2122  0.0271 -0.1349
   25TMC2    O5  395   0.325   4.247  11.454  0.8856 -0.2906  0.1317
   25TMC2    H5  396   0.303   4.169  11.399  1.4781 -0.5268  0.2297
   26MPD2     C  397   4.330   3.965  10.795 -0.5889 -0.2870 -0.3129
   26MPD2    C1  398   4.286   3.899  10.909  0.5783  0.4117 -0.9686
   26MPD2    C2  399   4.367   3.907  11.025 -0.2713  0.0225 -0.7715
   26MPD2    C3  400   4.477   3.994  11.030  0.3930 -0.3884  0.0620
   26MPD2    C4  401   4.517   4.063  10.914 -0.5361  0.3189  0.0096
   26MPD2    C5  402   4.439   4.049  10.798 -0.1763  1.0311  0.3414
   26MPD2     H  403   4.338   3.862  11.119 -0.5906 -1.3000 -1.4983
   26MPD2    H1  404   4.594   4.138  10.912 -0.8981  0.7004  0.3615
   26MPD2    H2  405   4.283   3.953  10.698  1.3979 -0.1115 -1.3126
   26MPD2    H3  406   4.460   4.114  10.714  2.1023  0.2897  0.3474
   26MPD2     N  407   4.545   4.004  11.150 -0.0484 -0.1756  0.3423
   26MPD2    H5  408   4.492   3.954  11.221  0.3794  0.0446  0.8244
   26MPD2    N1  409   4.187   3.801  10.890 -0.4966  0.2034 -0.3628
   26MPD2    H7  410   4.148   3.797  10.796  0.4445  1.2709 -0.7912
   27TMC2    C1  411   3.373   0.908  12.139 -0.5561 -0.2679 -0.2983
   27TMC2    C2  412   3.314   1.013  12.077  0.9587 -0.3766 -0.0938
   27TMC2    C3  413   3.383   1.128  12.044 -0.2781 -0.0040  0.7601
   27TMC2    C4  414   3.500   0.926  12.180 -0.7705  0.2492  0.5606
   27TMC2    C5  415   3.569   1.047  12.157  0.2632 -0.5847 -0.2413
   27TMC2    C6  416   3.517   1.132  12.066 -0.1999  0.4460  0.4833
   27TMC2     C  417   3.295   0.814  12.221  0.2520 -0.0187  0.3497
   27TMC2     O  418   3.342   0.706  12.251  0.0657  0.1396  0.9808
   27TMC2     H  419   3.214   1.007  12.036  1.9570  0.2898 -2.5933
   27TMC2    H1  420   3.560   0.849  12.227 -0.2425 -0.2691 -0.9394
   27TMC2    H2  421   3.575   1.217  12.032  0.3731  0.7631  2.2516
   27TMC2    C7  422   3.616   1.109  12.280  0.1200 -0.6472 -0.7515
   27TMC2    C8  423   3.325   1.210  11.942  0.2182  0.4279 -0.8950
   27TMC2    O1  424   3.627   1.231  12.277 -0.2607  0.1404  0.4560
   27TMC2    O2  425   3.259   1.165  11.846 -0.5184  0.4858  0.7604
   27TMC2    O5  426   3.335   1.346  11.969 -0.4456 -0.5440 -0.2627
   27TMC2    H5  427   3.358   1.373  12.060  0.2482  0.7407 -0.8172
   28MPD2     C  428   2.910   0.651  12.503  0.4978 -0.3659 -0.5681
   28MPD2    C1  429   2.907   0.790  12.505 -0.4342 -0.3054 -0.1524
   28MPD2    C2  430   3.000   0.859  12.432 -0.9506  0.1980  0.5182
   28MPD2    C3  431   3.084   0.792  12.346  0.3418  0.0470 -0.1765
   28MPD2    C4  432   3.082   0.654  12.336 -0.6035  0.6274 -0.0515
   28MPD2    C5  433   2.998   0.586  12.415  0.6118  0.1520  0.3015
   28MPD2     H  434   3.005   0.967  12.432  1.6893  0.0989  0.2404
   28MPD2    H1  435   3.151   0.597  12.275  1.3425  1.9276  0.9442
   28MPD2    H2  436   2.849   0.591  12.569  0.4230 -0.3365 -0.6104
   28MPD2    H3  437   2.998   0.478  12.411 -0.0803  0.1351  0.7675
   28MPD2     N  438   3.175   0.869  12.267 -0.2638 -0.2589  0.3001
   28MPD2    H5  439   3.175   0.970  12.277  2.1756 -0.2754  0.6760
   28MPD2    N1  440   2.799   0.842  12.582  0.0479  0.2401  0.5033
   28MPD2    H7  441   2.739   0.765  12.610 -1.7302  1.2219 -0.6210
   29MPD2     C  442   2.526   3.086  13.975  0.1428 -0.5279  0.7315
   29MPD2    C1  443   2.618   3.058  14.080 -0.3169 -0.3392  0.2653
   29MPD2    C2  444   2.627   3.147  14.186 -0.4439 -0.1932 -0.1163
   29MPD2    C3  445   2.544   3.260  14.185 -0.4168 -0.0906  0.6331
   29MPD2    C4  446   2.457   3.289  14.080  0.1183 -0.7677 -0.0498
   29MPD2    C5  447   2.448   3.199  13.984  0.0940  0.8235 -0.0843
   29MPD2     H  448   2.703   3.132  14.261 -0.4089  0.7066  0.0262
   29MPD2    H1  449   2.389   3.374  14.080 -0.3585 -1.1542 -0.5033
   29MPD2    H2  450   2.513   3.025  13.886 -1.0597 -0.5597  0.9295
   29MPD2    H3  451   2.386   3.228  13.900 -1.6520 -0.4405  0.7713
   29MPD2     N  452   2.550   3.367  14.279  0.6000 -0.1811 -0.7084
   29MPD2    H5  453   2.500   3.455  14.265  0.2769  0.3368  3.5188
   29MPD2    N1  454   2.707   2.943  14.078  0.9820  0.2849  0.0287
   29MPD2    H7  455   2.777   2.942  14.151  0.3603 -0.4161  0.6065
   30TCq2    C1  456   2.602   3.352  14.404 -0.7295 -0.4014  0.3862
   30TCq2    O2  457   2.637   3.244  14.459  0.1551 -0.2525 -0.5080
   30TCq2    C2  458   2.592   3.469  14.487 -0.4959 -0.1513  0.2645
   30TCq2    C3  459   2.566   3.458  14.617  0.2376 -0.1736  0.1903
   30TCq2    C4  460   2.592   3.561  14.701 -0.0574  0.0280 -0.5324
   30TCq2    C5  461   2.619   3.685  14.655  0.1386  0.4376 -0.0503
   30TCq2    C6  462   2.620   3.700  14.515  0.0882  1.1248 -0.0099
   30TCq2    C7  463   2.613   3.594  14.433  0.7507  0.0290 -0.5194
   30TCq2    C8  464   2.631   3.835  14.457 -0.4525  0.0434 -0.2728
   30TCq2    O4  465   2.604   3.852  14.339 -0.4714 -0.2169 -0.1892
   30TCq2    C9  466   2.572   3.547  14.841  0.3062  0.7316 -0.3837
   30TCq2    O5  467   2.555   3.426  14.878 -0.0696 -0.2324 -0.4159
   30TCq2    O6  468   2.604   3.646  14.912 -0.6802 -0.1325  0.3191
   30TCq2    H2  469   2.555   3.360  14.663 -2.5467 -0.5330 -1.1884
   30TCq2    H3  470   2.613   3.772  14.719  0.8951  0.3664  0.1147
   30TCq2    H4  471   2.611   3.613  14.327 -3.5012 -1.5695 -0.7056
   31MPD2     C  472   0.542   2.655  14.505 -0.2637 -0.1807  0.1218
   31MPD2    C1  473   0.404   2.680  14.480  0.0374  0.4559  1.3907
   31MPD2    C2  474   0.307   2.610  14.550 -0.0107 -0.2838  0.0389
   31MPD2    C3  475   0.345   2.511  14.638  0.1712 -0.0463 -0.5360
   31MPD2    C4  476   0.485   2.494  14.661  0.6508 -0.7398 -0.1815
   31MPD2    C5  477   0.576   2.566  14.596  0.4468 -0.0940 -0.2262
   31MPD2     H  478   0.205   2.618  14.514  0.0041 -0.2025  0.0139
   31MPD2    H1  479   0.528   2.419  14.727  0.6970 -1.4494 -1.0260
   31MPD2    H2  480   0.615   2.727  14.469 -0.8108 -0.2315 -1.0883
   31MPD2    H3  481   0.681   2.559  14.624  0.8958  0.6359 -1.7013
   31MPD2     N  482   0.256   2.433  14.713 -0.2178  0.2329 -0.4213
   31MPD2    H5  483   0.300   2.374  14.783 -0.3420  2.5119  1.6008
   31MPD2    N1  484   0.364   2.777  14.383  0.6508 -0.1522 -1.0820
   31MPD2    H7  485   0.442   2.823  14.336  1.0970  0.2653  0.0705
   32TCq2    C1  486   0.120   2.423  14.696 -0.3423  0.4580 -0.0178
   32TCq2    O2  487   0.051   2.490  14.626 -0.3051  0.0620  0.3789
   32TCq2    C2  488   0.073   2.344  14.810  0.1643  0.0962 -0.7182
   32TCq2    C3  489   4.681   2.277  14.792 -0.5307  1.0230  0.7083
   32TCq2    C4  490   4.625   2.201  14.895 -0.0433 -0.1941 -0.1664
   32TCq2    C5  491   4.685   2.196  15.012 -0.8342  0.2277  0.2905
   32TCq2    C6  492   0.073   2.275  15.030 -0.9905 -0.0158  0.1892
   32TCq2    C7  493   0.131   2.347  14.930  0.0005  0.2589  0.0132
   32TCq2    C8  494   0.154   2.230  15.138  0.2607  0.0760  0.5451
   32TCq2    O4  495   0.120   2.125  15.196 -0.1767 -0.0114  0.0584
   32TCq2    C9  496   4.515   2.113  14.866 -0.4507 -0.2062 -0.3211
   32TCq2    O5  497   4.486   2.104  14.743  0.6946  0.4424 -0.1816
   32TCq2    O6  498   4.454   2.052  14.957  0.3309  0.4687 -0.2190
   32TCq2    H2  499   4.623   2.284  14.700 -0.7710  1.9925  0.9345
   32TCq2    H3  500   4.646   2.120  15.078 -0.4040  2.1360  2.7094
   32TCq2    H4  501   0.223   2.403  14.947  0.5717 -0.5267 -0.4978
   33MPD2     C  502   4.387   4.474  10.180 -0.5416 -0.0729 -0.6484
   33MPD2    C1  503   4.505   4.532  10.209  0.3013  0.2864  0.5439
   33MPD2    C2  504   4.569   4.612  10.118  0.3761  0.7456 -0.5329
   33MPD2    C3  505   4.511   4.628   9.993 -0.5624 -0.0842 -0.1631
   33MPD2    C4  506   4.399   4.554   9.964  0.0474  0.3077 -0.3178
   33MPD2    C5  507   4.328   4.487  10.054  0.5471  0.1641  0.3062
   33MPD2     H  508   4.654   4.669  10.153  0.1133  1.2527 -0.7271
   33MPD2    H1  509   4.365   4.551   9.861  0.8933  0.8583 -0.6085
   33MPD2    H2  510   4.327   4.437  10.262  1.0855 -1.6246 -0.1560
   33MPD2    H3  511   4.230   4.446  10.034  0.0972  0.2877  2.2861
   33MPD2     N  512   4.560   4.706   9.885  0.7130 -0.1528  0.0371
   33MPD2    H5  513   4.520   4.692   9.792  0.1124  0.5849  0.1850
   33MPD2    N1  514   4.561   4.497  10.340 -0.5584 -1.2248 -0.5538
   33MPD2    H7  515   4.512   4.436  10.405 -1.3829  1.2508  1.1271
   34TCq2    C1  516   4.683   0.045   9.882  0.5689 -0.3903 -0.8600
   34TCq2    O2  517   0.048   0.029   9.963 -0.7125  0.3540  0.0433
   34TCq2    C2  518   0.002   0.080   9.748 -0.9481 -0.7948 -0.1991
   34TCq2    C3  519   4.638   0.099   9.646 -0.0094 -0.4988  0.6626
   34TCq2    C4  520   4.679   0.117   9.517  0.2438  0.7374 -0.4403
   34TCq2    C5  521   0.083   0.154   9.492 -0.4485 -0.2459 -0.1356
   34TCq2    C6  522   0.175   0.147   9.599  0.0721  0.7912  0.3525
   34TCq2    C7  523   0.137   0.106   9.728 -0.4593 -0.3276 -0.3313
   34TCq2    C8  524   0.305   0.214   9.592  0.3876  0.2017 -0.2654
   34TCq2    O4  525   0.361   0.247   9.691 -0.0158  0.2601 -0.8802
   34TCq2    C9  526   4.586   0.121   9.408 -0.2880  0.3932  0.8932
   34TCq2    O5  527   4.619   0.194   9.306  0.1052  0.2055 -0.1654
   34TCq2    O6  528   4.482   0.050   9.423 -0.3017 -0.2201  0.6320
   34TCq2    H2  529   4.530   0.090   9.659 -0.1118 -0.8665 -0.4714
   34TCq2    H3  530   0.113   0.204   9.401  1.2961  0.8267  1.0461
   34TCq2    H4  531   0.212   0.111   9.805  0.4194  2.1517 -1.3705
   35MPD2     C  532   2.797   1.678  11.905  0.0244 -0.3624  0.2551
   35MPD2    C1  533   2.690   1.593  11.922 -0.6223 -0.5343 -0.3330
   35MPD2    C2  534   2.576   1.604  11.838 -0.2979  0.6225 -0.1198
   35MPD2    C3  535   2.584   1.686  11.729  0.1491  0.2410  0.1634
   35MPD2    C4  536   2.701   1.769  11.708  0.6785 -0.1440  0.1415
   35MPD2    C5  537   2.805   1.763  11.794  0.4048 -0.3348  0.7854
   35MPD2     H  538   2.485   1.545  11.851 -1.9233  2.6161 -2.5453
   35MPD2    H1  539   2.711   1.837  11.624  0.0637 -0.1069  0.0980
   35MPD2    H2  540   2.865   1.694  11.988  2.1743 -2.4906 -1.0909
   35MPD2    H3  541   2.894   1.821  11.774  0.8604 -0.7229  1.7006
   35MPD2     N  542   2.470   1.692  11.645  0.4923 -0.1032 -0.3162
   35MPD2    H5  543   2.395   1.627  11.666 -0.4014  1.0176 -0.0246
   35MPD2    N1  544   2.701   1.498  12.027 -0.3247 -0.0117 -0.6177
   35MPD2    H7  545   2.787   1.498  12.082 -1.6908  1.0572  1.5189
   36TCq2    C1  546   2.434   1.794  11.561  0.7267 -0.0929 -0.5950
   36TCq2    O2  547   2.494   1.897  11.547  0.2046 -0.0467  0.5723
   36TCq2    C2  548   2.324   1.765  11.467  0.1778 -0.2464 -0.0520
   36TCq2    C3  549   2.290   1.865  11.379  0.1064  0.1748  0.4833
   36TCq2    C4  550   2.208   1.847  11.273 -0.2678  1.0549 -0.0367
   36TCq2    C5  551   2.148   1.726  11.256  0.8052 -0.4592  0.1612
   36TCq2    C6  552   2.185   1.622  11.345 -0.8339  0.3748  0.5659
   36TCq2    C7  553   2.270   1.636  11.454 -0.2969 -0.0370  0.6543
   36TCq2    C8  554   2.106   1.499  11.344  0.0289  0.5872 -1.1853
   36TCq2    O4  555   2.139   1.410  11.421  0.1921  0.0802  0.2270
   36TCq2    C9  556   2.174   1.955  11.188 -0.2186 -0.0236 -0.1470
   36TCq2    O5  557   2.142   1.937  11.065  0.0530  0.1309 -0.0470
   36TCq2    O6  558   2.192   2.072  11.234  0.2627 -0.4537  0.0208
   36TCq2    H2  559   2.344   1.959  11.377  0.4312 -0.0723 -3.0978
   36TCq2    H3  560   2.096   1.730  11.161 -0.3981 -1.7991  0.7727
   36TCq2    H4  561   2.302   1.547  11.506 -0.0377  0.3247  1.1191
   37TMC2    C1  562   4.122   1.196  11.911  0.4362  0.1438  0.0245
   37TMC2    C2  563   4.059   1.135  11.804  0.3081 -0.2161  0.3813
   37TMC2    C3  564   4.138   1.110  11.694  0.6636  0.8619 -0.3339
   37TMC2    C4  565   4.248   1.234  11.911  0.3939 -0.6171  0.3444
   37TMC2    C5  566   4.319   1.211  11.794  0.4663 -0.3110  0.2425
   37TMC2    C6  567   4.267   1.155  11.681  0.8052  1.1653  0.3151
   37TMC2     C  568   4.049   1.193  12.039  0.5192  0.2695 -0.3103
   37TMC2     O  569   3.930   1.181  12.034 -0.0393  0.0210  0.1711
   37TMC2     H  570   3.956   1.103  11.794 -0.4643  2.5454 -0.6451
   37TMC2    H1  571   4.292   1.289  11.994 -0.6034  0.7202 -0.0111
   37TMC2    H2  572   4.324   1.117  11.597  1.7651  1.1678  0.9789
   37TMC2    C7  573   4.460   1.241  11.794  0.0633  0.1234 -0.3301
   37TMC2    C8  574   4.078   1.038  11.581  0.4100  0.4519 -0.2547
   37TMC2    O1  575   4.518   1.256  11.901 -0.1082 -0.2898 -0.6858
   37TMC2    O2  576   3.977   0.971  11.594  0.3977  0.3532  0.0015
   37TMC2    O5  577   4.087   1.141  11.494  0.1392 -0.3595  0.0983
   37TMC2    H5  578   4.171   1.192  11.500  1.2854 -2.3045  0.5327
   38MPD2     C  579   4.037   1.181  12.554  0.6605  0.2458  0.4784
   38MPD2    C1  580   4.169   1.155  12.515  0.0938 -0.0878 -1.3088
   38MPD2    C2  581   4.197   1.148  12.379 -0.5678 -0.5872 -0.7697
   38MPD2    C3  582   4.096   1.181  12.290 -0.0158 -0.5335 -0.2994
   38MPD2    C4  583   3.967   1.227  12.327  0.1813  0.5272  0.1435
   38MPD2    C5  584   3.948   1.227  12.461 -0.0500 -0.2681 -0.3677
   38MPD2     H  585   4.301   1.129  12.353  0.0254 -0.4256  1.5677
   38MPD2    H1  586   3.891   1.264  12.258  0.1427  0.7789  0.3218
   38MPD2    H2  587   4.007   1.173  12.658 -3.3847  2.9132 -0.4571
   38MPD2    H3  588   3.847   1.256  12.486 -0.3734 -1.6786 -0.0500
   38MPD2     N  589   4.133   1.180  12.154  0.1936  0.3889  0.1793
   38MPD2    H5  590   4.230   1.162  12.131  0.4562  2.6911 -0.4628
   38MPD2    N1  591   4.281   1.132  12.601  0.3698 -0.8282 -0.5912
   38MPD2    H7  592   4.366   1.090  12.564  0.6549  0.1696 -1.0690
   39MPD2     C  593   1.787   2.877   1.608  0.0228 -0.1380  0.7542
   39MPD2    C1  594   1.677   2.949   1.631  0.0533  0.1700  0.0274
   39MPD2    C2  595   1.559   2.902   1.575 -0.4259  0.1608 -0.0881
   39MPD2    C3  596   1.553   2.801   1.479 -0.2119 -0.4981  0.0748
   39MPD2    C4  597   1.670   2.729   1.464  0.1690 -0.2717  0.0638
   39MPD2    C5  598   1.783   2.768   1.529  0.4142 -0.1656  0.2687
   39MPD2     H  599   1.482   2.978   1.577  0.1142  0.7174 -0.3416
   39MPD2    H1  600   1.678   2.649   1.391  0.4572  0.4677 -0.7131
   39MPD2    H2  601   1.883   2.905   1.649 -0.3776  2.2301  0.1134
   39MPD2    H3  602   1.873   2.709   1.512 -0.3212 -1.5185  1.1101
   39MPD2     N  603   1.443   2.771   1.395 -0.1453  0.1049  0.0765
   39MPD2    H5  604   1.458   2.694   1.329  0.0305 -0.2406  0.5167
   39MPD2    N1  605   1.689   3.072   1.707 -0.4815 -0.1007  0.0720
   39MPD2    H7  606   1.784   3.106   1.722 -0.7361  0.7554 -0.2970
   40TCq2    C1  607   1.583   3.148   1.744 -0.4188  0.2958 -0.1488
   40TCq2    O2  608   1.465   3.124   1.726  0.6287 -0.0253 -0.4933
   40TCq2    C2  609   1.625   3.262   1.831  0.0031 -0.5867  0.0706
   40TCq2    C3  610   1.536   3.371   1.835 -0.1958 -0.1811 -0.4790
   40TCq2    C4  611   1.558   3.474   1.913  0.7000  0.5770  0.0888
   40TCq2    C5  612   1.676   3.481   1.985  0.0115  0.0259 -0.1764
   40TCq2    C6  613   1.775   3.387   1.960 -0.1849 -0.1777  0.1368
   40TCq2    C7  614   1.754   3.279   1.879 -0.5474  0.3080 -0.3135
   40TCq2    C8  615   1.904   3.403   2.018  0.8097 -0.1148 -0.1771
   40TCq2    O4  616   1.910   3.447   2.128 -0.1306  0.2746 -0.1771
   40TCq2    C9  617   1.452   3.567   1.929 -0.2839  0.0183 -0.5571
   40TCq2    O5  618   1.353   3.547   1.852  0.0209 -0.6624 -0.1412
   40TCq2    O6  619   1.457   3.646   2.026  0.5550 -0.0197  0.4162
   40TCq2    H2  620   1.439   3.349   1.792  0.1526 -0.5673 -1.0856
   40TCq2    H3  621   1.694   3.562   2.055 -1.3598 -1.6475  2.1365
   40TCq2    H4  622   1.819   3.192   1.884 -0.0203  0.7064 -0.1825
   41TMC2    C1  623   1.552   1.451  13.398 -0.2952 -0.6539 -0.3147
   41TMC2    C2  624   1.496   1.566  13.463 -0.0138 -0.7429  0.0770
   41TMC2    C3  625   1.537   1.687  13.408  0.2220  0.0737 -0.1553
   41TMC2    C4  626   1.632   1.465  13.285 -0.0720 -0.4138  0.0367
   41TMC2    C5  627   1.653   1.586  13.230 -0.7586  0.4004 -0.4069
   41TMC2    C6  628   1.619   1.705  13.295  0.8610  0.9794  0.1359
   41TMC2     C  629   1.569   1.322  13.477 -0.4195 -0.1480  0.1356
   41TMC2     O  630   1.606   1.224  13.412 -0.0937  0.3194 -0.4168
   41TMC2     H  631   1.432   1.569  13.550 -0.8778 -0.0959 -0.5731
   41TMC2    H1  632   1.664   1.371  13.241  1.0719 -0.1857  0.3762
   41TMC2    H2  633   1.656   1.801  13.261 -0.3448  1.4730  0.2276
   41TMC2    C7  634   1.766   1.587  13.139  0.7760 -0.5375  0.4897
   41TMC2    C8  635   1.527   1.811  13.485 -0.0893 -0.3546  0.1271
   41TMC2    O1  636   1.808   1.700  13.127  0.4085  0.7618  0.1187
   41TMC2    O2  637   1.544   1.929  13.445 -0.3665  0.1831 -0.3336
   41TMC2    O5  638   1.480   1.772  13.604  0.1849 -0.3829  0.5019
   41TMC2    H5  639   1.526   1.688  13.626  2.3155  0.8882  0.9403
   42MPD2     C  640   1.533   1.085  13.658  0.7322  0.1553 -0.3053
   42MPD2    C1  641   1.516   1.219  13.695  0.0346  0.2177  0.1333
   42MPD2    C2  642   1.477   1.245  13.829  0.3913  0.7085  0.3442
   42MPD2    C3  643   1.477   1.144  13.919 -0.1399  0.6668 -0.8220
   42MPD2    C4  644   1.506   1.014  13.882 -0.2709  0.9107 -0.2274
   42MPD2    C5  645   1.544   0.985  13.752 -0.0596 -0.0893 -0.3425
   42MPD2     H  646   1.440   1.344  13.853  0.1140  0.9202 -0.9793
   42MPD2    H1  647   1.502   0.930  13.950 -3.8263  0.5419 -0.8989
   42MPD2    H2  648   1.542   1.059  13.553 -2.7650 -1.5807 -0.1870
   42MPD2    H3  649   1.577   0.887  13.719 -0.7838  0.1016 -1.6551
   42MPD2     N  650   1.443   1.163  14.056  0.8972 -0.3301 -0.0653
   42MPD2    H5  651   1.456   1.082  14.116  0.4713  0.4510  1.0678
   42MPD2    N1  652   1.520   1.327  13.603 -0.0422  0.3038  0.0932
   42MPD2    H7  653   1.502   1.421  13.638 -0.3093  0.1921  0.2560
   43MPD2     C  654   2.392   3.410   0.770  0.8792  0.3517 -0.1519
   43MPD2    C1  655   2.489   3.461   0.696 -0.3363  0.3794 -0.7586
   43MPD2    C2  656   2.537   3.584   0.728 -0.1987 -0.1977 -0.9260
   43MPD2    C3  657   2.490   3.657   0.837 -0.1627 -0.3614  0.5511
   43MPD2    C4  658   2.395   3.604   0.918 -0.0791  0.9861  0.2335
   43MPD2    C5  659   2.352   3.477   0.885  0.4113  0.5304  0.3382
   43MPD2     H  660   2.624   3.619   0.674 -0.8517  0.8925 -1.2822
   43MPD2    H1  661   2.350   3.652   1.004 -1.4965  0.1921 -0.0625
   43MPD2    H2  662   2.341   3.316   0.750  0.5399  1.0335 -2.5168
   43MPD2    H3  663   2.274   3.435   0.948  0.0965  0.9706  0.2395
   43MPD2     N  664   2.547   3.785   0.873 -0.1032 -0.2351  0.0798
   43MPD2    H5  665   2.516   3.828   0.960  1.4619  3.0657 -0.9853
   43MPD2    N1  666   2.532   3.385   0.593 -0.0807  0.1751 -0.2651
   43MPD2    H7  667   2.496   3.293   0.571  2.2817 -1.0901  1.1042
   44TCq2    C1  668   2.846   4.010   1.187  0.5819  0.1728 -0.3854
   44TCq2    O2  669   2.908   3.905   1.189 -0.4845 -0.3978  0.5189
   44TCq2    C2  670   2.772   4.050   1.068 -0.1365  0.2175  0.2228
   44TCq2    C3  671   2.784   4.178   1.012  0.0681  0.3006  0.3598
   44TCq2    C4  672   2.747   4.191   0.884  0.0483  0.0151 -0.4300
   44TCq2    C5  673   2.712   4.087   0.804  0.1101  0.0862  0.0221
   44TCq2    C6  674   2.697   3.962   0.866  0.2405 -1.1206 -0.2330
   44TCq2    C7  675   2.729   3.942   0.998  0.0283  0.5934 -0.4676
   44TCq2    C8  676   2.626   3.861   0.794 -0.2146 -0.1546 -0.1656
   44TCq2    O4  677   2.619   3.867   0.671 -0.6577 -0.0001  0.6108
   44TCq2    C9  678   2.762   4.323   0.826  0.6024  0.3574  1.1246
   44TCq2    O5  679   2.760   4.328   0.698 -0.1791 -0.0257 -0.4148
   44TCq2    O6  680   2.795   4.417   0.900  0.1036 -0.1642  0.2740
   44TCq2    H2  681   2.821   4.258   1.074  0.4477 -0.2885  0.8895
   44TCq2    H3  682   2.687   4.106   0.700  0.4645 -0.6628 -0.2001
   44TCq2    H4  683   2.720   3.849   1.053 -0.8976  1.3924  0.7459
   45TMC2    C1  684   3.698   1.407  10.231  0.1010  0.4481  0.3852
   45TMC2    C2  685   3.812   1.366  10.292  0.6821 -0.3138  0.2207
   45TMC2    C3  686   3.883   1.446  10.373  0.7918  0.1395  0.0833
   45TMC2    C4  687   3.649   1.532  10.239 -0.3951  0.3218  0.6849
   45TMC2    C5  688   3.726   1.617  10.310  0.3586 -0.3040 -0.5595
   45TMC2    C6  689   3.847   1.578  10.374 -0.3415 -0.0925 -0.1549
   45TMC2     C  690   3.656   1.311  10.133 -0.4291 -1.8839 -0.4355
   45TMC2     O  691   3.706   1.199  10.138 -0.0502 -0.0609 -0.1713
   45TMC2     H  692   3.845   1.263  10.283  0.0674 -0.6391  1.6887
   45TMC2    H1  693   3.557   1.561  10.189 -0.8123 -1.5454  0.3300
   45TMC2    H2  694   3.903   1.638  10.446 -2.3154  1.2801  0.2414
   45TMC2    C7  695   3.718   1.764  10.287  0.1858  0.8936 -0.1402
   45TMC2    C8  696   4.006   1.410  10.445  0.0128 -0.4359 -0.8490
   45TMC2    O1  697   3.819   1.825  10.325 -0.3870  0.5475 -0.0101
   45TMC2    O2  698   4.101   1.487  10.476 -0.1407 -0.3461  0.3274
   45TMC2    O5  699   3.999   1.288  10.483  0.0133  0.0203 -0.2870
   45TMC2    H5  700   3.909   1.250  10.486  0.7567 -1.5986  1.5275
   46MPD2     C  701   3.508   1.137   9.934  0.1050 -0.1269 -0.2829
   46MPD2    C1  702   3.505   1.277   9.938  0.0579  0.5418 -0.1238
   46MPD2    C2  703   3.439   1.349   9.838  0.1494 -0.1476  0.1092
   46MPD2    C3  704   3.370   1.282   9.744 -0.0907  0.0866  0.3000
   46MPD2    C4  705   3.378   1.150   9.738  0.0095 -0.4226 -0.0286
   46MPD2    C5  706   3.441   1.071   9.830  0.1069 -0.4941  0.8974
   46MPD2     H  707   3.436   1.457   9.843  1.0578 -0.0978 -0.7165
   46MPD2    H1  708   3.320   1.097   9.663  0.0068  1.6140 -1.4546
   46MPD2    H2  709   3.568   1.086  10.009 -0.7007  0.8421  1.0205
   46MPD2    H3  710   3.442   0.963   9.822  0.1752 -0.4427  0.2427
   46MPD2     N  711   3.289   1.357   9.652  0.1950  0.0664  0.0134
   46MPD2    H5  712   3.250   1.295   9.581  0.9593 -0.0333 -0.3212
   46MPD2    N1  713   3.584   1.362  10.030 -0.1628 -0.4701 -0.7158
   46MPD2    H7  714   3.572   1.461  10.012  1.5917 -0.3477 -1.1942
   47TMC2    C1  715   1.136   2.566   9.043 -0.1984  0.0154 -0.2171
   47TMC2    C2  716   1.127   2.632   8.923 -0.2757  0.2198 -0.1729
   47TMC2    C3  717   1.005   2.681   8.886  0.1365  0.2886  0.1877
   47TMC2    C4  718   1.026   2.538   9.113 -0.1393 -0.1597 -0.1750
   47TMC2    C5  719   0.906   2.593   9.077  0.3156 -1.0798  0.4504
   47TMC2    C6  720   0.893   2.659   8.958 -0.4916 -0.8786  0.0245
   47TMC2     C  721   1.275   2.535   9.092  0.1753  0.0735 -0.3427
   47TMC2     O  722   1.368   2.597   9.039  0.1613  0.4453 -0.3839
   47TMC2     H  723   1.219   2.659   8.871 -0.0083  0.3937  0.3951
   47TMC2    H1  724   1.040   2.483   9.205  0.3864  1.0844  0.4800
   47TMC2    H2  725   0.794   2.690   8.929 -1.2345 -2.1379  1.2197
   47TMC2    C7  726   0.787   2.554   9.155 -0.2675 -0.7610 -0.1133
   47TMC2    C8  727   0.988   2.787   8.793 -0.0682  0.0398  0.2327
   47TMC2    O1  728   0.676   2.590   9.115  0.7431 -0.0296 -0.5520
   47TMC2    O2  729   0.882   2.848   8.775 -0.8551 -0.2949 -0.2403
   47TMC2    O5  730   1.073   2.756   8.691  0.2484 -0.4051  0.6058
   47TMC2    H5  731   1.134   2.683   8.713 -1.4842 -1.9507  0.3516
   48MPD2     C  732   1.520   2.435   9.224 -0.2355 -0.5098 -0.1868
   48MPD2    C1  733   1.405   2.359   9.209  0.1265 -0.0481 -0.1773
   48MPD2    C2  734   1.412   2.230   9.257 -0.0475  0.3198 -0.2331
   48MPD2    C3  735   1.522   2.183   9.324  0.2831 -0.1537  0.2653
   48MPD2    C4  736   1.632   2.269   9.345 -0.5176 -0.0248  0.2775
   48MPD2    C5  737   1.627   2.395   9.298 -0.9066  0.0411 -0.0996
   48MPD2     H  738   1.322   2.170   9.252 -0.3372  0.9038 -2.0986
   48MPD2    H1  739   1.720   2.242   9.402 -0.6736 -1.2692 -0.0689
   48MPD2    H2  740   1.527   2.541   9.202 -2.2701  0.0546  1.8702
   48MPD2    H3  741   1.712   2.459   9.320  0.2985 -1.5741  0.0326
   48MPD2     N  742   1.523   2.052   9.369 -0.9610 -0.2976 -0.4442
   48MPD2    H5  743   1.446   1.991   9.346 -0.0069 -2.3051  1.6381
   48MPD2    N1  744   1.285   2.409   9.159 -0.0178  0.7506  0.4297
   48MPD2    H7  745   1.205   2.348   9.167  1.2557 -1.1923 -1.6531
   49MPD2     C  746   4.106   0.101   9.566  0.4504 -0.4006  0.1549
   49MPD2    C1  747   4.069   0.016   9.673  0.3279  0.0509  0.8759
   49MPD2    C2  748   4.115   0.042   9.799 -0.1227 -0.2171  0.2080
   49MPD2    C3  749   4.213   0.142   9.819  0.4793 -0.3440 -0.5979
   49MPD2    C4  750   4.253   0.218   9.710 -0.3453 -0.0114  0.6680
   49MPD2    C5  751   4.198   0.199   9.585 -0.1065  0.1087 -0.2517
   49MPD2     H  752   4.090   4.697   9.878 -2.3117 -0.6572 -0.8901
   49MPD2    H1  753   4.322   0.299   9.729 -1.0844  0.8063 -0.1620
   49MPD2    H2  754   4.069   0.106   9.464 -1.6944 -1.2445  0.8883
   49MPD2    H3  755   4.250   0.253   9.508  0.3956 -0.0829 -0.0474
   49MPD2     N  756   4.278   0.163   9.942  0.6794  0.3757  0.6970
   49MPD2    H5  757   4.355   0.229   9.940 -1.1923  2.4697 -2.2734
   49MPD2    N1  758   3.998   4.622   9.650 -0.3828 -0.0007 -0.2212
   49MPD2    H7  759   3.986   4.559   9.729 -0.3697  0.6180  0.2829
   50TCq2    C1  760   3.980   4.562   9.523 -0.3840  0.6263 -0.4953
   50TCq2    O2  761   3.994   4.609   9.412 -0.1363 -0.0512 -0.3980
   50TCq2    C2  762   3.938   4.422   9.528  0.5273  0.0042  0.1734
   50TCq2    C3  763   3.896   4.367   9.410  0.2075 -0.5923 -0.3900
   50TCq2    C4  764   3.918   4.237   9.391 -0.2477 -0.4923  0.1542
   50TCq2    C5  765   3.978   4.159   9.485 -0.1926  0.1361 -1.4531
   50TCq2    C6  766   4.015   4.212   9.604 -0.7985  0.0414 -0.0127
   50TCq2    C7  767   3.996   4.346   9.626  0.0168  0.6787 -0.7283
   50TCq2    C8  768   4.068   4.131   9.710  0.4423  0.1864 -0.7754
   50TCq2    O4  769   4.102   4.012   9.683 -0.0347  0.0353 -0.6935
   50TCq2    C9  770   3.876   4.185   9.262 -0.1124 -0.3197  0.4862
   50TCq2    O5  771   3.918   4.069   9.234  0.0740  0.7020  0.9603
   50TCq2    O6  772   3.846   4.270   9.169 -0.3463  0.2958 -0.3634
   50TCq2    H2  773   3.837   4.426   9.342  2.0389 -0.0037 -1.4626
   50TCq2    H3  774   4.003   4.057   9.457  3.3413  0.1443  1.6533
   50TCq2    H4  775   4.053   4.393   9.706 -1.1352  1.6358 -0.4757
   51MPD2     C  776   0.421   1.275   1.028 -0.0004  0.4276 -0.3487
   51MPD2    C1  777   0.288   1.299   0.991 -0.4707 -0.0578 -0.4093
   51MPD2    C2  778   0.245   1.429   0.986  0.9050 -0.3519  0.7998
   51MPD2    C3  779   0.329   1.536   0.997  0.7568  0.8357 -1.0414
   51MPD2    C4  780   0.465   1.508   1.007  0.8241 -0.2085  0.5377
   51MPD2    C5  781   0.505   1.378   1.031  0.1434 -0.2351  0.5302
   51MPD2     H  782   0.141   1.445   0.960  0.7735 -0.6455  1.1374
   51MPD2    H1  783   0.545   1.581   1.010  0.2657  0.3977  0.5991
   51MPD2    H2  784   0.464   1.175   1.031 -0.5018  0.1426 -2.6008
   51MPD2    H3  785   0.610   1.362   1.054  0.3946 -0.1277 -0.5244
   51MPD2     N  786   0.297   1.674   0.986 -0.2438 -0.1549  0.0291
   51MPD2    H5  787   0.379   1.734   0.979 -0.8604  0.9020  1.7415
   51MPD2    N1  788   0.193   1.201   0.958 -0.0919  0.8236 -0.0581
   51MPD2    H7  789   0.100   1.226   0.924 -1.3566 -0.2180  2.6586
   52TCq2    C1  790   0.170   1.730   0.965 -0.4659  0.0837 -0.4852
   52TCq2    O2  791   0.062   1.675   0.990  0.4120  0.3578  0.1696
   52TCq2    C2  792   0.175   1.866   0.917 -0.3382 -0.4121 -0.3250
   52TCq2    C3  793   0.298   1.918   0.875 -0.0736 -1.0171 -0.1452
   52TCq2    C4  794   0.298   2.040   0.825 -0.5939 -0.8223 -0.0285
   52TCq2    C5  795   0.175   2.103   0.819 -0.4160 -0.3254 -0.5719
   52TCq2    C6  796   0.056   2.052   0.866 -0.0158  0.0958  0.4262
   52TCq2    C7  797   0.054   1.925   0.923  1.1282  0.1850 -0.1332
   52TCq2    C8  798   4.662   2.128   0.838 -0.8307  0.0375 -0.5758
   52TCq2    O4  799   4.670   2.239   0.789 -0.1546  0.2074  0.8532
   52TCq2    C9  800   0.416   2.099   0.754  0.2715  0.2130 -0.4898
   52TCq2    O5  801   0.390   2.213   0.707 -0.4011  0.0080 -0.8835
   52TCq2    O6  802   0.522   2.037   0.748  0.2911 -0.3177 -0.8585
   52TCq2    H2  803   0.387   1.857   0.865 -0.1627 -0.9140 -1.6392
   52TCq2    H3  804   0.170   2.198   0.768 -1.6189  0.4947  1.0558
   52TCq2    H4  805   4.686   1.882   0.958  1.5798  0.8786  1.8870
   53TMC2    C1  806   0.452   1.363  11.892  0.3258 -0.3813  0.0110
   53TMC2    C2  807   0.556   1.439  11.926  0.5043 -0.3661  0.4605
   53TMC2    C3  808   0.564   1.469  12.054  0.9026 -0.5374  0.4897
   53TMC2    C4  809   0.371   1.303  11.985 -0.0544  0.1312  0.1047
   53TMC2    C5  810   0.392   1.341  12.117 -0.1874 -0.3223 -0.0606
   53TMC2    C6  811   0.500   1.417  12.162  0.0746  0.0906  0.1130
   53TMC2     C  812   0.377   1.392  11.770 -0.0197 -0.2850 -0.0020
   53TMC2     O  813   0.436   1.399  11.662 -0.5972  0.0193 -0.0748
   53TMC2     H  814   0.619   1.493  11.856  1.4759 -2.4964 -0.3073
   53TMC2    H1  815   0.309   1.217  11.962  1.5807 -1.3846  1.2926
   53TMC2    H2  816   0.509   1.458  12.262  1.0478 -1.2702  0.5857
   53TMC2    C7  817   0.268   1.345  12.187  0.9089 -0.8041  0.2423
   53TMC2    C8  818   0.663   1.568  12.086  0.4686  0.3117  0.2696
   53TMC2    O1  819   0.164   1.346  12.122 -0.2969 -0.3174 -0.0330
   53TMC2    O2  820   0.642   1.649  12.171  0.4222 -0.0436 -0.0927
   53TMC2    O5  821   0.781   1.506  12.062  0.8166  0.2368 -0.0986
   53TMC2    H5  822   0.786   1.446  11.985 -3.0048 -0.2752  0.0516
   54MPD2     C  823   0.172   1.409  11.557 -0.3202  0.1320  0.9878
   54MPD2    C1  824   0.150   1.378  11.690 -0.6006 -0.0318  0.2764
   54MPD2    C2  825   0.017   1.335  11.730 -0.3584  0.0600 -0.1338
   54MPD2    C3  826   4.642   1.325  11.636 -0.9008  0.3473 -0.6172
   54MPD2    C4  827   4.669   1.356  11.503  0.1783  0.3599 -1.0120
   54MPD2    C5  828   0.068   1.391  11.465  0.3312 -1.0857 -0.5095
   54MPD2     H  829   4.722   1.321  11.836 -0.0269  2.0170  0.1993
   54MPD2    H1  830   4.590   1.357  11.428 -2.0597 -2.6086  1.3045
   54MPD2    H2  831   0.264   1.448  11.517 -0.4992  2.7539  3.1250
   54MPD2    H3  832   0.093   1.413  11.362  1.5097  0.3340  0.0750
   54MPD2     N  833   4.509   1.274  11.669 -0.6692  0.1002  0.1126
   54MPD2    H5  834   4.446   1.262  11.591  0.1188 -0.4092 -0.4416
   54MPD2    N1  835   0.245   1.378  11.790  0.6223  0.6596  0.7430
   54MPD2    H7  836   0.214   1.365  11.885  1.0152  0.1321  0.7965
   55MPD2     C  837   1.225   3.676  17.431  0.8663 -1.0466 -0.7651
   55MPD2    C1  838   1.154   3.578  17.494  0.1700 -0.4496 -0.1394
   55MPD2    C2  839   1.029   3.601  17.557 -0.4045  0.5015  0.1342
   55MPD2    C3  840   0.985   3.728  17.563 -1.1603 -0.0056 -0.3001
   55MPD2    C4  841   1.067   3.830  17.521 -0.0816 -0.0404  0.5707
   55MPD2    C5  842   1.181   3.803  17.447 -0.0751  0.2044 -0.0866
   55MPD2     H  843   0.962   3.519  17.582 -0.6059  0.1765 -1.5258
   55MPD2    H1  844   1.039   3.934  17.533  0.5657 -0.1227  2.7414
   55MPD2    H2  845   1.317   3.656  17.376  1.5312  3.6093 -1.4049
   55MPD2    H3  846   1.242   3.890  17.427 -0.3982  0.5655  0.5028
   55MPD2     N  847   0.865   3.754  17.631 -0.7917  0.2666  0.6203
   55MPD2    H5  848   0.829   3.676  17.686 -1.2044 -0.4687 -0.6672
   55MPD2    N1  849   1.204   3.448  17.486 -0.0798  0.1327  0.5669
   55MPD2    H7  850   1.301   3.430  17.461  0.7146 -2.3450  5.3659
   56TCq2    C1  851   1.139   3.335  17.538  0.1160 -0.4404 -0.1398
   56TCq2    O2  852   1.028   3.310  17.581  0.0064  0.0918  0.0618
   56TCq2    C2  853   1.225   3.217  17.518  0.2296 -0.5543  0.3682
   56TCq2    C3  854   1.293   3.216  17.401 -0.0641 -0.0679  0.6408
   56TCq2    C4  855   1.322   3.093  17.346 -0.1138 -0.1187 -0.6169
   56TCq2    C5  856   1.280   2.975  17.405 -0.0237  0.1465  0.0629
   56TCq2    C6  857   1.218   2.976  17.526 -0.3206 -0.0696  0.1189
   56TCq2    C7  858   1.192   3.100  17.583 -0.0008  0.4387  0.5412
   56TCq2    C8  859   1.146   2.863  17.569 -0.7133 -0.1559  0.4340
   56TCq2    O4  860   1.203   2.761  17.548  0.5027 -0.0989 -0.0774
   56TCq2    C9  861   1.397   3.084  17.222  0.3248 -0.6854  0.3082
   56TCq2    O5  862   1.436   3.198  17.181 -0.0755 -0.2727  0.5009
   56TCq2    O6  863   1.370   2.985  17.153 -0.0159 -0.3628 -0.7282
   56TCq2    H2  864   1.305   3.304  17.339  0.6754 -0.5929  0.0317
   56TCq2    H3  865   1.310   2.886  17.352  0.0439  0.8177 -1.0239
   56TCq2    H4  866   1.145   3.116  17.680  0.4953  1.0772  0.6785
   57TMC2    C1  867   4.368   0.104  13.357  0.4582  0.0693  0.5573
   57TMC2    C2  868   4.255   0.036  13.313 -0.3294 -0.3644 -0.3234
   57TMC2    C3  869   4.255   4.725  13.180  0.1938 -0.3161  0.0679
   57TMC2    C4  870   4.474   0.135  13.274  0.5908 -0.2829 -0.4842
   57TMC2    C5  871   4.464   0.090  13.144  0.3936  0.2607  0.0577
   57TMC2    C6  872   4.361   0.014  13.096 -0.4254 -0.4150  0.5202
   57TMC2     C  873   4.356   0.173  13.489  0.2633 -0.0220  0.0760
   57TMC2     O  874   4.246   0.193  13.542 -0.4093 -0.1863 -0.1121
   57TMC2     H  875   4.168   0.020  13.375  0.8151  0.9614  1.6233
   57TMC2    H1  876   4.556   0.197  13.307  0.8571 -1.1395  0.4779
   57TMC2    H2  877   4.354   4.709  12.992 -1.6242 -0.3788  0.5895
   57TMC2    C7  878   4.592   0.084  13.074 -0.2017  0.6762  0.6027
   57TMC2    C8  879   4.133   4.674  13.131 -0.1675  0.0764  0.5596
   57TMC2    O1  880   4.653   0.192  13.077 -0.1578  1.1181 -0.0495
   57TMC2    O2  881   4.127   4.570  13.072  0.2096  0.4397 -0.3507
   57TMC2    O5  882   4.043   0.053  13.140  0.6750 -0.1223 -0.1431
   57TMC2    H5  883   4.086   0.138  13.163  0.7068 -0.2377  0.2277
   58MPD2     C  884   4.615   0.460  13.822  0.1732  0.1232 -0.4682
   58MPD2    C1  885   4.479   0.433  13.817  0.7695 -0.2150 -0.3200
   58MPD2    C2  886   4.433   0.345  13.719 -0.1326 -0.5124 -1.2606
   58MPD2    C3  887   4.522   0.273  13.641 -0.1194 -0.7156 -0.3581
   58MPD2    C4  888   4.653   0.302  13.655  0.2365  0.5448  0.3864
   58MPD2    C5  889   4.696   0.393  13.747 -0.1936 -0.2822 -0.0682
   58MPD2     H  890   4.327   0.331  13.707 -0.4486 -1.0591  2.2770
   58MPD2    H1  891   0.006   0.244  13.607  1.1780  2.7627 -0.7403
   58MPD2    H2  892   4.653   0.520  13.904 -0.5989 -1.7781  1.2923
   58MPD2    H3  893   0.075   0.413  13.772 -0.4280  1.7648 -0.7334
   58MPD2     N  894   4.482   0.197  13.537  0.2992  0.4973  0.0185
   58MPD2    H5  895   4.556   0.153  13.483 -0.4898 -1.4256  0.4709
   58MPD2    N1  896   4.398   0.498  13.911 -0.4356 -0.4128  0.5278
   58MPD2    H7  897   4.447   0.557  13.977 -0.4340  2.0999 -1.7198
   59MPD2     C  898   2.289   0.366  13.156  0.9142 -0.4594  0.2583
   59MPD2    C1  899   2.388   0.414  13.065  0.2040  0.3493  0.0746
   59MPD2    C2  900   2.508   0.453  13.122  0.2255  0.1311  0.5817
   59MPD2    C3  901   2.525   0.467  13.260 -0.6725 -0.4112  0.1975
   59MPD2    C4  902   2.420   0.429  13.340 -0.9852 -0.1062 -0.2858
   59MPD2    C5  903   2.309   0.376  13.294 -0.4383  0.2177 -0.3167
   59MPD2     H  904   2.587   0.496  13.061 -2.4821  0.0689 -2.9692
   59MPD2    H1  905   2.437   0.439  13.446 -4.1245 -1.1401  0.3154
   59MPD2    H2  906   2.191   0.328  13.128  1.3148 -0.2316 -1.4587
   59MPD2    H3  907   2.233   0.327  13.354 -0.4364  1.1089  0.4118
   59MPD2     N  908   2.646   0.519  13.318  0.2185  0.0974  0.0014
   59MPD2    H5  909   2.639   0.514  13.420  2.3348 -0.1913  0.1225
   59MPD2    N1  910   2.380   0.407  12.920  0.1940  0.2045 -0.0342
   59MPD2    H7  911   2.471   0.419  12.877 -0.4865  0.5850 -1.3679
   60TCq2    C1  912   2.275   0.354  12.845  0.2599  0.4160 -0.2732
   60TCq2    O2  913   2.166   0.322  12.889  0.1133 -0.1263 -0.5058
   60TCq2    C2  914   2.300   0.309  12.708 -0.0875  0.1137  0.0298
   60TCq2    C3  915   2.227   0.203  12.670  0.1268 -0.5452 -0.6289
   60TCq2    C4  916   2.255   0.138  12.553 -0.3028 -0.8317 -0.4011
   60TCq2    C5  917   2.361   0.177  12.480 -0.0274  0.2220 -0.3392
   60TCq2    C6  918   2.419   0.299  12.507 -0.2318 -0.3463  0.1046
   60TCq2    C7  919   2.406   0.361  12.632 -0.1865  0.0276 -0.2823
   60TCq2    C8  920   2.515   0.353  12.417 -0.0409 -0.5187  0.1875
   60TCq2    O4  921   2.560   0.281  12.327 -0.2279 -0.0372 -0.5730
   60TCq2    C9  922   2.189   0.019  12.507 -0.5002 -0.3342 -0.3194
   60TCq2    O5  923   2.173   0.007  12.381  0.5304  0.1374 -0.0718
   60TCq2    O6  924   2.131   4.682  12.601 -0.3976 -0.4543  0.3980
   60TCq2    H2  925   2.147   0.158  12.727  0.7998 -1.1614 -0.1736
   60TCq2    H3  926   2.370   0.140  12.379 -0.1787  0.3360 -0.3942
   60TCq2    H4  927   2.453   0.454  12.662 -0.2300 -0.4257  1.1571
   61MPD2     C  928   1.573   1.955  15.998  0.0972  0.3562  0.0937
   61MPD2    C1  929   1.570   2.076  15.929  0.4519 -0.1645  0.1045
   61MPD2    C2  930   1.610   2.083  15.794  0.1172  0.7219  0.2747
   61MPD2    C3  931   1.647   1.974  15.724 -0.1697  0.3606  0.7296
   61MPD2    C4  932   1.657   1.855  15.793 -0.5990  0.0175 -0.4313
   61MPD2    C5  933   1.617   1.849  15.928  0.7844 -0.0232 -0.0497
   61MPD2     H  934   1.606   2.178  15.742 -0.2973 -0.1002 -1.1814
   61MPD2    H1  935   1.700   1.768  15.745 -2.8245 -1.4948  0.3007
   61MPD2    H2  936   1.552   1.943  16.103  3.0755 -0.5875  0.5899
   61MPD2    H3  937   1.628   1.754  15.980 -2.1114 -0.8498 -0.9650
   61MPD2     N  938   1.657   1.989  15.586 -0.5831 -0.0976 -0.3800
   61MPD2    H5  939   1.641   2.081  15.545  0.4387  0.0288 -0.5071
   61MPD2    N1  940   1.530   2.197  15.984  0.1126 -0.9949  0.4256
   61MPD2    H7  941   1.512   2.274  15.921 -1.1413  0.7901  2.9486
   62TCq2    C1  942   1.513   2.220  16.120 -0.0055 -0.5075 -0.1366
   62TCq2    O2  943   1.544   2.141  16.212 -0.5312 -0.8761 -0.6314
   62TCq2    C2  944   1.468   2.356  16.153  0.1447 -0.7016  0.6755
   62TCq2    C3  945   1.443   2.387  16.284 -0.0098  0.8054  0.9893
   62TCq2    C4  946   1.397   2.515  16.319 -0.3681 -0.2486  0.1267
   62TCq2    C5  947   1.373   2.609  16.220  0.0183  0.2182  0.5572
   62TCq2    C6  948   1.413   2.579  16.095 -0.6122 -0.4588  0.3392
   62TCq2    C7  949   1.451   2.451  16.054  0.0598 -0.4772  1.2070
   62TCq2    C8  950   1.428   2.684  15.994  0.7274  0.2840 -0.2197
   62TCq2    O4  951   1.452   2.649  15.874  0.2254  0.5162 -0.0165
   62TCq2    C9  952   1.374   2.542  16.463  0.0739 -0.0511  0.6168
   62TCq2    O5  953   1.435   2.474  16.545  0.4095 -0.1307  0.0166
   62TCq2    O6  954   1.320   2.651  16.495  0.2370 -0.7961  0.2839
   62TCq2    H2  955   1.461   2.322  16.369  2.1067  1.4140  1.0058
   62TCq2    H3  956   1.326   2.703  16.248  0.2591  0.5108 -0.0218
   62TCq2    H4  957   1.501   2.428  15.961  2.7929 -0.9709  2.7839
   63TMC2    C1  958   1.275   2.089  10.214 -0.0514  0.4678  0.9445
   63TMC2    C2  959   1.410   2.067  10.205  0.1142 -0.5409 -0.5764
   63TMC2    C3  960   1.471   2.134  10.100  0.6372 -0.5000  0.9206
   63TMC2    C4  961   1.211   2.157  10.122 -0.0868  0.0463  0.1180
   63TMC2    C5  962   1.274   2.211  10.017 -0.3853  0.1551 -0.5293
   63TMC2    C6  963   1.410   2.212  10.010 -0.3439 -0.1572  0.0289
   63TMC2     C  964   1.187   2.040  10.316  0.3603  0.1662 -0.1421
   63TMC2     O  965   1.106   2.125  10.351 -0.1804 -0.5041 -0.1911
   63TMC2     H  966   1.465   2.004  10.274  1.4317  2.5201  1.1702
   63TMC2    H1  967   1.102   2.158  10.125 -0.1154 -2.0445 -0.0961
   63TMC2    H2  968   1.460   2.241   9.919 -0.9527  0.3631 -0.1413
   63TMC2    C7  969   1.197   2.305   9.927 -0.1605 -0.0724 -0.0081
   63TMC2    C8  970   1.589   2.068  10.045  0.1393  0.6710 -0.1440
   63TMC2    O1  971   1.077   2.287   9.930  0.3550 -0.1888  0.4732
   63TMC2    O2  972   1.603   2.039   9.930  0.0883 -0.5478 -0.1622
   63TMC2    O5  973   1.668   2.035  10.146 -0.4919  0.1553  0.1946
   63TMC2    H5  974   1.633   2.070  10.231  0.7090 -0.8318  1.1059
   64MPD2     C  975   1.023   1.674  10.632  0.2067  0.0228 -0.4019
   64MPD2    C1  976   1.144   1.630  10.582  0.0118  0.2342  0.1567
   64MPD2    C2  977   1.208   1.709  10.489 -0.5085 -0.3614  0.1008
   64MPD2    C3  978   1.156   1.834  10.463 -0.4672  0.7101  0.3255
   64MPD2    C4  979   1.036   1.881  10.513 -0.7706 -0.1682  0.4910
   64MPD2    C5  980   0.969   1.792  10.590 -0.2697 -0.1772  0.1775
   64MPD2     H  981   1.293   1.676  10.431 -0.2325  0.6737 -0.0885
   64MPD2    H1  982   0.990   1.972  10.475 -0.8369 -0.2725  0.3215
   64MPD2    H2  983   0.960   1.628  10.707  1.3073 -3.0041 -1.3463
   64MPD2    H3  984   0.866   1.808  10.621 -1.7865 -2.6549 -3.6022
   64MPD2     N  985   1.223   1.916  10.368 -0.3795  0.4587  0.9224
   64MPD2    H5  986   1.300   1.875  10.315 -1.3535  0.7997 -0.7580
   64MPD2    N1  987   1.212   1.510  10.622 -0.0179 -0.6392  0.0448
   64MPD2    H7  988   1.302   1.491  10.580  1.0060 -1.2021  2.4922
   65MPD2     C  989   2.458   1.263  15.557 -0.0002  0.3017 -0.1346
   65MPD2    C1  990   2.391   1.213  15.446 -0.3220  0.0165  0.1652
   65MPD2    C2  991   2.377   1.075  15.432  0.0417 -0.2696 -0.1700
   65MPD2    C3  992   2.417   0.992  15.538  0.9121 -0.0063  0.5063
   65MPD2    C4  993   2.481   1.047  15.647  0.1177  0.0432 -0.4728
   65MPD2    C5  994   2.502   1.179  15.658 -0.2113 -0.5403 -0.1983
   65MPD2     H  995   2.331   1.037  15.342 -0.3284  0.4737 -0.2943
   65MPD2    H1  996   2.506   0.995  15.739  1.6318  0.4966 -0.6172
   65MPD2    H2  997   2.494   1.365  15.571 -0.4781  0.4048  0.3725
   65MPD2    H3  998   2.558   1.221  15.741 -1.8079  0.6382  0.2636
   65MPD2     N  999   2.382   0.852  15.548 -0.1320  0.3066 -0.3895
   65MPD2    H5 1000   2.394   0.803  15.636  1.8746  1.7462  0.1400
   65MPD2    N1 1001   2.349   1.296  15.342  0.0889  0.2996  0.3499
   65MPD2    H7 1002   2.307   1.247  15.264  1.6202 -0.3504 -0.0557
   66TCq2    C1 1003   2.329   1.429  15.355  0.7968 -1.0639 -0.3070
   66TCq2    O2 1004   2.377   1.503  15.440  0.7259 -0.0313  0.3272
   66TCq2    C2 1005   2.234   1.489  15.259  0.1119 -0.1156  0.1865
   66TCq2    C3 1006   2.232   1.440  15.123  0.2062  0.4603 -0.5560
   66TCq2    C4 1007   2.194   1.533  15.029  0.9165 -0.2021  0.2016
   66TCq2    C5 1008   2.133   1.651  15.063  0.0441  0.3346  0.1805
   66TCq2    C6 1009   2.122   1.689  15.201 -0.3110  0.6159  0.4336
   66TCq2    C7 1010   2.175   1.605  15.304  1.1061  0.0696  0.4249
   66TCq2    C8 1011   2.099   1.832  15.216  0.0613 -0.1658  0.2738
   66TCq2    O4 1012   2.119   1.902  15.119 -0.1773  0.2612  0.9302
   66TCq2    C9 1013   2.198   1.503  14.890 -0.0163 -0.3718 -0.2552
   66TCq2    O5 1014   2.244   1.395  14.860 -0.5404 -0.3720  0.2192
   66TCq2    O6 1015   2.181   1.596  14.812 -0.5461  0.3855  0.2473
   66TCq2    H2 1016   2.279   1.348  15.090 -0.3503 -0.3196  0.8032
   66TCq2    H3 1017   2.094   1.716  14.986  0.0957 -2.0594 -1.8608
   66TCq2    H4 1018   2.171   1.644  15.405 -0.1353 -1.2907  0.8975
   67MPD2     C 1019   2.587   0.758  14.022 -0.6254  0.4148 -0.4867
   67MPD2    C1 1020   2.506   0.807  14.124  0.3867 -0.4077  0.0412
   67MPD2    C2 1021   2.375   0.829  14.108 -0.9019 -0.2178  0.9326
   67MPD2    C3 1022   2.314   0.806  13.981  0.4256  0.0053 -0.3149
   67MPD2    C4 1023   2.397   0.767  13.881 -0.1669 -0.1638  0.1483
   67MPD2    C5 1024   2.530   0.743  13.905  0.4068  0.6691 -1.1104
   67MPD2     H 1025   2.324   0.865  14.197 -0.5199  1.1936  0.5818
   67MPD2    H1 1026   2.354   0.772  13.782 -0.0849 -0.1449  0.1130
   67MPD2    H2 1027   2.694   0.740  14.026 -0.2980  2.4209  0.0145
   67MPD2    H3 1028   2.592   0.705  13.824  2.9982  0.7401  0.8386
   67MPD2     N 1029   2.177   0.838  13.949  0.0654 -0.4708  0.2837
   67MPD2    H5 1030   2.144   0.834  13.853  0.6768  0.6645  0.0351
   67MPD2    N1 1031   2.553   0.856  14.248 -0.7371 -0.0304  0.3776
   67MPD2    H7 1032   2.487   0.882  14.320 -0.3850 -0.2329  0.7711
   68TCq2    C1 1033   2.676   0.840  14.299  0.4134 -0.5724  0.3405
   68TCq2    O2 1034   2.779   0.810  14.241 -0.2243 -0.2095 -0.2468
   68TCq2    C2 1035   2.685   0.875  14.444  0.0926 -0.5753  1.3312
   68TCq2    C3 1036   2.586   0.952  14.500 -0.3313 -0.3427  0.7300
   68TCq2    C4 1037   2.607   0.990  14.627 -0.4238  0.9915  0.7274
   68TCq2    C5 1038   2.712   0.947  14.705  0.5901 -0.6762 -0.1056
   68TCq2    C6 1039   2.802   0.865  14.646 -0.4277 -0.0587 -0.1120
   68TCq2    C7 1040   2.792   0.830  14.516 -0.3640  0.0667  0.2787
   68TCq2    C8 1041   2.930   0.828  14.713 -0.0091 -0.4205  0.5025
   68TCq2    O4 1042   3.024   0.789  14.646  0.7491 -0.3774  0.2415
   68TCq2    C9 1043   2.516   1.091  14.682 -0.6769 -0.4090 -0.2258
   68TCq2    O5 1044   2.456   1.170  14.601  0.0713 -0.3111  1.0932
   68TCq2    O6 1045   2.509   1.108  14.808 -0.2761 -0.3370 -0.4650
   68TCq2    H2 1046   2.510   1.005  14.444  0.3538 -0.6106 -0.4335
   68TCq2    H3 1047   2.714   0.986  14.806  0.5857 -0.3701 -0.2259
   68TCq2    H4 1048   2.870   0.770  14.471 -0.1133  2.3101 -2.3059
   69TMC2    C1 1049   4.239   1.890  12.330  0.6046 -0.4985 -0.1041
   69TMC2    C2 1050   4.113   1.942  12.329  0.2126  0.0993 -0.0332
   69TMC2    C3 1051   4.077   2.007  12.214 -0.0743  0.1077  0.7986
   69TMC2    C4 1052   4.311   1.870  12.213 -0.0988  0.1106 -0.5328
   69TMC2    C5 1053   4.261   1.906  12.093  0.0219 -0.8076  0.5287
   69TMC2    C6 1054   4.141   1.977  12.093  0.4329 -0.3955 -1.1555
   69TMC2     C 1055   4.291   1.849  12.460  0.1432  0.4578 -0.1467
   69TMC2     O 1056   4.210   1.833  12.549 -0.2356 -0.5553  0.8107
   69TMC2     H 1057   4.073   1.963  12.428 -0.7387 -1.7330 -0.0127
   69TMC2    H1 1058   4.407   1.821  12.206 -0.6825 -0.6933 -2.8894
   69TMC2    H2 1059   4.092   2.024  12.008  0.6667  0.6223 -0.7352
   69TMC2    C7 1060   4.352   1.894  11.978 -0.6012 -0.7380 -0.2869
   69TMC2    C8 1061   3.979   2.102  12.225 -0.4181  0.2040 -0.0096
   69TMC2    O1 1062   4.473   1.884  12.006  0.3084 -0.0322 -0.0404
   69TMC2    O2 1063   3.979   2.211  12.171 -0.2663  0.1554 -0.1119
   69TMC2    O5 1064   3.871   2.058  12.296  0.5127  0.2285 -0.4369
   69TMC2    H5 1065   3.877   1.968  12.336  3.6286  1.4935  1.8799
   70MPD2     C 1066   4.639   1.869  12.581 -0.6492  0.3677 -0.0583
   70MPD2    C1 1067   4.505   1.849  12.582  0.1623 -0.1693 -0.1649
   70MPD2    C2 1068   4.456   1.769  12.686  0.3107 -0.4438 -0.2291
   70MPD2    C3 1069   4.533   1.730  12.793 -0.2816  0.1695 -0.0362
   70MPD2    C4 1070   4.663   1.765  12.788  0.0776  0.3825 -0.2197
   70MPD2    C5 1071   4.715   1.832  12.686 -0.5402  0.6027  0.1733
   70MPD2     H 1072   4.350   1.747  12.699  0.4114 -1.7032 -1.5877
   70MPD2    H1 1073   0.005   1.727  12.864 -1.2230  0.2102  0.8517
   70MPD2    H2 1074   4.690   1.934  12.510  1.0879  0.0410  0.8901
   70MPD2    H3 1075   0.097   1.849  12.696 -0.3972  0.1663 -0.6279
   70MPD2     N 1076   4.491   1.646  12.902 -0.4723  0.6194  0.1474
   70MPD2    H5 1077   4.571   1.614  12.957 -1.9094 -1.8191  0.7997
   70MPD2    N1 1078   4.427   1.869  12.465  0.9005  0.0760  0.2633
   70MPD2    H7 1079   4.467   1.906  12.380  2.2069 -1.9522 -0.0065
   71TMC2    C1 1080   1.178   0.839   1.137 -0.1761  0.5876 -0.1382
   71TMC2    C2 1081   1.259   0.731   1.132 -0.7937 -0.1098  0.1593
   71TMC2    C3 1082   1.204   0.609   1.111 -0.8507 -0.3373 -0.5569
   71TMC2    C4 1083   1.053   0.837   1.085 -0.2194  0.4127  0.0648
   71TMC2    C5 1084   0.999   0.712   1.048  0.5293 -0.1745  0.7344
   71TMC2    C6 1085   1.065   0.597   1.075 -0.2583  0.9578  0.4012
   71TMC2     C 1086   1.232   0.968   1.161  0.0485 -0.7330  0.1428
   71TMC2     O 1087   1.166   1.061   1.106 -0.1641 -0.2939 -0.4184
   71TMC2     H 1088   1.361   0.727   1.169 -1.0724  0.6240  1.0204
   71TMC2    H1 1089   0.993   0.927   1.092 -0.0632  0.5839 -0.8038
   71TMC2    H2 1090   1.020   0.503   1.045 -0.0657  0.9142  0.2477
   71TMC2    C7 1091   0.871   0.716   0.976  0.2058 -0.3282  0.2971
   71TMC2    C8 1092   1.308   0.508   1.068 -0.6169 -0.1815  0.4939
   71TMC2    O1 1093   0.804   0.615   0.979  0.0730  0.3495  0.2139
   71TMC2    O2 1094   1.422   0.541   1.045 -0.6334  0.4577  0.1681
   71TMC2    O5 1095   1.247   0.387   1.051  0.5559  0.1225  0.2318
   71TMC2    H5 1096   1.155   0.382   1.083  0.5238  1.8058  0.4044
   72MPD2     C 1097   1.609   1.298   1.299  0.2492 -0.0348 -0.1419
   72MPD2    C1 1098   1.519   1.305   1.194 -0.4937  0.4377  0.0536
   72MPD2    C2 1099   1.423   1.203   1.177 -0.4303  0.2295 -0.0893
   72MPD2    C3 1100   1.427   1.086   1.256  0.3298 -0.1298 -0.2818
   72MPD2    C4 1101   1.521   1.078   1.359  0.8971  0.2379 -0.3534
   72MPD2    C5 1102   1.600   1.185   1.383 -0.7093  0.4423 -0.3611
   72MPD2     H 1103   1.351   1.216   1.097  1.1705 -3.1565 -2.1085
   72MPD2    H1 1104   1.523   0.989   1.422  1.1002  1.7381  1.7556
   72MPD2    H2 1105   1.678   1.378   1.323 -0.3098  1.0331 -2.0919
   72MPD2    H3 1106   1.671   1.166   1.463  0.0565 -1.4170 -1.4829
   72MPD2     N 1107   1.347   0.973   1.233  0.3550 -0.7048  0.1452
   72MPD2    H5 1108   1.367   0.889   1.287  0.3141  1.2647  3.2640
   72MPD2    N1 1109   1.507   1.419   1.104 -0.2985 -0.8641 -0.0698
   72MPD2    H7 1110   1.423   1.409   1.047  0.5289 -2.1716 -1.0647
   73TMC2    C1 1111   2.324   4.006  13.678  0.1387 -0.5098  0.2622
   73TMC2    C2 1112   2.202   3.942  13.698  0.4716  0.1709  0.2997
   73TMC2    C3 1113   2.155   3.924  13.827  0.3810 -0.6561 -0.1992
   73TMC2    C4 1114   2.398   4.049  13.788 -0.1313  0.4281 -0.6274
   73TMC2    C5 1115   2.353   4.023  13.915  0.4746 -0.4047 -1.0826
   73TMC2    C6 1116   2.229   3.972  13.934 -0.2721  0.2142 -0.5510
   73TMC2     C 1117   2.318   4.122  13.588  0.7390 -1.0246  0.6494
   73TMC2     O 1118   2.372   4.220  13.641 -0.2891 -0.4389 -0.1941
   73TMC2     H 1119   2.139   3.911  13.615  0.8852  0.5408 -0.1506
   73TMC2    H1 1120   2.492   4.101  13.769  0.8058 -0.9568  0.2357
   73TMC2    H2 1121   2.192   3.971  14.036 -0.5425  1.2620 -0.6317
   73TMC2    C7 1122   2.373   4.130  14.002 -0.0256 -1.0134 -0.9624
   73TMC2    C8 1123   2.011   3.913  13.848 -0.0411 -0.2896 -0.1495
   73TMC2    O1 1124   2.350   4.119  14.122  0.1069 -0.4631  0.6638
   73TMC2    O2 1125   1.949   3.957  13.945 -0.3552 -0.3778  0.2748
   73TMC2    O5 1126   1.965   3.820  13.767  0.2112  0.6222  0.1790
   73TMC2    H5 1127   2.031   3.772  13.712  0.7152  1.1659  0.3129
   74MPD2     C 1128   2.135   4.420  13.214  0.8003  0.1722  0.0977
   74MPD2    C1 1129   2.186   4.455  13.338 -0.0957 -0.5829  0.4888
   74MPD2    C2 1130   2.208   4.355  13.425 -0.1124 -0.2627  0.9627
   74MPD2    C3 1131   2.197   4.218  13.395  0.4139 -0.2417 -1.0264
   74MPD2    C4 1132   2.132   4.185  13.280  0.1801 -0.9585 -0.1428
   74MPD2    C5 1133   2.098   4.289  13.190 -0.4231 -0.1393 -0.3830
   74MPD2     H 1134   2.242   4.385  13.523 -2.8773  1.9911  1.2300
   74MPD2    H1 1135   2.117   4.081  13.253 -2.0252 -0.3410 -1.2913
   74MPD2    H2 1136   2.118   4.489  13.133  1.0330 -0.8101 -0.7769
   74MPD2    H3 1137   2.058   4.268  13.091 -0.2047  2.6384 -1.0340
   74MPD2     N 1138   2.239   4.112  13.479  0.1556  0.4007 -0.5481
   74MPD2    H5 1139   2.215   4.016  13.456  1.1997  0.1665 -0.6700
   74MPD2    N1 1140   2.223   4.593  13.360  0.1288  0.3707  0.2420
   74MPD2    H7 1141   2.230   4.657  13.282  0.7437  1.7417  1.4269
   75TCq2    C1 1142   2.081   0.856  14.043  1.1822  0.7613 -0.9002
   75TCq2    O2 1143   2.102   0.881  14.161  0.2886 -0.0124 -0.9972
   75TCq2    C2 1144   1.943   0.868  13.999  0.6206 -0.4665  0.1074
   75TCq2    C3 1145   1.862   0.889  14.105  0.5184  0.3013 -0.2998
   75TCq2    C4 1146   1.741   0.835  14.099 -0.4747  0.3806 -0.1974
   75TCq2    C5 1147   1.703   0.756  13.996 -0.4348  0.4042  0.6792
   75TCq2    C6 1148   1.786   0.732  13.894 -0.6005 -0.3250 -0.5743
   75TCq2    C7 1149   1.904   0.801  13.888 -0.6943 -0.1374 -0.2997
   75TCq2    C8 1150   1.738   0.667  13.777 -0.1372  0.2278  0.2322
   75TCq2    O4 1151   1.790   0.692  13.666 -0.3974  0.0503 -0.1520
   75TCq2    C9 1152   1.648   0.856  14.215  0.1721 -0.2502 -1.1438
   75TCq2    O5 1153   1.703   0.878  14.328 -0.2707  0.7108  0.6410
   75TCq2    O6 1154   1.526   0.886  14.189 -0.0570 -0.1795 -0.3238
   75TCq2    H2 1155   1.887   0.946  14.193  1.6430 -1.7558  0.7269
   75TCq2    H3 1156   1.603   0.715  14.000 -1.3865  2.5940 -0.7910
   75TCq2    H4 1157   1.972   0.799  13.803 -1.4523 -0.3145 -0.8964
   76MPD2     C 1158   0.772   1.742  11.790 -0.3158  0.5343 -0.1858
   76MPD2    C1 1159   0.742   1.661  11.684 -0.3209  0.2900  0.3035
   76MPD2    C2 1160   0.842   1.584  11.625  0.0627  0.1069  0.0089
   76MPD2    C3 1161   0.966   1.578  11.681 -0.2675  0.5010 -0.3180
   76MPD2    C4 1162   0.991   1.654  11.795  0.8791  0.2341  0.2047
   76MPD2    C5 1163   0.901   1.744  11.844  0.7129  0.8471 -0.0203
   76MPD2     H 1164   0.817   1.527  11.536 -0.1651 -1.7792  1.2825
   76MPD2    H1 1165   1.082   1.635  11.851  0.4371  1.0746  1.2244
   76MPD2    H2 1166   0.695   1.810  11.826 -1.8403 -1.3871  0.1790
   76MPD2    H3 1167   0.910   1.805  11.933  1.4446 -0.6637  0.9471
   76MPD2     N 1168   1.071   1.487  11.644 -0.5784  0.1962  0.3454
   76MPD2    H5 1169   1.162   1.506  11.686  0.7317 -3.1498 -1.0090
   76MPD2    N1 1170   0.613   1.669  11.620  0.8165  0.0885  0.1741
   76MPD2    H7 1171   0.610   1.618  11.532  0.5682  0.2519  0.0893
   77TCq2    C1 1172   1.055   1.390  11.550  0.2462 -0.7916  0.7888
   77TCq2    O2 1173   0.962   1.355  11.479  0.2113  0.1861 -0.3769
   77TCq2    C2 1174   1.189   1.330  11.528  0.1200 -0.0564  0.5506
   77TCq2    C3 1175   1.183   1.191  11.494  0.5197  0.1021  0.1148
   77TCq2    C4 1176   1.296   1.117  11.518 -0.3109 -0.0736 -0.4171
   77TCq2    C5 1177   1.406   1.168  11.571 -0.1597  0.3596  0.1208
   77TCq2    C6 1178   1.411   1.298  11.601  0.5001 -0.2860  0.0785
   77TCq2    C7 1179   1.307   1.389  11.577  0.1590 -0.3392  0.7641
   77TCq2    C8 1180   1.515   1.351  11.687 -1.0188  1.0209  0.2492
   77TCq2    O4 1181   1.553   1.463  11.664  0.6619 -0.5464  0.2517
   77TCq2    C9 1182   1.283   0.974  11.486  0.4882 -0.7809  0.7704
   77TCq2    O5 1183   1.385   0.906  11.472  0.4161 -0.2095 -0.7659
   77TCq2    O6 1184   1.166   0.928  11.465 -0.4054 -0.5527  0.0470
   77TCq2    H2 1185   1.099   1.154  11.437 -0.6143  0.0341  1.8425
   77TCq2    H3 1186   1.505   1.124  11.570 -1.4129 -2.4606  0.2583
   77TCq2    H4 1187   1.314   1.492  11.609 -3.8630  0.4844 -0.9701
   78MPD1     C 1188   2.158   1.109   2.874 -0.1747  0.3049 -0.5408
   78MPD1    C1 1189   2.093   1.228   2.882 -0.0588 -0.3193  0.5850
   78MPD1    C2 1190   2.154   1.339   2.820  0.0338  0.1075  0.2810
   78MPD1    C3 1191   2.268   1.331   2.751  0.1336 -0.1526  0.3299
   78MPD1    C4 1192   2.339   1.213   2.755  0.3277 -0.3484  0.6327
   78MPD1    C5 1193   2.283   1.103   2.812 -0.8232  0.0062  0.1068
   78MPD1     H 1194   2.112   1.436   2.845  0.4953  0.3525  0.0944
   78MPD1    H1 1195   2.436   1.190   2.712  1.6661  2.6261  2.0606
   78MPD1    H2 1196   2.114   1.022   2.921 -0.4022  0.7089 -0.0073
   78MPD1    H3 1197   2.341   1.011   2.808 -2.2897 -0.9132  0.1591
   78MPD1     N 1198   2.349   1.442   2.696 -0.0593  0.0961  0.4049
   78MPD1    H5 1199   2.434   1.409   2.651 -1.3434 -0.2278 -1.7319
   78MPD1    N1 1200   1.982   1.244   2.965  0.4622 -0.0408 -1.0971
   78MPD1    H6 1201   1.942   1.152   2.983  2.8716 -0.9466 -0.3944
   78MPD1    H7 1202   1.913   1.307   2.925  1.9016  1.8147 -0.6421
   79TCq2    C1 1203   2.313   1.570   2.707 -0.7717  0.7011 -0.3419
   79TCq2    O2 1204   2.217   1.624   2.761  0.4906 -0.0569  0.1998
   79TCq2    C2 1205   2.417   1.660   2.662  0.4474  0.0771  0.5338
   79TCq2    C3 1206   2.381   1.786   2.632 -0.2268  0.3523 -0.6711
   79TCq2    C4 1207   2.476   1.866   2.586  0.5422 -0.2367  1.2834
   79TCq2    C5 1208   2.606   1.829   2.557  0.3002  0.6080 -0.0746
   79TCq2    C6 1209   2.648   1.702   2.603 -0.4363 -0.2030  0.7685
   79TCq2    C7 1210   2.548   1.615   2.641  0.5372 -0.2930 -0.7028
   79TCq2    C8 1211   2.756   1.648   2.533 -0.7445 -0.0546 -0.5547
   79TCq2    O4 1212   2.808   1.713   2.444 -0.5546  0.3551 -0.0516
   79TCq2    C9 1213   2.450   2.006   2.565  0.4968 -0.5120 -0.0039
   79TCq2    O5 1214   2.543   2.080   2.517  0.4501  0.0487  0.1619
   79TCq2    O6 1215   2.345   2.047   2.622  0.0092  0.0829 -0.6624
   79TCq2    H2 1216   2.279   1.821   2.643  0.5441  2.1479  0.6459
   79TCq2    H3 1217   2.672   1.895   2.503  0.7950  0.8094  0.7759
   79TCq2    H4 1218   2.570   1.514   2.673 -1.1278  0.2159  2.1122
   80MPD2     C 1219   0.345   0.906  12.267  0.4237 -0.5277  0.1991
   80MPD2    C1 1220   0.217   0.932  12.231  0.3711  0.2599  0.1516
   80MPD2    C2 1221   0.114   0.940  12.324 -0.0216  0.1325 -0.4483
   80MPD2    C3 1222   0.139   0.916  12.462 -0.1621 -0.5196  0.2001
   80MPD2    C4 1223   0.261   0.867  12.495 -0.1291 -0.3864 -0.4755
   80MPD2    C5 1224   0.362   0.871  12.399  0.1190 -0.1249  0.5834
   80MPD2     H 1225   0.014   0.964  12.288  1.3372  2.2853 -2.7472
   80MPD2    H1 1226   0.287   0.819  12.589  0.9050  1.1657  0.0401
   80MPD2    H2 1227   0.428   0.894  12.199  1.4694  0.1756  1.3509
   80MPD2    H3 1228   0.461   0.833  12.421 -0.0627 -1.1722 -0.4821
   80MPD2     N 1229   0.041   0.935  12.567 -0.5395 -0.1090 -0.0639
   80MPD2    H5 1230   0.057   0.899  12.661 -1.1003 -0.4288 -0.0883
   80MPD2    N1 1231   0.183   0.958  12.099 -0.0215 -0.2314  0.0565
   80MPD2    H7 1232   0.092   1.002  12.086  0.8197  1.3364 -0.5188
   81TCq2    C1 1233   0.259   0.942  11.990 -0.1793  0.6438 -0.1892
   81TCq2    O2 1234   0.375   0.916  11.985 -0.6829  0.8855 -0.0562
   81TCq2    C2 1235   0.195   0.989  11.867 -0.3445  1.3202 -0.6537
   81TCq2    C3 1236   0.279   1.029  11.765  0.3562 -0.8026 -0.4260
   81TCq2    C4 1237   0.229   1.048  11.639  0.1722  0.4277  0.5924
   81TCq2    C5 1238   0.097   1.020  11.609  0.7091 -0.3691 -0.5196
   81TCq2    C6 1239   0.013   0.976  11.710 -0.1004  0.3123 -0.2534
   81TCq2    C7 1240   0.057   0.967  11.839 -0.3294  1.0103 -0.0574
   81TCq2    C8 1241   4.605   0.935  11.666  0.3074  0.4895  0.9544
   81TCq2    O4 1242   4.563   0.995  11.569 -0.3576 -0.3804  0.1105
   81TCq2    C9 1243   0.321   1.079  11.527  0.0163  0.4981  0.2915
   81TCq2    O5 1244   0.434   1.135  11.551 -0.3069 -0.6965 -0.5963
   81TCq2    O6 1245   0.274   1.075  11.410 -0.1164 -0.0752 -0.2676
   81TCq2    H2 1246   0.386   1.046  11.774 -0.0141  0.6742  1.0463
   81TCq2    H3 1247   0.054   1.036  11.511  0.3662 -2.0494 -0.6441
   81TCq2    H4 1248   4.708   0.921  11.904  0.2487 -1.1921 -0.9656
   82MPD2     C 1249   3.011   0.845  10.100 -0.3296 -0.3125  0.2382
   82MPD2    C1 1250   2.908   0.804  10.193 -0.1446  0.1939 -0.0617
   82MPD2    C2 1251   2.923   0.687  10.259  0.0727  0.4297 -0.2006
   82MPD2    C3 1252   3.038   0.616  10.254 -0.3058  0.6577  0.1040
   82MPD2    C4 1253   3.137   0.651  10.158 -0.1143  0.3935 -0.3630
   82MPD2    C5 1254   3.120   0.765  10.087  0.6875 -0.2121  0.1561
   82MPD2     H 1255   2.841   0.657  10.324 -0.3309  3.8352  0.8322
   82MPD2    H1 1256   3.225   0.595  10.131  0.3802  1.1444 -0.3239
   82MPD2    H2 1257   3.006   0.945  10.058 -1.8017  1.4533  4.5073
   82MPD2    H3 1258   3.196   0.799  10.017  0.7185  1.1329  0.8638
   82MPD2     N 1259   3.062   0.504  10.334  0.0676 -0.2503  0.2745
   82MPD2    H5 1260   3.136   0.443  10.301  0.1606 -0.2734  0.5282
   82MPD2    N1 1261   2.782   0.871  10.221 -0.3721  0.7523  0.0334
   82MPD2    H7 1262   2.773   0.961  10.175  1.6636  0.8140 -0.2308
   83TCq2    C1 1263   2.981   0.457  10.431 -0.8645  0.3957  0.2267
   83TCq2    O2 1264   2.890   0.515  10.492  0.6536 -0.2711 -0.0076
   83TCq2    C2 1265   3.016   0.326  10.481 -0.0382  0.0067 -0.3585
   83TCq2    C3 1266   3.115   0.250  10.413  0.6047 -0.3360  0.4615
   83TCq2    C4 1267   3.139   0.121  10.453 -0.1359  0.3521  0.5981
   83TCq2    C5 1268   3.060   0.060  10.550  0.5588 -0.1598 -0.2903
   83TCq2    C6 1269   2.960   0.132  10.609  0.0587  0.0533  0.1572
   83TCq2    C7 1270   2.942   0.269  10.579 -0.4374 -0.3125 -0.0375
   83TCq2    C8 1271   2.885   0.069  10.716  0.4855  0.1741  0.4440
   83TCq2    O4 1272   2.835   0.136  10.805 -0.8546 -0.1762  0.4270
   83TCq2    C9 1273   3.238   0.038  10.385 -0.1662 -0.4806 -0.0499
   83TCq2    O5 1274   3.271   4.656  10.442 -0.1236 -0.0567  0.5493
   83TCq2    O6 1275   3.291   0.096  10.289  0.0821  0.3230  0.4150
   83TCq2    H2 1276   3.158   0.291  10.322 -0.1301 -0.9826 -0.1718
   83TCq2    H3 1277   3.084   4.687  10.587  0.1890 -0.6431 -1.3257
   83TCq2    H4 1278   2.871   0.335  10.627  1.5464  0.9572  1.1258
   84TCq2    C1 1279   4.233   0.121  10.064 -0.1874 -0.6041  0.4512
   84TCq2    O2 1280   4.132   0.063  10.098 -0.7083 -0.6554  0.3140
   84TCq2    C2 1281   4.317   0.158  10.180  0.7746 -0.9251  0.2174
   84TCq2    C3 1282   4.424   0.238  10.163 -0.1105  0.1473  0.4001
   84TCq2    C4 1283   4.468   0.311  10.266 -0.3982 -0.0343 -0.3266
   84TCq2    C5 1284   4.413   0.306  10.385 -0.0287 -0.4934 -0.4158
   84TCq2    C6 1285   4.303   0.230  10.403 -0.3000 -0.0174  0.5840
   84TCq2    C7 1286   4.257   0.143  10.302  0.1882  0.6265 -0.2835
   84TCq2    C8 1287   4.247   0.218  10.541  0.1955 -0.0434  0.4751
   84TCq2    O4 1288   4.175   0.122  10.564 -0.4660  0.6372  0.3437
   84TCq2    C9 1289   4.575   0.403  10.251 -0.0522 -0.4814  0.2106
   84TCq2    O5 1290   4.622   0.464  10.354 -0.1321  0.2131  0.2075
   84TCq2    O6 1291   4.616   0.407  10.138 -0.1552 -0.1766  0.8427
   84TCq2    H2 1292   4.481   0.227  10.072 -1.9852  0.1584 -0.7737
   84TCq2    H3 1293   4.452   0.371  10.463 -1.0745 -0.9771  0.5106
   84TCq2    H4 1294   4.173   0.077  10.321 -0.0016  0.6028 -1.1686
   85MPD2     C 1295   4.064   2.498  16.266  0.0206  0.8866 -1.1346
   85MPD2    C1 1296   4.192   2.470  16.235 -0.1485  0.2337 -0.0707
   85MPD2    C2 1297   4.285   2.564  16.209 -0.2184 -0.3506  0.3542
   85MPD2    C3 1298   4.243   2.692  16.219 -0.1899 -0.2090  0.6399
   85MPD2    C4 1299   4.111   2.725  16.249  0.2213  0.0732 -0.1349
   85MPD2    C5 1300   4.022   2.622  16.270 -0.3647 -0.0878  0.0113
   85MPD2     H 1301   4.388   2.537  16.188  0.0715  1.7587 -0.9001
   85MPD2    H1 1302   4.079   2.828  16.262 -1.6037 -0.8437  2.8055
   85MPD2    H2 1303   3.989   2.420  16.282 -0.3641  0.7817 -3.4205
   85MPD2    H3 1304   3.917   2.642  16.289 -0.7277 -1.7026 -0.3071
   85MPD2     N 1305   4.339   2.791  16.199  0.0336  0.5179  0.0967
   85MPD2    H5 1306   4.437   2.763  16.198 -0.0622  0.2521 -2.4261
   85MPD2    N1 1307   4.229   2.332  16.243 -0.0925 -0.8752 -0.5709
   85MPD2    H7 1308   4.327   2.317  16.223 -0.4893 -1.7084 -1.8770
   86TCq2    C1 1309   4.306   2.922  16.175 -0.6101 -0.0476 -0.6684
   86TCq2    O2 1310   4.206   2.980  16.168 -0.5060 -0.2003 -0.2014
   86TCq2    C2 1311   4.423   3.005  16.150 -0.0617 -0.2779  0.0388
   86TCq2    C3 1312   4.406   3.142  16.151 -0.1864 -0.5384 -0.5441
   86TCq2    C4 1313   4.512   3.224  16.110  0.6232 -0.9461 -0.4744
   86TCq2    C5 1314   4.632   3.172  16.070  0.1656  0.4001 -0.2396
   86TCq2    C6 1315   4.647   3.035  16.078 -0.0030 -0.2106  0.0998
   86TCq2    C7 1316   4.542   2.951  16.108 -0.2980 -0.0282 -0.0879
   86TCq2    C8 1317   0.016   2.974  15.986  0.0442  0.8125 -0.0168
   86TCq2    O4 1318   0.058   2.866  16.013 -0.2107  0.0790 -0.3383
   86TCq2    C9 1319   4.482   3.364  16.094 -0.6007 -0.0330 -0.3648
   86TCq2    O5 1320   4.364   3.394  16.122 -0.2885  0.2768 -0.0588
   86TCq2    O6 1321   4.566   3.437  16.034 -0.8085  0.1725 -0.0519
   86TCq2    H2 1322   4.315   3.192  16.183  1.0256  1.6945 -0.5671
   86TCq2    H3 1323   4.718   3.232  16.045  0.4769 -0.0620 -0.2607
   86TCq2    H4 1324   4.553   2.848  16.076  0.8022  0.7611 -2.2688
   87MPD2     C 1325   2.049   0.620   1.351  0.2191  0.1713  0.0356
   87MPD2    C1 1326   2.085   0.750   1.382  0.4481 -0.5408 -0.0280
   87MPD2    C2 1327   2.009   0.853   1.331 -0.0433 -0.0724  0.7807
   87MPD2    C3 1328   1.897   0.822   1.254  0.0503 -0.5452  0.2381
   87MPD2    C4 1329   1.857   0.698   1.233  0.2616  0.7021 -0.9458
   87MPD2    C5 1330   1.931   0.594   1.286 -0.2540 -0.0697 -0.3339
   87MPD2     H 1331   2.043   0.954   1.352  1.0877 -0.8167  2.5329
   87MPD2    H1 1332   1.767   0.680   1.174 -0.6078  0.5307  0.4275
   87MPD2    H2 1333   2.096   0.532   1.393  0.3011 -0.5703 -1.6195
   87MPD2    H3 1334   1.899   0.493   1.263  2.9981 -0.6487 -2.4206
   87MPD2     N 1335   1.832   0.923   1.180  0.3347  1.4654 -0.6458
   87MPD2    H5 1336   1.754   0.894   1.122 -0.3391  1.3759  0.2981
   87MPD2    N1 1337   2.215   0.768   1.436 -0.0918 -0.3129  0.3494
   87MPD2    H7 1338   2.273   0.684   1.432 -0.4236 -0.5716  0.9844
   88TCq2    C1 1339   2.271   0.888   1.477 -0.1585  0.9592 -0.4860
   88TCq2    O2 1340   2.225   0.999   1.464 -0.1999  0.6242  0.6596
   88TCq2    C2 1341   2.412   0.873   1.522  0.2981  0.1844 -0.2517
   88TCq2    C3 1342   2.456   0.974   1.605 -0.0312 -0.6015 -0.8012
   88TCq2    C4 1343   2.588   0.998   1.596  0.1893  0.2044 -0.3405
   88TCq2    C5 1344   2.675   0.929   1.513 -0.2875  0.7072 -0.3068
   88TCq2    C6 1345   2.623   0.827   1.438 -0.8363  0.8428 -0.0140
   88TCq2    C7 1346   2.493   0.795   1.440  0.4696  0.0403  0.2513
   88TCq2    C8 1347   2.693   0.786   1.319  0.3062 -0.0081  0.1230
   88TCq2    O4 1348   2.635   0.713   1.240 -0.4118 -0.3940  0.0494
   88TCq2    C9 1349   2.634   1.124   1.655  0.4757  0.5718  0.7860
   88TCq2    O5 1350   2.759   1.146   1.641 -0.5367  0.4395  0.7908
   88TCq2    O6 1351   2.560   1.184   1.737  0.0720 -0.3378  0.1060
   88TCq2    H2 1352   2.389   1.050   1.642  1.3869 -0.4128  1.3838
   88TCq2    H3 1353   2.780   0.953   1.525 -0.1993  0.7142 -1.0710
   88TCq2    H4 1354   2.444   0.741   1.360  0.4223  0.9685 -0.3434
   89MPD2     C 1355   2.145   3.301   2.155  0.4512 -0.4620  0.2885
   89MPD2    C1 1356   2.129   3.307   2.014 -0.1137 -0.0894  0.3144
   89MPD2    C2 1357   2.242   3.299   1.927 -0.3949  0.3373 -0.4167
   89MPD2    C3 1358   2.367   3.264   1.972 -0.2941 -0.4502  0.3459
   89MPD2    C4 1359   2.380   3.231   2.109  0.0140  0.0330 -0.7093
   89MPD2    C5 1360   2.276   3.259   2.191  0.4224 -0.3176  0.4324
   89MPD2     H 1361   2.237   3.330   1.824  0.1548 -0.2749 -0.6203
   89MPD2    H1 1362   2.472   3.190   2.148 -1.4991  1.9044  4.8497
   89MPD2    H2 1363   2.073   3.322   2.233  1.6566  2.8016  0.4985
   89MPD2    H3 1364   2.299   3.259   2.297 -3.3986  2.4027  1.2772
   89MPD2     N 1365   2.474   3.261   1.877 -0.5405 -0.3841 -0.1543
   89MPD2    H5 1366   2.451   3.276   1.779  1.9312 -2.1943 -1.0406
   89MPD2    N1 1367   2.007   3.344   1.949 -0.5091 -0.2668  0.2308
   89MPD2    H7 1368   1.994   3.320   1.851  0.9121  0.8663 -0.2423
   90TCq2    C1 1369   2.607   3.241   1.909  0.2610 -0.5836 -0.4832
   90TCq2    O2 1370   2.660   3.211   2.016  0.2688 -0.3124 -0.4946
   90TCq2    C2 1371   2.699   3.286   1.800 -0.1505  0.2139  0.1845
   90TCq2    C3 1372   2.833   3.300   1.836  0.0776  0.5245 -0.6539
   90TCq2    C4 1373   2.916   3.344   1.735 -0.2407  0.2810  0.3647
   90TCq2    C5 1374   2.877   3.352   1.609  0.4247 -0.2313  0.3303
   90TCq2    C6 1375   2.742   3.339   1.583  0.1211 -0.2802 -0.4596
   90TCq2    C7 1376   2.651   3.295   1.672 -0.0045 -0.1430  1.2942
   90TCq2    C8 1377   2.701   3.336   1.441 -0.7756  0.0565 -0.6525
   90TCq2    O4 1378   2.603   3.270   1.408 -0.8521  0.2923 -0.2653
   90TCq2    C9 1379   3.053   3.357   1.776  0.0770 -0.2847 -0.3794
   90TCq2    O5 1380   3.141   3.354   1.687 -0.5003  0.0459  0.3876
   90TCq2    O6 1381   3.077   3.357   1.902  0.1144  0.1037 -0.6084
   90TCq2    H2 1382   2.874   3.292   1.936 -2.8881  0.7169  0.5826
   90TCq2    H3 1383   2.956   3.370   1.537  2.1870 -0.4971  2.1807
   90TCq2    H4 1384   2.548   3.323   1.653  0.4835  0.9433  0.2512
   91TMC2    C1 1385   0.241   3.665  16.900 -0.2784 -0.4290 -0.4024
   91TMC2    C2 1386   0.276   3.773  16.819 -0.4062 -0.0609  0.1227
   91TMC2    C3 1387   0.180   3.844  16.755  0.3224  0.1252 -0.4867
   91TMC2    C4 1388   0.115   3.663  16.944  0.4696  0.0381 -0.0041
   91TMC2    C5 1389   0.020   3.752  16.890 -0.2764 -0.6241 -0.4938
   91TMC2    C6 1390   0.051   3.831  16.784  0.3543  0.2568  0.6378
   91TMC2     C 1391   0.330   3.560  16.945  0.0516 -0.0858 -0.4657
   91TMC2     O 1392   0.272   3.460  16.989 -0.6835 -0.0720  0.0280
   91TMC2     H 1393   0.378   3.793  16.787 -0.0527 -2.5401 -0.2927
   91TMC2    H1 1394   0.082   3.592  17.019  0.2289 -0.3195 -0.4557
   91TMC2    H2 1395   4.707   3.903  16.741  0.9080 -0.1263 -0.9174
   91TMC2    C7 1396   4.607   3.722  16.926 -0.0158 -0.5855  0.4662
   91TMC2    C8 1397   0.209   3.924  16.637 -0.6181 -0.5933 -0.3303
   91TMC2    O1 1398   4.582   3.676  17.038  0.3212  0.1661 -0.2404
   91TMC2    O2 1399   0.128   4.000  16.587  0.0418  0.1002 -0.2109
   91TMC2    O5 1400   0.310   3.866  16.565 -0.0447  0.1886  0.3802
   91TMC2    H5 1401   0.334   3.780  16.605 -0.6264 -0.2089 -0.1235
   92MPD2     C 1402   0.555   3.371  16.957 -0.4823 -0.3804  0.6026
   92MPD2    C1 1403   0.566   3.496  16.903  0.0692  0.2854 -0.0212
   92MPD2    C2 1404   0.680   3.544  16.851 -0.0982 -0.2082 -0.6800
   92MPD2    C3 1405   0.786   3.460  16.827  0.6162 -0.3950 -0.0852
   92MPD2    C4 1406   0.771   3.329  16.875  0.0975 -0.0428  0.6181
   92MPD2    C5 1407   0.662   3.288  16.946  0.6483 -0.9061  0.1530
   92MPD2     H 1408   0.680   3.645  16.811 -1.7197  1.5800  3.8293
   92MPD2    H1 1409   0.843   3.249  16.860 -0.0009 -0.4915  2.4742
   92MPD2    H2 1410   0.464   3.332  17.000 -2.0590  1.1244 -1.3950
   92MPD2    H3 1411   0.654   3.188  16.988 -1.4989 -0.9755 -0.4153
   92MPD2     N 1412   0.896   3.505  16.751 -0.2470  0.6715  0.0897
   92MPD2    H5 1413   0.886   3.597  16.709 -1.1121 -0.6321 -2.4916
   92MPD2    N1 1414   0.457   3.592  16.909  0.3803  0.2203  1.2179
   92MPD2    H7 1415   0.474   3.680  16.860  1.1350 -0.1983  0.7335
   93MPD2     C 1416   1.224   3.678  13.742  0.2043 -0.0428 -0.3605
   93MPD2    C1 1417   1.220   3.720  13.873 -0.0386  0.0335  0.1224
   93MPD2    C2 1418   1.098   3.740  13.939 -0.3538 -0.5237 -0.2459
   93MPD2    C3 1419   0.976   3.714  13.876  0.0220  0.2252  0.4421
   93MPD2    C4 1420   0.982   3.675  13.744  0.3246 -1.1090  0.0586
   93MPD2    C5 1421   1.100   3.654  13.680 -0.0709 -0.3949 -0.7523
   93MPD2     H 1422   1.113   3.776  14.040  1.3343 -1.2882 -0.2138
   93MPD2    H1 1423   0.892   3.654  13.688  0.0425  0.1958  0.0418
   93MPD2    H2 1424   1.317   3.647  13.696 -0.5003 -0.0212 -1.7986
   93MPD2    H3 1425   1.087   3.616  13.579 -0.2391 -0.8573 -0.5563
   93MPD2     N 1426   0.853   3.735  13.939 -0.8866 -0.0541  0.3289
   93MPD2    H5 1427   0.768   3.731  13.885  0.3726 -0.9276 -1.5808
   93MPD2    N1 1428   1.336   3.736  13.954  0.0560  0.1258  0.1666
   93MPD2    H7 1429   1.332   3.795  14.036  4.6580  1.3226 -0.4732
   94TCq2    C1 1430   1.462   3.701  13.912  0.4756  0.3315 -0.5040
   94TCq2    O2 1431   1.495   3.647  13.810 -0.1896  0.3201  0.3898
   94TCq2    C2 1432   1.558   3.720  14.022 -0.2627 -0.4515 -0.3741
   94TCq2    C3 1433   1.518   3.770  14.146 -0.5684  0.5799  0.4315
   94TCq2    C4 1434   1.607   3.771  14.252 -0.1009 -0.5705  0.1596
   94TCq2    C5 1435   1.738   3.725  14.233 -0.0854 -0.4435  0.9355
   94TCq2    C6 1436   1.760   3.653  14.119 -0.6556 -0.3714 -0.3213
   94TCq2    C7 1437   1.678   3.658  14.009 -0.0598 -0.0409 -0.5587
   94TCq2    C8 1438   1.898   3.619  14.089 -0.0612  0.6399 -0.1237
   94TCq2    O4 1439   1.915   3.557  13.983  0.0519  0.3354 -0.0614
   94TCq2    C9 1440   1.576   3.823  14.385  0.1433 -0.6695 -0.1177
   94TCq2    O5 1441   1.452   3.847  14.412  0.9947  0.1573  0.1681
   94TCq2    O6 1442   1.676   3.838  14.465 -0.4824  0.3236  0.1684
   94TCq2    H2 1443   1.424   3.817  14.175 -1.0166 -0.0435  0.0019
   94TCq2    H3 1444   1.806   3.736  14.317  1.0460  0.0530 -0.0330
   94TCq2    H4 1445   1.702   3.599  13.921  0.8375 -0.7870  0.1848
   95TMC2    C1 1446   1.780   0.342  16.361  0.2676  0.1296  0.3188
   95TMC2    C2 1447   1.700   0.228  16.353 -0.5663  0.4752 -0.1140
   95TMC2    C3 1448   1.656   0.177  16.472 -0.9322 -0.0249  0.4104
   95TMC2    C4 1449   1.817   0.398  16.479 -0.2718  0.0986  1.0488
   95TMC2    C5 1450   1.778   0.338  16.593  0.3141 -0.0665 -0.2815
   95TMC2    C6 1451   1.684   0.237  16.590  0.1768  0.5413  0.5142
   95TMC2     C 1452   1.834   0.395  16.237  0.3459  0.4487  0.6527
   95TMC2     O 1453   1.843   0.324  16.141  1.2197 -0.4207 -0.2909
   95TMC2     H 1454   1.668   0.181  16.261 -1.5606 -0.9572  0.9692
   95TMC2    H1 1455   1.891   0.477  16.484  0.4492 -0.4733 -0.5299
   95TMC2    H2 1456   1.629   0.220  16.683  1.2674 -0.7305  0.9273
   95TMC2    C7 1457   1.821   0.403  16.717  0.1852  0.0254 -0.2698
   95TMC2    C8 1458   1.571   0.060  16.460  0.5184  0.1989 -0.3642
   95TMC2    O1 1459   1.884   0.504  16.709 -0.1741 -0.3160 -0.3027
   95TMC2    O2 1460   1.527   0.027  16.353  0.3730  0.0653 -0.4537
   95TMC2    O5 1461   1.600   4.698  16.560  0.7040 -0.6046 -0.0897
   95TMC2    H5 1462   1.657   0.012  16.630 -0.4524 -1.3328  1.2367
   96MPD2     C 1463   2.006   0.810  15.968  0.7943 -0.9865  0.4863
   96MPD2    C1 1464   2.011   0.678  15.939 -0.1954  0.6147  0.2484
   96MPD2    C2 1465   1.968   0.582  16.033  0.0857  0.1039 -0.1730
   96MPD2    C3 1466   1.921   0.623  16.153  0.0212  0.1159  0.3028
   96MPD2    C4 1467   1.913   0.757  16.180  0.2924 -0.2433  0.0967
   96MPD2    C5 1468   1.957   0.852  16.087  0.1386 -0.1225  0.3529
   96MPD2     H 1469   1.985   0.478  16.008 -0.6669 -0.4482  1.6250
   96MPD2    H1 1470   1.845   0.794  16.256  0.7798 -0.7641  0.7838
   96MPD2    H2 1471   2.035   0.885  15.894  2.2839 -1.1200  0.9266
   96MPD2    H3 1472   1.940   0.958  16.101  0.1323 -0.1687  0.6924
   96MPD2     N 1473   1.865   0.531  16.250  0.0107  0.1829 -0.0153
   96MPD2    H5 1474   1.840   0.584  16.333  0.8065 -0.8302  0.8732
   96MPD2    N1 1475   2.077   0.649  15.821 -0.1276 -0.1800 -0.0018
   96MPD2    H7 1476   2.118   0.726  15.769 -1.2947  0.8687  0.6131
   97MPD2     C 1477   4.235   1.903   0.385 -0.1639  0.0893  0.6841
   97MPD2    C1 1478   4.112   1.936   0.424 -0.4814  0.7722  0.2637
   97MPD2    C2 1479   4.044   2.023   0.342 -0.4623 -0.3239  0.1516
   97MPD2    C3 1480   4.108   2.090   0.233  0.3625 -0.1287 -0.3269
   97MPD2    C4 1481   4.242   2.058   0.207  1.1061  0.2041  0.5707
   97MPD2    C5 1482   4.299   1.959   0.283  0.3748 -1.0414 -0.0247
   97MPD2     H 1483   3.941   2.047   0.364  0.0587  0.5021  1.6816
   97MPD2    H1 1484   4.299   2.098   0.124  2.3777  1.9140  2.2438
   97MPD2    H2 1485   4.292   1.826   0.436 -0.5485 -0.1701  0.7220
   97MPD2    H3 1486   4.396   1.917   0.258 -0.1456 -2.5724  0.5621
   97MPD2     N 1487   4.048   2.181   0.150 -0.1068 -0.1525  0.8085
   97MPD2    H5 1488   4.097   2.231   0.077  0.8394 -0.6144  1.1250
   97MPD2    N1 1489   4.061   1.881   0.549  0.0120 -0.1305 -0.1493
   97MPD2    H7 1490   4.132   1.840   0.609 -1.3699 -2.0788  0.1460
   98TCq2    C1 1491   3.915   2.205   0.149  0.1744  0.0979 -0.2041
   98TCq2    O2 1492   3.824   2.168   0.220 -0.4084 -0.5115  0.4340
   98TCq2    C2 1493   3.868   2.322   0.076  0.0086 -0.5865 -0.3240
   98TCq2    C3 1494   3.734   2.326   0.035  0.0925  0.2517  0.5065
   98TCq2    C4 1495   3.691   2.434  17.660 -0.4284 -0.3958  0.2945
   98TCq2    C5 1496   3.786   2.524  17.614  0.6812  0.3720  0.1056
   98TCq2    C6 1497   3.917   2.515  17.670  0.5240  0.0109 -0.0993
   98TCq2    C7 1498   3.958   2.417   0.048 -0.0049 -0.0861 -0.1246
   98TCq2    C8 1499   4.008   2.631  17.665 -1.1928 -0.4047 -0.0226
   98TCq2    O4 1500   4.130   2.613  17.668 -0.0738  0.2850  0.1052
   98TCq2    C9 1501   3.552   2.452  17.633 -0.0684 -0.1412  0.1932
   98TCq2    O5 1502   3.473   2.374  17.685  0.0368  0.3691  0.0795
   98TCq2    O6 1503   3.516   2.555  17.573 -0.2591  0.8210 -0.7870
   98TCq2    H2 1504   3.666   2.246   0.060  1.2194 -1.0441 -0.6029
   98TCq2    H3 1505   3.760   2.612  17.556  0.5766  0.1455 -0.1897
   98TCq2    H4 1506   4.060   2.419   0.084 -0.4569 -1.0707  1.2177
   99MPD2     C 1507   2.999   4.146   1.655 -0.2953 -0.5757 -0.1725
   99MPD2    C1 1508   2.886   4.220   1.624  0.5847 -0.6147 -0.0605
   99MPD2    C2 1509   2.826   4.197   1.503 -0.5124 -0.1162 -0.1052
   99MPD2    C3 1510   2.883   4.110   1.409 -0.6598  0.0019  0.6132
   99MPD2    C4 1511   3.002   4.039   1.439  0.3520 -0.6257  0.4017
   99MPD2    C5 1512   3.053   4.056   1.567 -0.2595 -0.1598  0.6227
   99MPD2     H 1513   2.740   4.255   1.470 -0.6385 -1.2225 -1.6900
   99MPD2    H1 1514   3.052   3.963   1.380  0.4784  0.6552 -1.1177
   99MPD2    H2 1515   3.050   4.156   1.750  0.7403  3.0846 -1.1084
   99MPD2    H3 1516   3.149   4.024   1.607 -0.7684 -1.1322  1.0751
   99MPD2     N 1517   2.819   4.098   1.287 -0.0387 -0.3116 -0.1994
   99MPD2    H5 1518   2.747   4.170   1.282  0.1605 -0.2074 -1.6489
   99MPD2    N1 1519   2.827   4.316   1.716  0.6740 -0.0763  0.0931
   99MPD2    H7 1520   2.738   4.357   1.690 -0.7067 -1.7302  2.1815
  100TCq2    C1 1521   2.880   4.351   1.841 -0.3945  0.4742  0.0574
  100TCq2    O2 1522   2.993   4.329   1.877 -0.0003 -0.0470 -0.2403
  100TCq2    C2 1523   2.797   4.448   1.899  0.3856  0.8196 -0.6032
  100TCq2    C3 1524   2.877   4.548   1.957 -0.6757 -0.3852 -0.1245
  100TCq2    C4 1525   2.810   4.655   1.998  0.4882  0.2057 -0.6303
  100TCq2    C5 1526   2.678   4.674   1.976 -0.4251 -0.1003  0.1375
  100TCq2    C6 1527   2.605   4.573   1.909  0.5503 -0.5656 -0.6261
  100TCq2    C7 1528   2.664   4.456   1.876  0.1369 -0.6582 -0.1417
  100TCq2    C8 1529   2.469   4.574   1.947  0.8316 -0.9573 -0.1225
  100TCq2    O4 1530   2.425   4.683   1.994 -0.2206 -0.4262 -0.4673
  100TCq2    C9 1531   2.887   0.034   2.069 -0.3481 -0.5019 -0.1579
  100TCq2    O5 1532   2.827   0.144   2.077 -0.8795 -0.8383  0.4897
  100TCq2    O6 1533   2.991   0.006   2.129 -0.5801 -0.7129 -0.2556
  100TCq2    H2 1534   2.981   4.530   1.982 -0.5432  0.3123 -0.1715
  100TCq2    H3 1535   2.643   0.045   2.012 -0.8009 -0.0265 -0.4199
  100TCq2    H4 1536   2.614   4.382   1.814  0.1745 -1.2400  0.5231
  101MPD2     C 1537   3.459   0.978  12.979  0.0708 -0.2113  0.5874
  101MPD2    C1 1538   3.374   1.037  13.066 -0.0525 -0.1084  0.3443
  101MPD2    C2 1539   3.288   0.958  13.138  0.2182 -0.0621 -0.1640
  101MPD2    C3 1540   3.303   0.820  13.137 -0.4238 -0.7998 -1.0232
  101MPD2    C4 1541   3.395   0.764  13.061  0.4375 -0.8277  1.0310
  101MPD2    C5 1542   3.473   0.840  12.978 -0.1037 -0.5511 -0.4655
  101MPD2     H 1543   3.233   1.012  13.213  0.0063  0.9332 -1.0435
  101MPD2    H1 1544   3.414   0.658  13.065  2.1590 -0.4892  1.7034
  101MPD2    H2 1545   3.520   1.037  12.911 -0.8444 -0.8019 -0.7455
  101MPD2    H3 1546   3.537   0.777  12.917  1.0775 -2.2748  2.5616
  101MPD2     N 1547   3.222   0.753  13.234  0.5576  0.2558 -0.6345
  101MPD2    H5 1548   3.171   0.820  13.291  1.6929 -0.0733  0.7666
  101MPD2    N1 1549   3.372   1.178  13.061 -0.3798 -1.4908 -0.2114
  101MPD2    H7 1550   3.440   1.227  13.003  0.4062 -1.0534  1.0931
  102TCq2    C1 1551   3.544   1.590  12.918 -0.1684  0.4997 -0.0020
  102TCq2    O2 1552   3.628   1.503  12.909  0.9539 -0.0950  0.3092
  102TCq2    C2 1553   3.420   1.550  12.980  0.2941 -0.3488  0.5408
  102TCq2    C3 1554   3.305   1.605  12.928  0.5924 -0.4582 -0.1006
  102TCq2    C4 1555   3.191   1.559  12.977  0.6566  0.7143 -0.8235
  102TCq2    C5 1556   3.178   1.455  13.060 -0.1536  0.3868  0.3875
  102TCq2    C6 1557   3.297   1.396  13.096 -0.7931  0.2074  0.5624
  102TCq2    C7 1558   3.417   1.435  13.057 -0.4700 -0.7402  0.3669
  102TCq2    C8 1559   3.284   1.257  13.135 -0.3030 -0.6277 -0.7512
  102TCq2    O4 1560   3.181   1.222  13.185  0.0107 -0.6176  0.1000
  102TCq2    C9 1561   3.070   1.611  12.919 -0.2358 -0.2323  0.2763
  102TCq2    O5 1562   2.962   1.576  12.976  0.0055 -0.6566 -0.1567
  102TCq2    O6 1563   3.085   1.655  12.802 -0.1527 -0.4479  0.0155
  102TCq2    H2 1564   3.300   1.677  12.848  1.4126  2.2850  2.3301
  102TCq2    H3 1565   3.082   1.409  13.080  0.6436 -1.8101 -0.9280
  102TCq2    H4 1566   3.507   1.390  13.096 -2.0206 -3.4607  0.7481
  103TMC2    C1 1567   1.816   0.982  12.344 -0.0441  0.5999 -0.6683
  103TMC2    C2 1568   1.825   0.851  12.378  0.8480 -0.3908  0.8331
  103TMC2    C3 1569   1.826   0.817  12.511  0.7184 -0.1439 -0.4701
  103TMC2    C4 1570   1.832   1.081  12.443  1.0237  0.0180 -0.1292
  103TMC2    C5 1571   1.841   1.044  12.571 -0.6535 -0.0461 -0.1855
  103TMC2    C6 1572   1.841   0.909  12.608  0.4319  0.3154 -0.6075
  103TMC2     C 1573   1.781   1.015  12.205  0.1683  0.1193  0.2545
  103TMC2     O 1574   1.736   0.928  12.130 -0.2430 -0.0400 -0.6712
  103TMC2     H 1575   1.794   0.780  12.302 -0.4013  0.9365  0.0963
  103TMC2    H1 1576   1.827   1.188  12.429 -0.0013  0.1747  1.4328
  103TMC2    H2 1577   1.855   0.883  12.712  0.6830 -0.3414 -0.8040
  103TMC2    C7 1578   1.829   1.137  12.681 -0.1152  0.7630 -0.0709
  103TMC2    C8 1579   1.741   0.704  12.533 -0.5956  0.2973 -0.0566
  103TMC2    O1 1580   1.783   1.094  12.788  0.7600  0.0263  0.0725
  103TMC2    O2 1581   1.709   0.625  12.445  0.1633 -0.5325  0.9629
  103TMC2    O5 1582   1.641   0.757  12.612  0.0754  0.1128 -0.0349
  103TMC2    H5 1583   1.662   0.812  12.690  0.5955  0.6354 -0.5499
  104MPD2     C 1584   1.849   1.348  12.067 -0.5559 -0.1082  0.6240
  104MPD2    C1 1585   1.789   1.224  12.068  0.4109 -0.1197 -0.4484
  104MPD2    C2 1586   1.693   1.195  11.970 -0.4391 -0.7912  0.4177
  104MPD2    C3 1587   1.659   1.287  11.870 -0.6511  0.4867  0.1894
  104MPD2    C4 1588   1.753   1.389  11.854 -0.4152 -0.0323 -0.2594
  104MPD2    C5 1589   1.829   1.427  11.961  0.1900  0.1929  0.1956
  104MPD2     H 1590   1.649   1.096  11.975 -2.1257 -0.0675 -0.3011
  104MPD2    H1 1591   1.756   1.459  11.772 -0.9882 -0.8300 -0.9696
  104MPD2    H2 1592   1.923   1.376  12.141  0.4961 -0.2282 -0.3703
  104MPD2    H3 1593   1.881   1.520  11.940  0.0454  0.4763  1.0834
  104MPD2     N 1594   1.558   1.256  11.777  0.5249  0.0856 -0.3763
  104MPD2    H5 1595   1.512   1.166  11.779 -0.3141  0.5570  1.0244
  104MPD2    N1 1596   1.826   1.143  12.176  0.1182  0.1460  0.0947
  104MPD2    H7 1597   1.867   1.195  12.253 -1.8676 -0.0849  1.3141
  105MPD2     C 1598   3.453   0.285   0.114  0.5884  0.3443  0.4314
  105MPD2    C1 1599   3.347   0.370   0.095 -0.3304 -0.0120  0.7036
  105MPD2    C2 1600   3.257   0.386   0.201  0.3796 -0.4775  0.2734
  105MPD2    C3 1601   3.255   0.294   0.307  0.3623 -0.1690 -0.3570
  105MPD2    C4 1602   3.355   0.211   0.320  0.0101 -0.1586 -0.2459
  105MPD2    C5 1603   3.460   0.212   0.230  0.5712  0.2317  0.1866
  105MPD2     H 1604   3.182   0.465   0.192  0.4649 -0.4551 -0.2191
  105MPD2    H1 1605   3.359   0.134   0.396 -0.2924  0.1519  0.0838
  105MPD2    H2 1606   3.535   0.290   0.043  0.1168 -0.1346 -0.1471
  105MPD2    H3 1607   3.543   0.144   0.244 -1.8500 -2.2829  2.3235
  105MPD2     N 1608   3.149   0.293   0.394 -0.1210 -0.1109 -0.0313
  105MPD2    H5 1609   3.079   0.366   0.386 -0.1473  0.0801  1.9910
  105MPD2    N1 1610   3.331   0.444  17.675  0.0167  0.2520 -0.3211
  105MPD2    H7 1611   3.266   0.521  17.681 -0.8657 -0.4171 -1.1994
  106TCq2    C1 1612   3.105   0.201   0.492 -0.4045 -0.0580 -0.1220
  106TCq2    O2 1613   3.151   0.088   0.511 -0.9229  0.7787  0.3712
  106TCq2    C2 1614   3.008   0.252   0.587 -0.3802 -0.5765 -0.2789
  106TCq2    C3 1615   2.971   0.155   0.676 -0.4306 -0.3165  0.5951
  106TCq2    C4 1616   2.898   0.194   0.786 -0.2087 -0.2733  0.0860
  106TCq2    C5 1617   2.882   0.323   0.819  0.1485 -0.6929 -0.8041
  106TCq2    C6 1618   2.923   0.416   0.728 -0.0728 -0.2906  0.7964
  106TCq2    C7 1619   2.989   0.385   0.612 -0.0169  0.1091 -0.1713
  106TCq2    C8 1620   2.964   0.545   0.781 -0.1192  0.4178  0.1251
  106TCq2    O4 1621   3.065   0.593   0.727  0.5272 -0.1844 -0.5226
  106TCq2    C9 1622   2.839   0.091   0.865  0.2566 -0.2911  0.7167
  106TCq2    O5 1623   2.799   0.116   0.978 -0.7154 -0.1787 -0.4813
  106TCq2    O6 1624   2.842   4.700   0.814  0.4834 -0.0866 -0.4729
  106TCq2    H2 1625   2.988   0.049   0.661  3.6494  0.6413 -1.5334
  106TCq2    H3 1626   2.819   0.355   0.901 -0.2901 -1.7846 -0.7051
  106TCq2    H4 1627   3.025   0.464   0.547  2.5406 -1.0188 -0.1111
  107TMC2    C1 1628   3.759   0.049  11.356 -0.0807  0.6521 -0.1215
  107TMC2    C2 1629   3.754   4.651  11.287 -0.2606  0.4484  0.3763
  107TMC2    C3 1630   3.849   4.630  11.190  0.0744  0.0889  0.2721
  107TMC2    C4 1631   3.847   0.143  11.312  0.0811  0.5216  0.2637
  107TMC2    C5 1632   3.928   0.120  11.204 -1.2472 -0.5103  0.2482
  107TMC2    C6 1633   3.931   0.002  11.141  0.5115 -0.3770 -0.4108
  107TMC2     C 1634   3.674   0.082  11.478 -0.7392  0.0277 -0.0908
  107TMC2     O 1635   3.622   4.715  11.544 -0.1411 -0.3582  0.1262
  107TMC2     H 1636   3.693   4.573  11.330 -1.1368  0.7419 -0.3352
  107TMC2    H1 1637   3.867   0.237  11.364  0.8470  2.2434 -3.1478
  107TMC2    H2 1638   4.000   4.697  11.064 -2.1844 -1.2326 -2.5162
  107TMC2    C7 1639   4.011   0.222  11.154 -0.2431 -0.4097 -0.4516
  107TMC2    C8 1640   3.866   4.495  11.145  0.3250  0.3758 -0.2723
  107TMC2    O1 1641   4.041   0.314  11.232 -0.3289  0.1033  0.5943
  107TMC2    O2 1642   3.977   4.450  11.121 -0.1036 -0.4870 -0.4497
  107TMC2    O5 1643   3.750   4.437  11.123 -0.0929  0.1811 -0.7876
  107TMC2    H5 1644   3.669   4.491  11.136 -0.1340 -0.0796  0.0273
  108MPD2     C 1645   3.503   0.410  11.529 -0.5586 -0.1322  0.1435
  108MPD2    C1 1646   3.552   0.285  11.562 -0.7686 -0.3565  0.7811
  108MPD2    C2 1647   3.502   0.227  11.681  1.0511  0.5117 -0.0017
  108MPD2    C3 1648   3.412   0.291  11.758  0.5214  0.1928  0.0302
  108MPD2    C4 1649   3.370   0.412  11.720  0.3187  0.0310  0.1741
  108MPD2    C5 1650   3.405   0.468  11.604 -0.1229 -0.0744  0.7344
  108MPD2     H 1651   3.535   0.128  11.710 -1.7557 -0.9287 -1.7461
  108MPD2    H1 1652   3.296   0.463  11.781 -1.4712 -1.8205 -0.4337
  108MPD2    H2 1653   3.533   0.463  11.439 -0.2459  1.9125  1.4479
  108MPD2    H3 1654   3.366   0.566  11.579  1.1457  0.8522  2.3934
  108MPD2     N 1655   3.350   0.234  11.874 -0.3683 -0.7629  0.4350
  108MPD2    H5 1656   3.271   0.281  11.917 -0.4472 -0.2660 -0.2489
  108MPD2    N1 1657   3.632   0.217  11.472 -0.0532 -0.2632  0.3396
  108MPD2    H7 1658   3.661   0.263  11.387  3.0687 -3.0020 -0.1088
  109MPD2     C 1659   3.601   1.100   2.043  0.3961 -0.6775 -0.2137
  109MPD2    C1 1660   3.619   1.210   1.965 -0.1689 -0.0031  0.0370
  109MPD2    C2 1661   3.725   1.217   1.877 -0.0620  0.1955 -0.0131
  109MPD2    C3 1662   3.830   1.124   1.885  0.6293  0.0435  0.3416
  109MPD2    C4 1663   3.812   1.016   1.965  0.4750 -0.5596  0.8197
  109MPD2    C5 1664   3.694   1.002   2.036 -0.0831  0.2022  0.3466
  109MPD2     H 1665   3.756   1.311   1.833 -0.8520  0.8839  0.8825
  109MPD2    H1 1666   3.892   0.943   1.973 -0.9306 -2.0980  1.0399
  109MPD2    H2 1667   3.521   1.086   2.114  0.1651 -2.3614 -0.7826
  109MPD2    H3 1668   3.670   0.912   2.092 -0.8141 -0.6014 -1.2566
  109MPD2     N 1669   3.935   1.152   1.794 -0.5182  0.1146 -0.9521
  109MPD2    H5 1670   3.924   1.235   1.736 -3.8990  0.1125 -0.3120
  109MPD2    N1 1671   3.521   1.310   1.976 -0.1695  0.6350 -0.6918
  109MPD2    H7 1672   3.439   1.285   2.031 -0.1953  0.8301 -0.6423
  110TCq2    C1 1673   4.052   1.073   1.791  0.3922 -0.6296  0.6353
  110TCq2    O2 1674   4.077   0.963   1.838 -0.4609 -0.3628  0.1763
  110TCq2    C2 1675   4.151   1.111   1.688 -0.0691  0.0122  0.5197
  110TCq2    C3 1676   4.277   1.062   1.711  0.1497  0.1517 -0.1691
  110TCq2    C4 1677   4.365   1.074   1.602 -0.2056  0.5975 -0.3619
  110TCq2    C5 1678   4.327   1.135   1.484  0.1298  0.8971 -0.5941
  110TCq2    C6 1679   4.197   1.190   1.478  1.3405 -0.0037 -0.1706
  110TCq2    C7 1680   4.105   1.173   1.578 -0.6321  0.4641  0.0788
  110TCq2    C8 1681   4.158   1.260   1.356  0.6852 -0.1724 -0.3855
  110TCq2    O4 1682   4.059   1.332   1.370 -0.6089  0.3018  0.2418
  110TCq2    C9 1683   4.493   1.008   1.611 -0.4837 -0.5754 -0.0749
  110TCq2    O5 1684   4.526   0.962   1.721 -0.4709 -0.3110  0.5755
  110TCq2    O6 1685   4.566   1.009   1.509 -0.2463  0.1655 -0.4553
  110TCq2    H2 1686   4.301   1.003   1.799 -1.2740 -1.6631 -0.9946
  110TCq2    H3 1687   4.392   1.145   1.398  0.7134  0.1508 -0.2475
  110TCq2    H4 1688   4.001   1.203   1.576 -0.8391 -0.2494  0.0066
  111TMC2    C1 1689   3.646   1.758  11.510 -1.2406 -0.5346  0.1810
  111TMC2    C2 1690   3.665   1.704  11.385 -0.0981  0.0873 -1.0150
  111TMC2    C3 1691   3.757   1.603  11.381 -0.4859  1.2785  0.0984
  111TMC2    C4 1692   3.703   1.706  11.625 -0.2508  0.3389 -0.5005
  111TMC2    C5 1693   3.792   1.604  11.609 -0.1736 -0.0883  0.1237
  111TMC2    C6 1694   3.821   1.549  11.486 -0.6813  0.2194  0.0326
  111TMC2     C 1695   3.563   1.884  11.506 -0.0814  0.4436 -0.7062
  111TMC2     O 1696   3.544   1.936  11.398 -0.2978 -0.1839  0.1965
  111TMC2     H 1697   3.616   1.741  11.296 -0.1385 -0.9985 -1.4532
  111TMC2    H1 1698   3.699   1.762  11.718  0.5570  0.9653 -0.8360
  111TMC2    H2 1699   3.896   1.471  11.488  0.0532  0.9403  0.8380
  111TMC2    C7 1700   3.893   1.603  11.714 -0.3619 -0.4811 -0.3208
  111TMC2    C8 1701   3.765   1.522  11.258 -0.0153 -0.6302  0.2223
  111TMC2    O1 1702   3.881   1.662  11.821  0.1639 -0.2128  0.5130
  111TMC2    O2 1703   3.865   1.456  11.233  0.3295 -0.6377 -0.3778
  111TMC2    O5 1704   3.640   1.487  11.223 -0.0240  0.4268 -0.0541
  111TMC2    H5 1705   3.563   1.503  11.282  0.8869  1.5445  0.8243
  112MPD2     C 1706   3.364   2.284  11.757 -0.6304  0.7433 -0.1813
  112MPD2    C1 1707   3.407   2.275  11.629 -0.7491  0.1738  0.6425
  112MPD2    C2 1708   3.443   2.150  11.584 -0.8532 -0.5088  0.6506
  112MPD2    C3 1709   3.461   2.038  11.666 -0.1053 -0.3330  0.2676
  112MPD2    C4 1710   3.427   2.058  11.798 -0.0704  0.0931 -0.2107
  112MPD2    C5 1711   3.381   2.178  11.843  0.1331  0.3977  0.2805
  112MPD2     H 1712   3.452   2.141  11.476  0.0234  1.7488  0.5183
  112MPD2    H1 1713   3.436   1.986  11.879 -0.9729  0.0833 -0.1166
  112MPD2    H2 1714   3.321   2.374  11.800 -1.6991  0.6444 -1.0497
  112MPD2    H3 1715   3.354   2.187  11.947 -1.1962  0.6388 -0.0916
  112MPD2     N 1716   3.513   1.916  11.629 -0.2412 -0.4904 -0.1410
  112MPD2    H5 1717   3.523   1.855  11.710 -2.0984 -1.2517 -0.4761
  112MPD2    N1 1718   3.414   2.386  11.547  0.1996  0.6574  0.1125
  112MPD2    H7 1719   3.454   2.372  11.455 -0.1225  2.8023 -0.3656
  113MPD2     C 1720   1.994   3.982   1.087 -0.1892  0.3285 -0.2180
  113MPD2    C1 1721   1.888   4.064   1.112  0.2703  0.1774  0.1470
  113MPD2    C2 1722   1.759   4.024   1.072  0.3288 -0.0744  0.3617
  113MPD2    C3 1723   1.731   3.888   1.046 -0.0820  0.6364 -0.0659
  113MPD2    C4 1724   1.835   3.798   1.042  0.2596  0.1046 -0.4278
  113MPD2    C5 1725   1.966   3.851   1.054 -0.6249  0.4513  0.2816
  113MPD2     H 1726   1.674   4.092   1.080  1.6580  1.8494 -1.9792
  113MPD2    H1 1727   1.827   3.699   0.999  1.3991 -0.4375  0.6210
  113MPD2    H2 1728   2.095   4.018   1.107  0.4488 -0.4423 -2.0507
  113MPD2    H3 1729   2.055   3.789   1.046 -0.5270  0.5670  0.4846
  113MPD2     N 1730   1.597   3.845   1.012 -0.0221 -0.3282 -0.4582
  113MPD2    H5 1731   1.579   3.745   1.016 -0.5926 -0.1431  1.4845
  113MPD2    N1 1732   1.895   4.194   1.166 -0.0497 -0.9554  1.0116
  113MPD2    H7 1733   1.805   4.241   1.164  1.1365  1.2930  1.4309
  114TCq2    C1 1734   1.493   3.933   0.982  0.1840  0.1552 -0.0991
  114TCq2    O2 1735   1.494   4.043   0.927  0.1261  0.2893 -0.6992
  114TCq2    C2 1736   1.367   3.863   0.983  0.4960  0.5388  0.0888
  114TCq2    C3 1737   1.330   3.782   1.088  0.5502  0.1008 -0.3147
  114TCq2    C4 1738   1.204   3.736   1.099  0.7888  0.4911  0.1151
  114TCq2    C5 1739   1.106   3.788   1.024 -0.2006 -0.1399 -0.5734
  114TCq2    C6 1740   1.147   3.856   0.910  1.0245  0.5682  0.0190
  114TCq2    C7 1741   1.272   3.900   0.890 -0.6852 -0.6220 -0.5689
  114TCq2    C8 1742   1.043   3.907   0.821 -0.6249 -0.8766  0.0501
  114TCq2    O4 1743   1.051   4.026   0.775  0.0010 -0.2856 -0.6414
  114TCq2    C9 1744   1.162   3.669   1.223 -0.2747  0.4229  0.3256
  114TCq2    O5 1745   1.246   3.633   1.309 -0.2117 -0.0213 -0.9287
  114TCq2    O6 1746   1.044   3.625   1.233 -0.7713  0.2179 -0.2368
  114TCq2    H2 1747   1.407   3.749   1.157 -0.6956  1.7716  1.8467
  114TCq2    H3 1748   1.005   3.758   1.048 -0.0952 -0.5947 -0.6876
  114TCq2    H4 1749   1.298   3.955   0.800  2.3839 -1.7311 -0.3761
  115TMC2    C1 1750   2.200   2.251  17.534  0.1088 -0.6125 -0.5847
  115TMC2    C2 1751   2.312   2.253  17.613 -0.8916 -0.0768  1.0218
  115TMC2    C3 1752   2.343   2.367  17.680  0.3852  0.1548  0.3723
  115TMC2    C4 1753   2.136   2.367  17.505 -0.1217  0.3124  0.1200
  115TMC2    C5 1754   2.170   2.476  17.577 -0.0938  0.5739 -0.4261
  115TMC2    C6 1755   2.275   2.481  17.664  0.0118  0.2948 -0.4327
  115TMC2     C 1756   2.175   2.130  17.454 -0.4007  0.2651 -0.0197
  115TMC2     O 1757   2.268   2.056  17.447 -0.2376 -0.3071  0.4818
  115TMC2     H 1758   2.373   2.164  17.626 -1.3869 -0.6185 -0.4093
  115TMC2    H1 1759   2.067   2.370  17.421  0.4223  1.3884 -0.2889
  115TMC2    H2 1760   2.283   2.556   0.040 -0.1348  0.8343 -0.9449
  115TMC2    C7 1761   2.132   2.605  17.528  0.2482  0.4001  0.4176
  115TMC2    C8 1762   2.467   2.370   0.060 -0.3956 -0.4402 -0.2581
  115TMC2    O1 1763   2.020   2.606  17.477 -0.3518 -0.2303 -0.0103
  115TMC2    O2 1764   2.552   2.460   0.049  0.7289  0.3221  0.1929
  115TMC2    O5 1765   2.483   2.261   0.136 -0.2486  0.4919  0.0247
  115TMC2    H5 1766   2.405   2.202   0.134 -0.1553  0.3877 -0.7600
  116MPD2     C 1767   1.871   1.901  17.129 -0.3890  1.5334  0.0112
  116MPD2    C1 1768   2.005   1.904  17.130 -0.2874  0.4508  0.0132
  116MPD2    C2 1769   2.071   1.980  17.229 -0.0454  0.3772 -0.1349
  116MPD2    C3 1770   1.994   2.040  17.321  0.5389  0.4537 -0.3673
  116MPD2    C4 1771   1.858   2.043  17.310  0.0285  0.6984  0.0823
  116MPD2    C5 1772   1.800   1.974  17.213 -0.0971 -0.0412  0.0797
  116MPD2     H 1773   2.178   1.991  17.239  0.0197  0.4397 -0.8798
  116MPD2    H1 1774   1.797   2.097  17.382  1.7865  1.0407  1.3258
  116MPD2    H2 1775   1.813   1.848  17.054 -0.3761  1.0195  0.3671
  116MPD2    H3 1776   1.692   1.973  17.206  0.0570 -1.7282 -1.7456
  116MPD2     N 1777   2.045   2.122  17.422  0.1066 -0.6984 -0.0777
  116MPD2    H5 1778   1.983   2.163  17.491 -1.2055  1.8904 -2.7483
  116MPD2    N1 1779   2.068   1.834  17.026 -0.3696 -0.5205  0.4271
  116MPD2    H7 1780   2.010   1.806  16.948 -1.3943  1.0724  0.6180
  117TMC2    C1 1781   1.039   4.024  14.377 -0.1168  0.5188  0.7036
  117TMC2    C2 1782   1.115   4.046  14.490  0.0399 -0.0448 -0.2954
  117TMC2    C3 1783   1.248   4.072  14.468 -0.0761 -0.5424 -0.4151
  117TMC2    C4 1784   1.095   4.037  14.257  0.3709  0.1714  0.3636
  117TMC2    C5 1785   1.232   4.046  14.242 -0.2831 -0.0554 -0.0898
  117TMC2    C6 1786   1.313   4.078  14.350  0.5867  0.0552  0.3148
  117TMC2     C 1787   0.897   4.021  14.393 -0.2763 -0.3014  0.5108
  117TMC2     O 1788   0.854   3.993  14.502 -0.5826 -0.6386  0.3104
  117TMC2     H 1789   1.078   4.023  14.589 -1.0540 -0.4868 -0.8039
  117TMC2    H1 1790   1.043   4.013  14.165 -0.6765 -1.1226  1.2973
  117TMC2    H2 1791   1.418   4.093  14.333 -0.0432  1.1667 -2.5126
  117TMC2    C7 1792   1.290   4.048  14.108 -0.6966  0.9386  0.3967
  117TMC2    C8 1793   1.321   4.104  14.593 -0.4179  0.6675 -1.4194
  117TMC2    O1 1794   1.220   3.988  14.027 -0.1436  0.3779 -0.0161
  117TMC2    O2 1795   1.266   4.158  14.689  0.1166  0.3008 -0.0531
  117TMC2    O5 1796   1.449   4.063  14.590  0.4501  0.0818 -0.3506
  117TMC2    H5 1797   1.461   3.987  14.529 -2.0817 -0.0458 -0.6827
  118MPD2     C 1798   1.448   4.071  13.855  0.5762  0.1881 -0.3550
  118MPD2    C1 1799   1.465   4.159  13.966  0.3433  0.2416 -0.1634
  118MPD2    C2 1800   1.566   4.253  13.956  0.1727  1.5577 -0.3728
  118MPD2    C3 1801   1.638   4.271  13.838  0.3381  0.1146 -0.0337
  118MPD2    C4 1802   1.613   4.186  13.735 -0.2612  0.8441  0.8349
  118MPD2    C5 1803   1.521   4.085  13.742 -0.9343  0.4905  0.5736
  118MPD2     H 1804   1.581   4.333  14.028 -0.9876  0.5286  1.0340
  118MPD2    H1 1805   1.662   4.213  13.642  2.6000  2.5521  2.8159
  118MPD2    H2 1806   1.379   3.989  13.871 -1.8882  2.3343  0.1091
  118MPD2    H3 1807   1.486   4.031  13.655  0.2578  2.9578 -1.4138
  118MPD2     N 1808   1.716   4.385  13.814 -0.2693  0.3626 -1.0074
  118MPD2    H5 1809   1.742   4.399  13.717  2.0106 -0.5767 -0.5452
  118MPD2    N1 1810   1.402   4.129  14.094 -0.2560 -0.3664 -0.7538
  118MPD2    H7 1811   1.407   4.202  14.164 -0.5344 -1.6734  0.6289
  119MPD2     C 1812   4.552   1.020  13.975  0.1889  0.2632  0.0570
  119MPD2    C1 1813   4.430   0.964  14.004 -0.1640  0.9522 -0.8641
  119MPD2    C2 1814   4.340   0.940  13.902  0.1242 -0.7009  0.1563
  119MPD2    C3 1815   4.379   0.948  13.769  0.7632 -0.0139 -0.1199
  119MPD2    C4 1816   4.512   0.978  13.749 -0.1644 -0.1785 -0.1566
  119MPD2    C5 1817   4.593   1.028  13.849 -0.2600  0.8744  0.1784
  119MPD2     H 1818   4.237   0.913  13.922  0.3327 -2.0745 -0.6419
  119MPD2    H1 1819   4.545   0.967  13.646 -2.0317  3.2472 -1.1457
  119MPD2    H2 1820   4.616   1.040  14.060  0.4078  0.6054 -0.1898
  119MPD2    H3 1821   4.691   1.064  13.818  0.8072 -1.0601  1.2939
  119MPD2     N 1822   4.291   0.924  13.659  0.1797  0.3161 -0.4018
  119MPD2    H5 1823   4.334   0.911  13.568 -0.6570 -1.0157 -0.5911
  119MPD2    N1 1824   4.400   0.946  14.139 -0.1385  0.7236  0.2485
  119MPD2    H7 1825   4.455   1.011  14.194 -0.1310 -0.8394  2.0813
  120TCq2    C1 1826   4.158   0.904  13.660  0.5328 -0.4773 -1.4362
  120TCq2    O2 1827   4.083   0.859  13.748  0.4975  0.4465  0.1717
  120TCq2    C2 1828   4.114   0.869  13.523 -0.1091  0.2403  0.2792
  120TCq2    C3 1829   4.201   0.899  13.419  0.0918 -0.0087  0.0223
  120TCq2    C4 1830   4.163   0.848  13.295  0.2436 -0.4947 -0.1962
  120TCq2    C5 1831   4.050   0.772  13.281 -0.0906  0.1908 -0.4459
  120TCq2    C6 1832   3.978   0.734  13.392  0.0715 -0.0537 -0.8522
  120TCq2    C7 1833   4.010   0.782  13.511  0.5622  0.3438  0.8806
  120TCq2    C8 1834   3.851   0.661  13.376  0.5381 -0.3699  0.0976
  120TCq2    O4 1835   3.788   0.692  13.282  0.0990  0.4276 -0.1731
  120TCq2    C9 1836   4.242   0.877  13.178 -1.0240  0.8206 -0.2375
  120TCq2    O5 1837   4.352   0.937  13.189 -0.3760 -0.7043  0.0149
  120TCq2    O6 1838   4.202   0.814  13.077 -0.2537  0.1737  0.5853
  120TCq2    H2 1839   4.276   0.978  13.417 -2.5867  2.5117 -1.4230
  120TCq2    H3 1840   4.021   0.721  13.190  0.1090  1.2807 -1.1248
  120TCq2    H4 1841   3.952   0.757  13.599 -0.7553  0.7864  0.1467
  121TMC2    C1 1842   0.480   2.348  13.705  0.0731 -0.5785  0.2030
  121TMC2    C2 1843   0.577   2.253  13.669 -0.1374 -0.6939  0.6949
  121TMC2    C3 1844   0.599   2.155  13.758  0.7728  0.0811 -0.5962
  121TMC2    C4 1845   0.423   2.353  13.828 -0.6843 -0.1614  0.5750
  121TMC2    C5 1846   0.441   2.245  13.910  0.4304 -0.5081 -1.0345
  121TMC2    C6 1847   0.531   2.145  13.877  0.2285  0.1981 -0.7149
  121TMC2     C 1848   0.446   2.452  13.612 -0.4073 -0.5503 -0.8291
  121TMC2     O 1849   0.333   2.496  13.622  0.9008  0.5065  0.1535
  121TMC2     H 1850   0.616   2.247  13.568 -3.8097 -0.6381 -0.7057
  121TMC2    H1 1851   0.361   2.439  13.850 -0.3309  0.4115 -0.7074
  121TMC2    H2 1852   0.548   2.069  13.953 -0.7801  2.6618  1.9622
  121TMC2    C7 1853   0.315   2.216  13.970 -0.4102  0.6404 -0.5029
  121TMC2    C8 1854   0.726   2.087  13.748 -0.3406  0.2830  0.1127
  121TMC2    O1 1855   0.324   2.147  14.068  0.4249 -0.0468 -0.5606
  121TMC2    O2 1856   0.743   1.979  13.797 -0.0753 -0.4045 -0.3990
  121TMC2    O5 1857   0.809   2.154  13.660 -0.0493  0.1913  0.4426
  121TMC2    H5 1858   0.783   2.248  13.667 -1.2344 -0.0172 -0.9348
  122MPD2     C 1859   0.423   2.638  13.382 -0.3021 -0.5406  0.3711
  122MPD2    C1 1860   0.538   2.569  13.414  0.2230 -0.5502 -0.4008
  122MPD2    C2 1861   0.656   2.581  13.337 -1.1149 -0.0853 -0.1201
  122MPD2    C3 1862   0.661   2.675  13.236  0.2013 -0.2807 -0.2837
  122MPD2    C4 1863   0.550   2.753  13.207 -0.0702 -0.6094  0.1244
  122MPD2    C5 1864   0.431   2.727  13.278 -0.8810 -0.2076 -0.0939
  122MPD2     H 1865   0.732   2.523  13.387 -1.5174  0.6405  1.3374
  122MPD2    H1 1866   0.548   2.810  13.115 -1.0590  0.0002  0.5239
  122MPD2    H2 1867   0.326   2.613  13.422 -1.6607  0.0220 -2.5594
  122MPD2    H3 1868   0.343   2.779  13.241  0.8745  2.4997 -0.5224
  122MPD2     N 1869   0.777   2.683  13.149 -0.6417 -0.4482  0.3172
  122MPD2    H5 1870   0.782   2.754  13.076 -0.6629 -0.1945  0.5613
  122MPD2    N1 1871   0.548   2.486  13.527  0.7745 -0.8481 -0.2531
  122MPD2    H7 1872   0.641   2.446  13.538  1.2331 -0.5059 -2.8839
  123MPD2     C 1873   3.417   1.112   9.377 -0.7807  0.0688 -0.2643
  123MPD2    C1 1874   3.412   0.990   9.424  0.2329  0.2110 -0.1004
  123MPD2    C2 1875   3.300   0.910   9.404 -0.4856 -1.2637 -0.5434
  123MPD2    C3 1876   3.189   0.962   9.337  0.9006 -0.1650 -0.2027
  123MPD2    C4 1877   3.192   1.090   9.291  0.3206 -0.1932 -0.8608
  123MPD2    C5 1878   3.307   1.161   9.309 -0.3609  0.1155 -0.1246
  123MPD2     H 1879   3.292   0.806   9.433  1.3140 -1.6845 -1.5709
  123MPD2    H1 1880   3.122   1.142   9.226  0.7921  1.0917 -0.3299
  123MPD2    H2 1881   3.506   1.174   9.388 -0.7061 -0.0700 -0.0928
  123MPD2    H3 1882   3.300   1.262   9.269  0.0408  0.0542 -0.3447
  123MPD2     N 1883   3.076   0.874   9.328 -0.0463  0.1815  0.1610
  123MPD2    H5 1884   3.082   0.781   9.368 -0.3424 -0.6944 -1.8273
  123MPD2    N1 1885   3.532   0.950   9.501 -0.3411 -0.0875 -0.3628
  123MPD2    H7 1886   3.613   1.011   9.509 -1.8169  1.5667  2.0184
  124TCq2    C1 1887   2.966   0.895   9.247  0.4011 -0.7475  0.2404
  124TCq2    O2 1888   2.928   0.993   9.182 -0.0405 -0.5212  0.3089
  124TCq2    C2 1889   2.875   0.774   9.247  0.4643 -0.5316 -0.3289
  124TCq2    C3 1890   2.792   0.759   9.137 -0.5822  0.2625  0.6391
  124TCq2    C4 1891   2.745   0.633   9.116  0.0922  0.2975  0.3879
  124TCq2    C5 1892   2.773   0.526   9.193 -0.7527 -0.6515  1.1080
  124TCq2    C6 1893   2.851   0.548   9.309  0.4300 -0.2702 -0.8955
  124TCq2    C7 1894   2.908   0.667   9.329 -0.2533 -0.9783  0.1480
  124TCq2    C8 1895   2.922   0.439   9.365  0.1647  0.8093  0.6601
  124TCq2    O4 1896   3.032   0.460   9.408  0.5321 -0.2456 -0.8684
  124TCq2    C9 1897   2.651   0.618   9.009 -0.0101  0.1930 -0.1404
  124TCq2    O5 1898   2.631   0.720   8.937  0.4277  0.7404 -0.5072
  124TCq2    O6 1899   2.603   0.502   8.992  0.3713 -0.0218  0.0752
  124TCq2    H2 1900   2.771   0.843   9.073 -1.0431 -0.0719  0.3523
  124TCq2    H3 1901   2.733   0.431   9.159 -1.2713 -0.0730  0.1272
  124TCq2    H4 1902   2.978   0.670   9.411 -0.9990  1.2583  0.6887
  125TMC2    C1 1903   4.631   2.379   9.545 -0.3235 -0.3544 -0.4886
  125TMC2    C2 1904   4.615   2.516   9.525 -0.4710  0.3189 -0.3527
  125TMC2    C3 1905   0.004   2.590   9.490 -0.0323 -1.1619 -0.2857
  125TMC2    C4 1906   0.023   2.309   9.520  0.3734  0.1255  0.4754
  125TMC2    C5 1907   0.132   2.383   9.485 -0.5019  0.2491  0.2702
  125TMC2    C6 1908   0.124   2.519   9.465  0.3605  0.2453 -0.6347
  125TMC2     C 1909   4.519   2.300   9.584  0.1225  0.6195  0.6216
  125TMC2     O 1910   4.533   2.183   9.563  0.1660  0.0102  1.0939
  125TMC2     H 1911   4.520   2.567   9.537 -1.2300 -1.8363  2.7602
  125TMC2    H1 1912   0.029   2.205   9.549  2.0716  0.1659  0.2847
  125TMC2    H2 1913   0.210   2.584   9.457  0.4623  0.4330  1.7469
  125TMC2    C7 1914   0.260   2.309   9.477 -0.0532 -0.0440 -0.1105
  125TMC2    C8 1915   4.714   2.727   9.466  0.3310 -1.0535  0.3263
  125TMC2    O1 1916   0.253   2.197   9.529 -0.3514  0.1620 -0.1426
  125TMC2    O2 1917   4.608   2.775   9.501  0.2057 -0.5733  0.7321
  125TMC2    O5 1918   0.028   2.727   9.331 -0.3975 -0.0595 -0.0101
  125TMC2    H5 1919   0.125   2.718   9.317 -0.4972  0.5274 -1.0596
  126MPD1     C 1920   4.144   2.185   9.909 -0.6362  0.1818 -0.1806
  126MPD1    C1 1921   4.184   2.310   9.950 -0.2435  0.0426  0.4220
  126MPD1    C2 1922   4.283   2.375   9.869  0.3334  0.5197  0.2752
  126MPD1    C3 1923   4.336   2.315   9.754  0.0261  1.1561  0.0035
  126MPD1    C4 1924   4.286   2.190   9.717  0.6929 -0.3803  0.3083
  126MPD1    C5 1925   4.194   2.130   9.796 -0.8566 -0.0461  0.3653
  126MPD1     H 1926   4.328   2.471   9.887 -0.4051  1.1884 -1.4229
  126MPD1    H1 1927   4.317   2.141   9.625  1.5205  0.7278 -0.0132
  126MPD1    H2 1928   4.070   2.124   9.959  0.1843  0.2047  1.0672
  126MPD1    H3 1929   4.155   2.031   9.775  1.0485 -0.7106 -0.0134
  126MPD1     N 1930   4.442   2.373   9.676 -0.4314  0.7965 -0.3118
  126MPD1    H5 1931   4.478   2.459   9.718 -2.2795  1.2924  0.2979
  126MPD1    N1 1932   4.111   2.383  10.047 -0.0708  0.6035  0.1884
  126MPD1    H6 1933   4.171   2.455  10.087  2.1353  0.0592 -2.1716
  126MPD1    H7 1934   4.084   2.323  10.125 -1.9986  0.5738 -0.5111
  127MPD2     C 1935   1.004   1.240   9.278 -0.1835 -0.1115  0.2050
  127MPD2    C1 1936   1.034   1.231   9.416 -0.0605  0.5900 -0.4774
  127MPD2    C2 1937   1.142   1.308   9.469  0.4681  0.4095 -0.8351
  127MPD2    C3 1938   1.198   1.409   9.388 -1.0016 -0.2028 -0.4569
  127MPD2    C4 1939   1.145   1.434   9.257  0.1257  0.7617 -0.1108
  127MPD2    C5 1940   1.049   1.343   9.202  0.0817  0.1314 -0.4739
  127MPD2     H 1941   1.189   1.285   9.564 -2.2788 -4.7948 -0.7331
  127MPD2    H1 1942   1.186   1.504   9.185 -2.6495  1.9009 -0.5834
  127MPD2    H2 1943   0.936   1.168   9.233  1.3082 -1.8506  0.7446
  127MPD2    H3 1944   1.012   1.361   9.102 -1.2088 -2.4421 -0.4546
  127MPD2     N 1945   1.294   1.492   9.450 -0.1237 -1.1690  0.0120
  127MPD2    H5 1946   1.338   1.458   9.535  1.3506 -0.9534 -0.6585
  127MPD2    N1 1947   0.974   1.119   9.477  0.3235  0.3171 -0.0404
  127MPD2    H7 1948   0.905   1.066   9.425  0.6785  1.4069 -1.6323
  128TCq2    C1 1949   1.000   1.072   9.604  0.1024  0.3157  0.4397
  128TCq2    O2 1950   1.064   1.114   9.694  0.2567  0.4400 -0.5574
  128TCq2    C2 1951   0.928   0.948   9.620 -0.1755  0.2563 -0.6570
  128TCq2    C3 1952   0.931   0.907   9.750 -0.4918 -0.0087  0.1068
  128TCq2    C4 1953   0.857   0.795   9.780 -0.0502 -0.1618  0.1013
  128TCq2    C5 1954   0.794   0.716   9.687 -0.0621 -0.2899 -0.3586
  128TCq2    C6 1955   0.816   0.748   9.551 -0.1660 -0.3768 -1.0851
  128TCq2    C7 1956   0.877   0.869   9.522 -0.0241  0.4421  0.1049
  128TCq2    C8 1957   0.768   0.657   9.449  0.0522 -0.2145 -0.3288
  128TCq2    O4 1958   0.811   0.679   9.338 -0.0934  0.2911 -0.0401
  128TCq2    C9 1959   0.848   0.742   9.911 -0.0017 -0.7569 -0.3946
  128TCq2    O5 1960   0.756   0.660   9.940 -0.0030 -0.0647  0.2280
  128TCq2    O6 1961   0.940   0.778   9.992  0.0232 -0.1363 -0.7021
  128TCq2    H2 1962   0.978   0.969   9.825 -0.4720 -1.3945  1.2556
  128TCq2    H3 1963   0.716   0.648   9.720 -0.6917  0.8181  0.4189
  128TCq2    H4 1964   0.883   0.889   9.416 -0.9985 -0.3031 -0.0861
  129MPD2     C 1965   4.708   0.181   0.952 -0.3571  0.0735  0.0218
  129MPD2    C1 1966   4.650   0.273   1.032 -0.7685 -0.5881  0.2394
  129MPD2    C2 1967   4.667   0.407   1.000 -0.0760  0.7457 -0.4006
  129MPD2    C3 1968   0.021   0.450   0.896  0.2449  0.2917 -0.1134
  129MPD2    C4 1969   0.092   0.356   0.824  0.8770 -0.5353 -0.3688
  129MPD2    C5 1970   0.067   0.224   0.849 -0.2168 -0.9675  0.5698
  129MPD2     H 1971   4.613   0.488   1.048 -0.3438 -0.4254  1.2906
  129MPD2    H1 1972   0.170   0.375   0.752  0.3028 -1.1943 -1.1559
  129MPD2    H2 1973   4.695   0.075   0.968 -2.3197  0.2907 -0.1252
  129MPD2    H3 1974   0.103   0.143   0.787 -0.6078  0.6077 -1.7585
  129MPD2     N 1975   0.039   0.589   0.869  0.0724  0.0449 -0.2525
  129MPD2    H5 1976   4.703   0.651   0.921 -1.3920 -1.8469  0.3025
  129MPD2    N1 1977   4.556   0.238   1.128  0.2837  0.0524 -0.2730
  129MPD2    H7 1978   4.507   0.319   1.166  1.5832  0.3092  0.8265
  130TCq2    C1 1979   4.509   0.114   1.162  0.4134  0.1985 -0.0831
  130TCq2    O2 1980   4.538   0.010   1.105  0.1399  0.1872 -0.3922
  130TCq2    C2 1981   4.382   0.113   1.236 -0.2088 -0.8855 -0.0074
  130TCq2    C3 1982   4.351   4.719   1.289 -0.7123  0.1675  0.2222
  130TCq2    C4 1983   4.233   4.700   1.355 -1.1616  0.0250  0.1414
  130TCq2    C5 1984   4.162   0.092   1.385  0.2384  0.0676  0.0428
  130TCq2    C6 1985   4.196   0.209   1.324  0.0317  0.1007  0.0657
  130TCq2    C7 1986   4.306   0.221   1.245 -0.4676 -0.0073  0.9491
  130TCq2    C8 1987   4.119   0.329   1.357 -0.2317 -0.3401 -0.5333
  130TCq2    O4 1988   4.009   0.310   1.410 -0.6743 -0.0882  0.1031
  130TCq2    C9 1989   4.195   4.567   1.408 -0.0324 -0.2612 -0.6034
  130TCq2    O5 1990   4.260   4.468   1.368 -0.0612  0.1210  0.0388
  130TCq2    O6 1991   4.097   4.574   1.483  0.1815 -0.2536  0.1097
  130TCq2    H2 1992   4.417   4.633   1.289 -1.8847 -0.7258  0.0729
  130TCq2    H3 1993   4.069   0.086   1.441 -0.9285 -1.9837 -2.1237
  130TCq2    H4 1994   4.327   0.310   1.187 -1.3021 -1.6716 -1.9351
  131MPD2     C 1995   4.411   0.429   9.387 -0.1087 -0.1767 -0.2362
  131MPD2    C1 1996   4.432   0.496   9.509 -0.7069  0.0953  0.5125
  131MPD2    C2 1997   4.329   0.567   9.566  0.2126  0.0300 -0.2486
  131MPD2    C3 1998   4.196   0.557   9.520 -0.9667 -0.0066 -1.4931
  131MPD2    C4 1999   4.175   0.497   9.397 -0.2856 -0.1809 -0.0062
  131MPD2    C5 2000   4.283   0.436   9.339 -0.2525 -0.0649  0.1775
  131MPD2     H 2001   4.341   0.626   9.656  1.0929 -2.2160  1.1027
  131MPD2    H1 2002   4.080   0.465   9.358 -1.7936  2.9049  1.1539
  131MPD2    H2 2003   4.493   0.387   9.329  0.9674  0.0647  1.0937
  131MPD2    H3 2004   4.264   0.381   9.248 -2.9746 -0.7797  1.1626
  131MPD2     N 2005   4.102   0.629   9.594  0.4962  0.1129 -0.2795
  131MPD2    H5 2006   4.131   0.669   9.683 -0.0249  0.0918 -0.0966
  131MPD2    N1 2007   4.562   0.494   9.563 -0.2508  0.0563 -0.2487
  131MPD2    H7 2008   4.633   0.452   9.504  1.9575  2.0486  0.9673
  132TCq2    C1 2009   0.310   0.651   9.495 -0.3225  0.5776  0.5300
  132TCq2    O2 2010   0.406   0.711   9.541  1.0158  0.2035  0.4880
  132TCq2    C2 2011   0.226   0.596   9.597 -0.1234 -0.1181  0.1145
  132TCq2    C3 2012   0.285   0.583   9.717 -0.3814  0.5896  0.0563
  132TCq2    C4 2013   0.209   0.561   9.824 -0.0066 -0.0653 -0.4137
  132TCq2    C5 2014   0.066   0.556   9.815 -0.5935  0.6529 -0.7431
  132TCq2    C6 2015   0.019   0.552   9.695 -0.6578 -0.2391  0.2399
  132TCq2    C7 2016   0.093   0.573   9.577 -0.4205 -0.0276  0.1933
  132TCq2    C8 2017   4.600   0.557   9.676 -0.1584  0.1732  0.1474
  132TCq2    O4 2018   4.535   0.619   9.761 -0.0254  0.3432 -0.5323
  132TCq2    C9 2019   0.282   0.574   9.944  0.3367 -0.1154  0.1323
  132TCq2    O5 2020   0.398   0.619   9.939  0.0772  0.4775  0.0366
  132TCq2    O6 2021   0.213   0.582  10.044 -0.3922  0.4260 -0.3665
  132TCq2    H2 2022   0.393   0.594   9.729 -0.1391  0.2967 -1.8614
  132TCq2    H3 2023   4.721   0.548   9.898  0.9746 -0.6014  0.4599
  132TCq2    H4 2024   0.051   0.594   9.479  1.1019 -1.9907 -0.8913
  133MPD2     C 2025   2.836   1.332   8.772  0.5734 -0.1401 -0.0522
  133MPD2    C1 2026   2.947   1.399   8.818 -0.4521 -0.2155  0.2577
  133MPD2    C2 2027   2.963   1.430   8.951 -0.7095  0.6274 -0.0237
  133MPD2    C3 2028   2.866   1.400   9.044 -0.0806  0.1413  0.0120
  133MPD2    C4 2029   2.757   1.341   8.998  0.0816  0.0158 -0.1616
  133MPD2    C5 2030   2.732   1.316   8.861 -0.0498 -0.2142  0.2898
  133MPD2     H 2031   3.064   1.456   8.979 -0.5843 -1.6938  1.7120
  133MPD2    H1 2032   2.670   1.326   9.061 -1.1426 -0.7514 -2.0326
  133MPD2    H2 2033   2.823   1.288   8.674 -0.4025 -0.2784  0.1402
  133MPD2    H3 2034   2.637   1.273   8.833 -0.5878  1.2636 -0.2019
  133MPD2     N 2035   2.876   1.398   9.186  0.3562 -0.6165  0.2008
  133MPD2    H5 2036   2.788   1.384   9.235  0.9637 -3.1004  0.5996
  133MPD2    N1 2037   3.040   1.430   8.716 -0.0705 -0.4933 -0.2539
  133MPD2    H7 2038   3.034   1.384   8.626 -1.1697 -0.1369 -0.3647
  134TCq2    C1 2039   3.154   1.504   8.734 -0.3981  0.1088 -0.2549
  134TCq2    O2 2040   3.180   1.600   8.809  0.4861  0.6277  0.4345
  134TCq2    C2 2041   3.251   1.483   8.621 -0.1150  0.6308  0.5222
  134TCq2    C3 2042   3.258   1.358   8.555  0.2159  0.3327  0.2371
  134TCq2    C4 2043   3.352   1.335   8.463  0.6233 -0.0856  0.3696
  134TCq2    C5 2044   3.446   1.428   8.435  0.0927  0.0242 -0.2141
  134TCq2    C6 2045   3.444   1.550   8.503  0.5681 -0.2819  0.3389
  134TCq2    C7 2046   3.347   1.571   8.598 -0.0734 -0.5143 -0.5849
  134TCq2    C8 2047   3.544   1.656   8.495 -0.1281  0.3104  0.7541
  134TCq2    O4 2048   3.554   1.735   8.590  0.0480  0.0557 -0.0752
  134TCq2    C9 2049   3.350   1.214   8.390 -0.1987  0.1546 -0.6490
  134TCq2    O5 2050   3.273   1.118   8.428  0.3457  0.3461 -0.1216
  134TCq2    O6 2051   3.428   1.210   8.287  0.3440  0.3856  0.5270
  134TCq2    H2 2052   3.181   1.286   8.580  1.1030 -1.1725 -1.2961
  134TCq2    H3 2053   3.520   1.411   8.357  0.9027  0.2665  0.5044
  134TCq2    H4 2054   3.349   1.665   8.653 -0.3456 -1.5758  1.2175
  135MPD2     C 2055   4.414   3.060   9.205 -0.0090 -0.1647 -0.2143
  135MPD2    C1 2056   4.519   2.972   9.216 -0.1881  0.2253  0.2110
  135MPD2    C2 2057   4.654   3.003   9.200 -0.4293  0.0970  0.0709
  135MPD2    C3 2058   4.688   3.135   9.156 -0.1940 -0.0151 -0.3557
  135MPD2    C4 2059   4.578   3.218   9.129  0.9636  0.0655  0.3627
  135MPD2    C5 2060   4.444   3.181   9.159  0.1322  0.0611 -0.3617
  135MPD2     H 2061   0.008   2.933   9.223 -0.1804 -0.4189 -2.2752
  135MPD2    H1 2062   4.598   3.318   9.092 -0.1271 -0.2340 -1.0686
  135MPD2    H2 2063   4.316   3.039   9.247 -0.4200 -0.9090 -1.5568
  135MPD2    H3 2064   4.366   3.253   9.135 -0.4673 -0.3050  0.4836
  135MPD2     N 2065   0.097   3.176   9.128  0.0861  0.3717 -0.6816
  135MPD2    H5 2066   0.114   3.272   9.100 -0.5074  0.6015 -0.2530
  135MPD2    N1 2067   4.497   2.832   9.233  0.4757  0.2121  0.4397
  135MPD2    H7 2068   4.578   2.772   9.236 -0.1194 -0.6126 -0.2198
  136TCq2    C1 2069   4.377   2.769   9.240  1.2974 -0.2373  0.4515
  136TCq2    O2 2070   4.265   2.812   9.260 -0.0461  0.1503 -0.5144
  136TCq2    C2 2071   4.395   2.623   9.271 -0.4477  0.1784  0.1416
  136TCq2    C3 2072   4.506   2.559   9.212 -0.4083 -0.0426 -0.3597
  136TCq2    C4 2073   4.509   2.421   9.211  0.4549  0.6776  0.3277
  136TCq2    C5 2074   4.398   2.343   9.242 -0.4598 -0.3506  0.6324
  136TCq2    C6 2075   4.287   2.410   9.292  0.0739  0.2901  0.8398
  136TCq2    C7 2076   4.284   2.549   9.302 -0.4050  0.2613  0.1670
  136TCq2    C8 2077   4.174   2.331   9.342 -0.7072 -0.5748 -0.2715
  136TCq2    O4 2078   4.070   2.397   9.345  0.6714 -0.2335  0.0186
  136TCq2    C9 2079   4.616   2.351   9.135 -0.4687 -0.0730  0.4178
  136TCq2    O5 2080   4.607   2.226   9.125  0.0803  0.2610  0.2688
  136TCq2    O6 2081   4.710   2.425   9.087  0.0036 -0.1815 -0.1808
  136TCq2    H2 2082   4.592   2.613   9.174  0.0253 -0.6989 -0.3046
  136TCq2    H3 2083   4.398   2.236   9.223 -1.1325 -0.3860  0.8581
  136TCq2    H4 2084   4.190   2.589   9.339 -0.7015 -0.5784  0.3310
  137MPD2     C 2085   0.789   1.803   9.578 -0.1293 -0.0693  0.8385
  137MPD2    C1 2086   0.657   1.810   9.537 -1.0782 -0.0100 -0.1706
  137MPD2    C2 2087   0.567   1.770   9.632  0.0698  0.3485  0.7205
  137MPD2    C3 2088   0.607   1.716   9.756  0.1986  0.0545 -0.1572
  137MPD2    C4 2089   0.737   1.729   9.794 -0.8199 -0.4327 -0.2087
  137MPD2    C5 2090   0.829   1.772   9.704  0.0428  0.0201 -0.5031
  137MPD2     H 2091   0.458   1.769   9.625  0.1084 -2.9205  0.5941
  137MPD2    H1 2092   0.771   1.709   9.895 -0.3852 -3.2833 -0.9171
  137MPD2    H2 2093   0.861   1.849   9.512  1.0737 -1.1484  1.4168
  137MPD2    H3 2094   0.930   1.788   9.738 -0.4137 -1.6385  1.6820
  137MPD2     N 2095   0.502   1.677   9.846  0.0424 -0.3990 -0.3299
  137MPD2    H5 2096   0.409   1.697   9.810 -0.4822  1.2776  1.9751
  137MPD2    N1 2097   0.628   1.871   9.412 -0.6339  0.0921 -0.9162
  137MPD2    H7 2098   0.704   1.902   9.351 -0.6427  1.1196 -0.4113
  138TCq2    C1 2099   0.498   1.893   9.365 -0.1485  0.7095  0.6104
  138TCq2    O2 2100   0.395   1.906   9.430  0.1373  0.2400 -0.4326
  138TCq2    C2 2101   0.508   1.928   9.231  0.1172  0.7710  0.0049
  138TCq2    C3 2102   0.402   1.997   9.176 -0.5772  0.0445  0.0634
  138TCq2    C4 2103   0.350   1.967   9.053 -0.0626  0.4499 -1.0666
  138TCq2    C5 2104   0.401   1.865   8.976  0.4128  0.9644  0.5312
  138TCq2    C6 2105   0.507   1.799   9.027 -0.7873  0.0453 -0.0219
  138TCq2    C7 2106   0.556   1.829   9.148  0.7152 -0.3546 -0.5156
  138TCq2    C8 2107   0.551   1.682   8.960 -0.5539 -0.6664  0.5030
  138TCq2    O4 2108   0.669   1.678   8.933 -0.1413 -0.3180 -0.4830
  138TCq2    C9 2109   0.237   2.041   8.996 -0.5247  0.2910  0.2379
  138TCq2    O5 2110   0.191   2.140   9.055 -0.0840  0.6759 -0.4481
  138TCq2    O6 2111   0.181   1.987   8.899 -0.3863  0.0120 -0.6622
  138TCq2    H2 2112   0.349   2.071   9.236  2.0974  0.2242  2.1789
  138TCq2    H3 2113   0.373   1.850   8.872 -0.9954  0.2229  1.0236
  138TCq2    H4 2114   0.638   1.763   9.177  1.0295  0.1499 -0.2470
  139TMC2    C1 2115   1.061   4.639  13.372 -0.2116  0.7291  0.5476
  139TMC2    C2 2116   1.125   4.657  13.496  0.3882  0.0562  0.3004
  139TMC2    C3 2117   1.079   0.025  13.585  0.2214 -0.9688 -0.2229
  139TMC2    C4 2118   0.941   4.707  13.346 -0.6228 -0.3696  0.0745
  139TMC2    C5 2119   0.902   0.074  13.434  0.0445  0.0374 -0.3037
  139TMC2    C6 2120   0.966   0.100  13.555 -0.4383  0.3856 -0.3428
  139TMC2     C 2121   1.093   4.517  13.296 -1.0300  0.1000  0.1181
  139TMC2     O 2122   1.014   4.478  13.211  0.5187 -0.3573 -0.2285
  139TMC2     H 2123   1.204   4.591  13.531  0.6343 -0.1977 -0.7208
  139TMC2    H1 2124   0.876   4.692  13.260 -0.5913 -1.2716  0.2022
  139TMC2    H2 2125   0.922   0.165  13.630  1.6038 -0.7812  1.8742
  139TMC2    C7 2126   0.784   0.144  13.416  0.3655 -0.2488  1.1851
  139TMC2    C8 2127   1.124   0.012  13.725  0.0159 -0.5659 -0.6337
  139TMC2    O1 2128   0.789   0.262  13.452  0.7268  0.6628  0.3538
  139TMC2    O2 2129   1.149   4.624  13.762  0.1758  0.4223  0.0207
  139TMC2    O5 2130   1.091   0.120  13.800 -0.1452 -0.1709 -0.0859
  139TMC2    H5 2131   1.060   0.200  13.752  0.4709  1.2216  1.8135
  140MPD2     C 2132   1.350   4.263  13.366  0.4919  0.7574  0.6657
  140MPD2    C1 2133   1.229   4.303  13.316  1.0085 -0.0332 -0.0191
  140MPD2    C2 2134   1.154   4.208  13.242 -0.3762 -0.6298  0.1069
  140MPD2    C3 2135   1.193   4.075  13.232  0.2576  0.8438 -0.7537
  140MPD2    C4 2136   1.320   4.044  13.278  0.2722 -0.4463  0.1345
  140MPD2    C5 2137   1.396   4.141  13.343 -1.0411 -0.0335  0.5660
  140MPD2     H 2138   1.059   4.239  13.200  0.6842  0.7803 -1.2374
  140MPD2    H1 2139   1.372   3.950  13.261  2.8840  1.1743 -0.6685
  140MPD2    H2 2140   1.411   4.336  13.419  0.4957  0.3341  1.2423
  140MPD2    H3 2141   1.489   4.110  13.388  0.7202 -0.2874 -3.2174
  140MPD2     N 2142   1.110   3.986  13.160  0.1107 -0.1889 -0.5546
  140MPD2    H5 2143   1.031   4.022  13.108 -0.9997 -1.0063  0.5610
  140MPD2    N1 2144   1.198   4.444  13.343  0.2102 -0.6015 -0.2105
  140MPD2    H7 2145   1.264   4.497  13.398  0.9113 -2.5252  0.8134
  141TCq2    C1 2146   1.391   1.273  14.116  0.3289  0.3986  0.5144
  141TCq2    O2 2147   1.336   1.370  14.065  0.4159 -0.0118 -0.4924
  141TCq2    C2 2148   1.367   1.256  14.261  0.6018  0.0356  0.3123
  141TCq2    C3 2149   1.452   1.180  14.340 -1.0909  0.3733 -0.7212
  141TCq2    C4 2150   1.465   1.213  14.473 -0.1339 -0.2832 -0.4194
  141TCq2    C5 2151   1.398   1.317  14.529  0.0007  0.3401 -0.5394
  141TCq2    C6 2152   1.319   1.395  14.446  0.3565 -0.0065  0.1131
  141TCq2    C7 2153   1.309   1.365  14.315  0.1758 -0.0947  0.1739
  141TCq2    C8 2154   1.271   1.524  14.490  0.3571  0.5323 -0.3272
  141TCq2    O4 2155   1.189   1.579  14.416 -0.3896  0.2356  0.2454
  141TCq2    C9 2156   1.555   1.148  14.564 -0.5058 -0.5010  0.1464
  141TCq2    O5 2157   1.579   1.212  14.673  0.1748 -0.2537  0.5762
  141TCq2    O6 2158   1.627   1.050  14.529  0.0733  0.1975 -0.0523
  141TCq2    H2 2159   1.513   1.100  14.300 -0.0098  0.7043  0.2910
  141TCq2    H3 2160   1.411   1.345  14.633  0.1575  1.5790 -0.9048
  141TCq2    H4 2161   1.246   1.429  14.254 -0.8019 -0.9014  0.3452
  142MPD2     C 2162   3.692   3.914   9.619 -0.3875 -0.1228  0.5353
  142MPD2    C1 2163   3.723   3.989   9.731 -0.2134 -0.5298  0.3100
  142MPD2    C2 2164   3.674   4.120   9.738  0.0566 -0.3077 -0.5937
  142MPD2    C3 2165   3.593   4.172   9.636 -0.2671 -0.1744  0.0257
  142MPD2    C4 2166   3.543   4.086   9.534 -0.2308  0.3452 -0.1726
  142MPD2    C5 2167   3.599   3.968   9.529  0.6648 -0.1703 -0.5987
  142MPD2     H 2168   3.699   4.178   9.825  1.7108 -2.3350  0.2705
  142MPD2    H1 2169   3.477   4.115   9.452 -1.3075 -2.0071 -0.1519
  142MPD2    H2 2170   3.731   3.813   9.607 -0.2828  0.2171 -2.1312
  142MPD2    H3 2171   3.563   3.903   9.450 -1.2424  1.2026 -0.8477
  142MPD2     N 2172   3.548   4.304   9.649 -0.3350  0.0812 -0.1301
  142MPD2    H5 2173   3.487   4.336   9.575 -0.5526  0.5225  0.2402
  142MPD2    N1 2174   3.804   3.928   9.827  0.3128 -0.1722 -0.0510
  142MPD2    H7 2175   3.831   3.833   9.804 -3.0320 -0.6239 -2.1125
  143TCq2    C1 2176   3.608   4.399   9.720  0.3838  0.0307  0.1502
  143TCq2    O2 2177   3.714   4.406   9.780 -0.4048 -0.0312 -0.2321
  143TCq2    C2 2178   3.544   4.536   9.710 -0.2596  0.1308  0.6690
  143TCq2    C3 2179   3.623   4.648   9.731 -0.3276 -0.1373 -0.4805
  143TCq2    C4 2180   3.555   0.038   9.747  0.8285 -0.7625 -0.0400
  143TCq2    C5 2181   3.421   0.060   9.727  0.2088  0.7736 -0.1585
  143TCq2    C6 2182   3.352   4.669   9.715  0.0223 -0.1260  0.4033
  143TCq2    C7 2183   3.412   4.549   9.706 -0.2403  0.0844  0.8881
  143TCq2    C8 2184   3.204   4.668   9.701  0.1699  0.0118 -0.3513
  143TCq2    O4 2185   3.147   4.572   9.745 -0.6467 -0.4834 -0.5002
  143TCq2    C9 2186   3.629   0.157   9.784 -0.0549  0.2005  1.0578
  143TCq2    O5 2187   3.758   0.160   9.783  0.8341 -0.3282  0.1671
  143TCq2    O6 2188   3.567   0.257   9.824  0.1071  0.2787 -0.5396
  143TCq2    H2 2189   3.731   4.645   9.729 -0.3291  0.2188 -1.0392
  143TCq2    H3 2190   3.369   0.152   9.749 -1.7854 -0.4336  0.1960
  143TCq2    H4 2191   3.356   4.457   9.700 -0.4898  0.4380 -1.9652
  144MPD2     C 2192   1.355   3.484   0.863 -0.1018  0.3468  0.3587
  144MPD2    C1 2193   1.412   3.418   0.754  0.4028  0.2751  0.1320
  144MPD2    C2 2194   1.528   3.343   0.765  0.0843 -0.1510 -0.1808
  144MPD2    C3 2195   1.581   3.332   0.896  0.7494  0.7214 -0.2738
  144MPD2    C4 2196   1.527   3.392   1.010 -0.2240 -0.5441  0.3383
  144MPD2    C5 2197   1.419   3.475   0.976 -0.0880  0.3448  0.3568
  144MPD2     H 2198   1.575   3.304   0.676 -2.4371  0.2448 -1.7040
  144MPD2    H1 2199   1.559   3.386   1.113  2.2993  1.9752 -0.3173
  144MPD2    H2 2200   1.281   3.563   0.847  0.1866  0.5733  0.1318
  144MPD2    H3 2201   1.371   3.532   1.055 -1.0962 -0.9707  0.6805
  144MPD2     N 2202   1.687   3.246   0.917 -0.2456  0.1790 -0.4591
  144MPD2    H5 2203   1.734   3.265   1.005 -0.7993 -0.0662 -0.1121
  144MPD2    N1 2204   1.370   3.449   0.620  0.7780  0.2489 -0.6528
  144MPD2    H7 2205   1.445   3.437   0.553  1.1762 -0.9098  0.0049
  145TCq2    C1 2206   1.726   3.151   0.826  0.2607 -0.3782  0.3817
  145TCq2    O2 2207   1.654   3.096   0.741  0.4858  1.3941 -0.6664
  145TCq2    C2 2208   1.854   3.096   0.875  0.2039 -0.1143 -0.0515
  145TCq2    C3 2209   1.879   2.963   0.858  0.0862  0.2404 -0.2011
  145TCq2    C4 2210   1.999   2.913   0.893 -0.5619  0.2506 -0.5613
  145TCq2    C5 2211   2.090   2.991   0.960 -0.1063  0.1724  0.3566
  145TCq2    C6 2212   2.054   3.119   0.997  0.4529  0.5823 -0.4292
  145TCq2    C7 2213   1.942   3.175   0.950 -0.0779  0.3789  0.0003
  145TCq2    C8 2214   2.159   3.205   1.048  0.6173 -0.5908 -0.0854
  145TCq2    O4 2215   2.271   3.166   1.024 -0.2590  0.1469 -0.2589
  145TCq2    C9 2216   2.041   2.779   0.860 -0.0190 -0.0840  0.0968
  145TCq2    O5 2217   1.962   2.709   0.796 -0.1230 -0.4913  0.4792
  145TCq2    O6 2218   2.161   2.741   0.884  0.1943 -0.1816 -0.1311
  145TCq2    H2 2219   1.810   2.896   0.808 -2.1426  1.8562  0.6963
  145TCq2    H3 2220   2.179   2.941   0.996 -0.0130 -1.6543 -2.4666
  145TCq2    H4 2221   1.922   3.281   0.956  1.7096  0.8210 -2.1572
  146TMC2    C1 2222   3.741   2.549  12.379  0.7000  0.7171  0.1456
  146TMC2    C2 2223   3.756   2.569  12.248 -0.1732  0.0067  0.1377
  146TMC2    C3 2224   3.881   2.557  12.197  0.2495 -0.2862  0.3256
  146TMC2    C4 2225   3.849   2.503  12.458 -0.0014 -0.0149 -0.7448
  146TMC2    C5 2226   3.969   2.482  12.395 -0.0250  0.2490  0.2499
  146TMC2    C6 2227   3.991   2.517  12.266 -0.7546  0.5525  0.6174
  146TMC2     C 2228   3.610   2.587  12.436  0.0512  0.6342  0.2350
  146TMC2     O 2229   3.533   2.646  12.360 -0.2249 -0.4621 -0.0054
  146TMC2     H 2230   3.673   2.592  12.182 -0.1769 -1.6965 -0.4505
  146TMC2    H1 2231   3.843   2.490  12.565  0.3217  0.9648 -0.6133
  146TMC2    H2 2232   4.090   2.505  12.224 -1.2481  1.8568 -0.8976
  146TMC2    C7 2233   4.085   2.405  12.447 -0.0892 -0.0380  0.5001
  146TMC2    C8 2234   3.887   2.553  12.055 -0.1159 -0.1276  0.3242
  146TMC2    O1 2235   4.197   2.425  12.402  0.0789  0.5443  0.6798
  146TMC2    O2 2236   3.807   2.609  11.984 -0.2870  0.2685  0.0873
  146TMC2    O5 2237   3.943   2.438  12.024  0.1405  0.4683 -0.1640
  146TMC2    H5 2238   3.965   2.375  12.095 -0.3972  1.5012  0.9116
  147MPD2     C 2239   4.326   2.073  12.752  0.1582 -0.3535  0.1245
  147MPD2    C1 2240   4.193   2.088  12.788  0.4618  0.1880 -0.1279
  147MPD2    C2 2241   4.111   2.167  12.714 -0.3137 -0.1964 -0.3429
  147MPD2    C3 2242   4.153   2.231  12.601  0.6015 -0.8201 -0.5611
  147MPD2    C4 2243   4.278   2.202  12.554  0.5244 -0.0297 -0.1677
  147MPD2    C5 2244   4.363   2.133  12.635 -0.0362  0.6325 -0.0210
  147MPD2     H 2245   4.006   2.172  12.740 -0.2743 -0.2480 -0.1783
  147MPD2    H1 2246   4.311   2.245  12.460 -3.2245  2.4768 -0.3150
  147MPD2    H2 2247   4.397   2.010  12.805 -0.3777  1.9101  3.5682
  147MPD2    H3 2248   4.471   2.140  12.622 -0.0915 -1.7864 -1.7203
  147MPD2     N 2249   4.057   2.314  12.543  0.4783  0.1515 -0.4431
  147MPD2    H5 2250   3.967   2.330  12.588  0.2830  0.3524 -0.9070
  147MPD2    N1 2251   4.156   2.018  12.906 -0.1966  0.5321  0.3250
  147MPD2    H7 2252   4.233   1.960  12.939  1.3918  3.2786  1.3522
  148MPD2     C 2253   2.928   1.300  10.584 -0.1773  0.5031  0.2698
  148MPD2    C1 2254   2.971   1.220  10.479  0.6522  0.2847 -0.3088
  148MPD2    C2 2255   2.893   1.213  10.369 -0.2138 -0.0720  0.5954
  148MPD2    C3 2256   2.772   1.285  10.363 -0.2054  0.1953 -0.3586
  148MPD2    C4 2257   2.735   1.369  10.460 -0.1577 -0.8200  0.8781
  148MPD2    C5 2258   2.809   1.371  10.578  0.1196  0.2107  0.0590
  148MPD2     H 2259   2.929   1.156  10.284  0.1456 -3.1545  2.8075
  148MPD2    H1 2260   2.646   1.432  10.461  0.5368  0.1572  0.0513
  148MPD2    H2 2261   2.982   1.306  10.678 -0.1152 -1.4766  0.3553
  148MPD2    H3 2262   2.760   1.425  10.658 -1.1619 -0.5088 -0.2324
  148MPD2     N 2263   2.687   1.303  10.249 -0.4402 -1.0979  0.5143
  148MPD2    H5 2264   2.634   1.389  10.253  1.9707  0.3283  1.8271
  148MPD2    N1 2265   3.097   1.154  10.479 -0.7260  0.1365 -0.2413
  148MPD2    H7 2266   3.118   1.100  10.396  2.0072 -0.3341  0.7601
  149TCq2    C1 2267   3.197   1.164  10.575  0.1896 -0.0792  0.1754
  149TCq2    O2 2268   3.197   1.224  10.684  0.1057 -0.3898  0.1130
  149TCq2    C2 2269   3.333   1.115  10.534 -0.3101 -0.1026  0.1764
  149TCq2    C3 2270   3.443   1.178  10.590 -0.6572 -0.4210 -0.6299
  149TCq2    C4 2271   3.552   1.177  10.508  0.2615 -0.1135 -0.8448
  149TCq2    C5 2272   3.574   1.096  10.399  0.3072  0.1609 -0.3301
  149TCq2    C6 2273   3.464   1.037  10.356  0.2600  0.0410  0.1160
  149TCq2    C7 2274   3.343   1.053  10.411  0.5036  0.1597  1.1917
  149TCq2    C8 2275   3.482   0.926  10.259 -1.1003  0.6563 -1.0914
  149TCq2    O4 2276   3.388   0.907  10.189  0.3025  0.1427  0.2670
  149TCq2    C9 2277   3.671   1.227  10.571 -0.8004 -0.6231 -0.2567
  149TCq2    O5 2278   3.781   1.175  10.538 -0.0450 -0.4048 -0.3466
  149TCq2    O6 2279   3.652   1.290  10.680 -0.2466 -0.2692 -0.0933
  149TCq2    H2 2280   3.424   1.248  10.671 -4.8891 -3.2312  0.8132
  149TCq2    H3 2281   3.669   1.100  10.347  0.3544  2.9971 -0.0459
  149TCq2    H4 2282   3.260   1.008  10.359  2.8150  0.0648 -2.3660
  150MPD2     C 2283   0.235   0.316  12.095 -0.4308  0.9258 -0.8499
  150MPD2    C1 2284   0.205   0.430  12.023  0.1117 -0.3296 -0.6675
  150MPD2    C2 2285   0.281   0.541  12.037 -0.1155  0.1730  0.6714
  150MPD2    C3 2286   0.391   0.543  12.111 -0.0519  0.7930  0.2043
  150MPD2    C4 2287   0.425   0.429  12.183  0.0987  0.0039 -0.2636
  150MPD2    C5 2288   0.346   0.317  12.172 -0.2390  0.3452 -1.1538
  150MPD2     H 2289   0.263   0.625  11.971  1.7898  1.3546  1.6727
  150MPD2    H1 2290   0.513   0.416  12.244  0.6594  1.9336 -0.6408
  150MPD2    H2 2291   0.167   0.231  12.101 -0.4436  1.0032  0.1093
  150MPD2    H3 2292   0.363   0.234  12.240 -0.1316  1.1740 -0.1715
  150MPD2     N 2293   0.481   0.654  12.101 -0.1515  0.3530  0.2936
  150MPD2    H5 2294   0.448   0.736  12.050  0.4674 -0.4619 -1.4254
  150MPD2    N1 2295   0.085   0.422  11.943 -0.0334  0.0118  0.2087
  150MPD2    H7 2296   0.051   0.328  11.924 -1.3375  0.8497 -1.5943
  151TCq2    C1 2297   0.616   0.650  12.128  0.3387 -0.2856 -0.2218
  151TCq2    O2 2298   0.674   0.557  12.185  0.0108  0.7785  0.0748
  151TCq2    C2 2299   0.679   0.769  12.075 -0.2042 -0.2584  0.1224
  151TCq2    C3 2300   0.632   0.813  11.959  0.4839 -0.1969  0.1070
  151TCq2    C4 2301   0.704   0.914  11.898  0.0594 -0.4869 -0.4001
  151TCq2    C5 2302   0.831   0.944  11.943  0.3792 -0.7631  0.9283
  151TCq2    C6 2303   0.874   0.893  12.062  0.2479 -0.4270 -0.0166
  151TCq2    C7 2304   0.799   0.802  12.132  0.2865 -0.2724 -0.2530
  151TCq2    C8 2305   1.021   0.908  12.085 -0.0554  0.8976 -0.5034
  151TCq2    O4 2306   1.080   0.983  12.008 -0.2225 -0.3998  0.3581
  151TCq2    C9 2307   0.665   0.970  11.772  0.4265  0.2506 -0.6299
  151TCq2    O5 2308   0.576   0.908  11.703  0.5464 -0.4056 -0.2218
  151TCq2    O6 2309   0.734   1.070  11.727 -0.7020  0.5173  0.5349
  151TCq2    H2 2310   0.545   0.769  11.910 -0.4923  0.7324  0.9853
  151TCq2    H3 2311   0.891   1.007  11.878 -0.0190 -0.7779  0.5445
  151TCq2    H4 2312   0.831   0.754  12.224  0.0547  0.4961  0.2361
  152MPD2     C 2313   4.676   4.704  12.617 -0.4031  0.0983 -0.0146
  152MPD2    C1 2314   4.719   0.091  12.536  0.4528  0.5842  0.6805
  152MPD2    C2 2315   4.639   0.145  12.436  0.0592 -0.2549  0.5756
  152MPD2    C3 2316   4.508   0.095  12.427 -0.1994 -0.2444  0.1560
  152MPD2    C4 2317   4.472   4.709  12.493  0.1898 -0.3695 -0.4100
  152MPD2    C5 2318   4.554   4.649  12.589  0.2116 -0.3225  0.3935
  152MPD2     H 2319   4.674   0.225  12.372  0.8942 -0.5376  0.6727
  152MPD2    H1 2320   4.370   4.674  12.493  0.2630 -0.5854 -0.1296
  152MPD2    H2 2321   0.017   4.660  12.690  1.8798  1.0900 -1.4924
  152MPD2    H3 2322   4.519   4.564  12.646  0.7570  0.4802  1.9170
  152MPD2     N 2323   4.410   0.166  12.350  0.1265 -0.4375 -0.1983
  152MPD2    H5 2324   4.436   0.259  12.318 -0.7626 -0.3627 -0.7292
  152MPD2    N1 2325   0.134   0.127  12.555 -0.2805 -0.1547  0.1925
  152MPD2    H7 2326   0.187   0.063  12.614 -3.3555 -2.6758  0.2353
  153TCq2    C1 2327   0.197   0.234  12.498  0.6078  0.2525  0.4655
  153TCq2    O2 2328   0.151   0.336  12.441 -0.1364  0.3270  0.1281
  153TCq2    C2 2329   0.341   0.237  12.532 -0.3989  0.4895  0.6997
  153TCq2    C3 2330   0.410   0.126  12.571 -0.0026  0.7889 -0.2125
  153TCq2    C4 2331   0.547   0.130  12.582  0.3036  0.1685  0.0472
  153TCq2    C5 2332   0.617   0.249  12.567 -0.1830  0.2060  0.2723
  153TCq2    C6 2333   0.542   0.362  12.551  0.0687 -0.3936 -0.7465
  153TCq2    C7 2334   0.413   0.357  12.521  0.4916  0.1238  0.1700
  153TCq2    C8 2335   0.604   0.485  12.573  0.0647  0.7327 -0.0746
  153TCq2    O4 2336   0.540   0.591  12.558 -0.2160  0.0835 -0.3253
  153TCq2    C9 2337   0.615   0.006  12.618  0.2106 -0.1656 -0.6621
  153TCq2    O5 2338   0.739   0.020  12.627  0.2281 -0.7720  0.4620
  153TCq2    O6 2339   0.546   4.630  12.656  0.0656 -0.0937  0.3438
  153TCq2    H2 2340   0.355   0.035  12.592  0.2618  0.8554  0.7603
  153TCq2    H3 2341   0.724   0.240  12.578 -0.2062 -0.2581  0.1220
  153TCq2    H4 2342   0.359   0.448  12.498  1.2366  0.1808 -1.4038
  154MPD2     C 2343   1.988   0.387   0.175 -0.1420  0.3896  0.3666
  154MPD2    C1 2344   1.985   0.281   0.266 -0.3691  0.1893 -0.1132
  154MPD2    C2 2345   1.867   0.273   0.342 -0.3258 -0.1620  0.1698
  154MPD2    C3 2346   1.755   0.358   0.316 -0.3023  0.4671 -0.5120
  154MPD2    C4 2347   1.766   0.454   0.217  1.0476  0.8293  0.0521
  154MPD2    C5 2348   1.886   0.464   0.147 -0.1899 -0.0043 -0.1899
  154MPD2     H 2349   1.858   0.202   0.424  0.0938 -1.8771 -1.2725
  154MPD2    H1 2350   1.687   0.524   0.190 -0.5711 -0.2345  2.0057
  154MPD2    H2 2351   2.081   0.412   0.125 -0.0419  0.2003  0.4593
  154MPD2    H3 2352   1.893   0.554   0.087  0.0123 -0.1340 -0.3605
  154MPD2     N 2353   1.637   0.335   0.389  0.6800 -0.9944 -0.2651
  154MPD2    H5 2354   1.650   0.272   0.468 -0.5973 -2.6281 -1.3813
  154MPD2    N1 2355   2.104   0.215   0.303 -0.1018 -0.0134 -0.4511
  154MPD2    H7 2356   2.189   0.254   0.263 -0.8039  1.2854 -0.6728
  155TCq2    C1 2357   2.122   0.106   0.382 -0.2661 -0.4538  0.5431
  155TCq2    O2 2358   2.040   0.021   0.412  0.0422  0.0032 -0.1345
  155TCq2    C2 2359   2.259   0.100   0.432  0.5516 -0.7000  0.1611
  155TCq2    C3 2360   2.302   4.717   0.499 -0.4193 -0.1758 -0.7860
  155TCq2    C4 2361   2.430   4.708   0.550 -0.2450 -0.0659 -0.4609
  155TCq2    C5 2362   2.513   0.086   0.557  0.1368 -0.0534 -0.0754
  155TCq2    C6 2363   2.474   0.196   0.489  0.4773  0.5038  0.0555
  155TCq2    C7 2364   2.350   0.203   0.430 -0.2586  0.1109 -0.2475
  155TCq2    C8 2365   2.537   0.318   0.520 -0.0240  0.1104 -0.1734
  155TCq2    O4 2366   2.555   0.401   0.433 -0.0647  0.3391 -0.0779
  155TCq2    C9 2367   2.481   4.587   0.599 -0.1851  0.3531 -0.7774
  155TCq2    O5 2368   2.404   4.485   0.589 -0.4597  0.0575  0.2515
  155TCq2    O6 2369   2.572   4.584   0.681 -0.0773  0.2385 -0.2502
  155TCq2    H2 2370   2.243   4.627   0.513  0.0306 -0.4685 -0.7423
  155TCq2    H3 2371   2.606   0.075   0.613 -0.1613 -1.0759  0.2157
  155TCq2    H4 2372   2.328   0.298   0.382 -1.1054 -0.9805 -1.9944
  156MPD2     C 2373   0.083   2.128  11.384 -0.4239 -0.3303  0.2401
  156MPD2    C1 2374   0.188   2.215  11.386  0.4685 -0.1983 -0.6356
  156MPD2    C2 2375   0.232   2.263  11.508 -0.1859  1.0868  0.1930
  156MPD2    C3 2376   0.169   2.230  11.626 -0.0277  0.3013  0.7473
  156MPD2    C4 2377   0.065   2.136  11.619 -0.2252 -0.5279 -0.6918
  156MPD2    C5 2378   0.017   2.093  11.495 -0.1882  0.1319  0.1500
  156MPD2     H 2379   0.315   2.331  11.520  1.0131 -0.3884  0.1576
  156MPD2    H1 2380   0.018   2.101  11.710  0.9623  1.2089  0.5737
  156MPD2    H2 2381   0.042   2.085  11.294 -0.0056 -0.6238  0.1913
  156MPD2    H3 2382   4.666   2.018  11.475  1.2528 -1.6145  1.2595
  156MPD2     N 2383   0.205   2.296  11.741 -0.1589 -0.3490 -0.1508
  156MPD2    H5 2384   0.283   2.361  11.738  0.2669 -0.8026  1.0669
  156MPD2    N1 2385   0.232   2.265  11.267 -0.2153 -0.1702 -0.0312
  156MPD2    H7 2386   0.184   2.236  11.183 -0.7859  0.1775  0.1742
  157TCq2    C1 2387   0.332   2.354  11.253  0.3295  0.8310 -0.5083
  157TCq2    O2 2388   0.412   2.388  11.337 -0.2210 -0.2265 -0.7182
  157TCq2    C2 2389   0.350   2.387  11.111 -0.1643  0.0940 -0.3852
  157TCq2    C3 2390   0.255   2.358  11.021 -0.2486  1.1075 -1.1258
  157TCq2    C4 2391   0.244   2.432  10.908 -0.5754  0.4581 -0.4348
  157TCq2    C5 2392   0.340   2.528  10.882  0.1862 -0.0549 -0.6107
  157TCq2    C6 2393   0.436   2.562  10.968  0.1682 -0.4473  0.1098
  157TCq2    C7 2394   0.450   2.482  11.081  0.1085  1.0025 -0.0413
  157TCq2    C8 2395   0.482   2.698  10.981 -0.3397  1.3645  0.8290
  157TCq2    O4 2396   0.451   2.782  10.897 -0.0622 -0.0810 -0.2422
  157TCq2    C9 2397   0.140   2.419  10.808 -0.5575 -0.5216  0.5807
  157TCq2    O5 2398   0.146   2.488  10.701  0.5514 -0.5720  0.2536
  157TCq2    O6 2399   0.038   2.352  10.847 -1.0467 -0.0760 -0.3051
  157TCq2    H2 2400   0.180   2.280  11.024 -0.0150  0.9239  0.0228
  157TCq2    H3 2401   0.324   2.590  10.795 -1.8444 -0.4774 -0.5239
  157TCq2    H4 2402   0.512   2.505  11.167  0.3637  2.0923 -0.5193
  158TMC2    C1 2403   1.319   0.995  13.353  0.4006  0.3233 -0.3084
  158TMC2    C2 2404   1.434   1.024  13.277 -0.2802 -0.0528 -0.4839
  158TMC2    C3 2405   1.421   1.128  13.191 -0.3852  0.3594  0.7998
  158TMC2    C4 2406   1.200   1.051  13.322  0.2737 -0.4993 -0.5454
  158TMC2    C5 2407   1.187   1.144  13.229 -1.4125  0.5223  0.6031
  158TMC2    C6 2408   1.304   1.193  13.174 -0.0604 -0.4635 -0.1464
  158TMC2     C 2409   1.327   0.878  13.443 -0.0527 -0.3749 -0.2791
  158TMC2     O 2410   1.415   0.797  13.421 -0.3554 -0.5814  1.0231
  158TMC2     H 2411   1.534   0.988  13.299 -0.2097 -0.6290 -1.7228
  158TMC2    H1 2412   1.117   1.009  13.378  2.1127 -0.9560  1.8383
  158TMC2    H2 2413   1.298   1.272  13.101 -0.9119 -1.9231 -1.6467
  158TMC2    C7 2414   1.068   1.203  13.192  0.0301 -0.2236  0.4039
  158TMC2    C8 2415   1.542   1.160  13.111 -0.3954 -0.3806  0.2451
  158TMC2    O1 2416   1.070   1.303  13.128  0.3806 -0.0639  0.0700
  158TMC2    O2 2417   1.630   1.077  13.091  0.4204 -0.3136 -0.5850
  158TMC2    O5 2418   1.540   1.285  13.051 -0.3637  0.1944  0.1137
  158TMC2    H5 2419   1.464   1.345  13.066 -2.9226 -2.5389 -1.8759
  159MPD2     C 2420   1.198   0.660  13.885 -1.0757  0.1675 -0.3274
  159MPD2    C1 2421   1.104   0.748  13.853  0.1302  0.2031  0.1156
  159MPD2    C2 2422   1.125   0.828  13.747 -0.6592  0.1850 -0.3717
  159MPD2    C3 2423   1.221   0.799  13.650  0.0435  0.6324 -0.7502
  159MPD2    C4 2424   1.297   0.689  13.672 -0.2783 -0.4605 -0.1115
  159MPD2    C5 2425   1.284   0.619  13.790 -0.7033 -0.4062 -0.3960
  159MPD2     H 2426   1.064   0.917  13.734  0.9426  1.6620  2.2822
  159MPD2    H1 2427   1.374   0.660  13.600  0.5332  2.7945 -0.5560
  159MPD2    H2 2428   1.182   0.594  13.970 -0.3503 -1.4747 -1.4499
  159MPD2    H3 2429   1.343   0.530  13.804 -0.6433 -0.4959 -1.2406
  159MPD2     N 2430   1.234   0.889  13.542 -0.3561  0.3532  0.1325
  159MPD2    H5 2431   1.163   0.961  13.541 -2.0224 -1.2939 -1.3563
  159MPD2    N1 2432   1.005   0.764  13.948 -0.1319 -0.6939 -0.0572
  159MPD2    H7 2433   1.014   0.706  14.032  0.5557  1.6967  1.5198
  160TMC2    C1 2434   0.117   3.948   0.796 -0.3077 -0.3377  0.8853
  160TMC2    C2 2435   0.045   3.853   0.729 -0.1347 -0.3226  0.0076
  160TMC2    C3 2436   0.060   3.853   0.595  0.0747 -1.1786  0.2434
  160TMC2    C4 2437   0.202   4.037   0.738 -0.0981 -0.1431 -0.1392
  160TMC2    C5 2438   0.221   4.028   0.604 -0.3669 -0.4040  0.9558
  160TMC2    C6 2439   0.145   3.937   0.532  0.3881  0.2361  0.7046
  160TMC2     C 2440   0.084   3.980   0.932 -0.6705 -0.3896  0.2739
  160TMC2     O 2441   0.069   3.880   0.999 -0.6444 -0.4814  0.2107
  160TMC2     H 2442   4.678   3.811   0.768 -0.6524 -0.8201 -1.7413
  160TMC2    H1 2443   0.263   4.091   0.810  0.2015 -0.0986 -0.4266
  160TMC2    H2 2444   0.147   3.939   0.424  0.6121  2.8276  0.7422
  160TMC2    C7 2445   0.298   4.128   0.532 -0.0353 -0.0530 -0.5295
  160TMC2    C8 2446   4.710   3.770   0.508  0.1245 -0.1969 -0.2537
  160TMC2    O1 2447   0.292   4.128   0.412  0.1418  0.4050 -0.0481
  160TMC2    O2 2448   4.686   3.790   0.391  0.6246  0.4390  0.2562
  160TMC2    O5 2449   4.708   3.654   0.576 -0.8685 -0.1802 -0.6747
  160TMC2    H5 2450   0.008   3.647   0.671  0.5941  2.9741 -0.8370
  161MPD2     C 2451   4.696   4.086   1.174  0.6960 -1.0108  0.1255
  161MPD2    C1 2452   4.682   4.150   1.051 -0.0284  0.1174  0.5604
  161MPD2    C2 2453   4.603   4.259   1.030  0.3037 -0.1699  0.6374
  161MPD2    C3 2454   4.519   4.295   1.130  0.3133  0.2592 -0.6628
  161MPD2    C4 2455   4.523   4.232   1.254  0.1467 -0.1630 -0.2345
  161MPD2    C5 2456   4.613   4.129   1.276  0.2184 -0.0466  1.1648
  161MPD2     H 2457   4.602   4.309   0.934  0.0420  0.3126  0.8943
  161MPD2    H1 2458   4.451   4.256   1.331  1.0051 -0.1406  0.5611
  161MPD2    H2 2459   0.045   4.011   1.200  2.0576 -0.3627 -1.8749
  161MPD2    H3 2460   4.628   4.095   1.378  0.9556 -2.2751  0.3099
  161MPD2     N 2461   4.420   4.399   1.110  0.3689  0.0284  0.2713
  161MPD2    H5 2462   4.359   4.417   1.189 -0.4680  0.8814 -0.5731
  161MPD2    N1 2463   0.031   4.105   0.941 -0.1171  0.2151  0.7397
  161MPD2    H7 2464   0.029   4.160   0.856 -1.2204 -2.4811 -0.9927
  162TMC2    C1 2465   2.960   1.614   1.265  0.0106 -0.9039 -0.5950
  162TMC2    C2 2466   2.870   1.717   1.263  0.0142  0.6964 -0.5305
  162TMC2    C3 2467   2.806   1.743   1.381 -0.0849 -0.3411 -0.3823
  162TMC2    C4 2468   2.988   1.553   1.376 -0.4122  0.1993 -0.1407
  162TMC2    C5 2469   2.916   1.582   1.490 -0.0096 -0.3004 -0.0687
  162TMC2    C6 2470   2.824   1.674   1.495  0.2740 -0.0061  0.1742
  162TMC2     C 2471   3.013   1.575   1.134 -0.2136 -0.3760 -0.1295
  162TMC2     O 2472   2.949   1.616   1.039 -0.0790 -0.0228  0.2488
  162TMC2     H 2473   2.853   1.779   1.177 -1.0254 -1.1338 -1.6398
  162TMC2    H1 2474   3.049   1.463   1.370 -0.0638  0.5477 -1.9426
  162TMC2    H2 2475   2.770   1.703   1.585  1.7483  0.1615  1.0087
  162TMC2    C7 2476   2.941   1.512   1.617  0.4691  0.4857  0.0928
  162TMC2    C8 2477   2.686   1.823   1.377  0.0477  0.4764  0.6762
  162TMC2    O1 2478   2.846   1.510   1.694  0.0768  0.0606  0.1808
  162TMC2    O2 2479   2.642   1.888   1.469  0.3580  0.0391 -0.1617
  162TMC2    O5 2480   2.609   1.757   1.287 -0.1455 -0.1787  0.0680
  162TMC2    H5 2481   2.655   1.686   1.238  1.2177  1.0022 -0.3576
  163MPD2     C 2482   3.386   1.372   0.851  0.3846 -0.6336 -1.0212
  163MPD2    C1 2483   3.257   1.409   0.814  0.1734 -0.1007 -0.2784
  163MPD2    C2 2484   3.161   1.447   0.904 -0.4914 -0.7048  0.4556
  163MPD2    C3 2485   3.209   1.455   1.035  0.4285 -0.6172 -0.1238
  163MPD2    C4 2486   3.333   1.417   1.070  0.4488 -0.5179  0.2691
  163MPD2    C5 2487   3.422   1.382   0.979 -0.1062  0.5761 -0.2248
  163MPD2     H 2488   3.057   1.463   0.879  0.1115 -0.9390 -2.1723
  163MPD2    H1 2489   3.363   1.422   1.174 -1.3574  0.5470  0.7481
  163MPD2    H2 2490   3.466   1.340   0.786 -0.8434 -0.7887 -2.4556
  163MPD2    H3 2491   3.526   1.356   0.999 -0.6707 -2.1306 -0.8792
  163MPD2     N 2492   3.130   1.501   1.141 -0.5189  0.8673  0.6945
  163MPD2    H5 2493   3.168   1.502   1.235  3.0673 -0.2405 -0.7361
  163MPD2    N1 2494   3.229   1.375   0.683 -0.6456 -0.7063  0.7408
  163MPD2    H7 2495   3.291   1.310   0.636 -1.4165 -0.3127 -0.8402
  164TCq2    C1 2496   3.872   0.821  10.986 -0.4734 -0.3981  0.8652
  164TCq2    O2 2497   3.794   0.751  11.053  0.3741 -0.7005  0.4941
  164TCq2    C2 2498   3.906   0.939  11.066 -0.2489 -0.4711  0.3982
  164TCq2    C3 2499   4.031   1.008  11.041 -0.0960 -0.2600  0.6069
  164TCq2    C4 2500   4.049   1.123  11.119  0.3010  0.7783  0.0141
  164TCq2    C5 2501   3.952   1.171  11.203 -0.0191 -0.3967  0.4424
  164TCq2    C6 2502   3.835   1.096  11.223  0.1436  0.2254  0.1045
  164TCq2    C7 2503   3.804   0.987  11.148 -0.0035 -0.8586  0.3001
  164TCq2    C8 2504   3.733   1.138  11.309 -1.0085 -0.6618  0.1438
  164TCq2    O4 2505   3.620   1.149  11.266 -0.1070  0.0771 -0.2475
  164TCq2    C9 2506   4.177   1.192  11.116  0.4306  0.0112  0.0229
  164TCq2    O5 2507   4.263   1.152  11.034  0.4697  0.0018 -0.0258
  164TCq2    O6 2508   4.196   1.293  11.184  0.0088  0.5595 -0.1268
  164TCq2    H2 2509   4.107   0.956  10.984 -1.0363  1.8458 -2.5911
  164TCq2    H3 2510   3.979   1.250  11.272  1.3537  0.3027 -0.9094
  164TCq2    H4 2511   3.714   0.928  11.160 -0.7164  0.3811  1.0087
  165MPD2     C 2512   4.319   2.062   0.966  0.5811  0.6544 -0.6137
  165MPD2    C1 2513   4.416   2.137   0.895  0.3828  0.3072  0.2764
  165MPD2    C2 2514   4.390   2.259   0.842  0.2300  0.5189 -0.3234
  165MPD2    C3 2515   4.259   2.305   0.851 -0.3452  0.0899  0.2474
  165MPD2    C4 2516   4.155   2.232   0.910  0.7010  0.0824  0.0277
  165MPD2    C5 2517   4.192   2.112   0.973 -0.0679 -0.3102 -0.6022
  165MPD2     H 2518   4.473   2.325   0.819  0.0253  0.5209 -1.0367
  165MPD2    H1 2519   4.058   2.269   0.942  0.4963 -2.2038  2.0743
  165MPD2    H2 2520   4.333   1.973   1.027  0.3960  2.5557  2.2066
  165MPD2    H3 2521   4.121   2.073   1.045  0.8814 -0.5501  0.1981
  165MPD2     N 2522   4.228   2.437   0.810  0.2080  0.0592  0.6208
  165MPD2    H5 2523   4.135   2.476   0.821  0.2243 -0.0689  1.2456
  165MPD2    N1 2524   4.551   2.079   0.901  0.1141  0.0616 -0.4707
  165MPD2    H7 2525   4.557   1.987   0.943  0.4920  0.0575 -0.5391
  166TCq2    C1 2526   4.321   2.526   0.754  0.1252 -0.1395 -0.2430
  166TCq2    O2 2527   4.442   2.525   0.737 -0.2632  0.0067 -0.6533
  166TCq2    C2 2528   4.256   2.650   0.714  0.4593  0.1955 -0.3842
  166TCq2    C3 2529   4.119   2.656   0.707 -0.4166  0.0546 -0.3929
  166TCq2    C4 2530   4.064   2.777   0.691 -0.4907 -0.3974  0.0657
  166TCq2    C5 2531   4.140   2.887   0.662  0.5953  1.0511 -0.8485
  166TCq2    C6 2532   4.277   2.877   0.663 -0.3551  0.2298 -0.1235
  166TCq2    C7 2533   4.331   2.757   0.685  0.5190 -0.1246 -0.4144
  166TCq2    C8 2534   4.364   2.996   0.664 -0.6120  0.3457  0.6665
  166TCq2    O4 2535   4.487   2.975   0.678 -0.0088  0.0125  0.3766
  166TCq2    C9 2536   3.929   2.793   0.710  0.1610 -0.0879  0.1198
  166TCq2    O5 2537   3.886   2.915   0.708  0.1918  0.2017 -0.2202
  166TCq2    O6 2538   3.872   2.700   0.775  0.3727 -0.0947 -0.1389
  166TCq2    H2 2539   4.062   2.565   0.697  1.8729 -1.5383  0.8057
  166TCq2    H3 2540   4.096   2.985   0.647  2.2246  2.0864  1.1955
  166TCq2    H4 2541   4.438   2.751   0.671  0.3518  0.3442 -1.8884
  167TMC2    C1 2542   3.098   0.759  12.799 -0.2766  0.1047 -0.1532
  167TMC2    C2 2543   2.961   0.768  12.826 -0.5998 -0.6015  0.3284
  167TMC2    C3 2544   2.914   0.648  12.870  0.8602  0.3726 -0.4165
  167TMC2    C4 2545   3.177   0.647  12.801 -0.7670 -0.5982 -0.1272
  167TMC2    C5 2546   3.123   0.531  12.840 -0.2673  0.4495  0.3657
  167TMC2    C6 2547   2.988   0.529  12.881  0.8047 -0.2627  0.0571
  167TMC2     C 2548   3.156   0.890  12.780  0.6366  0.4592  0.6364
  167TMC2     O 2549   3.097   0.988  12.827  0.0095 -0.2391 -0.3517
  167TMC2     H 2550   2.906   0.861  12.825  0.8760  0.2543 -3.2222
  167TMC2    H1 2551   3.284   0.650  12.784 -0.9292 -1.4678 -1.2547
  167TMC2    H2 2552   2.939   0.439  12.915  1.5131 -1.1089 -1.1471
  167TMC2    C7 2553   3.168   0.407  12.788  0.5467 -0.3385 -0.0913
  167TMC2    C8 2554   2.773   0.635  12.871 -0.2948 -0.6694  0.0529
  167TMC2    O1 2555   3.145   0.312  12.868  0.2316  0.3040 -0.8652
  167TMC2    O2 2556   2.722   0.590  12.774 -0.0065  0.4161  0.0358
  167TMC2    O5 2557   2.723   0.731  12.946  0.2370  0.4229 -0.5275
  167TMC2    H5 2558   2.773   0.738  13.030  1.3259 -1.3235 -1.0234
  168MPD2     C 2559   3.332   1.129  12.696  0.1409 -0.4096  0.3493
  168MPD2    C1 2560   3.353   0.993  12.660 -0.6501 -0.3171 -0.2453
  168MPD2    C2 2561   3.449   0.969  12.565  0.1191  0.0750 -0.0568
  168MPD2    C3 2562   3.511   1.066  12.495  0.0130  0.0540 -0.3360
  168MPD2    C4 2563   3.491   1.198  12.531  0.1584  0.1410  0.0036
  168MPD2    C5 2564   3.403   1.226  12.633  0.1529 -0.1169 -0.3075
  168MPD2     H 2565   3.469   0.867  12.536 -1.7106  0.1668 -1.6599
  168MPD2    H1 2566   3.548   1.281  12.491 -0.6792  0.7046 -0.0016
  168MPD2    H2 2567   3.258   1.154  12.771  1.0648  1.1553  0.7375
  168MPD2    H3 2568   3.392   1.331  12.659 -0.9510 -0.7987  1.9842
  168MPD2     N 2569   3.583   1.030  12.382 -0.5284 -0.5686  0.5598
  168MPD2    H5 2570   3.583   0.929  12.368  1.4271 -0.7892  2.1116
  168MPD2    N1 2571   3.261   0.887  12.698 -0.7866 -0.3404  0.2276
  168MPD2    H7 2572   3.272   0.801  12.645 -0.6277 -0.5461  0.5997
  169MPD1     C 2573   1.326   4.532   9.771 -0.2506 -0.6114 -0.6863
  169MPD1    C1 2574   1.251   4.482   9.663 -0.6615 -0.1453  0.5491
  169MPD1    C2 2575   1.169   4.567   9.590  0.4829 -0.5370 -0.4344
  169MPD1    C3 2576   1.175   4.706   9.619  0.4549 -0.2496  1.0352
  169MPD1    C4 2577   1.259   0.024   9.722  0.0552 -0.4779 -0.8819
  169MPD1    C5 2578   1.330   4.666   9.795  0.7944 -0.1642 -0.3389
  169MPD1     H 2579   1.105   4.522   9.515 -1.3244 -0.0258  0.8078
  169MPD1    H1 2580   1.279   0.130   9.732  0.4060 -0.6213 -0.0596
  169MPD1    H2 2581   1.383   4.469   9.838  0.5907 -1.6763 -2.4003
  169MPD1    H3 2582   1.392   4.710   9.872  0.9042 -0.8031 -0.0624
  169MPD1     N 2583   1.100   0.064   9.525 -0.4038  0.4328  1.2105
  169MPD1    H5 2584   1.073   0.016   9.439  0.8269  2.4566 -0.3023
  169MPD1    N1 2585   1.240   4.341   9.652 -0.7104  0.2296 -0.2896
  169MPD1    H6 2586   1.242   4.313   9.554 -0.3665  1.4483 -0.6428
  169MPD1    H7 2587   1.297   4.292   9.720  0.8211  0.4017 -1.4373
  170MPD1     C 2588   3.956   3.231  12.658 -0.5171 -0.1413 -0.6165
  170MPD1    C1 2589   3.933   3.361  12.671  0.4990 -0.6809 -0.0533
  170MPD1    C2 2590   3.982   3.434  12.775  0.1087 -0.0154 -0.6304
  170MPD1    C3 2591   4.057   3.374  12.878  0.2023  0.1046 -0.5416
  170MPD1    C4 2592   4.082   3.236  12.861  0.5245  0.6340 -0.3775
  170MPD1    C5 2593   4.032   3.170  12.756 -0.2226 -0.8366  0.3592
  170MPD1     H 2594   3.955   3.539  12.768 -0.8599 -0.2439 -0.3044
  170MPD1    H1 2595   4.127   3.177  12.941  0.6214  1.2240  0.0059
  170MPD1    H2 2596   3.923   3.169  12.576  1.5473  0.5911 -2.0176
  170MPD1    H3 2597   4.039   3.062  12.759 -1.0956 -0.8924  0.3782
  170MPD1     N 2598   4.093   3.451  12.994 -0.3122  0.1593  0.3968
  170MPD1    H5 2599   4.058   3.547  12.988 -0.4398 -0.0261 -2.0688
  170MPD1    N1 2600   3.880   3.425  12.557 -0.0259  0.1167  0.6378
  170MPD1    H6 2601   3.839   3.518  12.567  2.0522  0.8880  2.0571
  170MPD1    H7 2602   3.819   3.365  12.502 -0.1294  1.3460 -0.5773
  171MPD1     C 2603   2.866   4.227  15.152 -0.0718  0.4178 -0.5378
  171MPD1    C1 2604   2.822   4.265  15.276  0.8111 -1.1741 -0.5971
  171MPD1    C2 2605   2.836   4.174  15.385 -1.0557  0.8681 -0.4024
  171MPD1    C3 2606   2.888   4.047  15.360  0.1155 -0.5215 -0.8919
  171MPD1    C4 2607   2.901   4.012  15.231 -0.2919 -0.2179 -0.0187
  171MPD1    C5 2608   2.902   4.101  15.128 -0.2814 -0.0550 -0.0512
  171MPD1     H 2609   2.829   4.200  15.490 -0.6871  0.7391 -0.3459
  171MPD1    H1 2610   2.924   3.909  15.206 -0.6455 -0.0265 -1.1370
  171MPD1    H2 2611   2.877   4.300  15.072 -0.2373 -1.1725 -2.0236
  171MPD1    H3 2612   2.925   4.061  15.030 -0.4610 -1.7831  0.5973
  171MPD1     N 2613   2.895   3.943  15.457 -0.2151  0.3870  0.0188
  171MPD1    H5 2614   2.920   3.855  15.414 -1.3187  0.2375 -0.3223
  171MPD1    N1 2615   2.779   4.400  15.288  0.4626  0.4366 -0.3057
  171MPD1    H6 2616   2.710   4.416  15.215  1.9214  1.3039 -1.4937
  171MPD1    H7 2617   2.732   4.420  15.376  2.3421  0.6282  0.6379
  172MPD1     C 2618   2.028   3.128   0.541  0.3651 -0.7992  0.5751
  172MPD1    C1 2619   1.904   3.153   0.475 -0.3627 -0.4541 -0.3261
  172MPD1    C2 2620   1.842   3.276   0.499 -0.9688  0.1284 -0.8264
  172MPD1    C3 2621   1.896   3.367   0.591  0.1739  0.4386 -0.6971
  172MPD1    C4 2622   2.009   3.330   0.657 -0.1200  0.2680 -0.1398
  172MPD1    C5 2623   2.074   3.215   0.636 -0.5307 -0.6629  0.5195
  172MPD1     H 2624   1.758   3.301   0.434 -1.2621 -2.6316 -1.5312
  172MPD1    H1 2625   2.058   3.401   0.723  0.9328  0.0890 -0.7224
  172MPD1    H2 2626   2.089   3.039   0.526  1.8021  0.4318 -0.9517
  172MPD1    H3 2627   2.164   3.185   0.689 -0.4025 -0.2902  0.5123
  172MPD1     N 2628   1.839   3.484   0.632  0.8188 -0.5226 -0.2961
  172MPD1    H5 2629   1.890   3.533   0.705  0.3218  0.0466 -0.3226
  172MPD1    N1 2630   1.865   3.064   0.375  0.2524 -0.3440  0.0060
  172MPD1    H6 2631   1.882   2.968   0.403 -1.4475 -0.8971 -0.9329
  172MPD1    H7 2632   1.767   3.065   0.348  1.0558  1.3448 -2.8620
  173MPD1     C 2633   3.370   3.919  14.927 -0.8705  0.4801  0.4525
  173MPD1    C1 2634   3.269   3.863  15.004  0.3533  0.0084 -0.4897
  173MPD1    C2 2635   3.169   3.798  14.926 -0.4066 -0.1266  0.2308
  173MPD1    C3 2636   3.182   3.770  14.792  0.0286 -0.1226 -0.0222
  173MPD1    C4 2637   3.286   3.823  14.721  0.3526  0.1919  0.1834
  173MPD1    C5 2638   3.374   3.905  14.785  0.0370  0.6026 -0.5241
  173MPD1     H 2639   3.080   3.758  14.973 -0.8541 -3.3942 -3.3324
  173MPD1    H1 2640   3.299   3.814  14.614 -0.5655 -0.3701  0.1202
  173MPD1    H2 2641   3.448   3.979  14.974 -0.5543 -0.2740  0.8986
  173MPD1    H3 2642   3.462   3.938  14.731  0.4680 -1.6039 -1.1938
  173MPD1     N 2643   3.084   3.698  14.722  0.1806  0.6111  0.2804
  173MPD1    H5 2644   3.027   3.644  14.787  0.0791 -0.4101 -0.6584
  173MPD1    N1 2645   3.264   3.892  15.139 -0.3101 -0.2672  0.0095
  173MPD1    H6 2646   3.354   3.927  15.171  0.1500 -0.8697 -0.6355
  173MPD1    H7 2647   3.225   3.810  15.185  1.1862 -0.0951  1.5837
  174MPD1     C 2648   3.111   2.961  13.977 -0.1822 -0.1313  0.5005
  174MPD1    C1 2649   3.024   3.062  13.970  0.3574 -0.2001 -0.9935
  174MPD1    C2 2650   2.996   3.132  14.084  0.4639  0.4362  0.4306
  174MPD1    C3 2651   3.042   3.106  14.209  0.1548 -0.3728 -0.7378
  174MPD1    C4 2652   3.134   3.001  14.217  0.5946  0.0394 -0.2312
  174MPD1    C5 2653   3.163   2.928  14.101 -0.3246 -0.5215 -0.3840
  174MPD1     H 2654   2.936   3.222  14.075  0.3289  0.3407  0.3752
  174MPD1    H1 2655   3.178   2.975  14.312 -1.7925 -0.6126  0.7067
  174MPD1    H2 2656   3.150   2.910  13.890 -2.0503  1.4075 -1.2314
  174MPD1    H3 2657   3.234   2.847  14.107  0.1682 -0.1258 -0.8912
  174MPD1     N 2658   3.021   3.187  14.319 -0.0510 -0.0900  0.3145
  174MPD1    H5 2659   3.063   3.166  14.409  0.9616  0.8667  0.0615
  174MPD1    N1 2660   3.002   3.122  13.846  0.1222  0.1663 -0.9390
  174MPD1    H6 2661   2.985   3.056  13.769 -0.5999  2.1559 -2.4760
  174MPD1    H7 2662   2.923   3.186  13.840 -0.8105 -0.8076  0.6742
  175MPD1     C 2663   1.876   0.754  15.397 -0.5307 -0.5051 -0.0427
  175MPD1    C1 2664   1.877   0.816  15.519 -0.1809 -0.0044  0.2230
  175MPD1    C2 2665   1.834   0.742  15.628  0.0396  0.3024 -0.2142
  175MPD1    C3 2666   1.787   0.608  15.617 -0.3606  0.1882 -0.3023
  175MPD1    C4 2667   1.797   0.548  15.495  0.1438 -0.0271 -0.5566
  175MPD1    C5 2668   1.844   0.621  15.388  0.1133  0.0924 -0.1370
  175MPD1     H 2669   1.841   0.777  15.731  0.7767 -0.0012 -0.1608
  175MPD1    H1 2670   1.760   0.448  15.477 -0.0523 -0.4796  2.3875
  175MPD1    H2 2671   1.915   0.799  15.306  0.2792  0.7300  0.9199
  175MPD1    H3 2672   1.838   0.580  15.288 -2.7575  0.0519  0.0495
  175MPD1     N 2673   1.744   0.526  15.723  1.1483 -0.1917  0.7657
  175MPD1    H5 2674   1.746   0.426  15.704 -2.8317 -0.1229  0.0043
  175MPD1    N1 2675   1.936   0.943  15.531  0.7023  0.0843 -0.2515
  175MPD1    H6 2676   1.899   1.003  15.605  0.5966 -1.1739  0.7128
  175MPD1    H7 2677   1.952   0.985  15.440  3.1817 -0.9072 -0.2802
  176MPD1     C 2678   2.696   1.955  16.415 -0.4291  0.2884  0.1748
  176MPD1    C1 2679   2.766   1.865  16.487  0.3026 -0.1580  0.0840
  176MPD1    C2 2680   2.728   1.841  16.617  0.0045 -0.0350  0.1140
  176MPD1    C3 2681   2.622   1.915  16.678  0.3411  0.3201 -0.5141
  176MPD1    C4 2682   2.562   2.011  16.605 -0.1829  0.4685 -0.0439
  176MPD1    C5 2683   2.593   2.023  16.473  0.1348 -0.3140 -0.4439
  176MPD1     H 2684   2.778   1.761  16.670  1.1761 -0.9056 -2.3189
  176MPD1    H1 2685   2.473   2.062  16.642  0.2316  0.7033  0.6237
  176MPD1    H2 2686   2.725   1.980  16.313  0.4887 -0.2372  0.3136
  176MPD1    H3 2687   2.536   2.093  16.412 -0.2311 -0.1695  0.0674
  176MPD1     N 2688   2.601   1.884  16.818 -0.1240 -0.3383 -1.0012
  176MPD1    H5 2689   2.672   1.830  16.866  0.3876 -0.2474 -1.6594
  176MPD1    N1 2690   2.857   1.784  16.414  0.7502 -0.0825 -0.0229
  176MPD1    H6 2691   2.903   1.826  16.334  2.6940 -1.9906  0.0853
  176MPD1    H7 2692   2.926   1.752  16.481  0.8349  0.8331  0.3290
  177MPD1     C 2693   2.255   1.357   9.410  0.3942  0.5217 -0.2991
  177MPD1    C1 2694   2.229   1.468   9.332  0.5374 -0.1983 -0.4811
  177MPD1    C2 2695   2.109   1.531   9.352 -0.5857 -0.3968  0.3831
  177MPD1    C3 2696   2.021   1.484   9.448  0.6837  0.1331  0.6250
  177MPD1    C4 2697   2.038   1.367   9.522 -0.2366  0.6345 -0.3057
  177MPD1    C5 2698   2.161   1.303   9.495  0.8083 -0.0617  0.7936
  177MPD1     H 2699   2.093   1.628   9.306  0.2806  1.4133  3.9519
  177MPD1    H1 2700   1.981   1.332   9.607  1.6953  1.9792  1.5357
  177MPD1    H2 2701   2.338   1.288   9.398 -1.4589 -1.6507 -0.7420
  177MPD1    H3 2702   2.188   1.216   9.555  0.8898 -0.3337  0.3654
  177MPD1     N 2703   1.908   1.564   9.463 -0.4593  0.1951  0.5876
  177MPD1    H5 2704   1.912   1.649   9.408 -0.5725 -0.8671 -1.0559
  177MPD1    N1 2705   2.307   1.503   9.215  1.1025  0.0648  0.1959
  177MPD1    H6 2706   2.301   1.603   9.192  2.1175  0.1297  0.2094
  177MPD1    H7 2707   2.404   1.472   9.218  0.6289 -1.5325 -1.3834
  178MPD1     C 2708   4.193   1.355  17.591  0.4634  0.1747 -0.8842
  178MPD1    C1 2709   4.314   1.375  17.524  0.0037 -0.0200 -0.6603
  178MPD1    C2 2710   4.328   1.482  17.445  0.0633 -0.5660  0.2822
  178MPD1    C3 2711   4.224   1.577  17.445 -0.1553  0.2914 -0.1828
  178MPD1    C4 2712   4.116   1.567  17.524 -0.0678  0.1904 -0.6288
  178MPD1    C5 2713   4.097   1.453  17.597 -0.2098 -0.1574  0.4347
  178MPD1     H 2714   4.420   1.492  17.388  0.7834  0.2302  1.6133
  178MPD1    H1 2715   4.037   1.641  17.526  0.1607  0.4343 -0.7564
  178MPD1    H2 2716   4.171   1.268  17.651 -0.2259 -0.2671 -1.7705
  178MPD1    H3 2717   4.002   1.449  17.649  0.1662  0.3818  1.1544
  178MPD1     N 2718   4.224   1.703  17.370 -0.0105  0.0908 -0.5127
  178MPD1    H5 2719   4.152   1.768  17.397  1.8935  1.6382  0.8260
  178MPD1    N1 2720   4.403   1.268  17.519  0.1892  0.0089  0.0062
  178MPD1    H6 2721   4.499   1.301  17.519 -0.3162  1.4733  0.2972
  178MPD1    H7 2722   4.401   1.208  17.601  2.3404  0.3196  0.2757
  179MPD1     C 2723   3.966   1.415  15.575 -0.7003 -0.4956 -0.0591
  179MPD1    C1 2724   3.900   1.312  15.506 -0.4339  0.3097 -0.7547
  179MPD1    C2 2725   3.828   1.213  15.576 -0.3434 -0.5232 -0.2734
  179MPD1    C3 2726   3.818   1.217  15.709 -0.6440  0.6748  0.2459
  179MPD1    C4 2727   3.891   1.315  15.776  0.3445  0.5427  0.0218
  179MPD1    C5 2728   3.967   1.404  15.714  0.4656  0.4354 -0.3238
  179MPD1     H 2729   3.782   1.130  15.524 -0.2467  1.0172 -2.8386
  179MPD1    H1 2730   3.894   1.309  15.884  0.3515  0.5133  0.0200
  179MPD1    H2 2731   4.037   1.486  15.535 -0.3237 -0.6344  0.3579
  179MPD1    H3 2732   4.006   1.475  15.786  0.2818  0.4812 -0.2684
  179MPD1     N 2733   3.742   1.121  15.779  0.3248 -0.7965  0.5287
  179MPD1    H5 2734   3.736   1.110  15.880  1.4289  0.7751  0.7584
  179MPD1    N1 2735   3.935   1.282  15.374 -0.1513 -0.4617  0.4997
  179MPD1    H6 2736   3.947   1.372  15.328  1.0778 -0.3788  0.9795
  179MPD1    H7 2737   3.850   1.256  15.324 -0.7333  1.7704  0.3449
  180MPD1     C 2738   4.403   2.453  14.828 -0.1169 -0.4786  0.1787
  180MPD1    C1 2739   4.387   2.495  14.699  0.2487 -1.2347  0.3412
  180MPD1    C2 2740   4.255   2.517  14.663  0.4915 -0.5178 -0.3379
  180MPD1    C3 2741   4.141   2.493  14.743 -0.1538 -0.8889  0.2213
  180MPD1    C4 2742   4.167   2.441  14.863 -0.0544  0.3394  0.0041
  180MPD1    C5 2743   4.291   2.420  14.902  0.8678 -0.6021  0.0524
  180MPD1     H 2744   4.234   2.563  14.567  2.1646  1.0070  0.0187
  180MPD1    H1 2745   4.083   2.409  14.924  0.7551 -0.5807  0.6287
  180MPD1    H2 2746   4.504   2.440  14.862  0.4114  0.4113 -1.0520
  180MPD1    H3 2747   4.318   2.383  15.000 -1.1550  0.1228  0.8820
  180MPD1     N 2748   4.015   2.510  14.687 -0.2223 -0.0072 -0.5368
  180MPD1    H5 2749   4.017   2.545  14.591  0.1764  0.5528 -0.3263
  180MPD1    N1 2750   4.496   2.552  14.633 -0.0028  0.6252  0.1901
  180MPD1    H6 2751   4.473   2.551  14.534  3.5180  2.0864 -0.6829
  180MPD1    H7 2752   4.587   2.508  14.647  0.8776  1.6224 -2.3088
  181MPD1     C 2753   0.064   3.658   9.554  0.7207 -0.0618 -0.3945
  181MPD1    C1 2754   0.056   3.730   9.437  0.0982 -0.1914  0.1147
  181MPD1    C2 2755   0.164   3.809   9.407  0.2378 -0.2748 -0.8841
  181MPD1    C3 2756   0.269   3.832   9.495 -0.8971  0.0933  0.2246
  181MPD1    C4 2757   0.265   3.765   9.621  0.2470 -0.8386 -0.3752
  181MPD1    C5 2758   0.167   3.670   9.640 -0.7714 -0.7801  0.2416
  181MPD1     H 2759   0.172   3.840   9.303 -1.1285  0.3674 -0.7867
  181MPD1    H1 2760   0.337   3.789   9.698  0.1597 -1.3725 -0.1291
  181MPD1    H2 2761   4.722   3.574   9.564 -1.0413  1.3532 -0.4075
  181MPD1    H3 2762   0.170   3.604   9.726  2.0960  1.2910  1.7188
  181MPD1     N 2763   0.381   3.911   9.465  0.3069  0.7199 -0.0632
  181MPD1    H5 2764   0.459   3.901   9.530 -1.2344 -0.9628  1.5256
  181MPD1    N1 2765   4.692   3.686   9.340  0.6207 -0.9171  0.0133
  181MPD1    H6 2766   4.606   3.656   9.385 -0.4749  2.3369  0.0577
  181MPD1    H7 2767   4.661   3.755   9.271 -0.6985 -1.4650  0.0604
  182MPD1     C 2768   1.220   3.185   0.983 -0.2429 -0.5062  0.7164
  182MPD1    C1 2769   1.085   3.170   0.998 -0.9132  0.6146 -0.9911
  182MPD1    C2 2770   1.032   3.082   0.905  0.1319 -0.5043 -0.3111
  182MPD1    C3 2771   1.102   2.983   0.833 -0.8492  0.4108  0.1441
  182MPD1    C4 2772   1.242   3.004   0.837  0.4307 -0.7348 -0.3086
  182MPD1    C5 2773   1.298   3.105   0.907  0.1869 -0.4655  0.0201
  182MPD1     H 2774   0.925   3.093   0.889  0.0602 -0.1125  0.4479
  182MPD1    H1 2775   1.317   2.944   0.785 -0.0964 -1.5217 -0.1561
  182MPD1    H2 2776   1.276   3.264   1.031 -1.2368  0.3115  0.5289
  182MPD1    H3 2777   1.399   3.138   0.884 -0.6623  2.1614 -0.0088
  182MPD1     N 2778   1.047   2.881   0.750 -0.8521  0.8665 -0.6062
  182MPD1    H5 2779   1.111   2.816   0.706 -0.0247  0.0295  1.8009
  182MPD1    N1 2780   1.002   3.262   1.067  0.0894 -0.3210  0.5630
  182MPD1    H6 2781   1.048   3.294   1.152  2.5473 -2.7667  0.1176
  182MPD1    H7 2782   0.907   3.231   1.087  0.1294 -0.7350  0.0772
  183MPD1     C 2783   2.852   3.910   9.309 -0.6354  0.0471  0.1217
  183MPD1    C1 2784   2.736   3.973   9.273 -0.2003 -0.3746  0.6127
  183MPD1    C2 2785   2.622   3.939   9.340 -0.1121 -0.8376  0.5900
  183MPD1    C3 2786   2.620   3.809   9.399 -0.7369 -0.4148 -0.1998
  183MPD1    C4 2787   2.733   3.731   9.396 -0.3937  0.4082 -0.3345
  183MPD1    C5 2788   2.854   3.786   9.369  0.2130  0.0066  0.4486
  183MPD1     H 2789   2.531   3.998   9.332  0.2458 -0.4317 -0.5275
  183MPD1    H1 2790   2.736   3.632   9.441  3.3203  0.5826 -0.2042
  183MPD1    H2 2791   2.948   3.949   9.275 -0.6846  0.1752  0.1281
  183MPD1    H3 2792   2.948   3.733   9.370 -0.8305 -1.8385 -0.5551
  183MPD1     N 2793   2.494   3.766   9.439  0.2848  0.1146 -0.1329
  183MPD1    H5 2794   2.417   3.832   9.437  1.7836  1.8715 -0.1070
  183MPD1    N1 2795   2.743   4.095   9.206  0.5225  0.1001  0.6229
  183MPD1    H6 2796   2.737   4.173   9.272 -1.7723 -0.5366  1.1781
  183MPD1    H7 2797   2.653   4.116   9.162 -0.3003 -2.2311  1.2289
  184MPD1     C 2798   0.580   1.378  10.589  0.2731 -0.6713  0.0689
  184MPD1    C1 2799   0.714   1.390  10.591  0.8500 -0.5991 -0.1071
  184MPD1    C2 2800   0.779   1.385  10.468 -0.6808  0.6265  0.4790
  184MPD1    C3 2801   0.714   1.363  10.350  0.0435  0.2219  0.2215
  184MPD1    C4 2802   0.576   1.354  10.347 -0.6475 -0.1417 -0.2025
  184MPD1    C5 2803   0.511   1.354  10.467 -1.2710  0.5047  0.3062
  184MPD1     H 2804   0.884   1.411  10.466 -0.5759  0.1554 -0.2403
  184MPD1    H1 2805   0.518   1.324  10.260 -2.8865  1.7257  0.6877
  184MPD1    H2 2806   0.531   1.384  10.685 -1.5696 -1.4431 -0.8045
  184MPD1    H3 2807   0.404   1.341  10.458 -1.0597 -0.1819 -1.1668
  184MPD1     N 2808   0.778   1.369  10.219  0.5018  0.2360  0.4465
  184MPD1    H5 2809   0.721   1.352  10.137 -1.1872 -1.5466  1.9816
  184MPD1    N1 2810   0.787   1.437  10.703  0.2314  0.2781  0.0660
  184MPD1    H6 2811   0.750   1.403  10.791 -2.4474  1.5561 -0.5793
  184MPD1    H7 2812   0.885   1.407  10.708 -0.6544 -2.8375 -1.6496
  185MPD1     C 2813   0.677   1.435   9.220 -0.5490 -0.9227  0.0121
  185MPD1    C1 2814   0.603   1.372   9.318  0.2066 -0.2682 -0.0585
  185MPD1    C2 2815   0.657   1.372   9.448  0.0319 -0.7794  0.4114
  185MPD1    C3 2816   0.761   1.455   9.488 -0.0854 -0.6631  0.4950
  185MPD1    C4 2817   0.818   1.532   9.388  0.1115  0.3612  0.0184
  185MPD1    C5 2818   0.783   1.520   9.254  0.0733  0.5973 -0.6164
  185MPD1     H 2819   0.612   1.320   9.532 -0.5011 -2.1724 -0.7423
  185MPD1    H1 2820   0.901   1.594   9.421  0.5460 -0.5813  0.6883
  185MPD1    H2 2821   0.653   1.427   9.114 -1.1029 -0.5452  0.1077
  185MPD1    H3 2822   0.848   1.566   9.181  1.2589 -0.4854 -0.2430
  185MPD1     N 2823   0.826   1.454   9.614 -0.1792  0.0731  0.4010
  185MPD1    H5 2824   0.896   1.527   9.621  1.3782 -1.1693 -2.2757
  185MPD1    N1 2825   0.502   1.283   9.278  0.6136 -0.1679  0.0454
  185MPD1    H6 2826   0.437   1.264   9.354  0.7369 -2.3563 -0.3914
  185MPD1    H7 2827   0.457   1.308   9.190  0.4600  0.5265  0.3236
  186MPD1     C 2828   4.006   0.791  15.556  0.4249 -0.2044  0.7148
  186MPD1    C1 2829   4.013   0.928  15.551  0.0903 -0.1828  0.6276
  186MPD1    C2 2830   4.046   0.995  15.666 -1.0775  0.0296  0.4668
  186MPD1    C3 2831   4.062   0.933  15.793 -0.8350 -0.2341  0.5382
  186MPD1    C4 2832   4.045   0.796  15.796  0.1165  0.5567  0.1978
  186MPD1    C5 2833   4.015   0.732  15.682  0.1289  0.2847  0.3525
  186MPD1     H 2834   4.055   1.103  15.669  0.9332 -0.0938 -1.5604
  186MPD1    H1 2835   4.052   0.748  15.892 -1.1202 -0.2160 -0.0956
  186MPD1    H2 2836   3.983   0.720  15.478 -0.8824  0.6277  0.3382
  186MPD1    H3 2837   4.003   0.625  15.690 -0.3044  0.3454  0.5051
  186MPD1     N 2838   4.092   1.001  15.912 -0.7356  0.6789 -0.0360
  186MPD1    H5 2839   4.084   0.950  16.000 -0.9751 -0.5257 -0.7453
  186MPD1    N1 2840   4.025   0.988  15.427  0.0540 -0.2656 -0.5625
  186MPD1    H6 2841   3.972   0.930  15.363 -0.1304  0.2981 -0.9276
  186MPD1    H7 2842   3.992   1.084  15.432  1.8986  0.3071  0.6607
  187MPD1     C 2843   2.885   2.650   0.341 -0.8992  0.2543  0.1718
  187MPD1    C1 2844   2.810   2.589   0.247  0.6590 -0.3814  0.3566
  187MPD1    C2 2845   2.831   2.604   0.114  0.1640  0.7918  0.2766
  187MPD1    C3 2846   2.935   2.677   0.061 -0.6661  0.3102  0.1266
  187MPD1    C4 2847   3.019   2.726   0.157 -0.3832 -1.0944  0.8411
  187MPD1    C5 2848   2.992   2.719   0.292  0.4277 -1.1250  0.2081
  187MPD1     H 2849   2.772   2.537   0.053 -0.9409  1.2029  0.8903
  187MPD1    H1 2850   3.106   2.778   0.119 -0.7956 -1.7434 -0.9902
  187MPD1    H2 2851   2.875   2.638   0.448 -2.0559  0.9320  0.1391
  187MPD1    H3 2852   3.074   2.757   0.352 -0.7889 -0.7015  1.5673
  187MPD1     N 2853   2.983   2.686  17.630  0.2023  0.1073  0.4930
  187MPD1    H5 2854   3.060   2.750  17.612 -0.4574  0.7907  0.0658
  187MPD1    N1 2855   2.718   2.493   0.284  0.7758  0.5140 -0.2472
  187MPD1    H6 2856   2.665   2.511   0.369 -1.1813  2.5042 -1.8895
  187MPD1    H7 2857   2.651   2.460   0.215  0.1922  0.1490  0.4935
  188MPD1     C 2858   3.724   2.998  10.677 -0.2589  1.1125 -0.0275
  188MPD1    C1 2859   3.696   2.911  10.782 -0.3567  0.1271 -1.0717
  188MPD1    C2 2860   3.639   2.787  10.750 -0.2402  1.0345  0.6306
  188MPD1    C3 2861   3.611   2.759  10.619  0.0970 -0.5972  0.3007
  188MPD1    C4 2862   3.641   2.840  10.518 -0.4587  0.8268  0.1453
  188MPD1    C5 2863   3.699   2.963  10.549  0.3204 -0.8081  0.2086
  188MPD1     H 2864   3.621   2.717  10.830  0.8297 -2.7984 -2.4941
  188MPD1    H1 2865   3.614   2.831  10.414 -2.0453  1.2898  0.5205
  188MPD1    H2 2866   3.752   3.102  10.687  2.4676  0.2911  0.9117
  188MPD1    H3 2867   3.709   3.036  10.470 -1.2967  0.1772  0.9049
  188MPD1     N 2868   3.554   2.636  10.579 -0.2557 -0.2201 -0.4390
  188MPD1    H5 2869   3.545   2.612  10.480  0.3183 -0.3656 -0.4546
  188MPD1    N1 2870   3.718   2.953  10.915  0.0335  0.0985  0.0424
  188MPD1    H6 2871   3.778   3.035  10.927  0.7953 -0.6437  1.3547
  188MPD1    H7 2872   3.761   2.879  10.971 -0.1072 -0.2006 -0.2412
  189MPD1     C 2873   0.461   2.636  17.475 -0.0631 -0.2036  0.0031
  189MPD1    C1 2874   0.338   2.602  17.434 -1.3598 -0.1378 -0.1467
  189MPD1    C2 2875   0.237   2.673  17.484  0.0705 -0.4528 -0.1362
  189MPD1    C3 2876   0.251   2.794  17.554 -0.5284  0.0265  0.4810
  189MPD1    C4 2877   0.380   2.822  17.603 -0.1505  0.5233  0.3425
  189MPD1    C5 2878   0.480   2.743  17.559  0.3787 -0.2391 -0.0470
  189MPD1     H 2879   0.138   2.633  17.464 -0.2923  2.3287 -3.7989
  189MPD1    H1 2880   0.403   2.901  17.673  2.9429 -1.2013  1.2752
  189MPD1    H2 2881   0.547   2.575  17.448  1.2021  2.0236 -0.9796
  189MPD1    H3 2882   0.583   2.762  17.587  0.3946  2.0744 -1.6869
  189MPD1     N 2883   0.138   2.873  17.569 -0.7321 -0.6960 -0.2992
  189MPD1    H5 2884   0.047   2.840  17.538 -2.3916  3.6747 -0.0612
  189MPD1    N1 2885   0.317   2.474  17.375  0.0003 -0.0013  0.3327
  189MPD1    H6 2886   0.398   2.459  17.315  0.7842  0.3281  1.2972
  189MPD1    H7 2887   0.224   2.474  17.334  0.0573  1.8082  0.2032
  190MPD1     C 2888   3.907   2.923  15.451 -0.4983  0.6686  0.5935
  190MPD1    C1 2889   4.045   2.907  15.437  0.1445 -0.0820 -0.5769
  190MPD1    C2 2890   4.103   2.799  15.498 -0.3426 -0.0041 -0.4732
  190MPD1    C3 2891   4.024   2.701  15.554 -0.6369  0.6710  0.6512
  190MPD1    C4 2892   3.886   2.715  15.554  0.4163  0.1340 -1.1702
  190MPD1    C5 2893   3.829   2.822  15.498 -0.5464 -0.1919  0.4526
  190MPD1     H 2894   4.210   2.788  15.496 -0.4053 -0.4538 -1.3390
  190MPD1    H1 2895   3.813   2.638  15.578  1.3761  0.5308  3.0070
  190MPD1    H2 2896   3.857   3.013  15.417  0.5485  0.5662 -1.2394
  190MPD1    H3 2897   3.722   2.823  15.481 -0.5137  1.5139  0.3042
  190MPD1     N 2898   4.084   2.588  15.606 -0.0476 -0.5990 -0.0793
  190MPD1    H5 2899   4.183   2.569  15.594 -0.1217 -0.1892 -1.3363
  190MPD1    N1 2900   4.122   3.017  15.388  0.3669  0.0618 -0.1661
  190MPD1    H6 2901   4.063   3.087  15.342 -1.1434 -0.9093  0.2893
  190MPD1    H7 2902   4.206   2.996  15.334  0.6829 -2.0977  1.1786
  191MPD1     C 2903   2.845   3.418  12.873  0.1630 -0.1120  0.0209
  191MPD1    C1 2904   2.732   3.490  12.893  0.8364 -0.3103  0.1852
  191MPD1    C2 2905   2.712   3.601  12.813 -0.0638 -0.0906  0.5332
  191MPD1    C3 2906   2.811   3.650  12.732  0.0405  0.2737 -0.6275
  191MPD1    C4 2907   2.924   3.575  12.710 -0.0334  0.6352  0.2220
  191MPD1    C5 2908   2.944   3.465  12.792 -0.5451  0.0939  0.1538
  191MPD1     H 2909   2.618   3.653  12.826 -0.8920 -1.4272 -0.1516
  191MPD1    H1 2910   3.003   3.611  12.646  0.7007 -0.3910  0.5513
  191MPD1    H2 2911   2.863   3.328  12.930 -0.0809  0.6443  1.2962
  191MPD1    H3 2912   3.035   3.409  12.773  0.3680  1.4851  0.4388
  191MPD1     N 2913   2.782   3.774  12.663 -0.0657 -0.5909  0.1597
  191MPD1    H5 2914   2.699   3.828  12.686  0.6882  1.1074 -1.1379
  191MPD1    N1 2915   2.628   3.441  12.973  0.3987  0.1263  0.5528
  191MPD1    H6 2916   2.663   3.374  13.041 -0.3662 -0.6809  0.1483
  191MPD1    H7 2917   2.569   3.509  13.020 -0.1848 -0.7466  1.0806
  192MPD1     C 2918   2.455   4.693  12.866 -0.6502 -0.4695  0.1856
  192MPD1    C1 2919   2.454   4.563  12.914 -0.0744  0.4696  0.1622
  192MPD1    C2 2920   2.509   4.454  12.842 -0.6417  0.1186  0.7800
  192MPD1    C3 2921   2.581   4.479  12.721  0.0769 -0.0949  0.0859
  192MPD1    C4 2922   2.582   4.609  12.683  0.5508  0.4886  0.3907
  192MPD1    C5 2923   2.515   4.708  12.745  0.3662 -0.0506 -0.4501
  192MPD1     H 2924   2.486   4.352  12.870  0.6705 -0.4131 -0.0711
  192MPD1    H1 2925   2.652   4.633  12.604  0.9667  1.5428  1.0785
  192MPD1    H2 2926   2.411   0.053  12.917 -0.3386 -0.4056  0.3515
  192MPD1    H3 2927   2.521   0.081  12.698 -0.5926  0.5616  0.6926
  192MPD1     N 2928   2.638   4.369  12.642 -0.1850  0.0166 -0.0607
  192MPD1    H5 2929   2.680   4.406  12.557  1.6094 -0.1035  0.7562
  192MPD1    N1 2930   2.360   4.540  13.018  0.3637  0.2523 -0.3624
  192MPD1    H6 2931   2.393   4.467  13.081  0.8214  0.5462 -0.2525
  192MPD1    H7 2932   2.357   4.627  13.071  0.7253 -0.2438  0.4734
  193MPD1     C 2933   3.144   3.582  17.021  0.6683 -0.5228 -0.0438
  193MPD1    C1 2934   3.105   3.657  17.126  0.4153  0.0929 -0.5598
  193MPD1    C2 2935   3.145   3.793  17.130 -0.4247  0.5874 -0.1570
  193MPD1    C3 2936   3.218   3.845  17.023  0.1988  0.1729  0.3122
  193MPD1    C4 2937   3.264   3.755  16.929 -0.1595  0.4819 -0.1689
  193MPD1    C5 2938   3.220   3.630  16.924  0.5275 -0.6092 -0.1653
  193MPD1     H 2939   3.100   3.856  17.206  2.0532  0.4046  1.4722
  193MPD1    H1 2940   3.332   3.797  16.855 -0.3214  0.1760 -0.4879
  193MPD1    H2 2941   3.116   3.477  17.026  0.2074 -0.4096 -0.2041
  193MPD1    H3 2942   3.250   3.563  16.845 -1.5591 -0.2680 -1.2479
  193MPD1     N 2943   3.252   3.984  17.001 -0.1478 -0.4148  0.0507
  193MPD1    H5 2944   3.319   4.009  16.929  0.1996  3.1315  1.6038
  193MPD1    N1 2945   3.002   3.604  17.212  0.3675  0.0258 -0.7955
  193MPD1    H6 2946   2.993   3.636  17.308 -3.0553  0.0359 -1.1295
  193MPD1    H7 2947   3.002   3.502  17.216 -1.8171  0.1527  2.0137
  194MPD1     C 2948   1.948   1.644  16.692 -0.5115  0.1070 -0.6099
  194MPD1    C1 2949   1.855   1.707  16.767 -0.9249  0.4194 -0.6325
  194MPD1    C2 2950   1.819   1.646  16.888  0.2090  0.2274 -0.2504
  194MPD1    C3 2951   1.862   1.521  16.925 -0.4491 -0.4032  0.1595
  194MPD1    C4 2952   1.952   1.455  16.838 -0.1476 -0.5755 -0.4627
  194MPD1    C5 2953   1.998   1.523  16.725 -0.1730  0.2231  0.3877
  194MPD1     H 2954   1.743   1.690  16.951 -1.3564  0.1145 -2.0351
  194MPD1    H1 2955   1.998   1.359  16.856  1.5606  0.1331 -1.0388
  194MPD1    H2 2956   1.975   1.684  16.595 -1.1599 -1.7207 -1.5641
  194MPD1    H3 2957   2.071   1.465  16.669 -1.0787  0.7476 -1.3331
  194MPD1     N 2958   1.821   1.456  17.042 -0.3397 -0.2995 -0.0096
  194MPD1    H5 2959   1.861   1.365  17.063 -0.3855 -0.0876  1.0342
  194MPD1    N1 2960   1.823   1.840  16.741  0.5424  0.1752 -0.2663
  194MPD1    H6 2961   1.810   1.853  16.641  1.6389 -0.0822 -0.4496
  194MPD1    H7 2962   1.733   1.850  16.788  0.6975 -0.9712  0.2734
  195MPD1     C 2963   2.246   3.615   0.328 -0.8063 -0.4743 -0.8813
  195MPD1    C1 2964   2.312   3.607   0.210 -0.5314 -0.1909  0.3663
  195MPD1    C2 2965   2.362   3.485   0.172  1.0056 -0.6451  0.1574
  195MPD1    C3 2966   2.337   3.372   0.247 -0.0264  0.5509  1.1850
  195MPD1    C4 2967   2.261   3.387   0.357 -0.2028 -0.1764  0.3383
  195MPD1    C5 2968   2.213   3.505   0.398  1.0307  0.3061 -0.1928
  195MPD1     H 2969   2.433   3.473   0.091  0.7877 -0.4222 -0.0667
  195MPD1    H1 2970   2.240   3.294   0.409 -0.4855  0.4438  1.3137
  195MPD1    H2 2971   2.216   3.709   0.372 -0.1937 -0.2454 -0.9434
  195MPD1    H3 2972   2.165   3.516   0.495 -0.9284  1.8604 -1.3485
  195MPD1     N 2973   2.392   3.241   0.228  0.0647  0.6623 -0.1861
  195MPD1    H5 2974   2.364   3.171   0.296 -1.1095 -0.4507 -1.7936
  195MPD1    N1 2975   2.362   3.723   0.144  0.0089 -0.2142 -0.6116
  195MPD1    H6 2976   2.302   3.800   0.172 -0.7026 -0.8066 -0.5169
  195MPD1    H7 2977   2.365   3.718   0.042 -3.5324  0.8834 -0.7768
  196MPD1     C 2978   1.102   1.270   0.387  0.2973  0.4123 -0.4839
  196MPD1    C1 2979   1.133   1.398   0.352  0.1258 -1.3831 -0.4250
  196MPD1    C2 2980   1.198   1.478   0.443  0.0787  0.1930  0.6173
  196MPD1    C3 2981   1.218   1.435   0.573  0.8137  0.2704 -0.5913
  196MPD1    C4 2982   1.164   1.315   0.611  0.7309 -0.3778 -0.5071
  196MPD1    C5 2983   1.104   1.233   0.518 -0.1869 -0.4256  0.7080
  196MPD1     H 2984   1.217   1.581   0.414  1.6683 -0.3890 -0.3687
  196MPD1    H1 2985   1.177   1.272   0.710  2.0328  1.9888  0.3470
  196MPD1    H2 2986   1.067   1.194   0.317 -0.9898 -0.1809  0.7890
  196MPD1    H3 2987   1.075   1.134   0.551 -2.9555 -0.3560 -1.5038
  196MPD1     N 2988   1.304   1.494   0.672  0.3972  0.3097 -0.0195
  196MPD1    H5 2989   1.313   1.457   0.766 -1.7633 -0.5723 -0.1497
  196MPD1    N1 2990   1.120   1.419   0.211  0.0089 -0.8715 -0.0586
  196MPD1    H6 2991   1.111   1.520   0.200  3.1534 -0.4062  1.5946
  196MPD1    H7 2992   1.031   1.377   0.185 -0.2297  1.7546 -3.5854
  197MPD1     C 2993   1.420   4.283  17.471  0.0712 -0.5939 -0.9602
  197MPD1    C1 2994   1.547   4.276  17.524 -0.5397 -0.0849  0.3009
  197MPD1    C2 2995   1.646   4.360  17.468 -0.0179  0.1466  0.1203
  197MPD1    C3 2996   1.626   4.425  17.345 -0.1635 -0.7893 -0.4670
  197MPD1    C4 2997   1.505   4.411  17.284  0.3577  0.2116 -0.3333
  197MPD1    C5 2998   1.406   4.355  17.355  0.5507  0.2203  0.9242
  197MPD1     H 2999   1.737   4.376  17.524  0.5321  1.4153 -1.1264
  197MPD1    H1 3000   1.482   4.465  17.193  0.2480  1.8148  0.6386
  197MPD1    H2 3001   1.342   4.224  17.519  1.9400 -2.1636  0.1234
  197MPD1    H3 3002   1.312   4.363  17.303  0.4134  0.9011  1.2801
  197MPD1     N 3003   1.720   4.508  17.281 -0.3478 -0.0429  0.1329
  197MPD1    H5 3004   1.704   4.522  17.182  2.1563  0.1607 -0.2454
  197MPD1    N1 3005   1.562   4.227  17.659  0.1523  0.0368 -0.3318
  197MPD1    H6 3006   1.663   4.224  17.669  0.4026  2.3686 -2.1151
  197MPD1    H7 3007   1.538   4.129  17.646  0.7235 -0.0315 -0.8848
  198MPD1     C 3008   3.467   3.168  16.142  0.7031  0.1720  0.1798
  198MPD1    C1 3009   3.527   3.175  16.263 -0.0245  0.1108 -0.4300
  198MPD1    C2 3010   3.603   3.289  16.296  0.2187 -0.3306 -0.5991
  198MPD1    C3 3011   3.616   3.389  16.206 -0.0824 -0.1825 -0.1689
  198MPD1    C4 3012   3.551   3.376  16.083  0.1328  0.4434  0.2510
  198MPD1    C5 3013   3.480   3.262  16.053 -0.1339  0.5961 -0.4273
  198MPD1     H 3014   3.661   3.292  16.387  0.5349 -0.7354 -0.7913
  198MPD1    H1 3015   3.543   3.460  16.015  0.2651  1.0256  0.9623
  198MPD1    H2 3016   3.396   3.090  16.118  0.5714  0.6613 -1.0498
  198MPD1    H3 3017   3.421   3.257  15.962 -0.6938 -0.7568  0.0123
  198MPD1     N 3018   3.701   3.496  16.240 -0.5174 -0.2705  0.0921
  198MPD1    H5 3019   3.756   3.491  16.326 -1.9219  0.5394  1.0355
  198MPD1    N1 3020   3.530   3.055  16.342  0.0817 -0.1848  0.4567
  198MPD1    H6 3021   3.443   3.001  16.335 -0.2674  0.1883  1.8306
  198MPD1    H7 3022   3.545   3.078  16.440  0.1371  0.3013  0.3359
  199MPD1     C 3023   0.587   3.406   9.306 -0.2192  0.3761  0.5945
  199MPD1    C1 3024   0.706   3.470   9.271  0.8721  0.3051  0.7361
  199MPD1    C2 3025   0.697   3.593   9.213  1.0000  0.0243  0.7253
  199MPD1    C3 3026   0.576   3.657   9.193  0.1736 -0.4713 -0.3264
  199MPD1    C4 3027   0.462   3.596   9.254  0.3469 -0.2332  0.1737
  199MPD1    C5 3028   0.465   3.467   9.302 -0.4595 -0.3366  0.6094
  199MPD1     H 3029   0.782   3.642   9.166 -0.1863  1.1397 -0.2744
  199MPD1    H1 3030   0.370   3.650   9.241  0.0796 -0.7899 -0.2754
  199MPD1    H2 3031   0.593   3.304   9.344  0.8273 -0.0203 -0.6314
  199MPD1    H3 3032   0.378   3.409   9.328  0.6642 -2.3481 -0.0967
  199MPD1     N 3033   0.550   3.776   9.123 -0.0971 -0.5759  0.0124
  199MPD1    H5 3034   0.456   3.813   9.120 -0.3094 -1.2853 -2.1844
  199MPD1    N1 3035   0.833   3.405   9.275  0.5070 -0.1232 -0.4290
  199MPD1    H6 3036   0.848   3.315   9.320 -0.3591  0.3894  0.8767
  199MPD1    H7 3037   0.907   3.466   9.311 -0.0788 -1.1463  2.5156
  200MPD1     C 3038   4.185   4.370  14.956 -0.5487  0.2073  0.2804
  200MPD1    C1 3039   4.108   4.440  14.860 -0.5702  0.1430 -0.2938
  200MPD1    C2 3040   4.129   4.412  14.730  0.0349  0.0945 -0.0397
  200MPD1    C3 3041   4.228   4.326  14.685 -0.0939 -0.0699 -0.4492
  200MPD1    C4 3042   4.304   4.260  14.774 -0.9355 -0.2516  0.0289
  200MPD1    C5 3043   4.284   4.280  14.910  0.2021 -0.0403  0.0594
  200MPD1     H 3044   4.071   4.472  14.660 -1.8494 -1.3293  0.3201
  200MPD1    H1 3045   4.389   4.199  14.745 -0.4814  0.5654 -0.3449
  200MPD1    H2 3046   4.174   4.395  15.060 -0.1926 -3.2568  1.1446
  200MPD1    H3 3047   4.354   4.255  14.989 -1.6846 -0.1299  1.7161
  200MPD1     N 3048   4.240   4.329  14.541  0.5712  0.9130 -0.7827
  200MPD1    H5 3049   4.177   4.395  14.497 -2.0480 -0.1943  1.2963
  200MPD1    N1 3050   4.001   4.529  14.895 -0.0303  0.2081  0.5388
  200MPD1    H6 3051   4.018   4.561  14.991 -2.8705 -0.0442  1.1181
  200MPD1    H7 3052   4.009   4.613  14.839  0.3079 -0.1866 -0.0050
  201MPD1     C 3053   2.041   3.518  12.182 -0.1461 -0.6852  0.0423
  201MPD1    C1 3054   2.133   3.568  12.268 -0.3548 -0.8751  0.5819
  201MPD1    C2 3055   2.213   3.480  12.337  0.1110 -0.5693 -0.1510
  201MPD1    C3 3056   2.183   3.342  12.331  0.1258 -0.6962 -0.2444
  201MPD1    C4 3057   2.074   3.303  12.251  0.0930  0.4013 -0.2568
  201MPD1    C5 3058   2.010   3.390  12.174 -0.3101  0.4423 -0.4274
  201MPD1     H 3059   2.309   3.511  12.378 -0.8191  1.5263  0.4595
  201MPD1    H1 3060   2.044   3.200  12.238  1.0992  0.2033 -0.9644
  201MPD1    H2 3061   1.989   3.582  12.112 -1.4023  0.1880  1.7908
  201MPD1    H3 3062   1.935   3.355  12.104  0.1309 -1.5074  0.0659
  201MPD1     N 3063   2.252   3.248  12.411  0.3300  0.1046  0.1700
  201MPD1    H5 3064   2.326   3.282  12.471 -1.3846  2.9367  0.6759
  201MPD1    N1 3065   2.165   3.703  12.254 -0.7355 -0.7503 -0.3996
  201MPD1    H6 3066   2.216   3.725  12.339  0.3207 -0.4259 -1.1262
  201MPD1    H7 3067   2.079   3.759  12.251  0.6349  1.4268  0.7209
  202MPD1     C 3068   3.457   2.852   9.662 -0.1653  0.6775 -0.6269
  202MPD1    C1 3069   3.372   2.954   9.682  0.6796 -0.6678  0.5625
  202MPD1    C2 3070   3.252   2.919   9.739 -0.4845  0.1586 -0.2537
  202MPD1    C3 3071   3.208   2.794   9.764  0.0563  0.2171 -0.6187
  202MPD1    C4 3072   3.294   2.694   9.718 -0.8230  0.1288  0.3833
  202MPD1    C5 3073   3.418   2.721   9.668 -0.7386 -0.3550  0.1768
  202MPD1     H 3074   3.209   3.004   9.790 -1.8204 -0.5708 -0.1776
  202MPD1    H1 3075   3.272   2.589   9.735 -2.2033  0.3676  0.0986
  202MPD1    H2 3076   3.562   2.870   9.643  0.2875  0.8992  2.0698
  202MPD1    H3 3077   3.488   2.639   9.654 -1.7928 -1.1377 -0.4526
  202MPD1     N 3078   3.094   2.762   9.839 -0.2172 -0.1923 -0.2039
  202MPD1    H5 3079   3.074   2.662   9.839  2.1033 -0.6910  1.9948
  202MPD1    N1 3080   3.424   3.079   9.707 -0.2354 -0.1938  0.0440
  202MPD1    H6 3081   3.498   3.095   9.640 -1.1511  1.6929 -0.4952
  202MPD1    H7 3082   3.354   3.151   9.690 -1.3426 -0.8980  1.5286
  203MPD1     C 3083   1.308   4.361  12.479 -0.2326  0.1674  0.0088
  203MPD1    C1 3084   1.349   4.276  12.380  0.0762 -0.5432  0.7301
  203MPD1    C2 3085   1.313   4.144  12.396 -0.3059  0.6547  0.0177
  203MPD1    C3 3086   1.265   4.092  12.511  0.2300 -0.2410 -0.6905
  203MPD1    C4 3087   1.244   4.177  12.610  0.8264 -0.0733  0.2779
  203MPD1    C5 3088   1.261   4.308  12.592 -0.3033 -0.2131 -0.1983
  203MPD1     H 3089   1.318   4.076  12.312 -1.3821  1.7205 -0.8972
  203MPD1    H1 3090   1.205   4.147  12.707  2.8427 -0.3027  1.0136
  203MPD1    H2 3091   1.329   4.467  12.478 -1.3098  0.3886  1.7136
  203MPD1    H3 3092   1.236   4.382  12.668 -0.7959  0.7158 -1.2580
  203MPD1     N 3093   1.250   3.954  12.511 -0.1519 -0.0217 -0.3273
  203MPD1    H5 3094   1.256   3.906  12.422  1.9351 -1.3855  0.5593
  203MPD1    N1 3095   1.391   4.326  12.255 -0.1464  0.2756  0.1392
  203MPD1    H6 3096   1.468   4.393  12.260  0.4481 -0.4541  0.7678
  203MPD1    H7 3097   1.412   4.245  12.197 -1.1005 -0.3356  0.6549
  204MPD1     C 3098   4.474   4.201   0.067  0.0502 -0.3201 -0.2351
  204MPD1    C1 3099   4.604   4.185   0.111 -0.0166  0.1703 -0.5841
  204MPD1    C2 3100   4.711   4.200   0.019  0.6573  0.2012  0.6004
  204MPD1    C3 3101   4.687   4.252  17.597  0.2540  0.2496  0.1681
  204MPD1    C4 3102   4.557   4.288  17.570 -0.2527 -0.1108  0.0981
  204MPD1    C5 3103   4.453   4.247  17.646 -0.6032  0.5152  0.4877
  204MPD1     H 3104   0.087   4.165   0.035  1.5377  3.3441  1.8922
  204MPD1    H1 3105   4.540   4.330  17.471 -1.9530 -0.6172  0.1830
  204MPD1    H2 3106   4.388   4.185   0.131 -0.9482 -1.9600 -1.9810
  204MPD1    H3 3107   4.349   4.261  17.617 -0.1953  1.8348 -0.3502
  204MPD1     N 3108   0.073   4.263  17.512 -0.0376 -0.4503 -0.8598
  204MPD1    H5 3109   0.162   4.238  17.554  0.5228  3.2884  0.2285
  204MPD1    N1 3110   4.613   4.112   0.233 -0.0203 -0.3836 -0.2771
  204MPD1    H6 3111   4.533   4.129   0.294  0.3685  1.0964 -0.1692
  204MPD1    H7 3112   4.698   4.144   0.280 -0.9855  0.5057  0.8787
  205MPD1     C 3113   1.421   3.961  16.741 -0.1386 -0.0417 -0.5539
  205MPD1    C1 3114   1.477   3.855  16.806 -0.3775 -0.2335 -0.4740
  205MPD1    C2 3115   1.404   3.766  16.882 -0.2874  0.2305 -0.0648
  205MPD1    C3 3116   1.265   3.786  16.890 -0.0441  0.5122 -0.1974
  205MPD1    C4 3117   1.214   3.899  16.830  0.1654 -0.1777 -0.2761
  205MPD1    C5 3118   1.288   3.982  16.759  0.4839 -0.4819  0.2072
  205MPD1     H 3119   1.449   3.677  16.925 -4.1951 -1.7975 -0.2160
  205MPD1    H1 3120   1.108   3.919  16.819 -0.1772 -1.2897  1.0798
  205MPD1    H2 3121   1.480   4.025  16.677 -0.0630  0.3168 -0.1271
  205MPD1    H3 3122   1.234   4.065  16.715  0.0871  0.9617  3.4207
  205MPD1     N 3123   1.174   3.701  16.959 -0.4101  0.2249 -0.2017
  205MPD1    H5 3124   1.080   3.734  16.978 -1.2108 -2.0354 -0.2526
  205MPD1    N1 3125   1.617   3.834  16.791  0.1019 -0.1292 -0.1150
  205MPD1    H6 3126   1.659   3.926  16.779  2.1685 -1.1365 -0.5576
  205MPD1    H7 3127   1.660   3.796  16.875  0.0951 -0.7668 -0.3996
  206MPD1     C 3128   0.417   1.852  16.493  0.1491  0.1959  0.2427
  206MPD1    C1 3129   0.515   1.765  16.450  0.1228  0.1607 -0.7349
  206MPD1    C2 3130   0.543   1.761  16.313  0.2757 -0.4025  0.4329
  206MPD1    C3 3131   0.492   1.847  16.224  0.0072  0.0076  0.2387
  206MPD1    C4 3132   0.396   1.933  16.275 -0.6758 -0.6988 -0.0686
  206MPD1    C5 3133   0.348   1.931  16.406 -0.0492 -0.0973  0.2211
  206MPD1     H 3134   0.614   1.686  16.278 -0.2429 -2.5392  3.9154
  206MPD1    H1 3135   0.347   1.993  16.200  0.3570 -0.1247 -0.2848
  206MPD1    H2 3136   0.402   1.875  16.598  1.0143 -1.5110  0.7373
  206MPD1    H3 3137   0.280   2.009  16.438  1.3288  1.1467  0.0782
  206MPD1     N 3138   0.517   1.854  16.087 -0.7312  0.4357 -0.3725
  206MPD1    H5 3139   0.497   1.942  16.041  2.7525  1.0293 -0.7287
  206MPD1    N1 3140   0.573   1.675  16.548  0.1019  0.2272 -0.6818
  206MPD1    H6 3141   0.671   1.648  16.536 -0.0409 -0.6462  0.0968
  206MPD1    H7 3142   0.578   1.714  16.642  1.7320  0.0312 -0.6910
  207MPD1     C 3143   4.382   3.150   9.972  0.1538  0.2410 -0.0184
  207MPD1    C1 3144   4.307   3.203   9.873 -0.0568 -0.1360 -0.1043
  207MPD1    C2 3145   4.255   3.330   9.887 -0.0270  0.0171 -0.0634
  207MPD1    C3 3146   4.273   3.398  10.011  0.8245 -0.1426 -0.3014
  207MPD1    C4 3147   4.349   3.338  10.106 -0.4705 -0.2974  0.5008
  207MPD1    C5 3148   4.416   3.223  10.082 -0.0146 -0.5621 -0.1406
  207MPD1     H 3149   4.191   3.377   9.813 -1.4035  0.8993  1.6833
  207MPD1    H1 3150   4.370   3.387  10.201 -0.3377  1.1649 -0.2847
  207MPD1    H2 3151   4.413   3.046   9.970  0.4431  0.3350 -0.4166
  207MPD1    H3 3152   4.483   3.177  10.153 -0.1284 -0.2906  0.1428
  207MPD1     N 3153   4.194   3.510  10.043 -0.4734 -0.0827 -0.1685
  207MPD1    H5 3154   4.198   3.539  10.140  1.6595 -0.4241 -0.1362
  207MPD1    N1 3155   4.260   3.130   9.765  0.5438 -0.2330 -0.1942
  207MPD1    H6 3156   4.255   3.185   9.680  2.4120 -0.3978 -0.4282
  207MPD1    H7 3157   4.315   3.044   9.758  0.2415 -0.6008  2.0447
  208MPD1     C 3158   1.712   3.130  17.529 -0.0063 -0.4975  0.8797
  208MPD1    C1 3159   1.703   3.045  17.640 -0.5386 -0.3616  0.5117
  208MPD1    C2 3160   1.640   2.921  17.629 -0.2522  0.0067  0.1636
  208MPD1    C3 3161   1.625   2.867  17.507  0.1665  0.0836 -0.0710
  208MPD1    C4 3162   1.664   2.942  17.395 -0.1584  0.3656  0.2613
  208MPD1    C5 3163   1.700   3.070  17.404  0.0988  0.2995  0.4925
  208MPD1     H 3164   1.611   2.871   0.020 -1.1067 -0.1675 -0.2006
  208MPD1    H1 3165   1.645   2.907  17.294  0.8540 -0.1625  0.2547
  208MPD1    H2 3166   1.762   3.226  17.527 -0.0682 -0.4812 -0.0739
  208MPD1    H3 3167   1.717   3.135  17.319 -0.5459 -0.3449 -0.1215
  208MPD1     N 3168   1.556   2.746  17.496  0.1622  0.4612 -0.8746
  208MPD1    H5 3169   1.531   2.704  17.585  1.7539 -0.6258 -0.9563
  208MPD1    N1 3170   1.724   3.109   0.061 -0.3248  0.5438 -0.1878
  208MPD1    H6 3171   1.804   3.170   0.050 -0.2424  0.6323  0.8469
  208MPD1    H7 3172   1.751   3.042   0.134  1.5511 -1.9662 -3.2060
  209MPD1     C 3173   3.090   2.947  11.424 -0.1744 -0.4145  0.8990
  209MPD1    C1 3174   3.147   3.044  11.497 -0.5946 -0.2923 -0.5844
  209MPD1    C2 3175   3.230   3.132  11.434 -0.1555  0.6303 -0.3476
  209MPD1    C3 3176   3.258   3.129  11.297 -0.0481 -0.5142 -0.0980
  209MPD1    C4 3177   3.208   3.027  11.224  0.3578  0.0782  0.4579
  209MPD1    C5 3178   3.119   2.947  11.293 -0.5982 -0.7348  0.0846
  209MPD1     H 3179   3.281   3.206  11.494  1.6414 -0.3793 -0.6475
  209MPD1    H1 3180   3.212   2.998  11.119 -0.7099  0.6506  0.2539
  209MPD1    H2 3181   3.016   2.886  11.473 -0.8919  0.7108  1.2156
  209MPD1    H3 3182   3.061   2.876  11.235 -0.8392 -0.0910 -0.4749
  209MPD1     N 3183   3.330   3.237  11.238 -0.0643 -0.0424  0.3289
  209MPD1    H5 3184   3.368   3.305  11.303  0.5873 -0.1209  0.0340
  209MPD1    N1 3185   3.135   3.035  11.637  0.0820 -0.6366 -0.4141
  209MPD1    H6 3186   3.054   2.977  11.658  0.8490 -2.0263 -1.2785
  209MPD1    H7 3187   3.127   3.126  11.681 -1.5406 -1.3312  0.7428
  210MPD1     C 3188   3.543   4.175  11.393  0.1190  0.1043  0.7676
  210MPD1    C1 3189   3.552   4.062  11.470 -0.2057  0.2587 -0.1078
  210MPD1    C2 3190   3.548   3.938  11.404 -0.2983  0.4380  0.0960
  210MPD1    C3 3191   3.528   3.929  11.268  0.0118 -0.7516  0.2034
  210MPD1    C4 3192   3.521   4.046  11.194 -0.2540  0.3222 -0.1877
  210MPD1    C5 3193   3.524   4.170  11.259 -0.1732 -0.1076  0.2536
  210MPD1     H 3194   3.546   3.856  11.475  1.2296 -1.9157 -2.5751
  210MPD1    H1 3195   3.510   4.049  11.086 -2.3555  2.1734  0.0585
  210MPD1    H2 3196   3.532   4.271  11.443  2.5770  1.9518 -2.1727
  210MPD1    H3 3197   3.523   4.259  11.196  0.0095 -0.2363  0.0683
  210MPD1     N 3198   3.527   3.808  11.192  0.4125  0.4478 -0.7205
  210MPD1    H5 3199   3.507   3.817  11.093 -0.2775 -1.4037 -0.7577
  210MPD1    N1 3200   3.548   4.072  11.609 -0.7690 -0.1260 -0.3447
  210MPD1    H6 3201   3.616   4.139  11.644  1.4361 -3.0017  0.8419
  210MPD1    H7 3202   3.570   3.983  11.653  0.5456  0.5908  0.4420
  211MPD1     C 3203   1.979   3.478  16.574 -0.1924  0.0239  0.2739
  211MPD1    C1 3204   1.929   3.606  16.576 -0.0758  0.4221 -0.3303
  211MPD1    C2 3205   1.807   3.621  16.631 -0.5091 -0.1573 -0.5751
  211MPD1    C3 3206   1.718   3.517  16.664 -0.2717  0.7835 -0.9837
  211MPD1    C4 3207   1.772   3.386  16.660  0.0931 -0.1920  0.5797
  211MPD1    C5 3208   1.899   3.374  16.608  0.6325 -0.4807  0.9954
  211MPD1     H 3209   1.763   3.719  16.619 -3.7813 -1.4076  1.1171
  211MPD1    H1 3210   1.712   3.297  16.669  0.1328 -0.4044 -1.4125
  211MPD1    H2 3211   2.081   3.459  16.541 -0.6172 -0.4944 -0.7239
  211MPD1    H3 3212   1.952   3.280  16.596 -1.0772 -1.3138  0.0085
  211MPD1     N 3213   1.583   3.549  16.687  0.3482  0.1803  0.0586
  211MPD1    H5 3214   1.557   3.647  16.692  0.6981  0.2362  0.7514
  211MPD1    N1 3215   2.005   3.712  16.521 -0.5808 -0.0140 -0.6057
  211MPD1    H6 3216   2.005   3.795  16.580  0.2901  0.8455 -1.8122
  211MPD1    H7 3217   2.102   3.685  16.502 -0.9273 -0.8529 -1.1747
  212MPD1     C 3218   0.497   1.722  16.904  0.3872 -0.3378  0.5237
  212MPD1    C1 3219   0.377   1.782  16.931  0.4483 -0.5544 -0.1858
  212MPD1    C2 3220   0.262   1.712  16.961  0.2306  0.3726  0.3272
  212MPD1    C3 3221   0.273   1.572  16.948  0.6253  0.1278  0.4017
  212MPD1    C4 3222   0.392   1.511  16.936 -0.2563  0.2601 -0.0607
  212MPD1    C5 3223   0.502   1.587  16.909 -0.0703  0.1375 -0.8867
  212MPD1     H 3224   0.166   1.757  16.981 -0.9044 -1.7042 -0.3526
  212MPD1    H1 3225   0.409   1.405  16.946 -0.2132  0.0521 -2.4552
  212MPD1    H2 3226   0.594   1.770  16.894  0.5142 -0.8814 -0.9453
  212MPD1    H3 3227   0.587   1.527  16.881  2.0431  3.0758 -0.7080
  212MPD1     N 3228   0.165   1.474  16.968  0.4480 -0.0122 -0.5661
  212MPD1    H5 3229   0.180   1.384  17.013  1.5931 -0.1015 -1.1227
  212MPD1    N1 3230   0.363   1.922  16.937 -0.3985  0.5828  0.0811
  212MPD1    H6 3231   0.429   1.967  16.874  0.1106 -0.2349  0.0283
  212MPD1    H7 3232   0.266   1.945  16.917  0.1302  1.3591 -1.5847
  213MPD1     C 3233   3.558   2.325  15.658 -0.2255 -0.5097 -0.3085
  213MPD1    C1 3234   3.454   2.238  15.687 -0.7333 -0.7186  0.1206
  213MPD1    C2 3235   3.335   2.236  15.614  0.3870  0.1350  0.4777
  213MPD1    C3 3236   3.323   2.326  15.503  0.2979  0.5377 -0.4088
  213MPD1    C4 3237   3.421   2.418  15.475 -0.6314 -0.9040 -0.1403
  213MPD1    C5 3238   3.537   2.405  15.547  0.4972 -0.1466  0.3284
  213MPD1     H 3239   3.252   2.169  15.632 -1.4208  1.9587 -1.1939
  213MPD1    H1 3240   3.412   2.484  15.390  0.2629 -1.0069 -0.3133
  213MPD1    H2 3241   3.657   2.326  15.702  0.0797 -0.4184 -1.0023
  213MPD1    H3 3242   3.610   2.483  15.527  0.3424  0.0761  0.6111
  213MPD1     N 3243   3.205   2.306  15.416  0.5656  0.2962  0.6675
  213MPD1    H5 3244   3.136   2.241  15.453 -0.4819  1.1626  0.2750
  213MPD1    N1 3245   3.497   2.123  15.760 -0.1867 -0.4780  0.2177
  213MPD1    H6 3246   3.534   2.058  15.691 -1.2488 -2.3144  1.3788
  213MPD1    H7 3247   3.413   2.074  15.790 -0.1962 -0.3175  0.4429
  214MPD1     C 3248   2.561   1.657  15.020 -0.0624 -0.0087  0.4637
  214MPD1    C1 3249   2.699   1.653  14.984 -0.0980  0.6132 -0.0635
  214MPD1    C2 3250   2.773   1.770  15.006 -0.2009  0.2714 -0.2039
  214MPD1    C3 3251   2.717   1.886  15.047  0.8951 -0.1180 -0.0686
  214MPD1    C4 3252   2.587   1.890  15.071  0.3969  0.0121 -0.6690
  214MPD1    C5 3253   2.507   1.778  15.056 -0.5601  0.2689 -0.0464
  214MPD1     H 3254   2.878   1.771  14.980  0.6645 -0.0123  3.2917
  214MPD1    H1 3255   2.538   1.980  15.105 -1.0856 -0.5322 -1.4030
  214MPD1    H2 3256   2.504   1.565  15.024  0.3464 -0.3232 -1.0593
  214MPD1    H3 3257   2.408   1.785  15.098 -0.6829 -2.1683  0.0850
  214MPD1     N 3258   2.797   2.010  15.054  0.4272 -0.3708 -0.0864
  214MPD1    H5 3259   2.741   2.091  15.080 -0.6094 -1.4123  0.9518
  214MPD1    N1 3260   2.764   1.537  14.940 -0.2265  0.2576  0.1516
  214MPD1    H6 3261   2.690   1.484  14.895 -0.1062 -0.6808  1.0857
  214MPD1    H7 3262   2.848   1.545  14.883  0.6856  2.0178  1.7446
  215MPD1     C 3263   3.235   3.067  10.178  0.1543  0.2951  0.7115
  215MPD1    C1 3264   3.159   3.171  10.147 -0.7094  0.1488 -0.1302
  215MPD1    C2 3265   3.151   3.273  10.246  0.2235  0.6382 -0.7197
  215MPD1    C3 3266   3.215   3.256  10.368  0.1228  0.0867  0.0671
  215MPD1    C4 3267   3.269   3.137  10.403  0.4375  0.1494 -0.6100
  215MPD1    C5 3268   3.277   3.040  10.309 -0.3493 -0.1167  0.0132
  215MPD1     H 3269   3.095   3.365  10.231  0.8297  1.0207 -0.6359
  215MPD1    H1 3270   3.306   3.115  10.502  0.6884  1.3872 -0.4364
  215MPD1    H2 3271   3.253   2.987  10.106  1.2408 -0.4160  1.7768
  215MPD1    H3 3272   3.321   2.942  10.327  2.0464  0.6514 -1.6709
  215MPD1     N 3273   3.201   3.374  10.454 -0.7927 -0.3047 -0.1960
  215MPD1    H5 3274   3.158   3.459  10.422  0.8569 -0.4452 -2.8283
  215MPD1    N1 3275   3.123   3.187  10.010 -0.3455  0.1646  0.1932
  215MPD1    H6 3276   3.096   3.103   9.960 -1.4580  0.1684  0.7662
  215MPD1    H7 3277   3.039   3.244  10.001 -0.1983 -0.0197 -2.1921
  216MPD1     C 3278   4.574   0.993  17.318  0.5632 -0.4593  0.0621
  216MPD1    C1 3279   4.535   0.862  17.332  0.2770 -0.2045 -0.2236
  216MPD1    C2 3280   4.640   0.765  17.331 -0.6778 -0.0343 -0.2334
  216MPD1    C3 3281   0.045   0.793  17.339  0.0478 -0.7355 -0.1013
  216MPD1    C4 3282   0.078   0.923  17.345  0.0549  0.3052  0.4560
  216MPD1    C5 3283   4.712   1.019  17.324 -0.4432 -0.1761 -0.1360
  216MPD1     H 3284   4.617   0.662  17.310 -0.8016  0.2162 -1.3329
  216MPD1    H1 3285   0.181   0.953  17.360  0.1755  0.6446 -1.0521
  216MPD1    H2 3286   4.506   1.077  17.305 -0.5969 -1.6929 -1.9347
  216MPD1    H3 3287   0.013   1.124  17.326 -1.3882  0.0650 -0.3725
  216MPD1     N 3288   0.140   0.689  17.351  0.4326  0.4910 -0.6264
  216MPD1    H5 3289   0.095   0.600  17.331  1.7265 -0.3000 -0.0164
  216MPD1    N1 3290   4.399   0.827  17.330  0.0388  0.2642 -0.1658
  216MPD1    H6 3291   4.379   0.762  17.405  1.8901 -0.5062 -0.3320
  216MPD1    H7 3292   4.340   0.907  17.350 -0.9448  0.3694 -3.5553
  217MPD1     C 3293   0.640   3.864   8.652 -0.0311  0.0976 -0.0272
  217MPD1    C1 3294   0.517   3.823   8.678 -0.7611  0.5006  0.5696
  217MPD1    C2 3295   0.493   3.708   8.754  0.9047 -0.8198 -0.5125
  217MPD1    C3 3296   0.592   3.632   8.813 -0.0183  0.4094  0.2261
  217MPD1    C4 3297   0.722   3.679   8.789 -0.0576 -0.0173  0.4663
  217MPD1    C5 3298   0.742   3.787   8.706  0.3291  0.3540 -0.3063
  217MPD1     H 3299   0.391   3.673   8.767  0.4983  0.3840 -0.5154
  217MPD1    H1 3300   0.804   3.624   8.835  1.8204  0.3061 -2.5343
  217MPD1    H2 3301   0.659   3.944   8.581 -1.7486 -0.1844 -0.7857
  217MPD1    H3 3302   0.840   3.817   8.672  0.6704  0.6504  0.9413
  217MPD1     N 3303   0.575   3.515   8.887 -0.3952 -0.1756  0.3625
  217MPD1    H5 3304   0.661   3.470   8.917  0.0198 -0.1941 -0.8495
  217MPD1    N1 3305   0.415   3.876   8.601  0.7650 -0.3207 -0.2191
  217MPD1    H6 3306   0.323   3.881   8.644  1.1990 -0.2628  0.6864
  217MPD1    H7 3307   0.433   3.973   8.575  0.5383 -0.3063 -0.3254
  218MPD1     C 3308   2.331   3.935  12.457 -0.2178 -1.2279  0.3873
  218MPD1    C1 3309   2.429   3.992  12.378  0.2751 -0.2152  0.2881
  218MPD1    C2 3310   2.531   3.902  12.349 -0.0973  0.2556 -0.4718
  218MPD1    C3 3311   2.540   3.768  12.396  0.1812 -0.5321  0.3206
  218MPD1    C4 3312   2.443   3.727  12.491 -0.4172  0.3383 -0.6292
  218MPD1    C5 3313   2.341   3.815  12.520 -0.3977  0.0638  0.2783
  218MPD1     H 3314   2.622   3.935  12.299 -0.8481  0.4475 -1.7086
  218MPD1    H1 3315   2.436   3.627  12.531  3.0677  0.2255 -0.3111
  218MPD1    H2 3316   2.244   3.996  12.482  2.7803  2.2854  2.2204
  218MPD1    H3 3317   2.265   3.783  12.590  0.7852 -4.0064 -0.2918
  218MPD1     N 3318   2.643   3.687  12.345 -0.2456  0.7836 -0.2835
  218MPD1    H5 3319   2.711   3.721  12.278  1.7830 -1.5330  0.5951
  218MPD1    N1 3320   2.438   4.125  12.330 -0.3269  0.3755  0.1469
  218MPD1    H6 3321   2.496   4.150  12.250 -0.7092 -0.3892 -0.3621
  218MPD1    H7 3322   2.351   4.176  12.346  0.5053  2.3704 -1.6364
  219MPD1     C 3323   3.385   3.944  11.962 -0.0072 -0.7937  0.1622
  219MPD1    C1 3324   3.430   3.851  12.048  0.3738 -0.1782 -0.1973
  219MPD1    C2 3325   3.342   3.767  12.116  0.3085  0.5975  0.2485
  219MPD1    C3 3326   3.210   3.797  12.123 -0.1575  0.1565  0.3491
  219MPD1    C4 3327   3.169   3.909  12.045  0.2724  0.3454  1.0899
  219MPD1    C5 3328   3.258   3.983  11.972 -0.2786 -0.0249 -0.3941
  219MPD1     H 3329   3.361   3.672  12.165 -0.9845  0.2114  0.0154
  219MPD1    H1 3330   3.066   3.940  12.046 -0.4582 -2.1049  0.8047
  219MPD1    H2 3331   3.454   3.987  11.890 -0.8122  0.2484  0.0288
  219MPD1    H3 3332   3.215   4.057  11.906 -3.2462 -2.1818 -0.8899
  219MPD1     N 3333   3.111   3.727  12.195  0.5740  0.4258  0.2860
  219MPD1    H5 3334   3.017   3.756  12.169  0.7290  3.3490  2.9591
  219MPD1    N1 3335   3.566   3.820  12.041 -0.1507 -0.0148 -0.1698
  219MPD1    H6 3336   3.600   3.769  12.123  0.6539 -0.0843 -0.5562
  219MPD1    H7 3337   3.629   3.897  12.021  0.7392 -0.1963  1.8880
  220MPD1     C 3338   2.649   4.563   9.226  0.2898  0.1330  0.5361
  220MPD1    C1 3339   2.770   4.522   9.272 -0.3216  0.7206  0.7589
  220MPD1    C2 3340   2.776   4.415   9.359 -0.8010 -0.4058  0.2792
  220MPD1    C3 3341   2.655   4.371   9.412 -0.5220  0.1673  0.7395
  220MPD1    C4 3342   2.536   4.414   9.360 -0.2484 -0.2382 -0.5304
  220MPD1    C5 3343   2.533   4.512   9.267 -0.0375  0.0615  0.0264
  220MPD1     H 3344   2.870   4.380   9.398 -0.8749 -1.4495 -0.4916
  220MPD1    H1 3345   2.439   4.391   9.403 -1.0739 -1.2076 -2.9590
  220MPD1    H2 3346   2.648   4.641   9.151  0.5932 -1.5854 -1.2489
  220MPD1    H3 3347   2.438   4.555   9.236 -1.3150 -1.9339  1.1734
  220MPD1     N 3348   2.670   4.260   9.500  0.1992  0.3939 -1.0235
  220MPD1    H5 3349   2.767   4.238   9.517 -0.2410  1.2301  2.5292
  220MPD1    N1 3350   2.889   4.573   9.217  0.3652  0.0901 -0.1198
  220MPD1    H6 3351   2.968   4.545   9.276  0.4529 -0.7619 -0.6335
  220MPD1    H7 3352   2.897   4.673   9.202 -1.4556  0.0484 -1.3523
  221MPD1     C 3353   0.208   3.331  16.078 -0.9278  0.8764  0.3127
  221MPD1    C1 3354   0.194   3.382  16.201  0.0841 -0.2076 -0.0310
  221MPD1    C2 3355   0.272   3.335  16.309  0.0436 -0.5639  0.0263
  221MPD1    C3 3356   0.360   3.235  16.282  0.1879  0.0540  0.3381
  221MPD1    C4 3357   0.367   3.183  16.155 -0.1702 -0.1941 -0.3859
  221MPD1    C5 3358   0.300   3.234  16.051  0.3615 -0.4804 -0.1355
  221MPD1     H 3359   0.261   3.383  16.406  0.6652  0.3368 -0.3469
  221MPD1    H1 3360   0.431   3.099  16.130  1.8624  0.5933  2.0541
  221MPD1    H2 3361   0.154   3.362  15.990  2.1165  2.7967 -0.8654
  221MPD1    H3 3362   0.303   3.190  15.952  0.0567 -3.0632  0.9995
  221MPD1     N 3363   0.445   3.173  16.377  0.0427  0.2284  0.7997
  221MPD1    H5 3364   0.488   3.087  16.345 -0.5219 -0.0792  0.8592
  221MPD1    N1 3365   0.122   3.504  16.208  0.6397 -0.8966 -0.5202
  221MPD1    H6 3366   0.081   3.523  16.299  0.0946  1.9900 -1.3535
  221MPD1    H7 3367   0.057   3.524  16.133 -1.0308 -1.2708  0.8436
  222MPD1     C 3368   3.877   0.335   0.228  0.5446 -0.4196 -0.3771
  222MPD1    C1 3369   3.877   0.426   0.124  0.6284 -0.7111 -0.2428
  222MPD1    C2 3370   3.874   0.563   0.156 -0.6278  0.6424 -0.1154
  222MPD1    C3 3371   3.843   0.607   0.283 -0.5960  1.0306  0.1926
  222MPD1    C4 3372   3.806   0.516   0.383 -0.2420 -0.3375 -0.3469
  222MPD1    C5 3373   3.828   0.380   0.348 -0.1180 -0.7404  0.9306
  222MPD1     H 3374   3.886   0.625   0.068  0.5418  1.8149  0.8749
  222MPD1    H1 3375   3.782   0.547   0.484 -2.9903 -2.7420 -0.2766
  222MPD1    H2 3376   3.900   0.229   0.222 -2.4430 -0.9199 -3.0687
  222MPD1    H3 3377   3.803   0.308   0.425  0.3397 -1.6171  0.2550
  222MPD1     N 3378   3.829   0.744   0.317  0.3245 -0.1114  0.1341
  222MPD1    H5 3379   3.799   0.771   0.410  2.0816 -1.0690  0.9641
  222MPD1    N1 3380   3.918   0.375  17.698 -0.2077 -0.6651 -0.1760
  222MPD1    H6 3381   3.883   0.283  17.671 -0.1820 -0.5183 -0.7085
  222MPD1    H7 3382   3.898   0.438  17.621  1.6740  0.2732  0.0962
  223MPD1     C 3383   3.443   0.800   0.920  0.3377 -0.2542  0.1236
  223MPD1    C1 3384   3.553   0.747   0.852  0.0446 -0.1303  0.3976
  223MPD1    C2 3385   3.597   0.811   0.742 -0.1732 -0.1664  0.3733
  223MPD1    C3 3386   3.550   0.933   0.705 -0.5608 -0.2087 -0.7903
  223MPD1    C4 3387   3.461   0.998   0.786 -1.0420  0.0555  0.3850
  223MPD1    C5 3388   3.401   0.927   0.889 -0.1357  0.2251 -0.3207
  223MPD1     H 3389   3.668   0.764   0.675  0.1260 -1.3351  1.4949
  223MPD1    H1 3390   3.418   1.096   0.772 -0.1277  0.3883 -0.0888
  223MPD1    H2 3391   3.399   0.736   0.995 -1.3056  0.8760  0.1347
  223MPD1    H3 3392   3.320   0.972   0.944 -0.8615 -1.8083  0.2805
  223MPD1     N 3393   3.622   0.991   0.600 -0.1484  0.0461 -0.5250
  223MPD1    H5 3394   3.703   0.938   0.569 -0.8802 -0.2066 -2.0030
  223MPD1    N1 3395   3.601   0.617   0.883 -0.0706 -0.5200 -0.3859
  223MPD1    H6 3396   3.601   0.598   0.983  0.3509  3.1010  0.3072
  223MPD1    H7 3397   3.698   0.619   0.854 -1.2021 -1.4898 -4.3338
  224MPD1     C 3398   2.344   3.755   9.161 -0.3462  0.4349 -0.3348
  224MPD1    C1 3399   2.244   3.856   9.152  0.5310 -0.0968  0.2477
  224MPD1    C2 3400   2.119   3.806   9.163  0.3777 -0.3089  0.2355
  224MPD1    C3 3401   2.093   3.672   9.189  0.7025  0.1468  0.2402
  224MPD1    C4 3402   2.189   3.581   9.193 -0.0904  0.4595  0.1789
  224MPD1    C5 3403   2.314   3.621   9.178 -0.2042 -0.2592 -0.7108
  224MPD1     H 3404   2.031   3.866   9.141  1.0601  1.3334  1.9504
  224MPD1    H1 3405   2.162   3.477   9.205 -1.3865  0.7292 -0.2929
  224MPD1    H2 3406   2.449   3.777   9.148 -0.1945  0.1920  0.4214
  224MPD1    H3 3407   2.401   3.555   9.178  0.4755  0.6255  1.4283
  224MPD1     N 3408   1.954   3.634   9.222 -0.4596  0.0360 -0.4423
  224MPD1    H5 3409   1.952   3.540   9.260 -0.0841  1.0626  2.1400
  224MPD1    N1 3410   2.271   3.990   9.183  0.5459  0.1145 -0.5805
  224MPD1    H6 3411   2.361   4.011   9.141  0.7386  0.3233 -0.0624
  224MPD1    H7 3412   2.199   4.048   9.140 -0.9550 -1.0399  0.3571
  225MPD1     C 3413   2.975   0.117  12.652 -0.6932 -0.2816  0.7202
  225MPD1    C1 3414   2.990   4.719  12.590  0.0080 -0.1428 -0.1755
  225MPD1    C2 3415   2.899   4.682  12.490  0.1909  1.0347  0.2328
  225MPD1    C3 3416   2.815   0.053  12.442  0.4086  0.1379  0.3353
  225MPD1    C4 3417   2.823   0.188  12.488  0.1673 -0.9930 -0.3830
  225MPD1    C5 3418   2.898   0.218  12.593 -0.4941 -0.3860  0.2682
  225MPD1     H 3419   2.893   4.582  12.448  0.8162  0.7742  0.7683
  225MPD1    H1 3420   2.773   0.270  12.439  1.2973 -0.5986 -0.8716
  225MPD1    H2 3421   3.050   0.137  12.727  1.3154  1.1766 -1.6647
  225MPD1    H3 3422   2.898   0.321  12.625  0.6276  0.2618 -1.8412
  225MPD1     N 3423   2.700   0.027  12.358 -0.2092  0.3652 -0.2300
  225MPD1    H5 3424   2.644   0.107  12.330 -1.7304 -1.5985 -2.8291
  225MPD1    N1 3425   3.070   4.616  12.642  0.3465  0.4132  0.9688
  225MPD1    H6 3426   3.153   4.638  12.698  0.8335  1.8411 -0.3130
  225MPD1    H7 3427   3.087   4.557  12.561  2.0741  2.6557 -0.3020
  226MPD1     C 3428   1.299   0.358   9.041 -0.1160  0.1960 -0.4725
  226MPD1    C1 3429   1.391   0.387   9.139 -0.5436 -1.1155  0.0444
  226MPD1    C2 3430   1.438   0.278   9.208 -0.7312  0.7357  0.4354
  226MPD1    C3 3431   1.381   0.158   9.210  0.3058 -0.0677  0.8021
  226MPD1    C4 3432   1.269   0.139   9.140 -0.2826 -0.0357  0.4943
  226MPD1    C5 3433   1.236   0.230   9.043 -0.3678 -0.1053 -0.2822
  226MPD1     H 3434   1.515   0.286   9.285  1.1050  0.7209 -1.3964
  226MPD1    H1 3435   1.199   0.057   9.149  1.2807 -1.5624 -1.2653
  226MPD1    H2 3436   1.273   0.431   8.965  2.3613  1.7585  0.1957
  226MPD1    H3 3437   1.155   0.213   8.974  1.5636  0.3104 -2.6700
  226MPD1     N 3438   1.431   0.068   9.309 -0.0840  0.1417 -0.4505
  226MPD1    H5 3439   1.514   0.093   9.362  0.0953  1.0294 -1.1456
  226MPD1    N1 3440   1.456   0.509   9.145  0.3066 -0.4098  0.0349
  226MPD1    H6 3441   1.514   0.521   9.228  0.1216 -2.5919  0.4945
  226MPD1    H7 3442   1.398   0.587   9.118 -1.0213 -0.2346  3.3989
  227MPD1     C 3443   2.169   4.632   9.945  0.2512  0.1872 -0.5425
  227MPD1    C1 3444   2.083   4.526   9.980 -0.2967 -0.3181  0.1604
  227MPD1    C2 3445   1.962   4.510   9.917 -0.6655 -0.6131  0.2851
  227MPD1    C3 3446   1.934   4.587   9.807 -0.2431  0.0554 -0.4132
  227MPD1    C4 3447   2.028   4.675   9.755  0.4554 -0.6345 -0.4939
  227MPD1    C5 3448   2.137   4.702   9.834  0.9435 -0.2679 -0.3631
  227MPD1     H 3449   1.893   4.444   9.968 -0.8860  0.5081  1.4234
  227MPD1    H1 3450   2.001   0.015   9.672  1.3747 -0.1887 -0.4441
  227MPD1    H2 3451   2.257   4.668   9.997  0.4048 -1.4633  0.3245
  227MPD1    H3 3452   2.203   0.057   9.800  1.6491 -0.7805 -0.1878
  227MPD1     N 3453   1.813   4.563   9.744  0.4770  0.8236 -0.2281
  227MPD1    H5 3454   1.748   4.493   9.776  1.7428  0.4264  1.4735
  227MPD1    N1 3455   2.114   4.467  10.100 -0.0905 -0.0426  0.1769
  227MPD1    H6 3456   2.213   4.473  10.126  0.0169 -0.9441 -0.0125
  227MPD1    H7 3457   2.091   4.369  10.112  0.9826 -0.4249 -0.7943
  228MPD1     C 3458   4.652   1.506  13.289  0.1356  0.3922  0.4191
  228MPD1    C1 3459   4.644   1.620  13.211 -0.4945 -0.5639  0.5322
  228MPD1    C2 3460   4.535   1.706  13.208  0.1707  0.3092 -0.3009
  228MPD1    C3 3461   4.429   1.678  13.291 -0.4268 -0.2969  1.1310
  228MPD1    C4 3462   4.432   1.563  13.372 -1.0221  0.2904 -0.6890
  228MPD1    C5 3463   4.546   1.480  13.372 -0.3779 -0.3677  0.0157
  228MPD1     H 3464   4.532   1.792  13.143 -1.4787  1.6429  1.5237
  228MPD1    H1 3465   4.356   1.523  13.438 -0.1784 -0.2992 -0.0639
  228MPD1    H2 3466   0.009   1.437  13.276 -0.2507 -0.3591  1.9314
  228MPD1    H3 3467   4.546   1.394  13.438 -3.3801 -0.1646  0.2760
  228MPD1     N 3468   4.317   1.760  13.278 -0.2995  0.5021  0.4039
  228MPD1    H5 3469   4.325   1.841  13.217  0.9970  0.8217  1.0007
  228MPD1    N1 3470   0.012   1.635  13.110 -0.3978  0.1827  0.0473
  228MPD1    H6 3471   0.031   1.733  13.091 -0.7565  0.0624 -0.9220
  228MPD1    H7 3472   0.098   1.590  13.141 -1.3448 -1.6079  0.0982
  229MPD1     C 3473   3.534   0.441  15.660 -0.5241  0.2706 -0.3119
  229MPD1    C1 3474   3.526   0.366  15.543  0.1004 -0.5183  0.5292
  229MPD1    C2 3475   3.645   0.345  15.466 -0.7979  0.1772 -0.1980
  229MPD1    C3 3476   3.763   0.381  15.523 -0.0886  0.2820 -0.1339
  229MPD1    C4 3477   3.769   0.442  15.645 -0.1357  0.6253  0.2849
  229MPD1    C5 3478   3.655   0.484  15.700  0.2377 -0.6404  0.6631
  229MPD1     H 3479   3.633   0.287  15.375  0.2030 -1.4952  0.7567
  229MPD1    H1 3480   3.864   0.455  15.696  0.5890  2.6333 -1.5308
  229MPD1    H2 3481   3.445   0.472  15.713 -0.9324 -1.9567  0.2754
  229MPD1    H3 3482   3.657   0.535  15.796  0.5664 -1.0280  0.8584
  229MPD1     N 3483   3.884   0.337  15.460 -0.5400 -0.3120  0.7440
  229MPD1    H5 3484   3.969   0.358  15.512  1.8227  0.9467 -3.5498
  229MPD1    N1 3485   3.397   0.330  15.498  0.0473 -0.0754  0.1205
  229MPD1    H6 3486   3.412   0.244  15.447  1.4817  0.4436 -0.3399
  229MPD1    H7 3487   3.336   0.295  15.572  1.9601 -3.0645  0.2738
  230MPD1     C 3488   0.111   0.160  15.632  0.3810 -0.2811  0.0455
  230MPD1    C1 3489   0.117   0.131  15.499  0.1218 -0.5989  0.5634
  230MPD1    C2 3490   4.721   0.129  15.432  0.2370  0.3451 -0.3318
  230MPD1    C3 3491   4.602   0.122  15.500 -0.3690 -0.3833  0.0120
  230MPD1    C4 3492   4.597   0.140  15.640 -0.8027  0.2186  0.4776
  230MPD1    C5 3493   4.720   0.158  15.703  0.6391 -0.0672 -0.1687
  230MPD1     H 3494   4.720   0.116  15.324 -0.6190 -2.9996  0.0929
  230MPD1    H1 3495   4.507   0.146  15.701 -1.5799 -3.3709 -0.3364
  230MPD1    H2 3496   0.204   0.155  15.688  0.6747 -0.1629 -0.4387
  230MPD1    H3 3497   0.006   0.173  15.810  1.1572 -0.5795 -0.1502
  230MPD1     N 3498   4.480   0.127  15.427  0.8511  0.0107 -0.2425
  230MPD1    H5 3499   4.500   0.142  15.329  2.2799 -0.6117 -0.0406
  230MPD1    N1 3500   0.240   0.142  15.434  0.6593 -0.0227 -0.4316
  230MPD1    H6 3501   0.319   0.111  15.491  0.1138  1.6613  1.2424
  230MPD1    H7 3502   0.246   0.096  15.344 -0.0063  1.2110 -1.0976
  231MPD1     C 3503   2.499   1.900  15.553  0.3191 -0.7210  0.3122
  231MPD1    C1 3504   2.389   1.989  15.569  0.2062 -0.1431  0.2788
  231MPD1    C2 3505   2.394   2.103  15.488 -0.3550 -0.0877  0.4770
  231MPD1    C3 3506   2.493   2.114  15.389  0.1147  0.0416  0.6360
  231MPD1    C4 3507   2.590   2.018  15.372  0.1607 -0.4187 -0.0670
  231MPD1    C5 3508   2.594   1.914  15.456  0.2178 -1.2517  0.0789
  231MPD1     H 3509   2.307   2.168  15.485  0.0916  0.3937 -2.3683
  231MPD1    H1 3510   2.663   2.019  15.291 -0.7958 -2.0718 -0.9404
  231MPD1    H2 3511   2.514   1.811  15.614 -0.6263  0.1335  1.8008
  231MPD1    H3 3512   2.669   1.836  15.460  0.3271 -1.1152  0.6525
  231MPD1     N 3513   2.476   2.220  15.296 -0.3354  0.0371  0.7093
  231MPD1    H5 3514   2.395   2.279  15.312 -0.3210  0.2416  0.0156
  231MPD1    N1 3515   2.295   1.981  15.675  0.0438 -0.1608  0.6975
  231MPD1    H6 3516   2.277   1.883  15.697  1.0329 -0.6404 -0.6539
  231MPD1    H7 3517   2.209   2.025  15.642 -0.5871 -1.9502 -0.0216
  232MPD1     C 3518   4.308   4.603  17.696  0.1512 -0.2745 -0.3352
  232MPD1    C1 3519   4.273   4.570   0.122 -0.3884  0.0159  0.5062
  232MPD1    C2 3520   4.202   4.449   0.134 -0.3535  0.2710  0.1946
  232MPD1    C3 3521   4.147   4.385   0.029  0.0571 -0.1164 -0.7323
  232MPD1    C4 3522   4.165   4.434  17.605 -0.2422  0.7047 -0.0607
  232MPD1    C5 3523   4.253   4.536  17.586  0.0312  0.0544 -0.2097
  232MPD1     H 3524   4.179   4.413   0.234  1.9055 -0.2323  0.5335
  232MPD1    H1 3525   4.136   4.385  17.513  1.1859  2.0014 -1.2184
  232MPD1    H2 3526   4.363   4.694  17.679 -1.7587  1.4563  2.6665
  232MPD1    H3 3527   4.272   4.585  17.491  0.4646  0.3581  0.0339
  232MPD1     N 3528   4.062   4.278   0.063 -0.5560  0.2288  1.0596
  232MPD1    H5 3529   4.078   4.246   0.158  1.1010  1.2790  1.1502
  232MPD1    N1 3530   4.318   4.641   0.233 -0.5115 -0.3056 -0.6883
  232MPD1    H6 3531   4.261   4.614   0.312 -1.4499  1.4622 -0.7700
  232MPD1    H7 3532   4.309   0.017   0.224 -3.8682 -0.6086 -0.5265
  233MPD1     C 3533   3.873   2.490   0.491 -0.2501  0.4380 -0.0887
  233MPD1    C1 3534   3.978   2.558   0.426 -0.0532 -0.4748 -0.0443
  233MPD1    C2 3535   4.096   2.496   0.413 -0.2086  0.5277 -0.0874
  233MPD1    C3 3536   4.124   2.376   0.477  0.3856 -0.7429  0.1603
  233MPD1    C4 3537   4.019   2.305   0.535  1.2545 -0.0370 -0.1631
  233MPD1    C5 3538   3.896   2.363   0.527 -0.1867 -0.5605  0.3917
  233MPD1     H 3539   4.173   2.550   0.359  0.0269 -0.5245 -0.7877
  233MPD1    H1 3540   4.036   2.210   0.585 -0.3905 -0.0693  0.3250
  233MPD1    H2 3541   3.776   2.537   0.498 -0.3136  0.0350  1.7981
  233MPD1    H3 3542   3.815   2.308   0.573 -0.5476 -1.1875 -0.9960
  233MPD1     N 3543   4.247   2.316   0.478  0.3895  0.5702 -0.2684
  233MPD1    H5 3544   4.255   2.233   0.536 -1.7929  0.1868 -0.5189
  233MPD1    N1 3545   3.961   2.676   0.350  0.1722  0.5192  0.5172
  233MPD1    H6 3546   3.884   2.734   0.384  0.1011  1.6559 -1.5960
  233MPD1    H7 3547   4.050   2.723   0.336  0.4743 -0.9102 -2.2409
  234MPD1     C 3548   1.247   1.855   9.626  0.3994 -0.5088  0.5308
  234MPD1    C1 3549   1.347   1.924   9.693  0.3968 -0.0678 -0.4413
  234MPD1    C2 3550   1.349   2.063   9.672  0.6786 -0.3206 -0.0593
  234MPD1    C3 3551   1.260   2.128   9.587  0.3993 -0.6541 -0.0526
  234MPD1    C4 3552   1.172   2.051   9.518  0.3457 -0.6342  0.0477
  234MPD1    C5 3553   1.159   1.913   9.540  0.4680  0.6831  1.1863
  234MPD1     H 3554   1.422   2.121   9.728  1.7850 -0.4625 -1.3483
  234MPD1    H1 3555   1.106   2.098   9.446  0.7862  0.1723  0.1691
  234MPD1    H2 3556   1.231   1.751   9.655  1.5433 -1.0520 -0.7942
  234MPD1    H3 3557   1.098   1.844   9.483  0.8767  1.5279 -0.2846
  234MPD1     N 3558   1.259   2.269   9.594  0.0946  0.2279  0.2841
  234MPD1    H5 3559   1.341   2.310   9.638 -0.7348  0.9786  1.1287
  234MPD1    N1 3560   1.414   1.868   9.803  0.4214 -0.4597  0.2549
  234MPD1    H6 3561   1.436   1.769   9.799  2.5290  0.0598 -1.0007
  234MPD1    H7 3562   1.506   1.911   9.808 -0.5627  1.8748 -1.5704
  235MPD1     C 3563   3.917   1.553   9.912  0.1873 -0.5279  0.1698
  235MPD1    C1 3564   3.854   1.532   9.789  0.3867  0.3412  0.5166
  235MPD1    C2 3565   3.834   1.406   9.738  1.3484  0.0735  0.5948
  235MPD1    C3 3566   3.895   1.295   9.804 -0.6418  0.6923  1.2429
  235MPD1    C4 3567   3.971   1.318   9.921 -0.1391 -0.5491  0.3242
  235MPD1    C5 3568   3.975   1.448   9.974 -0.2565  0.2248 -0.1185
  235MPD1     H 3569   3.784   1.380   9.645 -0.1656 -0.3259  1.5197
  235MPD1    H1 3570   4.035   1.249   9.975 -1.1455 -2.2952 -0.7136
  235MPD1    H2 3571   3.913   1.652   9.957  0.1985 -0.0205 -0.9574
  235MPD1    H3 3572   4.027   1.480  10.064  2.7352  1.0902 -2.1362
  235MPD1     N 3573   3.871   1.167   9.749 -0.4154  0.0241  0.5079
  235MPD1    H5 3574   3.819   1.168   9.662  2.5795 -0.0937 -1.2733
  235MPD1    N1 3575   3.787   1.642   9.739  0.6349 -0.3156 -0.1338
  235MPD1    H6 3576   3.783   1.638   9.637 -4.3946  0.6407 -0.0171
  235MPD1    H7 3577   3.834   1.730   9.758  0.7289 -1.1321  3.3424
  236MPD1     C 3578   1.984   1.897   9.806 -0.1035 -1.3095  0.6723
  236MPD1    C1 3579   2.015   1.841   9.928  0.1441 -0.1616 -0.6969
  236MPD1    C2 3580   2.113   1.739   9.936 -0.0443 -0.4780  0.2203
  236MPD1    C3 3581   2.188   1.696   9.826 -0.6430  0.6348  0.1406
  236MPD1    C4 3582   2.153   1.753   9.704 -0.4007  0.9031 -0.1078
  236MPD1    C5 3583   2.057   1.854   9.692  0.5760 -0.1106  0.4652
  236MPD1     H 3584   2.133   1.697  10.034 -0.1061  0.8725  0.8195
  236MPD1    H1 3585   2.206   1.724   9.614 -0.1121 -0.9002  0.6509
  236MPD1    H2 3586   1.910   1.974   9.794 -0.2119 -1.7290 -1.3751
  236MPD1    H3 3587   2.041   1.903   9.597 -0.5935 -1.0195  0.1978
  236MPD1     N 3588   2.293   1.599   9.829  0.3416  0.1323  0.1527
  236MPD1    H5 3589   2.348   1.583   9.745  1.3582  0.3759  0.7737
  236MPD1    N1 3590   1.955   1.904  10.037  0.9868 -0.2812  0.4632
  236MPD1    H6 3591   1.865   1.945  10.013 -0.1181 -2.5838  0.6933
  236MPD1    H7 3592   2.010   1.986  10.061  0.0184  0.2853  0.7659
  237MPD1     C 3593   2.767   3.232  15.519 -0.4927  0.8413  0.3437
  237MPD1    C1 3594   2.694   3.308  15.609  0.0710 -0.0588 -0.2704
  237MPD1    C2 3595   2.567   3.350  15.569 -0.1398 -0.2469 -0.3189
  237MPD1    C3 3596   2.527   3.354  15.437 -0.8719 -0.1878  0.0728
  237MPD1    C4 3597   2.614   3.302  15.346 -0.1590  0.5103 -0.2536
  237MPD1    C5 3598   2.724   3.229  15.389 -0.1650 -0.5368 -0.1498
  237MPD1     H 3599   2.499   3.378  15.649  0.5272 -0.2340  0.2502
  237MPD1    H1 3600   2.598   3.291  15.240 -2.1430 -0.5269  0.1573
  237MPD1    H2 3601   2.861   3.185  15.544 -0.4418  0.3599 -0.7469
  237MPD1    H3 3602   2.785   3.193  15.308 -0.5103 -0.6945 -0.3403
  237MPD1     N 3603   2.416   3.424  15.388  0.4839  0.4992 -0.6238
  237MPD1    H5 3604   2.410   3.419  15.287  1.4193  0.8183 -0.6905
  237MPD1    N1 3605   2.725   3.297  15.748  0.2687 -0.4742  0.0625
  237MPD1    H6 3606   2.671   3.361  15.805 -0.0442 -1.9527  1.4053
  237MPD1    H7 3607   2.822   3.318  15.771 -0.0670 -0.1876  1.2079
  238MPD1     C 3608   0.089   2.701  15.109 -0.2241 -0.1554  0.2229
  238MPD1    C1 3609   0.013   2.754  15.211 -0.8331  0.6959 -0.8011
  238MPD1    C2 3610   4.604   2.751  15.184  0.0142 -0.1557  1.3559
  238MPD1    C3 3611   4.554   2.758  15.053 -0.6675  0.2076 -0.1462
  238MPD1    C4 3612   4.632   2.714  14.955  0.2717  0.5529  0.1782
  238MPD1    C5 3613   0.035   2.671  14.989 -0.4963 -0.6512 -0.0937
  238MPD1     H 3614   4.542   2.775  15.269 -3.8029  0.9990 -1.7687
  238MPD1    H1 3615   4.589   2.715  14.855  1.0819 -0.8717 -0.1893
  238MPD1    H2 3616   0.196   2.692  15.127 -1.0952 -2.5281  4.3129
  238MPD1    H3 3617   0.111   2.644  14.916  1.7011  1.1308  1.5292
  238MPD1     N 3618   4.428   2.819  15.014 -0.1476 -0.4068 -0.2835
  238MPD1    H5 3619   4.402   2.814  14.915 -0.1865  0.6727 -0.3303
  238MPD1    N1 3620   0.064   2.751  15.344 -0.3117 -0.5809  0.5278
  238MPD1    H6 3621   0.159   2.725  15.368  0.4135  2.3501  0.8701
  238MPD1    H7 3622   0.024   2.827  15.398  1.7173  0.2195  0.9252
  239MPD1     C 3623   4.334   3.560  14.985 -0.4687  0.0539 -0.0901
  239MPD1    C1 3624   4.439   3.575  14.894 -0.3637  0.0847  0.5292
  239MPD1    C2 3625   4.405   3.603  14.764  0.0940 -0.1238 -0.1008
  239MPD1    C3 3626   4.275   3.600  14.713 -0.3378 -0.1664  0.1731
  239MPD1    C4 3627   4.180   3.588  14.808 -0.3713 -0.2128  0.4891
  239MPD1    C5 3628   4.208   3.565  14.939 -0.2739  0.0626 -0.0239
  239MPD1     H 3629   4.491   3.621  14.700 -0.8610 -0.0018 -1.3710
  239MPD1    H1 3630   4.077   3.604  14.777  0.2168  0.7956 -0.9279
  239MPD1    H2 3631   4.360   3.538  15.088 -0.6200 -0.1495 -0.0952
  239MPD1    H3 3632   4.132   3.568  15.017 -0.8594 -1.6778 -0.5376
  239MPD1     N 3633   4.240   3.606  14.572 -0.0068 -0.2208 -0.7410
  239MPD1    H5 3634   4.142   3.602  14.547  0.0156  0.3511 -0.9129
  239MPD1    N1 3635   4.564   3.590  14.948  0.4788 -0.0321  0.2196
  239MPD1    H6 3636   4.635   3.590  14.875 -2.2372 -0.6069 -2.4290
  239MPD1    H7 3637   4.589   3.536  15.030  1.8883 -0.7930 -0.7056
  240MPD1     C 3638   3.516   3.323  14.107 -0.3652  0.1742 -0.2095
  240MPD1    C1 3639   3.446   3.200  14.116  0.3942  0.1449  0.4136
  240MPD1    C2 3640   3.488   3.119  14.223  0.0736 -0.1834 -0.1642
  240MPD1    C3 3641   3.566   3.161  14.332  0.4649  0.1025 -0.2021
  240MPD1    C4 3642   3.622   3.284  14.331  0.3004  0.3650 -0.0650
  240MPD1    C5 3643   3.599   3.366  14.213  0.2402 -0.0171  0.1682
  240MPD1     H 3644   3.443   3.021  14.235 -1.0671  0.3868  0.2756
  240MPD1    H1 3645   3.677   3.332  14.412 -0.5274 -0.8568  1.2102
  240MPD1    H2 3646   3.494   3.386  14.022 -1.2918  0.8975  0.5617
  240MPD1    H3 3647   3.657   3.457  14.198 -1.1292  1.0994  1.5717
  240MPD1     N 3648   3.588   3.072  14.438  0.5186 -0.0322  0.5122
  240MPD1    H5 3649   3.566   2.976  14.416  0.1661  0.7275 -2.5033
  240MPD1    N1 3650   3.363   3.158  14.010  0.6801 -0.6822  0.2099
  240MPD1    H6 3651   3.300   3.232  13.981  0.7245  0.4773  3.0023
  240MPD1    H7 3652   3.299   3.086  14.044  0.0671  0.4264  1.3976
  241MPD1     C 3653   3.560   3.240  15.431  0.1569 -0.2707  0.1871
  241MPD1    C1 3654   3.567   3.103  15.419  0.4629 -0.6638  0.2633
  241MPD1    C2 3655   3.610   3.048  15.296  0.4014  1.1818  0.1210
  241MPD1    C3 3656   3.633   3.130  15.188 -0.4272 -0.2381 -0.2725
  241MPD1    C4 3657   3.632   3.267  15.210  0.3200  0.5705 -0.2378
  241MPD1    C5 3658   3.593   3.323  15.325  0.0673 -0.4272 -0.2204
  241MPD1     H 3659   3.613   2.941  15.282  0.6230  1.4025 -1.5247
  241MPD1    H1 3660   3.661   3.333  15.129  1.9934 -0.3016 -0.3537
  241MPD1    H2 3661   3.531   3.274  15.529 -0.0254  0.5972 -0.1713
  241MPD1    H3 3662   3.578   3.429  15.345  0.4378 -0.1839 -1.2423
  241MPD1     N 3663   3.644   3.089  15.050 -0.0515  0.3745  0.3000
  241MPD1    H5 3664   3.658   3.164  14.983 -0.7915  0.7986  0.6177
  241MPD1    N1 3665   3.554   3.022  15.536 -0.2378 -0.2292  0.2339
  241MPD1    H6 3666   3.503   2.939  15.510 -0.9343  0.4252 -0.5023
  241MPD1    H7 3667   3.507   3.057  15.619 -1.1475  0.6551 -0.6457
  242MPD1     C 3668   3.829   1.901  15.245 -0.4167 -0.0744 -0.5743
  242MPD1    C1 3669   3.727   1.865  15.158  0.2920 -0.6945 -0.2624
  242MPD1    C2 3670   3.648   1.753  15.188 -0.7312 -0.1340  0.7096
  242MPD1    C3 3671   3.667   1.686  15.313 -0.0817  0.4013 -0.2778
  242MPD1    C4 3672   3.776   1.717  15.389  0.3323  0.6951  0.3621
  242MPD1    C5 3673   3.860   1.821  15.355 -0.6213 -0.3321 -0.3033
  242MPD1     H 3674   3.569   1.723  15.120  0.2979  0.1731 -0.6403
  242MPD1    H1 3675   3.807   1.656  15.473  2.4145  0.6029 -0.4791
  242MPD1    H2 3676   3.904   1.974  15.219 -0.4634  0.1931  0.0588
  242MPD1    H3 3677   3.944   1.839  15.422  0.4072  0.6816 -1.8794
  242MPD1     N 3678   3.594   1.570  15.350 -0.6427 -0.8346  0.1141
  242MPD1    H5 3679   3.609   1.532  15.442 -0.8588  1.2079  0.9953
  242MPD1    N1 3680   3.690   1.965  15.066 -0.0396  0.7310 -0.0384
  242MPD1    H6 3681   3.654   1.931  14.977  0.3165 -2.7140  1.1128
  242MPD1    H7 3682   3.764   2.031  15.041  0.1163  0.0524 -1.4045
  243MPD1     C 3683   1.072   4.514  17.215 -0.0289  0.2197 -0.7834
  243MPD1    C1 3684   0.943   4.529  17.225  0.4417 -0.4079 -0.3258
  243MPD1    C2 3685   0.882   4.630  17.154 -0.0822 -0.1039 -0.7002
  243MPD1    C3 3686   0.961   4.718  17.078 -0.1687  0.4175  0.1040
  243MPD1    C4 3687   1.100   4.721  17.086  0.4625  0.2577 -0.1385
  243MPD1    C5 3688   1.153   4.615  17.158  0.3222 -0.1259  0.0509
  243MPD1     H 3689   0.774   4.636  17.147 -0.0140 -0.8719 -2.6519
  243MPD1    H1 3690   1.168   0.068  17.042 -0.5126  0.4784 -1.2846
  243MPD1    H2 3691   1.118   4.419  17.242 -1.0063  0.3037  1.1971
  243MPD1    H3 3692   1.254   4.582  17.138  0.0169 -0.8062 -0.3781
  243MPD1     N 3693   0.895   0.088  16.994  0.1924 -0.3071 -0.3779
  243MPD1    H5 3694   0.797   0.108  17.010  0.3604 -0.5322  0.9529
  243MPD1    N1 3695   0.869   4.426  17.281 -0.0018  0.3858  0.4981
  243MPD1    H6 3696   0.783   4.452  17.328  0.1333  0.1895  0.8462
  243MPD1    H7 3697   0.916   4.369  17.351 -0.5041  0.4210  0.8591
  244MPD1     C 3698   0.138   0.670  17.002 -0.4144 -0.2516  0.4044
  244MPD1    C1 3699   0.129   0.552  16.929  0.1826 -0.1046 -0.4227
  244MPD1    C2 3700   0.248   0.492  16.899 -0.7017 -0.0864  0.0985
  244MPD1    C3 3701   0.372   0.541  16.923  0.1649 -0.5366  0.2559
  244MPD1    C4 3702   0.380   0.650  17.002  0.4802 -0.4716 -0.3377
  244MPD1    C5 3703   0.261   0.718  17.041  0.1188 -0.3435 -0.4300
  244MPD1     H 3704   0.245   0.406  16.832 -0.8842  0.3475 -0.4485
  244MPD1    H1 3705   0.475   0.697  17.023  0.3575 -0.3017 -0.1620
  244MPD1    H2 3706   0.048   0.721  17.033  0.6268  1.6160  0.3144
  244MPD1    H3 3707   0.260   0.813  17.094 -1.2153 -1.2278  1.1446
  244MPD1     N 3708   0.483   0.476  16.869 -0.0306 -0.6820  0.0420
  244MPD1    H5 3709   0.469   0.417  16.787  4.1933 -0.9817 -0.4604
  244MPD1    N1 3710   0.003   0.497  16.903  0.3957  0.0312 -0.1842
  244MPD1    H6 3711   4.648   0.558  16.916  0.9622  1.0119 -1.3868
  244MPD1    H7 3712   0.009   0.449  16.813  1.7814  1.4993 -0.8576
  245MPD1     C 3713   2.454   0.841  13.068  0.1872 -0.2543 -0.5075
  245MPD1    C1 3714   2.343   0.836  13.143  0.0077  0.4146 -0.1402
  245MPD1    C2 3715   2.312   0.949  13.215  0.3639  0.1249 -0.7947
  245MPD1    C3 3716   2.397   1.053  13.224  0.9959  0.1322  0.5543
  245MPD1    C4 3717   2.515   1.051  13.157 -0.6657 -1.0221 -0.1335
  245MPD1    C5 3718   2.536   0.950  13.068 -0.5242  0.1073 -0.1079
  245MPD1     H 3719   2.218   0.970  13.264 -0.2004  0.5398 -2.0512
  245MPD1    H1 3720   2.583   1.135  13.156 -1.4926 -0.3760 -2.1370
  245MPD1    H2 3721   2.471   0.759  13.000  2.3934  0.1297 -0.4054
  245MPD1    H3 3722   2.627   0.953  13.009  1.2563  1.9163  2.7435
  245MPD1     N 3723   2.360   1.158  13.308  0.6024 -0.0211  0.3443
  245MPD1    H5 3724   2.272   1.143  13.356  0.1542  0.5037 -0.3095
  245MPD1    N1 3725   2.246   0.741  13.116 -0.4576  0.6387  0.4611
  245MPD1    H6 3726   2.182   0.731  13.195  0.5473 -0.5570  1.1244
  245MPD1    H7 3727   2.288   0.651  13.095 -2.6315 -0.1999 -0.3162
  246MPD1     C 3728   3.903   1.919   8.233  0.0127  0.3914 -0.7543
  246MPD1    C1 3729   3.873   1.802   8.164  0.1942 -0.1753 -0.1067
  246MPD1    C2 3730   3.769   1.721   8.212 -0.2281 -0.2630  0.3645
  246MPD1    C3 3731   3.717   1.751   8.337  0.0829  0.8873 -0.2907
  246MPD1    C4 3732   3.748   1.866   8.412  0.3006  0.4392  0.2828
  246MPD1    C5 3733   3.831   1.956   8.347  0.8669 -0.2517 -0.1901
  246MPD1     H 3734   3.738   1.634   8.155  0.4963  0.8537 -1.7599
  246MPD1    H1 3735   3.702   1.895   8.506 -0.4285 -2.0649  0.6779
  246MPD1    H2 3736   3.982   1.988   8.207 -0.0231  0.5187 -0.5337
  246MPD1    H3 3737   3.874   2.042   8.398 -1.6963 -0.0529  1.6219
  246MPD1     N 3738   3.622   1.655   8.383  0.1314 -0.3368 -0.3048
  246MPD1    H5 3739   3.607   1.578   8.318 -0.7075 -0.2238 -0.2374
  246MPD1    N1 3740   3.914   1.787   8.032  0.5424  0.3652 -0.2677
  246MPD1    H6 3741   3.924   1.691   8.000 -2.1679 -0.5270  1.5510
  246MPD1    H7 3742   3.997   1.844   8.015 -0.0306  1.7785  1.7232
  247MPD1     C 3743   1.959   0.371  17.210 -0.3246 -0.4841  0.5936
  247MPD1    C1 3744   1.952   0.483  17.122  1.0154 -0.1726  0.0179
  247MPD1    C2 3745   1.915   0.465  16.990 -0.7803  0.1655 -0.4519
  247MPD1    C3 3746   1.858   0.342  16.955  0.1080  0.2573  0.6827
  247MPD1    C4 3747   1.843   0.242  17.041  0.3413 -0.5016  0.4772
  247MPD1    C5 3748   1.894   0.256  17.167  0.2432  0.2706 -0.8809
  247MPD1     H 3749   1.914   0.548  16.920  2.8224  0.2052 -0.4387
  247MPD1    H1 3750   1.804   0.148  17.004  4.2397 -0.8825 -2.7174
  247MPD1    H2 3751   2.015   0.382  17.302  0.6372  1.3483 -0.2187
  247MPD1    H3 3752   1.881   0.161  17.219 -0.4043  0.6893 -0.2852
  247MPD1     N 3753   1.815   0.315  16.823 -0.1415  0.5987  0.4014
  247MPD1    H5 3754   1.775   0.223  16.808  0.8272  0.8312 -3.4416
  247MPD1    N1 3755   2.015   0.600  17.163  0.4784  0.3217 -0.2459
  247MPD1    H6 3756   1.993   0.620  17.261 -0.5301  2.6868 -0.9610
  247MPD1    H7 3757   1.995   0.686  17.112 -0.6947  1.1670  1.6113
  248MPD1     C 3758   2.555   0.684   0.892  0.2967 -0.5928 -0.5113
  248MPD1    C1 3759   2.516   0.562   0.949 -0.3588  0.3102  0.0326
  248MPD1    C2 3760   2.513   0.451   0.867 -0.0534  0.5209 -0.3821
  248MPD1    C3 3761   2.548   0.454   0.731 -0.5811  0.0807  0.0434
  248MPD1    C4 3762   2.597   0.574   0.682 -0.3159 -0.2757  0.2583
  248MPD1    C5 3763   2.611   0.687   0.764 -0.2794 -0.3959 -0.9333
  248MPD1     H 3764   2.463   0.366   0.910  3.3780 -1.9905 -1.4224
  248MPD1    H1 3765   2.626   0.567   0.578  1.3102  1.7445  0.5863
  248MPD1    H2 3766   2.566   0.773   0.954 -2.5212 -0.1440 -0.6643
  248MPD1    H3 3767   2.660   0.770   0.716 -0.5955 -0.3207 -1.1258
  248MPD1     N 3768   2.534   0.333   0.657 -0.1664 -0.1174 -0.2539
  248MPD1    H5 3769   2.515   0.243   0.700 -1.7195 -0.3627 -1.4549
  248MPD1    N1 3770   2.478   0.547   1.083 -0.0332  0.2374  0.2087
  248MPD1    H6 3771   2.513   0.459   1.122  0.0267 -0.0503 -0.4942
  248MPD1    H7 3772   2.519   0.624   1.136 -2.1327  0.8190  1.0060
  249MPD1     C 3773   4.189   4.059  10.206  0.6538 -0.1377 -0.1340
  249MPD1    C1 3774   4.129   4.181  10.196  0.2362 -0.6273 -0.0127
  249MPD1    C2 3775   4.084   4.214  10.073 -0.2980  0.3038  0.4108
  249MPD1    C3 3776   4.126   4.148   9.956 -0.4801  0.3777  0.3755
  249MPD1    C4 3777   4.203   4.033   9.969 -0.0936  0.2386 -0.1385
  249MPD1    C5 3778   4.230   3.990  10.094 -0.1051 -0.1431 -0.2141
  249MPD1     H 3779   4.015   4.298  10.068  1.4836  1.7473  0.2917
  249MPD1    H1 3780   4.232   3.973   9.883  0.1967 -0.7005  0.6155
  249MPD1    H2 3781   4.219   4.020  10.303 -0.2802 -0.5036  0.0058
  249MPD1    H3 3782   4.271   3.890  10.104 -2.2039 -1.1109 -1.2977
  249MPD1     N 3783   4.066   4.199   9.832  0.4977 -0.0764  0.2919
  249MPD1    H5 3784   4.009   4.283   9.828  0.9611  0.2147 -0.3563
  249MPD1    N1 3785   4.074   4.254  10.306  0.2084  0.1999  0.1992
  249MPD1    H6 3786   4.067   4.352  10.279 -0.1684  0.0694 -0.1784
  249MPD1    H7 3787   4.128   4.237  10.391 -0.3752 -1.0825  0.3093
  250MPD2     C 3788   4.437   3.698  12.732 -0.1335  0.4433  0.0826
  250MPD2    C1 3789   4.487   3.759  12.621  0.6452  0.2337 -0.0533
  250MPD2    C2 3790   4.438   3.719  12.499  0.8687  0.3630  0.7420
  250MPD2    C3 3791   4.351   3.613  12.496  0.2702  0.7516 -0.8137
  250MPD2    C4 3792   4.304   3.553  12.608  0.1487 -0.0900  0.4266
  250MPD2    C5 3793   4.339   3.609  12.726 -0.5206 -0.1543  0.5740
  250MPD2     H 3794   4.483   3.755  12.407 -0.1258 -1.1931 -0.3633
  250MPD2    H1 3795   4.228   3.476  12.597  1.8371 -1.7722  0.4895
  250MPD2    H2 3796   4.472   3.732  12.829  0.0245 -1.6862  0.7686
  250MPD2    H3 3797   4.298   3.569  12.818 -1.4086  0.2085  0.3359
  250MPD2     N 3798   4.313   3.557  12.374 -0.6514 -0.2410 -0.0227
  250MPD2    H5 3799   4.266   3.468  12.380 -0.3453 -0.4959 -1.2979
  250MPD2    N1 3800   4.597   3.848  12.641  0.3324 -0.1936  0.2347
  250MPD2    H7 3801   4.634   3.856  12.735  0.8769  0.9874 -0.0840
  251TMC3    C1 3802   0.054   3.983  12.586  0.6461  0.1919  0.4189
  251TMC3    C2 3803   0.031   4.075  12.684  0.0189 -0.1452  0.3188
  251TMC3    C3 3804   0.139   4.144  12.729 -0.4987  0.1307  0.4314
  251TMC3    C4 3805   0.172   3.971  12.519  0.4082  0.7532  0.3572
  251TMC3    C5 3806   0.275   4.048  12.566  0.3471 -0.3921 -0.3248
  251TMC3    C6 3807   0.263   4.142  12.666  0.0997 -0.1578 -0.1506
  251TMC3     C 3808   4.670   3.898  12.541  0.6949 -0.7384 -0.1008
  251TMC3     O 3809   4.653   3.895  12.420  0.0334  0.7108  0.1308
  251TMC3     H 3810   4.666   4.079  12.743 -0.5754  0.5069 -0.6231
  251TMC3    H1 3811   0.190   3.897  12.442  0.1366 -1.3900  2.3495
  251TMC3    H2 3812   0.345   4.186  12.723 -0.9834  0.9438  0.5654
  251TMC3    C7 3813   0.404   4.008  12.526 -0.3146 -0.6108 -0.3483
  251TMC3    C8 3814   0.103   4.255  12.817 -0.2526  0.1109  0.1729
  251TMC3    O1 3815   0.432   3.891  12.516  0.1934 -0.6498  0.2898
  251TMC3    O2 3816   0.006   4.232  12.889 -0.2134  0.1814 -0.4856
  252TMC3    C1 3817   1.038   0.248   9.398  0.2137  0.2158 -0.3945
  252TMC3    C2 3818   1.080   0.379   9.389 -0.1361 -0.0622  0.2221
  252TMC3    C3 3819   1.043   0.447   9.276 -0.4584  0.6783 -0.3163
  252TMC3    C4 3820   0.976   0.173   9.299  0.4543 -0.0899 -0.9841
  252TMC3    C5 3821   0.939   0.255   9.189 -0.1545 -0.0732 -0.2724
  252TMC3    C6 3822   0.969   0.389   9.177  0.1385  0.4579 -0.0369
  252TMC3     C 3823   1.089   0.193   9.527 -0.1752 -0.0812 -0.5908
  252TMC3     O 3824   1.114   0.272   9.619  0.5357 -0.0042  1.0023
  252TMC3     H 3825   1.119   0.431   9.476 -1.2325  0.9842  0.0941
  252TMC3    H1 3826   0.952   0.069   9.318 -0.4376  0.1435 -0.8581
  252TMC3    H2 3827   0.942   0.448   9.091  1.7031  2.6421  0.9701
  252TMC3    C7 3828   0.857   0.210   9.070 -0.5348  0.2405 -0.1080
  252TMC3    C8 3829   1.086   0.583   9.245 -0.2679 -0.1504  0.1897
  252TMC3    O1 3830   0.822   0.299   8.996 -0.3900 -0.1085 -0.2865
  252TMC3    O2 3831   1.068   0.626   9.132  0.0156  0.2862  0.2971
  253MPD2     C 3832   1.985   0.073  15.752  0.9688  0.0293  0.5831
  253MPD2    C1 3833   1.892   4.701  15.703  0.3709 -0.3245 -0.2892
  253MPD2    C2 3834   1.918   4.562  15.717  0.9204  0.2817 -0.5315
  253MPD2    C3 3835   2.032   4.530  15.795  0.6752  0.4602 -0.1845
  253MPD2    C4 3836   2.119   4.630  15.839 -0.0753  0.1699 -0.0566
  253MPD2    C5 3837   2.100   0.039  15.821  0.5345  0.1575  0.0811
  253MPD2     H 3838   1.847   4.486  15.685 -0.5009  1.6844 -0.7073
  253MPD2    H1 3839   2.211   4.600  15.889  0.6551  2.0590 -0.2825
  253MPD2    H2 3840   1.968   0.179  15.743 -1.4642 -0.2791  1.6856
  253MPD2    H3 3841   2.167   0.113  15.862  0.7089 -1.6302  3.0146
  253MPD2     N 3842   2.049   4.391  15.845  0.2760  0.6964 -0.1358
  253MPD2    H5 3843   2.102   4.382  15.931  1.1996  0.9192 -0.6857
  253MPD2    N1 3844   1.763   0.005  15.654 -0.1891 -0.4989 -0.0164
  253MPD2    H7 3845   1.706   4.651  15.625  0.3624 -1.0523  0.3965
  254TMC3    C1 3846   1.958   4.173  15.886  0.3012 -0.4975 -0.2120
  254TMC3    C2 3847   1.824   4.140  15.887 -0.0509 -0.2171  0.2724
  254TMC3    C3 3848   1.760   4.093  15.997 -0.7232 -0.1935 -0.1436
  254TMC3    C4 3849   2.040   4.152  15.995 -0.4296  0.2970  0.3285
  254TMC3    C5 3850   1.971   4.086  16.098  0.7729  0.5084  0.6423
  254TMC3    C6 3851   1.838   4.048  16.096  0.1083  0.0340 -0.4881
  254TMC3     C 3852   1.976   4.283  15.796  0.4282  0.2988  0.1060
  254TMC3     O 3853   1.916   4.282  15.691  0.3871  0.4383 -0.8585
  254TMC3     H 3854   1.767   4.168  15.799 -0.4684 -0.1726  0.5522
  254TMC3    H1 3855   2.140   4.195  15.998 -0.9545  1.6259 -1.3388
  254TMC3    H2 3856   1.790   3.992  16.175 -1.6060 -0.2351 -1.7295
  254TMC3    C7 3857   2.031   4.082  16.234  0.1318 -0.0443 -0.5835
  254TMC3    C8 3858   1.623   4.136  16.037 -0.7053  0.1089 -0.8681
  254TMC3    O1 3859   1.957   4.043  16.323  0.4037  0.6724 -0.5255
  254TMC3    O2 3860   1.576   4.081  16.138 -0.2709  0.1328  0.7583
  255MPD2     C 3861   4.450   1.176   9.989 -0.1643 -0.0252 -0.1396
  255MPD2    C1 3862   4.442   1.298   9.937 -0.4210 -0.5514  0.0909
  255MPD2    C2 3863   4.522   1.395   9.980  0.1088 -0.6993  0.0617
  255MPD2    C3 3864   4.629   1.371  10.064 -0.4059 -0.1968  0.3358
  255MPD2    C4 3865   4.645   1.246  10.116  0.4022 -1.1471 -0.2617
  255MPD2    C5 3866   4.548   1.149  10.084  0.5875  0.0278  0.0263
  255MPD2     H 3867   4.513   1.499   9.950  0.5674 -0.2736  1.3938
  255MPD2    H1 3868   4.721   1.215  10.187  2.1326  0.4698 -1.4204
  255MPD2    H2 3869   4.385   1.096   9.955 -0.5566 -0.6298  1.9810
  255MPD2    H3 3870   4.557   1.050  10.127  0.1344  0.1965  0.5121
  255MPD2     N 3871   4.723   1.476  10.084 -0.3547  0.1458 -0.4681
  255MPD2    H5 3872   4.702   1.565  10.040 -1.4065  0.9862  1.7434
  255MPD2    N1 3873   4.341   1.317   9.846 -0.6495 -0.5109  0.0362
  255MPD2    H7 3874   4.289   1.236   9.814  1.7531 -2.0057 -0.0556
  256TMC3    C1 3875   4.217   1.423   9.682  0.1411  0.3378 -0.5642
  256TMC3    C2 3876   4.141   1.533   9.651  0.2265  0.1026 -0.3271
  256TMC3    C3 3877   4.081   1.533   9.533 -0.3824  0.0066  0.6387
  256TMC3    C4 3878   4.240   1.325   9.594 -0.0091  0.4721  0.1614
  256TMC3    C5 3879   4.152   1.320   9.484 -1.0803  0.4604 -0.4854
  256TMC3    C6 3880   4.080   1.427   9.446  0.3919 -0.4582  0.0566
  256TMC3     C 3881   4.305   1.437   9.796  0.2332 -0.1072  0.1471
  256TMC3     O 3882   4.332   1.549   9.832  0.1350  0.1950 -0.0042
  256TMC3     H 3883   4.118   1.613   9.720  1.1156 -1.5998  1.9408
  256TMC3    H1 3884   4.317   1.249   9.609 -1.6462 -1.4088 -0.8772
  256TMC3    H2 3885   4.012   1.432   9.361 -0.5257  2.5248  0.9709
  256TMC3    C7 3886   4.168   1.218   9.391 -0.2171  0.0004  0.3124
  256TMC3    C8 3887   4.002   1.648   9.505  0.0932 -0.4927  0.3274
  256TMC3    O1 3888   4.131   1.245   9.278  0.0278  0.4392 -0.5737
  256TMC3    O2 3889   3.895   1.642   9.447  0.0599 -0.5593  0.2968
  257MPD2     C 3890   4.008   4.277  12.975 -0.2923  0.4361 -0.1528
  257MPD2    C1 3891   3.966   4.170  12.894 -0.3843  0.4220  0.7057
  257MPD2    C2 3892   3.952   4.048  12.961 -0.2585 -0.3813  0.0708
  257MPD2    C3 3893   3.997   4.038  13.092  0.1652 -0.6324  0.0630
  257MPD2    C4 3894   4.048   4.142  13.164 -0.1548  0.0651  0.0576
  257MPD2    C5 3895   4.045   4.266  13.105  0.7728 -0.6620 -0.4863
  257MPD2     H 3896   3.907   3.961  12.916  0.0072  0.3290 -1.5483
  257MPD2    H1 3897   4.082   4.141  13.267 -0.8029 -0.6155  0.2712
  257MPD2    H2 3898   3.997   4.379  12.941  2.3993  0.7817 -0.0162
  257MPD2    H3 3899   4.075   4.352  13.165  2.6209  0.4013 -2.9417
  257MPD2     N 3900   4.015   3.904  13.142  0.0106  0.2636 -0.6949
  257MPD2    H5 3901   4.008   3.827  13.076  0.2653 -0.4791  0.1510
  257MPD2    N1 3902   3.902   4.198  12.772 -0.0009  0.7075 -0.0357
  257MPD2    H7 3903   3.907   4.296  12.744  1.0867  0.2194 -1.5461
  258TMC3    C1 3904   4.103   3.728  13.289 -0.0726  0.8773  0.2350
  258TMC3    C2 3905   4.119   3.644  13.180 -0.5992 -0.2228 -0.2597
  258TMC3    C3 3906   4.161   3.513  13.209  0.0931 -0.3063  0.5089
  258TMC3    C4 3907   4.113   3.683  13.417 -0.6132  0.0757 -0.4996
  258TMC3    C5 3908   4.152   3.556  13.439 -1.3577  0.0459 -0.2547
  258TMC3    C6 3909   4.174   3.471  13.335  0.1965  0.2359  0.1892
  258TMC3     C 3910   4.059   3.867  13.264  0.5754  0.3373  0.7273
  258TMC3     O 3911   4.068   3.947  13.361  0.4244  0.3408 -0.0149
  258TMC3     H 3912   4.115   3.677  13.077 -0.3848  2.5533  0.6064
  258TMC3    H1 3913   4.116   3.761  13.492 -0.9089 -1.7569  1.3961
  258TMC3    H2 3914   4.206   3.370  13.355  0.7919  0.2335 -0.7752
  258TMC3    C7 3915   4.170   3.519  13.583  0.0047 -0.0215 -0.7930
  258TMC3    C8 3916   4.149   3.410  13.110  0.3890 -0.3033 -0.1653
  258TMC3    O1 3917   4.258   3.435  13.594 -0.3401  0.7389 -0.0560
  258TMC3    O2 3918   4.177   3.291  13.143 -0.7017 -0.0005  0.4184
  259MPD2     C 3919   3.444   4.303   1.774  0.0362 -0.5380  0.5005
  259MPD2    C1 3920   3.361   4.317   1.661  0.4475  0.3451 -0.5539
  259MPD2    C2 3921   3.384   4.254   1.536  0.0142 -0.0005  0.0502
  259MPD2    C3 3922   3.499   4.181   1.522  0.5146  0.1837 -0.4469
  259MPD2    C4 3923   3.581   4.164   1.636 -0.7631 -0.1332  0.3608
  259MPD2    C5 3924   3.548   4.221   1.758  0.1842  0.0500  0.3789
  259MPD2     H 3925   3.325   4.281   1.449 -1.9631 -0.0908  1.3575
  259MPD2    H1 3926   3.667   4.098   1.635  0.8575  1.9848  0.1574
  259MPD2    H2 3927   3.437   4.346   1.873 -0.4629 -0.2522  0.3431
  259MPD2    H3 3928   3.589   4.183   1.851 -1.1957 -0.0137  0.9531
  259MPD2     N 3929   3.522   4.129   1.393  0.6707 -0.3485  0.2072
  259MPD2    H5 3930   3.456   4.147   1.318  0.7571 -0.9784 -0.0210
  259MPD2    N1 3931   3.259   4.414   1.676  0.1732 -0.1450 -0.3734
  259MPD2    H7 3932   3.245   4.464   1.764 -1.7036  0.2523 -0.9047
  260TMC3    C1 3933   3.649   4.066   1.197  0.0029  0.2786 -0.4146
  260TMC3    C2 3934   3.759   4.002   1.148  0.7727 -0.3800 -0.4209
  260TMC3    C3 3935   3.794   4.014   1.014 -0.2980  0.2454 -0.4914
  260TMC3    C4 3936   3.588   4.150   1.108 -0.4391 -0.3736 -0.5478
  260TMC3    C5 3937   3.620   4.156   0.976 -0.2886  0.6334 -0.4595
  260TMC3    C6 3938   3.729   4.094   0.924  0.3043  0.3857 -0.5297
  260TMC3     C 3939   3.635   4.066   1.343 -0.4966 -1.1513  0.7453
  260TMC3     O 3940   3.730   4.027   1.410  0.0225  0.4616 -0.2444
  260TMC3     H 3941   3.822   3.945   1.215  1.4494  1.6984  0.7345
  260TMC3    H1 3942   3.511   4.217   1.144 -0.5079 -0.1656 -1.0804
  260TMC3    H2 3943   3.781   4.128   0.836 -0.0356  2.9970  0.2768
  260TMC3    C7 3944   3.557   4.255   0.887  0.0548 -0.8015  0.5399
  260TMC3    C8 3945   3.918   3.942   0.967 -0.4727  0.0936  0.4176
  260TMC3    O1 3946   3.629   4.308   0.801 -0.1624 -0.1680  0.8529
  260TMC3    O2 3947   4.006   3.918   1.048 -0.5501 -0.3686 -0.6807
  261MPD2     C 3948   4.596   3.628  11.626 -0.1113 -0.5649 -0.3795
  261MPD2    C1 3949   4.559   3.682  11.743 -0.5310 -0.2153 -0.7894
  261MPD2    C2 3950   4.633   3.788  11.800  0.5482 -0.1762  0.7205
  261MPD2    C3 3951   0.013   3.841  11.731 -0.5417  0.1817  0.4217
  261MPD2    C4 3952   0.045   3.794  11.606  0.1583 -0.2181 -0.2056
  261MPD2    C5 3953   4.696   3.688  11.549  0.0368  0.0396  0.7397
  261MPD2     H 3954   4.602   3.814  11.901 -0.5920 -1.5206  0.7080
  261MPD2    H1 3955   0.125   3.837  11.548 -1.7633  0.0998 -2.5935
  261MPD2    H2 3956   4.545   3.540  11.588  0.6888 -0.0982 -2.5307
  261MPD2    H3 3957   4.724   3.651  11.451  1.6867  0.8248  0.9025
  261MPD2     N 3958   0.082   3.940  11.800  0.6433  0.0274 -0.4005
  261MPD2    H5 3959   0.028   3.983  11.874 -0.6016 -1.0119 -0.7112
  261MPD2    N1 3960   4.452   3.632  11.817  0.5094 -0.2070  0.2231
  261MPD2    H7 3961   4.437   3.678  11.907  1.5186 -2.8721  1.7522
  262TMC3    C1 3962   0.237   4.114  11.834 -0.4779  0.1820 -0.2391
  262TMC3    C2 3963   0.141   4.196  11.886  0.2639 -0.1870  0.0098
  262TMC3    C3 3964   0.181   4.317  11.942 -0.2612  0.5710  0.6350
  262TMC3    C4 3965   0.371   4.148  11.833 -0.2334  0.2663 -0.2823
  262TMC3    C5 3966   0.415   4.268  11.886  1.1950 -0.4751  0.3704
  262TMC3    C6 3967   0.320   4.352  11.947 -0.7480 -0.1988  0.1171
  262TMC3     C 3968   0.199   3.993  11.759 -0.3054 -0.8075  0.1020
  262TMC3     O 3969   0.275   3.952  11.670  0.2366 -0.5125 -0.1281
  262TMC3     H 3970   0.037   4.170  11.875 -0.1019  1.2530  0.2079
  262TMC3    H1 3971   0.440   4.089  11.774  1.4399  0.2232  1.7140
  262TMC3    H2 3972   0.346   4.437  12.009 -0.7047  0.1278 -0.3435
  262TMC3    C7 3973   0.544   4.327  11.847  0.0801 -0.5979  0.2033
  262TMC3    C8 3974   0.083   4.423  11.927 -0.2109 -0.3035  0.5540
  262TMC3    O1 3975   0.625   4.250  11.793 -0.2118 -0.2805 -0.1123
  262TMC3    O2 3976   0.124   4.534  11.959 -0.4459 -0.2835  0.4701
  263MPD2     C 3977   0.923   3.430  11.337 -0.1668 -0.2424  0.1934
  263MPD2    C1 3978   1.036   3.489  11.294 -0.0870  0.0686  0.5575
  263MPD2    C2 3979   1.045   3.543  11.166  0.9010 -0.4838 -0.4107
  263MPD2    C3 3980   0.929   3.569  11.100  0.4011  0.0977 -0.3352
  263MPD2    C4 3981   0.810   3.526  11.149 -0.5621 -1.1795 -0.2600
  263MPD2    C5 3982   0.807   3.448  11.260 -0.0261  0.4784  0.1664
  263MPD2     H 3983   1.142   3.566  11.123  1.7011 -1.8272  0.6869
  263MPD2    H1 3984   0.715   3.536  11.096  0.3185  1.0451 -1.4239
  263MPD2    H2 3985   0.908   3.367  11.424 -1.3416 -0.5475 -0.2250
  263MPD2    H3 3986   0.711   3.406  11.287 -0.1538  0.2899 -0.5760
  263MPD2     N 3987   0.941   3.635  10.972 -0.2547 -0.0274  0.7281
  263MPD2    H5 3988   1.032   3.636  10.926 -0.7545 -2.5581 -0.3187
  263MPD2    N1 3989   1.142   3.485  11.388 -0.1687 -0.6145  0.5336
  263MPD2    H7 3990   1.132   3.415  11.461  0.3750  0.7346  1.9188
  264TMC3    C1 3991   0.886   3.816  10.830  0.2751  0.0545 -1.0089
  264TMC3    C2 3992   0.873   3.950  10.842  0.5065 -0.2933  0.4648
  264TMC3    C3 3993   0.902   4.026  10.734 -0.9604 -0.1095  0.3482
  264TMC3    C4 3994   0.945   3.753  10.719  0.6876  0.8161 -0.2434
  264TMC3    C5 3995   0.992   3.836  10.616  0.3973 -0.3746 -0.1225
  264TMC3    C6 3996   0.959   3.968  10.624 -0.2951 -0.3619 -0.7920
  264TMC3     C 3997   0.854   3.738  10.948  0.1043  0.7952 -0.4881
  264TMC3     O 3998   0.749   3.769  11.001 -0.4094  0.4933  0.5603
  264TMC3     H 3999   0.824   3.991  10.930 -2.1546 -1.3699 -0.5154
  264TMC3    H1 4000   0.963   3.648  10.701  0.2069  0.4523  1.3757
  264TMC3    H2 4001   0.981   4.030  10.539 -0.7270 -0.5773 -1.0653
  264TMC3    C7 4002   1.053   3.767  10.504  0.4635 -0.0406 -0.3268
  264TMC3    C8 4003   0.949   4.159  10.761 -0.6433  0.7358 -0.1779
  264TMC3    O1 4004   1.100   3.655  10.519 -0.0329 -0.0450  0.5891
  264TMC3    O2 4005   1.029   4.195  10.680 -0.1674 -0.2811 -0.1930
  265MPD2     C 4006   3.169   3.258  15.544 -0.2853 -0.3918 -0.6544
  265MPD2    C1 4007   3.120   3.363  15.476 -0.5558  0.0045  0.1644
  265MPD2    C2 4008   3.153   3.360  15.340 -0.6788  0.4478  0.1213
  265MPD2    C3 4009   3.220   3.260  15.279 -0.3017 -0.9064  0.4771
  265MPD2    C4 4010   3.257   3.152  15.351 -0.1216 -0.5480 -0.1301
  265MPD2    C5 4011   3.224   3.151  15.484 -0.0903 -0.3512 -0.3206
  265MPD2     H 4012   3.121   3.440  15.274 -0.5642 -1.4101 -2.1524
  265MPD2    H1 4013   3.309   3.063  15.319  3.1784  1.3789 -0.1378
  265MPD2    H2 4014   3.140   3.241  15.648  1.4914  2.9110  0.3844
  265MPD2    H3 4015   3.243   3.064  15.546  1.5109 -0.6710 -1.2480
  265MPD2     N 4016   3.260   3.262  15.146 -0.8004 -0.0912 -0.3231
  265MPD2    H5 4017   3.289   3.169  15.117 -2.6437 -0.7743 -0.0031
  265MPD2    N1 4018   3.044   3.470  15.533  0.3308  0.9424  0.1356
  265MPD2    H7 4019   3.022   3.556  15.484  1.0440  0.2702 -1.3875
  266TMC3    C1 4020   2.984   3.623  15.705 -0.1578  0.7106 -0.1564
  266TMC3    C2 4021   2.970   3.634  15.846  0.6661  0.2334  0.0229
  266TMC3    C3 4022   2.923   3.756  15.895  0.7360  0.4248  0.2075
  266TMC3    C4 4023   2.961   3.733  15.622  0.0052  0.1324  0.0083
  266TMC3    C5 4024   2.909   3.845  15.675  0.7121 -0.6681  0.6466
  266TMC3    C6 4025   2.890   3.859  15.812  0.2134 -0.0300 -0.2453
  266TMC3     C 4026   3.009   3.484  15.659 -0.5186 -0.4090 -0.7066
  266TMC3     O 4027   2.997   3.391  15.740  0.3201  0.0119 -0.1437
  266TMC3     H 4028   3.003   3.558  15.916 -2.5379 -0.8906  0.3181
  266TMC3    H1 4029   2.966   3.719  15.514 -1.9436  1.3894 -0.2304
  266TMC3    H2 4030   2.855   3.953  15.851  0.9075 -0.6370  1.8182
  266TMC3    C7 4031   2.874   3.959  15.593 -0.0769 -0.2868  0.1709
  266TMC3    C8 4032   2.897   3.776  16.032  0.2512 -0.7938  0.2615
  266TMC3    O1 4033   2.831   4.057  15.661 -0.5037  0.2012 -0.2162
  266TMC3    O2 4034   2.872   3.672  16.091  0.0778 -0.3458 -0.1807
  267MPD2     C 4035   1.093   0.736  17.533  0.3662 -0.4087  0.1376
  267MPD2    C1 4036   1.083   0.599  17.509 -0.2973 -0.0425 -0.3375
  267MPD2    C2 4037   0.964   0.546  17.458  0.0460  0.5979 -0.4211
  267MPD2    C3 4038   0.858   0.627  17.433  0.7235  0.3825  0.4771
  267MPD2    C4 4039   0.870   0.763  17.452  0.2470 -0.0843  0.2816
  267MPD2    C5 4040   0.987   0.818  17.493  0.0168 -0.2696 -0.0331
  267MPD2     H 4041   0.952   0.440  17.437 -1.9566  0.7495 -0.0562
  267MPD2    H1 4042   0.794   0.834  17.422  1.0442 -0.2103 -2.0676
  267MPD2    H2 4043   1.186   0.785  17.559  0.4084  0.0229 -0.8331
  267MPD2    H3 4044   0.995   0.926  17.494  1.4166 -0.3475 -2.9568
  267MPD2     N 4045   0.726   0.586  17.408  0.6081 -0.4101 -0.2362
  267MPD2    H5 4046   0.651   0.654  17.410  0.5128 -0.4854 -1.0679
  267MPD2    N1 4047   1.206   0.532  17.534 -0.4691  0.4898 -0.1976
  267MPD2    H7 4048   1.290   0.589  17.540 -0.1228 -0.0071 -0.4009
  268TMC3    C1 4049   1.340   0.360  17.604  0.1845 -0.3701  0.0275
  268TMC3    C2 4050   1.453   0.397  17.542  0.3060 -0.4037  0.3281
  268TMC3    C3 4051   1.571   0.354  17.590 -0.7047 -0.7856 -0.4448
  268TMC3    C4 4052   1.344   0.272   0.011  0.2905 -0.5673 -0.0001
  268TMC3    C5 4053   1.463   0.234   0.064 -0.3410 -0.2793  0.1664
  268TMC3    C6 4054   1.584   0.278   0.007 -0.5055 -0.0658 -0.0782
  268TMC3     C 4055   1.212   0.398  17.555 -0.0551 -0.7469 -0.1307
  268TMC3     O 4056   1.115   0.329  17.576 -0.0756 -0.0061  0.1765
  268TMC3     H 4057   1.439   0.457  17.452  0.1728  0.7225  1.1052
  268TMC3    H1 4058   1.254   0.241   0.063  0.2555  0.9092  0.8103
  268TMC3    H2 4059   1.675   0.255   0.062 -0.7847 -2.8165 -0.7894
  268TMC3    C7 4060   1.454   0.145   0.173  0.1847 -1.1257 -0.3679
  268TMC3    C8 4061   1.695   0.414  17.549 -0.0607 -0.1848 -0.2421
  268TMC3    O1 4062   1.346   0.146   0.236 -0.2858 -0.5954  0.3823
  268TMC3    O2 4063   1.801   0.349  17.561 -0.1992  0.1428  0.4806
  269MPD2     C 4064   1.019   4.308  15.794  0.1133 -0.0332  0.2368
  269MPD2    C1 4065   0.879   4.335  15.787 -0.1939  0.1783 -0.5170
  269MPD2    C2 4066   0.838   4.468  15.752 -0.5383  0.0963  0.1301
  269MPD2    C3 4067   0.936   4.557  15.704 -0.4887 -0.7207  0.9188
  269MPD2    C4 4068   1.071   4.522  15.708 -0.6303 -0.4683  0.8922
  269MPD2    C5 4069   1.109   4.390  15.741 -0.0865  0.2752  0.0461
  269MPD2     H 4070   0.735   4.501  15.745 -0.2110  0.7243 -1.9371
  269MPD2    H1 4071   1.141   4.603  15.692 -0.4908 -1.0017 -1.1790
  269MPD2    H2 4072   1.066   4.215  15.825 -0.2585  0.0534  1.0553
  269MPD2    H3 4073   1.213   4.361  15.745 -0.0614  0.4442  0.5923
  269MPD2     N 4074   0.895   4.684  15.652  0.4018  0.0713 -0.6231
  269MPD2    H5 4075   0.797   4.709  15.649  0.3297  0.1329  2.4308
  269MPD2    N1 4076   0.796   4.231  15.838  0.5650  0.1553  0.0585
  269MPD2    H7 4077   0.835   4.143  15.870 -2.2227 -1.9314 -2.2290
  270TMC3    C1 4078   0.604   4.107  15.878  0.2021 -0.8060  0.4261
  270TMC3    C2 4079   0.472   4.081  15.844  0.4238  0.3986 -0.1202
  270TMC3    C3 4080   0.410   3.973  15.896 -0.0565 -0.1022 -0.4682
  270TMC3    C4 4081   0.659   4.022  15.969  0.3362  0.0243  0.4370
  270TMC3    C5 4082   0.600   3.901  16.012 -0.2736 -0.3442 -0.1873
  270TMC3    C6 4083   0.471   3.878  15.971 -0.3202 -0.0062 -0.0944
  270TMC3     C 4084   0.661   4.234  15.830 -0.0159 -0.5081 -0.1938
  270TMC3     O 4085   0.593   4.314  15.766 -0.0791  0.2841 -0.3443
  270TMC3     H 4086   0.408   4.154  15.795 -0.8982 -2.0543 -2.0112
  270TMC3    H1 4087   0.765   4.026  15.995  0.3470  0.2270  0.3611
  270TMC3    H2 4088   0.418   3.785  15.985 -1.0622  0.6583  1.4864
  270TMC3    C7 4089   0.685   3.789  16.001 -0.2698  0.1616 -0.1930
  270TMC3    C8 4090   0.311   3.914  15.804  0.1012  0.0812 -0.5045
  270TMC3    O1 4091   0.794   3.810  15.946  0.2290  0.6036 -0.6337
  270TMC3    O2 4092   0.205   3.871  15.850 -0.0004  0.5059  0.6613
  271MPD2     C 4093   4.491   3.984  14.026  0.0906  0.4880  0.0748
  271MPD2    C1 4094   4.449   3.972  14.162 -0.6957 -0.1356  0.0433
  271MPD2    C2 4095   4.319   4.011  14.195  0.0872 -0.2096 -0.3432
  271MPD2    C3 4096   4.229   4.048  14.096  0.5519  0.3236 -0.8979
  271MPD2    C4 4097   4.275   4.056  13.962  0.2315  0.3283  0.4017
  271MPD2    C5 4098   4.408   4.036  13.929  0.6530  0.2532  0.3039
  271MPD2     H 4099   4.286   3.998  14.298 -2.8791  2.4260 -0.9581
  271MPD2    H1 4100   4.208   4.092  13.885  0.3623  1.2828  0.7371
  271MPD2    H2 4101   4.592   3.962  13.993  0.4430  1.0010  0.8185
  271MPD2    H3 4102   4.445   4.055  13.829 -0.0788  0.9178  0.1554
  271MPD2     N 4103   4.092   4.078  14.125  0.6276 -0.0724 -0.2272
  271MPD2    H5 4104   4.032   4.099  14.046  1.4290  1.9760 -0.3038
  271MPD2    N1 4105   4.527   3.926  14.274  0.0475  0.2105  0.4066
  271MPD2    H7 4106   4.484   3.932  14.366  0.0620 -1.6697  0.5235
  272TMC3    C1 4107   4.711   3.856  14.389  0.2260  0.0259  0.5093
  272TMC3    C2 4108   0.102   3.800  14.384 -0.1134  0.1310 -0.3972
  272TMC3    C3 4109   0.157   3.771  14.504  0.3174 -0.2913 -1.2363
  272TMC3    C4 4110   4.647   3.883  14.509  0.2093 -0.1219  0.1169
  272TMC3    C5 4111   4.709   3.880  14.625 -0.8241  0.0655 -0.0570
  272TMC3    C6 4112   0.110   3.823  14.624  1.1631 -0.4144  0.1357
  272TMC3     C 4113   4.658   3.879  14.257 -0.0094 -0.2683 -0.2984
  272TMC3     O 4114   0.001   3.862  14.153  0.2065  0.3338 -0.8197
  272TMC3     H 4115   0.144   3.760  14.293 -0.4503 -1.6215  0.2085
  272TMC3    H1 4116   4.554   3.939  14.508 -0.0575 -0.5726 -2.9945
  272TMC3    H2 4117   0.170   3.801  14.712  2.9747 -0.5630 -1.1369
  272TMC3    C7 4118   4.651   3.948  14.736  0.8449 -0.2100  0.1100
  272TMC3    C8 4119   0.297   3.726  14.506 -0.1811  0.1352 -0.4479
  272TMC3    O1 4120   4.532   3.968  14.746  0.6420  0.1941 -0.4510
  272TMC3    O2 4121   0.361   3.764  14.407  0.0795 -0.3902 -0.2682
  273MPD2     C 4122   1.637   1.918  11.738  0.6864  0.7527  0.2122
  273MPD2    C1 4123   1.709   2.036  11.763  0.2305  0.0913  0.5951
  273MPD2    C2 4124   1.714   2.130  11.664  0.1167  0.2767  0.3627
  273MPD2    C3 4125   1.638   2.123  11.547 -0.2752  0.3664  0.2713
  273MPD2    C4 4126   1.573   2.007  11.521  0.2751 -0.1045  0.4963
  273MPD2    C5 4127   1.574   1.907  11.618 -0.6020 -0.0977  0.2198
  273MPD2     H 4128   1.773   2.216  11.695 -0.8545  1.4287 -1.0258
  273MPD2    H1 4129   1.541   1.988  11.419 -0.4389 -0.4865  0.7897
  273MPD2    H2 4130   1.631   1.838  11.810 -3.8268 -0.1004 -1.1398
  273MPD2    H3 4131   1.528   1.813  11.590  0.3393 -0.7250  0.7982
  273MPD2     N 4132   1.643   2.233  11.448 -0.5699 -0.2360 -0.5486
  273MPD2    H5 4133   1.616   2.217  11.351 -2.0608 -0.3782 -0.0989
  273MPD2    N1 4134   1.772   2.049  11.888  0.3935 -0.2992  0.0826
  273MPD2    H7 4135   1.761   1.971  11.953  0.4094 -0.5414 -0.2051
  274TMC3    C1 4136   1.675   2.457  11.359  0.0085  0.4360 -0.0835
  274TMC3    C2 4137   1.674   2.407  11.232  0.1578 -0.2097  0.0453
  274TMC3    C3 4138   1.710   2.492  11.132 -0.2371 -0.1723  0.5974
  274TMC3    C4 4139   1.702   2.587  11.384  0.1512  0.2396  0.4333
  274TMC3    C5 4140   1.745   2.666  11.279  0.0566  0.4103  0.2353
  274TMC3    C6 4141   1.756   2.624  11.152  0.1533 -0.5718 -0.4514
  274TMC3     C 4142   1.672   2.366  11.475 -0.3505 -0.0121 -0.3216
  274TMC3     O 4143   1.657   2.421  11.584  0.5305 -0.3200  0.0108
  274TMC3     H 4144   1.655   2.304  11.205  0.3558 -0.0775 -0.6108
  274TMC3    H1 4145   1.705   2.628  11.484 -0.4125 -1.4267  1.1239
  274TMC3    H2 4146   1.760   2.691  11.067  2.2574  0.3872  0.3903
  274TMC3    C7 4147   1.761   2.809  11.310  0.1539  0.6631 -0.2079
  274TMC3    C8 4148   1.667   2.443  11.001  0.3652  1.4710  0.1819
  274TMC3    O1 4149   1.711   2.841  11.414 -0.0093  0.1249  0.4485
  274TMC3    O2 4150   1.574   2.365  10.991 -0.5215  0.4870  0.5893
  275MPD2     C 4151   1.638   4.512  14.580 -0.2118 -0.3246  0.0414
  275MPD2    C1 4152   1.603   4.647  14.565 -0.3266 -0.1321 -0.6659
  275MPD2    C2 4153   1.477   4.681  14.579  0.0658 -0.5435 -0.0661
  275MPD2    C3 4154   1.386   4.592  14.609 -0.8217  0.1335 -0.3449
  275MPD2    C4 4155   1.406   4.456  14.609  0.7585 -0.3412  0.6526
  275MPD2    C5 4156   1.539   4.418  14.602  0.1947 -0.3251  0.1832
  275MPD2     H 4157   1.442   0.058  14.570 -1.3740 -1.0816 -0.6422
  275MPD2    H1 4158   1.323   4.395  14.643 -1.1694  1.3910 -0.9343
  275MPD2    H2 4159   1.743   4.486  14.590  0.2808  1.0855 -1.5159
  275MPD2    H3 4160   1.558   4.312  14.615  0.1584 -0.3456  0.0670
  275MPD2     N 4161   1.251   4.622  14.643 -0.3275  0.6933 -0.8001
  275MPD2    H5 4162   1.180   4.550  14.632  0.4887  0.0220 -1.6665
  275MPD2    N1 4163   1.696   0.033  14.559  0.3160  0.5133  0.4026
  275MPD2    H7 4164   1.662   0.128  14.549 -2.5531 -0.5835 -0.3794
  276TMC3    C1 4165   1.894   0.159  14.582  0.5261 -1.1377  0.3935
  276TMC3    C2 4166   1.813   0.274  14.588  0.1038 -0.3064  0.8354
  276TMC3    C3 4167   1.868   0.396  14.620 -0.0562  0.8203  0.3816
  276TMC3    C4 4168   2.029   0.164  14.596  0.3652 -0.3008  0.4318
  276TMC3    C5 4169   2.076   0.284  14.636  0.2051  0.0073 -0.2072
  276TMC3    C6 4170   2.007   0.399  14.637 -0.1797  0.2761 -0.0654
  276TMC3     C 4171   1.833   0.026  14.576  0.1097 -0.4887  0.0497
  276TMC3     O 4172   1.904   4.657  14.580  0.3956 -0.0908 -0.2874
  276TMC3     H 4173   1.704   0.270  14.586 -0.0004  3.2040 -0.3004
  276TMC3    H1 4174   2.080   0.069  14.590  3.3963  1.2013  2.3041
  276TMC3    H2 4175   2.056   0.491  14.664  0.9201  0.6382 -3.2325
  276TMC3    C7 4176   2.162   0.274  14.751 -0.2571  0.0844 -0.7301
  276TMC3    C8 4177   1.804   0.481  14.717 -1.1938  0.9897  0.6232
  276TMC3    O1 4178   2.191   0.384  14.792 -0.5915 -0.3567 -0.3074
  276TMC3    O2 4179   1.830   0.601  14.724  0.3956  0.8069  0.2196
  277MPD2     C 4180   3.120   3.738  13.106 -0.5512  0.0925  0.2885
  277MPD2    C1 4181   2.997   3.779  13.076 -0.0090  0.8273  0.2688
  277MPD2    C2 4182   2.887   3.746  13.157 -0.0112  0.6935  0.1542
  277MPD2    C3 4183   2.910   3.661  13.263  0.2551  0.5392 -0.2631
  277MPD2    C4 4184   3.042   3.624  13.295 -0.7126  0.9433  0.2969
  277MPD2    C5 4185   3.143   3.661  13.212 -0.4875  0.5431  0.2021
  277MPD2     H 4186   2.792   3.793  13.135  0.0989  1.0773  0.5068
  277MPD2    H1 4187   3.058   3.567  13.386 -2.2976 -0.3596 -0.2310
  277MPD2    H2 4188   3.204   3.774  13.047  1.5841 -1.7672  2.1950
  277MPD2    H3 4189   3.245   3.631  13.229 -0.9364 -0.5440  0.9489
  277MPD2     N 4190   2.801   3.619  13.339 -0.1969  0.1683  0.1900
  277MPD2    H5 4191   2.708   3.623  13.298 -0.8428  1.6834  1.7867
  277MPD2    N1 4192   2.987   3.877  12.970  0.0520  1.0003  0.1838
  277MPD2    H7 4193   3.070   3.903  12.918 -0.1621 -0.7204 -1.0126
  278TMC3    C1 4194   2.682   3.546  13.531  0.9851  0.2204  0.7035
  278TMC3    C2 4195   2.582   3.479  13.451  0.0013  0.5097  0.1794
  278TMC3    C3 4196   2.464   3.445  13.517  0.0917 -0.1612 -0.2161
  278TMC3    C4 4197   2.666   3.584  13.661 -0.4654  0.0168 -0.0193
  278TMC3    C5 4198   2.537   3.568  13.714  0.1445 -0.4494 -0.6951
  278TMC3    C6 4199   2.440   3.492  13.648  0.4227 -0.6038  0.1287
  278TMC3     C 4200   2.812   3.587  13.477 -0.5137 -0.0497  0.0030
  278TMC3     O 4201   2.900   3.602  13.557  0.5477  0.6271 -0.0524
  278TMC3     H 4202   2.603   3.451  13.349 -4.1585  0.6184 -0.7188
  278TMC3    H1 4203   2.738   3.649  13.710  0.1920 -1.1598  0.5759
  278TMC3    H2 4204   2.349   3.459  13.697 -0.1712 -0.3443 -0.8055
  278TMC3    C7 4205   2.508   3.626  13.841  0.0379  0.3257  0.2955
  278TMC3    C8 4206   2.336   3.410  13.451  0.4196  0.1165 -0.1730
  278TMC3    O1 4207   2.598   3.705  13.883  0.3081 -0.7095  0.1969
  278TMC3    O2 4208   2.231   3.417  13.509 -0.6416 -0.2116  0.6933
  279MPD2     C 4209   1.928   4.326   0.779  0.2770  0.5481 -0.7337
  279MPD2    C1 4210   1.945   4.214   0.699  0.1141 -0.0052 -0.1795
  279MPD2    C2 4211   2.038   4.224   0.602 -0.2878 -0.5750  0.3510
  279MPD2    C3 4212   2.112   4.340   0.584  0.5457  0.7986  0.1325
  279MPD2    C4 4213   2.102   4.437   0.677  0.0994  0.4689  0.0106
  279MPD2    C5 4214   2.005   4.437   0.772 -0.4899  0.1370 -0.2064
  279MPD2     H 4215   2.024   4.154   0.521  1.6148  2.3644 -2.5300
  279MPD2    H1 4216   2.171   4.521   0.676  2.1252 -1.2211 -1.2334
  279MPD2    H2 4217   1.842   4.328   0.844  1.4342 -1.8643  0.8729
  279MPD2    H3 4218   1.992   4.517   0.844  0.4410 -0.4238  0.5861
  279MPD2     N 4219   2.199   4.352   0.474 -0.3322  0.2920 -0.1428
  279MPD2    H5 4220   2.266   4.426   0.489 -2.1342  2.1618 -1.2866
  279MPD2    N1 4221   1.859   4.108   0.706  0.4260 -0.3263 -0.5550
  279MPD2    H7 4222   1.782   4.126   0.769  0.3100 -1.8938 -0.2578
  280TMC3    C1 4223   1.772   3.898   0.662 -0.0341 -0.4508 -0.0073
  280TMC3    C2 4224   1.801   3.764   0.665 -0.3311 -0.2635  0.2487
  280TMC3    C3 4225   1.702   3.680   0.627  0.1973  0.2813 -0.2517
  280TMC3    C4 4226   1.651   3.959   0.634  0.1734  0.3535 -0.3441
  280TMC3    C5 4227   1.559   3.866   0.598 -0.4329 -0.0846  0.1037
  280TMC3    C6 4228   1.582   3.731   0.597  0.0305 -0.6867 -0.4440
  280TMC3     C 4229   1.880   3.982   0.658 -0.3233  0.3395  0.3654
  280TMC3     O 4230   1.978   3.931   0.604 -0.0161  0.0761  0.2084
  280TMC3     H 4231   1.900   3.731   0.692 -0.6719 -0.6630  1.0068
  280TMC3    H1 4232   1.636   4.066   0.622  0.7700  0.5446  0.5638
  280TMC3    H2 4233   1.503   3.665   0.564 -2.7512  1.4712  1.9481
  280TMC3    C7 4234   1.429   3.907   0.560 -0.1719  0.4473  0.1711
  280TMC3    C8 4235   1.729   3.546   0.578  0.3726 -0.8819  0.1339
  280TMC3    O1 4236   1.330   3.835   0.560 -0.2802  0.2522  0.2559
  280TMC3    O2 4237   1.650   3.497   0.496  0.1020  0.4606  0.0288
  281TMC3    C1 4238   0.992   3.793  13.120  0.1828 -0.0882  0.2069
  281TMC3    C2 4239   0.973   3.822  12.989 -0.2437  0.5486  0.5570
  281TMC3    C3 4240   0.879   3.744  12.919 -0.0677  0.3826 -0.3543
  281TMC3    C4 4241   0.919   3.689  13.178  0.1606 -0.7776 -0.2697
  281TMC3    C5 4242   0.819   3.633  13.110  0.1533  0.3089  0.5800
  281TMC3    C6 4243   0.793   3.658  12.983  0.2553  0.5790  0.1461
  281TMC3     C 4244   1.108   3.852  13.183  0.4344 -0.2480  0.3433
  281TMC3     O 4245   1.163   3.785  13.274 -0.0754  0.1609  0.3292
  281TMC3     H 4246   1.047   3.888  12.946 -1.1649  1.0896 -0.1726
  281TMC3    H1 4247   0.934   3.669  13.284  0.7054  0.7277 -0.0677
  281TMC3    H2 4248   0.714   3.608  12.929  1.4052  2.3139 -3.1617
  281TMC3    C7 4249   0.706   3.565  13.180 -0.3353 -0.3281  0.6169
  281TMC3    C8 4250   0.818   3.802  12.794 -0.7300  0.3794 -0.0881
  281TMC3    O1 4251   0.629   3.502  13.111  0.2024 -0.2399  0.2211
  281TMC3    O2 4252   0.721   3.743  12.749  0.6650 -0.0421 -0.7727
  282MPD2     C 4253   3.191   0.795  15.157  0.2708 -0.2016  0.1064
  282MPD2    C1 4254   3.065   0.849  15.181  0.0106  0.2720  0.2868
  282MPD2    C2 4255   2.975   0.861  15.082  0.0299  0.3733  0.3647
  282MPD2    C3 4256   3.011   0.818  14.957 -0.6111  0.2930 -0.0236
  282MPD2    C4 4257   3.138   0.775  14.926  0.1666 -0.2246  0.5070
  282MPD2    C5 4258   3.224   0.766  15.029  0.5895  0.0013 -0.4188
  282MPD2     H 4259   2.873   0.895  15.098  0.3011  0.0431  2.7643
  282MPD2    H1 4260   3.170   0.752  14.825  3.5967 -1.8791  1.9529
  282MPD2    H2 4261   3.261   0.766  15.234 -0.7521  1.4270  1.6552
  282MPD2    H3 4262   3.315   0.710  15.009 -0.9544 -2.3475 -0.8668
  282MPD2     N 4263   2.914   0.832  14.853  0.7708  0.0420 -0.0673
  282MPD2    H5 4264   2.820   0.842  14.889  0.9159 -0.0175  0.3383
  282MPD2    N1 4265   3.017   0.895  15.305  0.0246  0.1086  0.2935
  282MPD2    H7 4266   2.924   0.935  15.300  0.7058  1.5652 -0.7010
  283TMC3    C1 4267   3.038   0.971  15.525  0.0613  1.1012  1.3120
  283TMC3    C2 4268   3.071   1.098  15.558 -0.4951 -0.2566  0.6914
  283TMC3    C3 4269   2.997   1.154  15.659  0.0663 -0.1487 -0.6507
  283TMC3    C4 4270   2.931   0.907  15.562 -0.3544 -0.4038 -0.3935
  283TMC3    C5 4271   2.865   0.971  15.662 -0.5750  0.2441 -0.1252
  283TMC3    C6 4272   2.893   1.090  15.717  0.9238 -0.2985 -0.2519
  283TMC3     C 4273   3.102   0.914  15.409  0.1210  0.5128  0.1371
  283TMC3     O 4274   3.218   0.882  15.424  0.6536 -0.2480  0.1596
  283TMC3     H 4275   3.161   1.140  15.513 -1.1197 -0.7470 -0.9915
  283TMC3    H1 4276   2.915   0.807  15.523  0.2233 -0.5826 -0.1801
  283TMC3    H2 4277   2.826   1.142  15.785  2.4552 -0.4929  1.3841
  283TMC3    C7 4278   2.767   0.897  15.745  0.4512  0.6488 -0.1329
  283TMC3    C8 4279   3.055   1.269  15.727  0.3821  0.3059 -0.1670
  283TMC3    O1 4280   2.740   0.938  15.858 -0.0614 -0.2105 -0.2761
  283TMC3    O2 4281   3.055   1.291  15.845 -0.3703  0.1305 -0.9249
  284MPD2     C 4282   1.714   0.671  11.902  0.3700  0.1402  0.4020
  284MPD2    C1 4283   1.794   0.619  11.802  0.2368  0.5351 -0.2656
  284MPD2    C2 4284   1.854   0.497  11.829 -0.4313 -0.1909 -0.0888
  284MPD2    C3 4285   1.827   0.426  11.938  0.2995  0.4175  0.9298
  284MPD2    C4 4286   1.743   0.471  12.030  0.2103 -0.9747 -0.0489
  284MPD2    C5 4287   1.696   0.592  12.017 -0.3221  0.5632  0.8076
  284MPD2     H 4288   1.934   0.469  11.761 -1.5080 -1.8994 -0.6501
  284MPD2    H1 4289   1.714   0.404  12.110  0.2785 -0.1416  0.6749
  284MPD2    H2 4290   1.647   0.755  11.893 -0.3488 -0.3109  1.5497
  284MPD2    H3 4291   1.635   0.622  12.100  0.2664  1.5638  0.8725
  284MPD2     N 4292   1.886   0.301  11.928  0.5824  0.0565  0.0596
  284MPD2    H5 4293   1.969   0.292  11.871  1.2852  0.1276  1.0623
  284MPD2    N1 4294   1.794   0.677  11.674 -0.1524 -0.0290 -0.1692
  284MPD2    H7 4295   1.779   0.776  11.657  0.2711 -0.5087 -3.3413
  285TMC3    C1 4296   1.832   0.672  11.438  0.6755  0.1268 -0.7200
  285TMC3    C2 4297   1.811   0.599  11.331 -0.1791  0.4600 -1.0315
  285TMC3    C3 4298   1.828   0.657  11.209  0.1553  0.1708  0.0418
  285TMC3    C4 4299   1.896   0.791  11.436 -0.0612 -0.0428 -0.2260
  285TMC3    C5 4300   1.930   0.838  11.310 -0.5240 -0.5314 -0.0566
  285TMC3    C6 4301   1.888   0.775  11.198 -1.0910  0.0398  1.0582
  285TMC3     C 4302   1.818   0.599  11.560  0.0731  0.3289 -0.7636
  285TMC3     O 4303   1.796   0.480  11.550  0.1010  0.3267 -0.4883
  285TMC3     H 4304   1.756   0.506  11.339  2.4620 -0.9903  0.5704
  285TMC3    H1 4305   1.935   0.846  11.522 -1.7189 -0.6019  0.8745
  285TMC3    H2 4306   1.910   0.806  11.096 -1.7779  0.4043  1.0253
  285TMC3    C7 4307   1.945   0.983  11.309 -0.2198 -0.1056 -0.6399
  285TMC3    C8 4308   1.800   0.573  11.092  0.3823 -0.0272 -0.3493
  285TMC3    O1 4309   1.973   1.033  11.418 -0.1772 -0.0746  0.2329
  285TMC3    O2 4310   1.695   0.505  11.086 -0.1837  0.6286 -0.1324
  286MPD2     C 4311   0.401   2.840   1.040 -0.6568 -0.8855 -0.2882
  286MPD2    C1 4312   0.478   2.949   1.067 -0.2668 -0.3536  0.6651
  286MPD2    C2 4313   0.615   2.928   1.095  0.3279 -0.3454  0.2211
  286MPD2    C3 4314   0.675   2.805   1.085  0.2914  0.8026  0.3296
  286MPD2    C4 4315   0.588   2.701   1.052 -0.4144 -0.0793  0.3213
  286MPD2    C5 4316   0.453   2.716   1.034  1.1269  0.1375  0.2248
  286MPD2     H 4317   0.666   3.019   1.126  0.2355  0.1999 -1.1849
  286MPD2    H1 4318   0.639   2.606   1.046  0.8157  0.5927  0.1075
  286MPD2    H2 4319   0.296   2.844   1.012 -1.1071 -1.6854  1.3302
  286MPD2    H3 4320   0.393   2.630   1.007  0.5488  0.6196 -0.0360
  286MPD2     N 4321   0.804   2.770   1.124  0.4556  0.2607 -1.2380
  286MPD2    H5 4322   0.837   2.677   1.098  0.1301  0.2615 -1.6471
  286MPD2    N1 4323   0.432   3.084   1.053  0.0605 -0.2748  0.5017
  286MPD2    H7 4324   0.503   3.153   1.076 -0.8387  0.3802  1.2465
  287TMC3    C1 4325   1.032   2.809   1.184 -0.0504 -0.4570  0.4472
  287TMC3    C2 4326   1.075   2.739   1.079  0.1690  0.5808  0.3682
  287TMC3    C3 4327   1.210   2.718   1.076  0.0275  0.3183  0.6694
  287TMC3    C4 4328   1.113   2.854   1.290  0.5809  0.9802  0.6943
  287TMC3    C5 4329   1.244   2.813   1.287 -0.1877 -0.3596 -0.4008
  287TMC3    C6 4330   1.299   2.764   1.172 -0.6174  0.3320 -0.3953
  287TMC3     C 4331   0.895   2.856   1.174  0.0066 -0.0384 -0.7476
  287TMC3     O 4332   0.872   2.962   1.233 -0.5270  0.2304 -0.3936
  287TMC3     H 4333   1.023   2.704   0.991  0.8618  0.7822 -0.1233
  287TMC3    H1 4334   1.080   2.892   1.386 -1.8397 -1.6932  0.9074
  287TMC3    H2 4335   1.406   2.747   1.167 -0.9484 -1.4483 -1.5775
  287TMC3    C7 4336   1.330   2.850   1.398  0.1817 -0.5741  0.2810
  287TMC3    C8 4337   1.259   2.663   0.950  0.1148  0.0359  0.3541
  287TMC3    O1 4338   1.286   2.925   1.478  0.2825 -0.0022 -0.3051
  287TMC3    O2 4339   1.191   2.594   0.878  0.0513  0.1701 -0.1138
  288TMC3    C1 4340   2.972   3.383  14.440 -0.3168 -0.2572 -0.0173
  288TMC3    C2 4341   2.937   3.305  14.549 -0.5684 -0.4523 -0.0755
  288TMC3    C3 4342   2.909   3.371  14.659 -0.2335  0.1314  0.2539
  288TMC3    C4 4343   2.991   3.519  14.442 -0.2114  0.4289  0.5623
  288TMC3    C5 4344   2.965   3.581  14.561 -0.1308  0.2360 -0.4975
  288TMC3    C6 4345   2.912   3.509  14.663  0.0636  0.4775 -1.1388
  288TMC3     C 4346   2.967   3.313  14.315  0.0592  0.3748  0.6306
  288TMC3     O 4347   2.940   3.388  14.223  0.1509 -0.4690  0.1052
  288TMC3     H 4348   2.914   3.199  14.544 -0.5263 -0.4759  0.2273
  288TMC3    H1 4349   3.023   3.576  14.357  1.4322  0.1286  0.9842
  288TMC3    H2 4350   2.884   3.559  14.755  0.9646  0.7470 -1.0107
  288TMC3    C7 4351   3.075   3.673  14.585 -0.2318  0.0908  0.1389
  288TMC3    C8 4352   2.935   3.307  14.784 -0.8224 -0.0927 -0.5321
  288TMC3    O1 4353   3.128   3.725  14.489  0.0999 -0.8314 -0.0270
  288TMC3    O2 4354   2.979   3.371  14.877 -0.3379  0.1953 -0.4272
  289MPD2     C 4355   3.242   2.414  14.706  0.1140  1.0810 -0.0319
  289MPD2    C1 4356   3.272   2.537  14.643 -0.1834 -0.1777 -0.2404
  289MPD2    C2 4357   3.215   2.561  14.518 -0.2477 -0.2981  0.0440
  289MPD2    C3 4358   3.121   2.480  14.462 -0.0019 -0.3968  0.4383
  289MPD2    C4 4359   3.084   2.366  14.534 -0.6123  0.0333 -0.3258
  289MPD2    C5 4360   3.145   2.335  14.649  0.0906  0.8569  0.1211
  289MPD2     H 4361   3.229   2.659  14.474 -0.3947 -0.6810 -0.8499
  289MPD2    H1 4362   3.007   2.301  14.493 -0.6713 -0.9978  1.4223
  289MPD2    H2 4363   3.289   2.384  14.799  1.9050 -0.0684 -1.3176
  289MPD2    H3 4364   3.116   2.249  14.710  0.4193  1.3834  1.0167
  289MPD2     N 4365   3.064   2.505  14.337  0.8146 -0.3459  0.4354
  289MPD2    H5 4366   3.019   2.425  14.294  1.5505 -0.1346 -0.7383
  289MPD2    N1 4367   3.371   2.624  14.702 -0.3050 -0.2757  0.0836
  289MPD2    H7 4368   3.398   2.617  14.799 -1.6223 -1.1142  0.3824
  290TMC3    C1 4369   2.954   2.618  14.162  0.3498  0.2467  0.5460
  290TMC3    C2 4370   2.879   2.736  14.134  0.2779  0.2201  0.1855
  290TMC3    C3 4371   2.812   2.739  14.011  0.5608 -0.2011 -0.4302
  290TMC3    C4 4372   2.976   2.517  14.068 -0.0926  0.0427 -1.3403
  290TMC3    C5 4373   2.899   2.531  13.953 -0.1992 -0.4172  0.1630
  290TMC3    C6 4374   2.817   2.634  13.921 -0.0975 -0.1220 -0.1101
  290TMC3     C 4375   3.050   2.624  14.275 -0.0898 -0.1113  0.6396
  290TMC3     O 4376   3.087   2.737  14.308 -0.2212 -0.3467 -0.0710
  290TMC3     H 4377   2.874   2.819  14.203  0.2301 -0.6536  1.2222
  290TMC3    H1 4378   3.051   2.439  14.083  0.1415  0.8433  1.6534
  290TMC3    H2 4379   2.764   2.630  13.827 -1.4977 -1.0225  0.7239
  290TMC3    C7 4380   2.862   2.412  13.894 -0.0578 -0.0605 -0.1698
  290TMC3    C8 4381   2.719   2.848  13.985  0.0422 -0.1177 -0.0980
  290TMC3    O1 4382   2.831   2.419  13.775 -0.4550  0.5736 -0.0539
  290TMC3    O2 4383   2.653   2.831  13.881  0.4832 -0.1904  0.0697
  291MPD2     C 4384   1.901   2.548   0.179 -0.3581  0.3529 -0.0484
  291MPD2    C1 4385   2.020   2.486   0.210 -0.7791  0.1741  0.3651
  291MPD2    C2 4386   2.131   2.567   0.237 -0.1689  0.0975 -0.5576
  291MPD2    C3 4387   2.123   2.708   0.219 -0.9746  0.0698  0.1517
  291MPD2    C4 4388   2.002   2.769   0.184  0.3062  0.1694 -0.5428
  291MPD2    C5 4389   1.897   2.687   0.162  0.3063  0.4301 -0.4257
  291MPD2     H 4390   2.217   2.510   0.271  0.8554  0.7706 -2.0213
  291MPD2    H1 4391   1.976   2.873   0.171  0.3270  0.1325 -0.8893
  291MPD2    H2 4392   1.811   2.490   0.162  0.2469 -0.9407  1.1721
  291MPD2    H3 4393   1.802   2.732   0.134 -0.7396 -1.1144  0.6492
  291MPD2     N 4394   2.234   2.793   0.239  0.2079  0.2130  0.3728
  291MPD2    H5 4395   2.220   2.889   0.208  5.1392  1.2986  1.5424
  291MPD2    N1 4396   2.034   2.347   0.232 -0.4524  0.1654 -0.5373
  291MPD2    H7 4397   2.111   2.308   0.285  0.1382 -0.1855 -1.6620
  292TMC3    C1 4398   1.969   2.125   0.233  0.0653  0.0532 -0.3534
  292TMC3    C2 4399   2.003   2.106   0.362  0.1541  1.1120 -0.2083
  292TMC3    C3 4400   2.029   1.980   0.410 -0.3922 -0.9551  0.5145
  292TMC3    C4 4401   1.958   2.019   0.141  0.2576 -0.7921 -0.1465
  292TMC3    C5 4402   2.000   1.900   0.195  0.2056  0.4248 -0.0482
  292TMC3    C6 4403   2.030   1.871   0.329  0.3031 -0.4025 -0.9981
  292TMC3     C 4404   1.951   2.254   0.176 -0.5712 -0.7016 -0.3569
  292TMC3     O 4405   1.866   2.266   0.091  0.0087  0.2066  0.2372
  292TMC3     H 4406   1.983   2.193   0.424  2.0997 -0.3334  2.4345
  292TMC3    H1 4407   1.949   2.048   0.037  0.7450 -0.0934  0.0043
  292TMC3    H2 4408   2.064   1.773   0.360 -1.2498 -0.5922  0.1290
  292TMC3    C7 4409   2.049   1.792   0.104  0.2562 -0.3236 -0.5693
  292TMC3    C8 4410   2.051   1.965   0.552 -0.5379  0.2816  0.3082
  292TMC3    O1 4411   2.123   1.717   0.161 -0.0846  0.2249  0.3789
  292TMC3    O2 4412   2.074   2.066   0.617 -0.0465  0.4402 -0.4628
  293MPD2     C 4413   4.406   4.217  12.509 -0.6289 -0.4062  0.6556
  293MPD2    C1 4414   4.316   4.133  12.572  0.0306 -0.3576 -0.0936
  293MPD2    C2 4415   4.297   4.141  12.711 -0.3706  0.1605  0.3127
  293MPD2    C3 4416   4.370   4.225  12.795 -0.3511 -0.2440 -0.0414
  293MPD2    C4 4417   4.453   4.319  12.725  0.6715 -0.2169  0.7746
  293MPD2    C5 4418   4.471   4.311  12.588 -0.1329  0.6044  0.0966
  293MPD2     H 4419   4.219   4.087  12.762 -0.5003  1.8084  1.8425
  293MPD2    H1 4420   4.509   4.391  12.785 -0.0035  0.7633  0.2316
  293MPD2    H2 4421   4.423   4.206  12.402  1.9600 -0.2789  1.0447
  293MPD2    H3 4422   4.557   4.367  12.551 -1.7497  1.5859 -2.1453
  293MPD2     N 4423   4.348   4.231  12.932  0.0734 -0.9685 -0.6968
  293MPD2    H5 4424   4.304   4.148  12.969 -0.2756 -0.0145  1.0035
  293MPD2    N1 4425   4.248   4.046  12.489  0.6585 -0.7162  0.4390
  293MPD2    H7 4426   4.266   4.053  12.389  0.3439  0.6015  0.4814
  294TMC3    C1 4427   4.095   3.884  12.426  0.2081  0.2454 -0.6216
  294TMC3    C2 4428   3.963   3.844  12.463  0.4554 -0.2512 -0.0924
  294TMC3    C3 4429   3.871   3.835  12.365  0.0476  0.1875 -0.2252
  294TMC3    C4 4430   4.118   3.925  12.295 -0.1630  0.2033 -0.4496
  294TMC3    C5 4431   4.015   3.917  12.201 -0.3202  0.3701  0.0020
  294TMC3    C6 4432   3.889   3.882  12.237  0.0059  0.0607 -0.4327
  294TMC3     C 4433   4.167   3.950  12.531  0.3407 -0.7480  0.7742
  294TMC3     O 4434   4.144   3.915  12.645  0.9456  0.9986 -0.4779
  294TMC3     H 4435   3.934   3.813  12.562  0.7016  0.0278  0.0691
  294TMC3    H1 4436   4.222   3.947  12.271  0.1508 -1.1267 -0.3032
  294TMC3    H2 4437   3.824   3.864  12.152  1.2013 -0.2280 -1.2799
  294TMC3    C7 4438   4.045   3.860  12.071 -0.0485 -0.1003  0.2061
  294TMC3    C8 4439   3.754   3.752  12.386  0.4278 -0.8443 -0.2682
  294TMC3    O1 4440   3.991   3.752  12.055  0.3562  0.0611 -0.5498
  294TMC3    O2 4441   3.734   3.721  12.503  0.1594 -0.0506 -0.0632
  295MPD2     C 4442   4.713   1.148   0.017 -0.3216  0.2473  0.5432
  295MPD2    C1 4443   4.691   1.230   0.123  0.2597  0.3062 -0.5298
  295MPD2    C2 4444   4.702   1.179   0.254 -0.0815  0.3081  0.6731
  295MPD2    C3 4445   4.723   1.040   0.273  0.1837  0.0605 -0.1012
  295MPD2    C4 4446   0.034   0.961   0.167  1.0678  0.1338  0.0361
  295MPD2    C5 4447   0.027   1.015   0.043  0.1915  0.0123  0.1824
  295MPD2     H 4448   4.676   1.241   0.339  0.8527  1.4076  0.1417
  295MPD2    H1 4449   0.052   0.855   0.180 -3.2708 -0.2414  2.9139
  295MPD2    H2 4450   4.714   1.175  17.614  0.0424  0.1501  0.5245
  295MPD2    H3 4451   0.039   0.953  17.657 -0.1472 -2.0479  1.6015
  295MPD2     N 4452   0.013   0.987   0.401  0.0085 -0.0948  0.0437
  295MPD2    H5 4453   0.071   0.904   0.406  1.0160  0.5333 -1.1790
  295MPD2    N1 4454   4.649   1.361   0.101 -0.0226 -0.8338 -0.0055
  295MPD2    H7 4455   4.614   1.421   0.175  0.7086 -1.0720  0.5291
  296TMC3    C1 4456   0.055   0.985   0.637 -0.5139  0.5909 -0.6729
  296TMC3    C2 4457   0.100   1.062   0.744 -0.4047  0.0853 -0.6183
  296TMC3    C3 4458   0.139   1.005   0.856  0.5068  0.8197 -0.5357
  296TMC3    C4 4459   0.062   0.849   0.637  0.6889  0.7813 -0.0900
  296TMC3    C5 4460   0.086   0.791   0.758  0.1947  0.3429  0.5769
  296TMC3    C6 4461   0.134   0.871   0.862 -0.1085  0.5164 -0.5349
  296TMC3     C 4462   4.721   1.053   0.514  0.2746 -0.9301 -1.1952
  296TMC3     O 4463   4.679   1.166   0.537  0.2176 -0.7903 -0.5925
  296TMC3     H 4464   0.073   1.167   0.747 -1.2305 -0.1372 -0.0768
  296TMC3    H1 4465   0.015   0.781   0.566 -0.8903 -1.0235  2.7011
  296TMC3    H2 4466   0.162   0.816   0.951  2.3564  1.9729 -0.4107
  296TMC3    C7 4467   0.099   0.644   0.760 -0.1932  0.0633  0.4174
  296TMC3    C8 4468   0.225   1.069   0.953  1.0703 -1.2014 -0.3192
  296TMC3    O1 4469   0.147   0.594   0.661  0.1088 -0.5959 -0.3618
  296TMC3    O2 4470   0.296   1.000   1.026 -0.2053  0.2611  0.2991
  297MPD2     C 4471   1.710   4.598  16.051 -0.2266  0.6271  0.2503
  297MPD2    C1 4472   1.777   4.719  16.052 -0.1512 -0.0112  0.3659
  297MPD2    C2 4473   1.907   4.720  16.096  0.0906  0.5398  0.0457
  297MPD2    C3 4474   1.981   4.603  16.132 -0.5576 -0.0128 -0.5145
  297MPD2    C4 4475   1.916   4.484  16.135 -0.7440  0.4511  0.5921
  297MPD2    C5 4476   1.782   4.484  16.102 -0.3181  0.6773  0.6881
  297MPD2     H 4477   1.956   0.091  16.108  1.2144 -0.2357  1.6880
  297MPD2    H1 4478   1.962   4.391  16.165  1.0604  1.1703  0.0225
  297MPD2    H2 4479   1.609   4.591  16.011 -0.2926 -1.2557  0.7511
  297MPD2    H3 4480   1.738   4.386  16.094  1.8631 -0.2145 -0.2045
  297MPD2     N 4481   2.117   4.608  16.171 -0.0511  0.1427  0.0454
  297MPD2    H5 4482   2.148   4.699  16.202  1.6038 -0.5893  0.5223
  297MPD2    N1 4483   1.715   0.120  16.016 -0.5115  0.9342  0.6085
  297MPD2    H7 4484   1.771   0.204  16.016 -2.1907  2.0514  0.9365
  298TMC3    C1 4485   1.555   0.275  15.952 -0.4500 -0.8614 -0.2997
  298TMC3    C2 4486   1.660   0.353  15.908 -0.8474 -0.6484  0.2414
  298TMC3    C3 4487   1.652   0.489  15.940  0.1731  1.2289  0.4733
  298TMC3    C4 4488   1.442   0.318  16.014 -1.0036  0.4608 -0.8456
  298TMC3    C5 4489   1.446   0.449  16.049 -0.5690 -0.0194  0.5359
  298TMC3    C6 4490   1.542   0.536  16.009 -0.0893  0.9136  0.1868
  298TMC3     C 4491   1.585   0.139  15.978 -0.1192 -0.1700 -0.2359
  298TMC3     O 4492   1.491   0.061  15.969  0.4621  0.1477 -0.1029
  298TMC3     H 4493   1.750   0.313  15.862 -1.3060 -1.4375  0.0203
  298TMC3    H1 4494   1.372   0.248  16.059  0.6950 -0.8745 -0.2521
  298TMC3    H2 4495   1.524   0.641  16.025 -0.5205  1.1165 -1.5467
  298TMC3    C7 4496   1.363   0.490  16.159  0.5119  0.0849  0.8183
  298TMC3    C8 4497   1.698   0.582  15.838 -0.5418 -0.2938  0.1174
  298TMC3    O1 4498   1.416   0.560  16.243  0.4299  0.0905  0.1578
  298TMC3    O2 4499   1.678   0.697  15.868  0.2715  0.0464  0.5050
  299MPD2     C 4500   2.538   3.839  10.320  0.1791 -0.2211 -0.2481
  299MPD2    C1 4501   2.567   3.941  10.238 -0.1782  0.5234 -0.3605
  299MPD2    C2 4502   2.464   3.985  10.156 -0.9443 -0.1279  0.7235
  299MPD2    C3 4503   2.341   3.921  10.148 -0.1941 -0.2952  0.5139
  299MPD2    C4 4504   2.322   3.811  10.226 -1.1219 -0.1206 -0.8802
  299MPD2    C5 4505   2.416   3.772  10.318  0.1944 -0.2453  0.8453
  299MPD2     H 4506   2.479   4.080  10.107  0.0219  0.2113  1.6715
  299MPD2    H1 4507   2.228   3.758  10.218 -0.7093 -0.8516 -0.8744
  299MPD2    H2 4508   2.604   3.806  10.400  1.4320  0.8678 -0.8211
  299MPD2    H3 4509   2.398   3.688  10.383  0.1400 -1.1599 -0.3570
  299MPD2     N 4510   2.232   3.947  10.067  0.2378 -0.5904 -0.0316
  299MPD2    H5 4511   2.156   3.881  10.059 -0.9637  0.7946  0.0730
  299MPD2    N1 4512   2.678   4.019  10.260  0.1028 -0.0299 -0.2964
  299MPD2    H7 4513   2.737   3.976  10.330  0.3973  0.8254 -0.0177
  300TMC3    C1 4514   2.116   4.047   9.883  0.4095 -0.0526 -0.2097
  300TMC3    C2 4515   2.130   4.117   9.771 -0.0503  0.5652  0.3796
  300TMC3    C3 4516   2.016   4.161   9.715 -0.1346 -0.1634  0.5389
  300TMC3    C4 4517   2.001   4.033   9.951 -0.1168 -0.0980  0.1744
  300TMC3    C5 4518   1.890   4.069   9.884  0.7985 -0.4399 -0.2998
  300TMC3    C6 4519   1.893   4.137   9.767 -0.0417 -0.3787 -0.7810
  300TMC3     C 4520   2.236   4.037   9.964 -0.5097  0.5633 -0.4774
  300TMC3     O 4521   2.319   4.126   9.936  0.1646 -0.3604 -0.3280
  300TMC3     H 4522   2.225   4.112   9.718 -0.3476 -1.6008  0.0393
  300TMC3    H1 4523   1.989   3.970  10.039 -1.9141  1.2001  0.8597
  300TMC3    H2 4524   1.811   4.191   9.720  1.1299  2.3727  0.3799
  300TMC3    C7 4525   1.766   4.081   9.964 -0.0445  0.8903 -0.1357
  300TMC3    C8 4526   2.026   4.269   9.626 -0.7669  0.3253 -0.5200
  300TMC3    O1 4527   1.656   4.068   9.904  0.5894  0.3643 -0.0065
  300TMC3    O2 4528   1.934   4.275   9.546 -0.1413 -0.2423 -0.5463
  301MPD2     C 4529   4.350   0.635   0.798  0.1533  0.2781  0.1671
  301MPD2    C1 4530   4.245   0.590   0.873 -0.6910  0.4370 -0.6169
  301MPD2    C2 4531   4.240   0.452   0.913 -0.4021 -0.3179 -0.0961
  301MPD2    C3 4532   4.318   0.363   0.850  0.6672 -0.1269  0.1069
  301MPD2    C4 4533   4.411   0.409   0.760  0.2791 -0.2226 -0.4233
  301MPD2    C5 4534   4.426   0.542   0.740 -0.5505 -0.1664  0.4723
  301MPD2     H 4535   4.166   0.413   0.983 -1.5517  2.7617  0.4115
  301MPD2    H1 4536   4.486   0.347   0.712  0.0386 -0.5446 -0.3788
  301MPD2    H2 4537   4.362   0.742   0.781  1.0744  0.1460 -0.0260
  301MPD2    H3 4538   4.508   0.571   0.675 -2.8985  0.7977 -2.0605
  301MPD2     N 4539   4.298   0.224   0.869  0.3630  0.4640 -0.1128
  301MPD2    H5 4540   4.365   0.168   0.817 -0.4180  0.0457 -0.6718
  301MPD2    N1 4541   4.146   0.679   0.923  0.1889  0.3918 -0.4570
  301MPD2    H7 4542   4.083   0.634   0.989  1.3771 -0.6750 -0.0673
  302TMC3    C1 4543   4.176   0.020   0.915  0.1910 -0.2666  0.9672
  302TMC3    C2 4544   4.301   4.681   0.940 -0.4635  0.2758 -0.1266
  302TMC3    C3 4545   4.290   4.566   1.013  0.1773  0.2442 -0.0572
  302TMC3    C4 4546   4.057   4.695   0.954  0.3540 -0.3811 -0.3829
  302TMC3    C5 4547   4.062   4.574   1.012 -0.0785 -0.4248 -0.2043
  302TMC3    C6 4548   4.175   4.512   1.053 -0.2667  0.5007 -0.2744
  302TMC3     C 4549   4.182   0.162   0.924  0.0496  0.5877 -0.1671
  302TMC3     O 4550   4.083   0.218   0.965 -0.0392  0.0666  0.5320
  302TMC3     H 4551   4.388   4.712   0.884 -0.5886 -0.5264 -0.7628
  302TMC3    H1 4552   3.967   0.030   0.968  0.6195 -0.7737  2.9612
  302TMC3    H2 4553   4.174   4.414   1.100  1.6459  0.9112  0.5941
  302TMC3    C7 4554   3.944   4.526   1.073  0.6646  0.2065  0.1851
  302TMC3    C8 4555   4.393   4.470   0.993  0.2195 -0.0231 -0.2044
  302TMC3    O1 4556   3.954   4.456   1.170  0.2627  0.3819  0.4220
  302TMC3    O2 4557   4.452   4.475   0.886  0.2599  0.6800 -0.0273
  303MPD2     C 4558   0.107   4.312  10.150  0.0386 -0.3475 -0.2057
  303MPD2    C1 4559   0.044   4.195  10.178 -0.0357  0.0876 -0.4280
  303MPD2    C2 4560   4.686   4.135  10.087  0.1324  0.4339 -0.0211
  303MPD2    C3 4561   4.665   4.193   9.955  0.1949 -0.2896  0.0470
  303MPD2    C4 4562   0.008   4.309   9.930  0.3022 -0.1000 -0.4565
  303MPD2    C5 4563   0.088   4.372  10.027  0.4246  0.5019 -0.6456
  303MPD2     H 4564   4.634   4.041  10.107  0.1480  0.3953 -0.1619
  303MPD2    H1 4565   0.014   4.348   9.829  1.3249  0.5120 -0.1721
  303MPD2    H2 4566   0.167   4.369  10.220 -0.1692 -0.1107 -0.2160
  303MPD2    H3 4567   0.121   4.471   9.997 -0.0316  0.6321 -0.7247
  303MPD2     N 4568   4.591   4.130   9.854 -0.0244  1.4764  0.4440
  303MPD2    H5 4569   4.580   4.192   9.774  0.9143  0.2700 -0.6230
  303MPD2    N1 4570   0.061   4.147  10.311 -0.4231  0.2236  0.0995
  303MPD2    H7 4571   0.132   4.180  10.375  1.6023 -0.7394 -1.6430
  304TMC3    C1 4572   0.036   3.977  10.481  0.3233 -0.4484 -0.0917
  304TMC3    C2 4573   4.664   3.919  10.559 -0.2360 -0.6076 -0.1864
  304TMC3    C3 4574   4.698   3.820  10.641  0.0463  0.0688  0.3137
  304TMC3    C4 4575   0.166   3.931  10.474  0.0470  0.6444 -0.0459
  304TMC3    C5 4576   0.197   3.817  10.555  0.5305 -0.6135 -0.8623
  304TMC3    C6 4577   0.100   3.769  10.648 -0.2055 -0.3619  0.5306
  304TMC3     C 4578   4.706   4.041  10.364  0.3358 -0.4220  0.7447
  304TMC3     O 4579   4.591   4.009  10.332 -0.5109 -0.5317 -0.0861
  304TMC3     H 4580   4.566   3.964  10.554 -1.5925 -3.5024  0.4015
  304TMC3    H1 4581   0.243   3.968  10.407  0.9214  0.2105  0.7169
  304TMC3    H2 4582   0.122   3.690  10.719 -0.4370 -1.2955 -0.4372
  304TMC3    C7 4583   0.271   3.711  10.491 -0.2527  0.4371  0.3675
  304TMC3    C8 4584   4.604   3.709  10.630 -0.4758  0.6213  0.1822
  304TMC3    O1 4585   0.250   3.596  10.527 -1.1706 -0.0435 -0.1370
  304TMC3    O2 4586   4.489   3.743  10.652  0.4055 -0.1865 -0.8096
  305MPD2     C 4587   2.723   1.075  13.959 -0.0494  0.6883  0.6209
  305MPD2    C1 4588   2.846   1.012  13.960  0.7237  0.6950  0.4362
  305MPD2    C2 4589   2.883   0.937  13.851 -0.5072 -0.0171  0.2880
  305MPD2    C3 4590   2.798   0.924  13.738 -0.1776 -0.7190 -0.1335
  305MPD2    C4 4591   2.681   0.997  13.732  0.4533 -0.4983  0.4436
  305MPD2    C5 4592   2.649   1.080  13.844  0.0752 -0.3704  0.3428
  305MPD2     H 4593   2.972   0.875  13.858 -1.2968 -1.1258  0.5818
  305MPD2    H1 4594   2.616   1.001  13.646  1.4845  1.7163 -0.2344
  305MPD2    H2 4595   2.691   1.130  14.047 -0.8113 -0.4229  1.0490
  305MPD2    H3 4596   2.555   1.134  13.852 -0.8874 -1.8485 -0.9498
  305MPD2     N 4597   2.833   0.842  13.633  0.0847  0.1729  0.2014
  305MPD2    H5 4598   2.780   0.859  13.548  1.8948 -0.3558 -1.0570
  305MPD2    N1 4599   2.931   1.036  14.068  0.4471  0.6485 -0.2542
  305MPD2    H7 4600   2.902   1.098  14.143 -0.0809  1.6024 -1.2350
  306TMC3    C1 4601   3.132   1.083  14.174  1.0150 -0.7224 -0.8171
  306TMC3    C2 4602   3.265   1.126  14.163 -0.0189  0.4098 -0.1114
  306TMC3    C3 4603   3.322   1.166  14.280  1.2379 -0.0387  0.0989
  306TMC3    C4 4604   3.067   1.066  14.296 -0.0388  0.4780 -0.0465
  306TMC3    C5 4605   3.144   1.089  14.411 -0.0764  0.1059  0.9685
  306TMC3    C6 4606   3.265   1.153  14.402  0.4235 -0.6625  0.2316
  306TMC3     C 4607   3.071   1.020  14.061  0.3210 -0.6856  0.3028
  306TMC3     O 4608   3.144   0.994  13.963  0.1591 -0.1325 -0.3431
  306TMC3     H 4609   3.311   1.142  14.066  0.2473  0.5133  0.0307
  306TMC3    H1 4610   2.974   1.015  14.313 -1.1066  1.4165 -2.9314
  306TMC3    H2 4611   3.315   1.187  14.492  1.4625 -0.6716 -0.3480
  306TMC3    C7 4612   3.059   1.136  14.518  0.8636  0.2254  0.1334
  306TMC3    C8 4613   3.427   1.264  14.279  0.3336 -0.8144  0.3309
  306TMC3    O1 4614   2.946   1.147  14.486  0.3813  0.0092 -0.8294
  306TMC3    O2 4615   3.537   1.229  14.242 -0.1823  0.2975  0.6370
  307MPD2     C 4616   0.980   2.653  17.693  0.2567  0.1139 -0.1404
  307MPD2    C1 4617   0.943   2.793  17.694  0.2569  0.2501  0.2098
  307MPD2    C2 4618   0.828   2.835   0.050  0.1553  0.9778  0.1794
  307MPD2    C3 4619   0.751   2.751   0.116  0.3533 -0.1726 -0.4807
  307MPD2    C4 4620   0.787   2.618   0.123  0.3068 -0.7637 -0.7261
  307MPD2    C5 4621   0.893   2.566   0.051 -0.1253  0.4869 -0.0843
  307MPD2     H 4622   0.813   2.942   0.054  0.5022  1.0092  0.6260
  307MPD2    H1 4623   0.727   2.543   0.173  0.0005 -0.8985 -1.2971
  307MPD2    H2 4624   1.071   2.603  17.660  0.2119 -0.0979  0.0540
  307MPD2    H3 4625   0.903   2.458   0.057 -1.3084  0.5156  2.4585
  307MPD2     N 4626   0.635   2.803   0.175  0.4673 -1.2630 -0.6104
  307MPD2    H5 4627   0.626   2.904   0.171  2.4202 -1.0888 -0.4705
  307MPD2    N1 4628   1.024   2.885  17.624 -0.1068 -0.5980 -0.0378
  307MPD2    H7 4629   0.985   2.979  17.625 -0.9639 -0.9525  0.4352
  308TMC3    C1 4630   0.202   2.866   0.292  0.0375  0.3855  0.5319
  308TMC3    C2 4631   0.228   2.988   0.347 -0.8391 -0.0800  0.1144
  308TMC3    C3 4632   0.359   3.018   0.381  0.0517 -0.2427  0.5223
  308TMC3    C4 4633   0.296   2.777   0.252 -0.1624  0.1084 -0.2941
  308TMC3    C5 4634   0.424   2.820   0.277  0.3051 -0.2117 -0.0325
  308TMC3    C6 4635   0.461   2.938   0.338 -0.3385 -0.6792 -0.1106
  308TMC3     C 4636   0.066   2.822   0.259 -0.3323  0.4407 -0.4458
  308TMC3     O 4637   0.052   2.704   0.222 -0.3972 -0.7191 -0.5635
  308TMC3     H 4638   0.147   3.050   0.382  1.2416  1.6547  1.8539
  308TMC3    H1 4639   0.273   2.680   0.210 -0.3697  0.0511 -0.0503
  308TMC3    H2 4640   0.565   2.968   0.348 -0.6065  0.3012 -0.3206
  308TMC3    C7 4641   0.529   2.736   0.225 -0.6467 -0.1105  0.6148
  308TMC3    C8 4642   0.385   3.156   0.403  0.2310 -0.7163  0.4789
  308TMC3    O1 4643   0.503   2.618   0.202  0.0028  0.5020 -0.6743
  308TMC3    O2 4644   0.310   3.240   0.353  0.4960 -0.3745 -0.2851
  309MPD2     C 4645   0.177   4.008  17.053 -0.1010 -0.1279 -0.3791
  309MPD2    C1 4646   0.119   4.115  16.997  0.2735 -0.6075  1.0011
  309MPD2    C2 4647   4.720   4.148  17.046 -0.1296 -0.6638 -1.2860
  309MPD2    C3 4648   4.652   4.072  17.142  0.2597  0.1444 -0.3888
  309MPD2    C4 4649   4.709   3.957  17.186 -0.1122  0.3349  0.0079
  309MPD2    C5 4650   0.107   3.927  17.140 -0.5082  0.3395 -0.3438
  309MPD2     H 4651   4.674   4.235  17.001  0.1685 -0.4859 -1.2451
  309MPD2    H1 4652   4.658   3.883  17.248  0.7295 -1.1245 -1.0379
  309MPD2    H2 4653   0.278   3.974  17.033  0.2564  0.4422  0.4636
  309MPD2    H3 4654   0.147   3.835  17.181  2.1222  0.8319 -1.8419
  309MPD2     N 4655   4.525   4.114  17.180  0.8424 -0.1223 -0.2718
  309MPD2    H5 4656   4.489   4.195  17.130 -0.1658 -0.3323  0.1228
  309MPD2    N1 4657   0.190   4.195  16.906  0.0816  0.1693  0.7361
  309MPD2    H7 4658   0.136   4.274  16.875  0.1953 -0.8141 -2.0162
  310TMC3    C1 4659   0.387   4.279  16.790 -0.3503  0.3689  0.1577
  310TMC3    C2 4660   0.315   4.335  16.682  0.2411  0.6174  0.6544
  310TMC3    C3 4661   0.379   4.353  16.563  0.6796 -0.0483 -0.7053
  310TMC3    C4 4662   0.522   4.251  16.770  0.0062  0.0888 -0.6513
  310TMC3    C5 4663   0.572   4.262  16.643  0.5708 -0.0532  0.2318
  310TMC3    C6 4664   0.499   4.303  16.537  0.1361 -0.1080  0.1026
  310TMC3     C 4665   0.322   4.176  16.869 -0.0530  0.0149  0.1658
  310TMC3     O 4666   0.410   4.095  16.892 -0.3758 -0.2231  0.2649
  310TMC3     H 4667   0.216   4.379  16.695 -0.0315 -0.3899  2.0017
  310TMC3    H1 4668   0.591   4.228  16.850 -0.9085 -0.8988 -0.1542
  310TMC3    H2 4669   0.544   4.319  16.440 -1.2793  3.4822  0.0284
  310TMC3    C7 4670   0.703   4.189  16.636  0.1088  0.4910 -0.2519
  310TMC3    C8 4671   0.307   4.436  16.464 -0.2525  0.5055 -0.0206
  310TMC3    O1 4672   0.740   4.124  16.732 -0.3874 -0.6782  0.0347
  310TMC3    O2 4673   0.182   4.428  16.468  0.4182 -0.2340 -0.2033
  311MPD2     C 4674   2.132   0.567  12.627  0.4874  0.1991  0.6745
  311MPD2    C1 4675   2.119   0.668  12.723  0.4543 -0.2804  0.5453
  311MPD2    C2 4676   2.006   0.674  12.801  0.9391  0.3518 -0.6108
  311MPD2    C3 4677   1.906   0.571  12.807  0.4079  0.2015 -0.0399
  311MPD2    C4 4678   1.925   0.467  12.719  0.2307  0.3080 -0.4386
  311MPD2    C5 4679   2.032   0.474  12.630  0.3989  0.6716 -0.3800
  311MPD2     H 4680   1.989   0.759  12.865  0.0945 -1.3467  1.4216
  311MPD2    H1 4681   1.854   0.388  12.701  0.3877 -0.2820  1.5152
  311MPD2    H2 4682   2.217   0.559  12.561  0.1357  1.2187  0.1001
  311MPD2    H3 4683   2.044   0.397  12.555  2.5372 -0.2634  0.9232
  311MPD2     N 4684   1.782   0.593  12.878 -1.2181  0.0109 -0.0039
  311MPD2    H5 4685   1.784   0.662  12.953 -1.6489 -1.1284  1.0499
  311MPD2    N1 4686   2.216   0.778  12.735  0.0964  0.9363  0.1253
  311MPD2    H7 4687   2.186   0.849  12.801  0.7127  1.9387 -0.6872
  312TMC3    C1 4688   1.555   0.558  12.938 -0.0326  0.7866  0.2291
  312TMC3    C2 4689   1.448   0.542  12.856  0.8374  0.5404  1.0970
  312TMC3    C3 4690   1.340   0.476  12.909 -0.5680 -0.4620 -0.1622
  312TMC3    C4 4691   1.561   0.516  13.066 -0.3812  0.3086 -0.5264
  312TMC3    C5 4692   1.454   0.438  13.111  0.0719  0.3588 -0.1481
  312TMC3    C6 4693   1.350   0.413  13.031  0.1250 -0.6231 -0.0588
  312TMC3     C 4694   1.671   0.514  12.866 -0.3115 -0.3093  0.4083
  312TMC3     O 4695   1.652   0.422  12.786  0.4458  0.0830 -0.2441
  312TMC3     H 4696   1.445   0.585  12.757  2.1205 -0.0280  0.8131
  312TMC3    H1 4697   1.653   0.516  13.123 -0.6236 -1.5506 -0.1597
  312TMC3    H2 4698   1.261   0.367  13.074 -0.6157  0.0601 -0.8550
  312TMC3    C7 4699   1.444   0.394  13.249 -0.3783  1.2328  0.1379
  312TMC3    C8 4700   1.216   0.460  12.836 -1.1184  0.5959  0.1650
  312TMC3    O1 4701   1.364   0.302  13.261 -0.0345  0.3410 -0.0172
  312TMC3    O2 4702   1.147   0.360  12.849  0.0165 -0.1922 -0.0311
  313MPD2     C 4703   1.616   0.002  10.347  0.7183 -0.5744 -0.6762
  313MPD2    C1 4704   1.522   0.088  10.399 -0.4717  0.2212 -0.9783
  313MPD2    C2 4705   1.388   0.067  10.374  0.3649  0.9005 -0.3036
  313MPD2    C3 4706   1.356   4.683  10.289 -0.7026 -0.3401 -0.0542
  313MPD2    C4 4707   1.458   4.595  10.249  0.1620  0.1411  0.5140
  313MPD2    C5 4708   1.587   4.618  10.269  0.4628 -0.0052  0.1781
  313MPD2     H 4709   1.312   0.138  10.404 -0.5501 -0.4894  0.6336
  313MPD2    H1 4710   1.434   4.511  10.184 -0.0053 -0.4385  1.3202
  313MPD2    H2 4711   1.723   0.013  10.360  0.4825 -1.4881  1.9099
  313MPD2    H3 4712   1.666   4.565  10.217 -1.3076 -0.6716 -1.8400
  313MPD2     N 4713   1.223   4.671  10.255 -0.2625  0.3688 -0.1747
  313MPD2    H5 4714   1.156   0.017  10.284 -2.9954 -2.0982 -0.4430
  313MPD2    N1 4715   1.553   0.208  10.469  0.2010  0.0637  0.6120
  313MPD2    H7 4716   1.472   0.255  10.508 -1.3981 -0.9855 -1.4658
  314TMC3    C1 4717   1.667   0.379  10.561 -0.1628 -0.1984  0.6789
  314TMC3    C2 4718   1.784   0.449  10.587 -0.2200  0.4577 -0.2053
  314TMC3    C3 4719   1.786   0.579  10.632 -0.6662  0.4750  0.5719
  314TMC3    C4 4720   1.545   0.437  10.591  0.1001 -0.1097 -0.5465
  314TMC3    C5 4721   1.548   0.570  10.629  0.1219  0.5650 -0.0737
  314TMC3    C6 4722   1.663   0.642  10.655 -0.0721 -1.0007  0.2918
  314TMC3     C 4723   1.678   0.264  10.475 -0.0709  0.2789 -0.5212
  314TMC3     O 4724   1.783   0.230  10.432  0.2586  0.2495  0.2151
  314TMC3     H 4725   1.876   0.396  10.564 -1.1393 -1.3046  0.2252
  314TMC3    H1 4726   1.449   0.399  10.556 -0.1649  0.8022 -0.8224
  314TMC3    H2 4727   1.664   0.743  10.694 -3.0927 -1.2378  0.9995
  314TMC3    C7 4728   1.425   0.641  10.596  0.9823 -0.2714 -0.1852
  314TMC3    C8 4729   1.903   0.649  10.672  0.4394 -0.3705 -0.0139
  314TMC3    O1 4730   1.319   0.588  10.629 -0.1260  0.0506 -0.6372
  314TMC3    O2 4731   1.897   0.753  10.736  0.0807 -0.1075  0.0796
  315MPD2     C 4732   0.843   4.029   0.254  0.4365 -0.7307 -0.5430
  315MPD2    C1 4733   0.966   4.015   0.201 -0.3489  0.4067  0.6954
  315MPD2    C2 4734   1.014   4.130   0.135  0.1581  0.3954 -0.1173
  315MPD2    C3 4735   0.936   4.239   0.115  0.3140 -0.2370  0.1477
  315MPD2    C4 4736   0.808   4.246   0.164  0.0259  0.2584 -0.1726
  315MPD2    C5 4737   0.763   4.141   0.245  0.0890 -0.0719 -0.3210
  315MPD2     H 4738   1.101   4.118   0.072 -0.2149  1.6865 -0.8751
  315MPD2    H1 4739   0.741   4.330   0.152  2.4179  2.2771  0.4282
  315MPD2    H2 4740   0.793   3.954   0.313 -2.1133  0.0620 -1.6715
  315MPD2    H3 4741   0.657   4.134   0.268  0.6336 -2.3212  1.5376
  315MPD2     N 4742   0.999   4.340   0.043  0.0813 -0.0935 -0.2581
  315MPD2    H5 4743   1.098   4.334   0.022  0.0553 -2.0555  0.2254
  315MPD2    N1 4744   1.046   3.899   0.210 -0.0433 -0.1095  0.4915
  315MPD2    H7 4745   1.139   3.904   0.169  0.2139  0.6866  1.1806
  316TMC3    C1 4746   1.038   4.568  17.691 -0.6043 -0.1936 -0.3407
  316TMC3    C2 4747   1.057   4.606   0.120 -0.4025  0.3035 -0.2636
  316TMC3    C3 4748   1.185   4.608   0.167  0.8469  0.1414  0.6392
  316TMC3    C4 4749   1.146   4.535  17.610 -0.4217 -0.5805  0.0387
  316TMC3    C5 4750   1.271   4.558  17.654  0.0373 -0.2188 -0.9719
  316TMC3    C6 4751   1.292   4.585   0.088  0.5177 -0.1753  0.3988
  316TMC3     C 4752   0.940   4.464   0.010 -0.2536 -0.3570 -0.5840
  316TMC3     O 4753   0.828   4.509   0.030 -0.0602 -0.5919 -0.6104
  316TMC3     H 4754   0.973   4.606   0.188  0.1867 -0.7225  0.4696
  316TMC3    H1 4755   1.140   4.494  17.510 -2.4982 -0.0752 -0.0473
  316TMC3    H2 4756   1.397   4.588   0.115  0.6331 -0.3167 -0.0248
  316TMC3    C7 4757   1.365   4.628  17.568 -0.0283  0.0464 -0.6862
  316TMC3    C8 4758   1.183   4.535   0.294 -0.3693  0.2040  0.2969
  316TMC3    O1 4759   1.482   4.632  17.600 -0.0791  0.0715  0.6525
  316TMC3    O2 4760   1.092   4.573   0.369 -0.0163  0.0976 -0.3977
  317MPD2     C 4761   3.363   2.635  12.593 -0.0130  0.4092  0.1093
  317MPD2    C1 4762   3.482   2.581  12.645  0.4077  0.2283 -1.0308
  317MPD2    C2 4763   3.494   2.568  12.779 -0.3414 -0.3236 -0.0566
  317MPD2    C3 4764   3.394   2.588  12.864 -0.0270 -0.2141 -0.3907
  317MPD2    C4 4765   3.272   2.625  12.810  0.4408 -0.0110  0.0554
  317MPD2    C5 4766   3.252   2.635  12.673  0.2305  0.0221 -0.2366
  317MPD2     H 4767   3.583   2.534  12.830 -0.0652 -1.5226 -1.3218
  317MPD2    H1 4768   3.178   2.633  12.863  0.2207 -2.4389  0.0347
  317MPD2    H2 4769   3.340   2.638  12.487  4.5093 -1.9650 -0.9865
  317MPD2    H3 4770   3.152   2.661  12.640  0.6566  1.5530 -0.2996
  317MPD2     N 4771   3.419   2.571  12.997 -0.0978  0.6180 -0.3474
  317MPD2    H5 4772   3.508   2.530  13.023 -0.9451 -1.6077 -0.9034
  317MPD2    N1 4773   3.597   2.559  12.569  0.4099  0.2369 -1.0140
  317MPD2    H7 4774   3.677   2.528  12.623  1.1869 -0.1763 -2.3983
  318TMC3    C1 4775   3.383   2.567  13.229  0.2758  0.7318  0.0969
  318TMC3    C2 4776   3.343   2.440  13.242  0.3221 -0.1450 -0.0177
  318TMC3    C3 4777   3.390   2.378  13.356 -0.1699  0.0054  0.1655
  318TMC3    C4 4778   3.456   2.636  13.320  0.1524 -0.0620 -0.4808
  318TMC3    C5 4779   3.492   2.566  13.432  0.5592 -0.2381  0.0668
  318TMC3    C6 4780   3.453   2.438  13.462  0.2995 -0.0440 -0.2683
  318TMC3     C 4781   3.357   2.635  13.104  0.4468  0.3105 -0.5026
  318TMC3     O 4782   3.277   2.731  13.091 -0.2411  0.9786  0.7531
  318TMC3     H 4783   3.310   2.389  13.152 -0.9568  0.1026  0.3141
  318TMC3    H1 4784   3.500   2.731  13.293  0.0748 -0.7255 -3.0201
  318TMC3    H2 4785   3.470   2.389  13.556  1.0824  1.5269  0.4136
  318TMC3    C7 4786   3.605   2.613  13.516  0.0684 -0.0902 -0.1429
  318TMC3    C8 4787   3.354   2.239  13.366 -0.4098  0.0092  0.1656
  318TMC3    O1 4788   3.629   2.735  13.525 -0.1411  0.2663  0.0894
  318TMC3    O2 4789   3.416   2.163  13.439  0.5707 -0.7335 -0.0954
  319MPD2     C 4790   3.858   3.795  16.783 -0.6633  0.0316  0.0143
  319MPD2    C1 4791   3.789   3.692  16.835 -0.5089 -0.6095  0.9171
  319MPD2    C2 4792   3.678   3.645  16.765 -0.2635  0.5120  0.1806
  319MPD2    C3 4793   3.638   3.700  16.647  0.0366  0.7603  0.8235
  319MPD2    C4 4794   3.707   3.804  16.601 -0.1784 -0.2569 -0.1938
  319MPD2    C5 4795   3.814   3.850  16.672  0.1647  0.3747  0.8677
  319MPD2     H 4796   3.623   3.560  16.803 -0.0116 -0.0130 -0.6232
  319MPD2    H1 4797   3.682   3.856  16.509 -0.6640 -1.8024 -0.9274
  319MPD2    H2 4798   3.951   3.826  16.830  0.0624  1.4974 -2.3780
  319MPD2    H3 4799   3.875   3.927  16.627  2.5588 -2.0200  0.0260
  319MPD2     N 4800   3.533   3.648  16.558  0.3264 -0.6801 -0.0131
  319MPD2    H5 4801   3.515   3.706  16.477 -0.5214  2.4887  2.4612
  319MPD2    N1 4802   3.821   3.626  16.957  0.4196 -0.8539 -0.1626
  319MPD2    H7 4803   3.763   3.549  16.987  0.3287 -0.9994 -0.7070
  320TMC3    C1 4804   3.342   3.519  16.484  0.0029 -1.0671 -0.1484
  320TMC3    C2 4805   3.334   3.606  16.374  0.4157 -0.1650 -0.6173
  320TMC3    C3 4806   3.288   3.562  16.257  0.2128  0.5114  0.0373
  320TMC3    C4 4807   3.288   3.394  16.472  0.0148  0.4668  0.4427
  320TMC3    C5 4808   3.218   3.360  16.355 -0.7993 -0.1091  1.2319
  320TMC3    C6 4809   3.228   3.441  16.244 -0.2322 -0.4168  0.0521
  320TMC3     C 4810   3.459   3.532  16.579 -0.1130 -0.5261  0.1930
  320TMC3     O 4811   3.488   3.433  16.644  0.1934 -0.0171  0.3221
  320TMC3     H 4812   3.376   3.706  16.378 -0.6554  0.3386 -1.7905
  320TMC3    H1 4813   3.291   3.319  16.549  1.8602 -1.8355 -1.8870
  320TMC3    H2 4814   3.184   3.403  16.152 -4.1455  0.9457  1.3873
  320TMC3    C7 4815   3.170   3.223  16.334 -0.2754 -0.0160 -0.5219
  320TMC3    C8 4816   3.288   3.660  16.143  0.3296 -0.0595 -0.2483
  320TMC3    O1 4817   3.151   3.182  16.221 -0.1753 -0.0234  0.1210
  320TMC3    O2 4818   3.333   3.772  16.156  0.9571 -0.2131 -0.0235
  321TMC3    C1 4819   3.944   3.562  17.149 -0.4488 -0.2438 -0.6795
  321TMC3    C2 4820   4.072   3.566  17.217 -0.4751  0.4677  0.3710
  321TMC3    C3 4821   4.093   3.491  17.330  0.4253  0.4693 -0.2577
  321TMC3    C4 4822   3.848   3.473  17.188  0.7974  0.0273 -0.1506
  321TMC3    C5 4823   3.881   3.396  17.299 -0.0896  0.4166 -0.8185
  321TMC3    C6 4824   3.995   3.412  17.369 -0.0427 -0.1218 -0.2281
  321TMC3     C 4825   3.927   3.655  17.036  0.3001 -0.4997 -0.2183
  321TMC3     O 4826   4.021   3.736  17.022  0.4852  0.2115  0.7494
  321TMC3     H 4827   4.147   3.642  17.196 -0.4348  0.3666  0.1538
  321TMC3    H1 4828   3.764   3.461  17.120  1.0890 -0.2919 -0.4525
  321TMC3    H2 4829   4.004   3.364  17.466  3.0317 -2.3495 -1.6405
  321TMC3    C7 4830   3.840   3.258  17.289 -0.1954 -0.5732 -0.6659
  321TMC3    C8 4831   4.203   3.400  17.305  0.1674  0.1551 -0.1536
  321TMC3    O1 4832   3.728   3.230  17.244  0.1512 -0.2918  0.0831
  321TMC3    O2 4833   4.181   3.288  17.349 -0.2654  0.3924 -0.0053
  322MPD2     C 4834   3.012   0.409  13.712  0.2635  0.1434  0.5144
  322MPD2    C1 4835   2.978   0.391  13.842 -0.1776 -0.6177  0.2885
  322MPD2    C2 4836   2.922   0.269  13.880 -0.2619 -0.3535 -0.2543
  322MPD2    C3 4837   2.891   0.175  13.779 -0.9657  0.7810 -0.3300
  322MPD2    C4 4838   2.913   0.204  13.646  0.1712 -0.3196 -0.1314
  322MPD2    C5 4839   2.977   0.319  13.616 -0.2005 -0.2129  0.2980
  322MPD2     H 4840   2.898   0.253  13.984  1.0243 -2.7785 -0.3401
  322MPD2    H1 4841   2.885   0.140  13.564 -1.6683 -2.2514  2.0074
  322MPD2    H2 4842   3.063   0.497  13.676 -3.4718  2.5369  1.0980
  322MPD2    H3 4843   3.015   0.336  13.516  1.0664 -0.0442  0.7968
  322MPD2     N 4844   2.828   0.057  13.828 -0.5012 -0.7454  0.0649
  322MPD2    H5 4845   2.842   0.037  13.927 -0.8283  0.6986  0.3999
  322MPD2    N1 4846   3.011   0.488  13.934  0.0680  0.3009  0.3736
  322MPD2    H7 4847   3.089   0.548  13.910 -0.0516  1.3573  2.6324
  323TMC3    C1 4848   3.002   0.602  14.145 -0.6028  0.0749 -0.3690
  323TMC3    C2 4849   3.101   0.683  14.098 -0.2289 -0.0481  0.1133
  323TMC3    C3 4850   3.192   0.737  14.188  0.2716  0.0696 -0.3010
  323TMC3    C4 4851   2.986   0.578  14.279  0.3421 -0.3630 -0.6429
  323TMC3    C5 4852   3.082   0.624  14.364  0.6357  0.3590 -0.2049
  323TMC3    C6 4853   3.178   0.708  14.321 -0.5465 -0.6124  0.2035
  323TMC3     C 4854   2.954   0.495  14.062  0.1913  0.1012  0.0020
  323TMC3     O 4855   2.848   0.442  14.094 -0.0633  0.5726 -0.3221
  323TMC3     H 4856   3.108   0.707  13.992  2.0612 -0.8783  0.0789
  323TMC3    H1 4857   2.906   0.509  14.303 -0.9491  1.8815  1.4821
  323TMC3    H2 4858   3.235   0.761  14.396  1.3814 -2.1545 -0.1853
  323TMC3    C7 4859   3.107   0.527  14.474 -0.7218 -0.1091  0.4587
  323TMC3    C8 4860   3.332   0.758  14.147 -0.7781 -0.1314  0.1339
  323TMC3    O1 4861   3.030   0.433  14.496  0.2652  0.3025  0.0986
  323TMC3    O2 4862   3.410   0.771  14.236  0.0565 -0.3313 -0.1862
  324MPD2     C 4863   0.207   1.600  14.381  0.5496 -0.3454 -0.3910
  324MPD2    C1 4864   0.174   1.563  14.250  0.8722  0.3606 -0.5876
  324MPD2    C2 4865   0.049   1.612  14.194  0.2948 -0.3508 -0.7913
  324MPD2    C3 4866   4.680   1.677  14.272 -0.1704 -0.1112  0.1643
  324MPD2    C4 4867   4.722   1.712  14.402 -0.4152 -0.1433  0.1700
  324MPD2    C5 4868   0.120   1.678  14.456  0.6453  0.4429  0.3416
  324MPD2     H 4869   0.031   1.582  14.091  0.6480  1.8772 -1.5002
  324MPD2    H1 4870   4.662   1.766  14.474 -1.3689  2.1427 -2.3799
  324MPD2    H2 4871   0.290   1.557  14.436 -1.0413 -2.1131  0.6313
  324MPD2    H3 4872   0.147   1.702  14.559  0.7789 -2.8173  1.0530
  324MPD2     N 4873   4.548   1.718  14.243 -0.5246 -0.1966 -0.0031
  324MPD2    H5 4874   4.502   1.773  14.315  0.9500  1.3850 -0.2769
  324MPD2    N1 4875   0.269   1.508  14.162 -0.4251  0.5980 -0.2152
  324MPD2    H7 4876   0.234   1.500  14.066  0.1560 -0.3161 -0.3543
  325TMC3    C1 4877   4.352   1.744  14.132 -0.4001 -0.6341 -0.0425
  325TMC3    C2 4878   4.229   1.691  14.095 -0.3717  0.4095  0.6229
  325TMC3    C3 4879   4.116   1.763  14.087  0.3712 -0.1518 -0.2481
  325TMC3    C4 4880   4.352   1.879  14.141  0.4011  0.1118  0.0849
  325TMC3    C5 4881   4.234   1.945  14.134 -0.0339 -0.0743  1.2866
  325TMC3    C6 4882   4.111   1.895  14.109 -0.2576 -0.5398  0.3935
  325TMC3     C 4883   4.475   1.671  14.138 -0.3706  0.5185  0.1191
  325TMC3     O 4884   4.497   1.589  14.050  0.2784 -0.3252  0.3396
  325TMC3     H 4885   4.224   1.591  14.053 -1.5077  0.7256  0.0287
  325TMC3    H1 4886   4.432   1.932  14.193  1.9395 -1.4229 -0.7278
  325TMC3    H2 4887   4.020   1.950  14.129 -0.0588 -0.2048  0.3801
  325TMC3    C7 4888   4.242   2.081  14.179  0.0784  0.3063 -0.9092
  325TMC3    C8 4889   3.996   1.686  14.094  0.3506  0.2139 -0.3397
  325TMC3    O1 4890   4.340   2.111  14.241 -0.0240  0.0014 -0.4592
  325TMC3    O2 4891   4.006   1.571  14.129 -0.3739 -0.0817 -0.4738
  326MPD2     C 4892   0.875   2.679  10.810 -0.4589  0.1497  0.2398
  326MPD2    C1 4893   0.997   2.622  10.783 -0.3095 -0.0667 -0.7513
  326MPD2    C2 4894   1.105   2.659  10.865 -0.0581 -0.7058 -0.4658
  326MPD2    C3 4895   1.090   2.757  10.963 -0.4211 -0.1908  0.5131
  326MPD2    C4 4896   0.967   2.818  10.979  0.5215 -0.5279  0.0229
  326MPD2    C5 4897   0.862   2.774  10.904 -0.2629  0.1153  0.1131
  326MPD2     H 4898   1.203   2.615  10.849 -0.5936 -1.0363 -2.8407
  326MPD2    H1 4899   0.933   2.887  11.056  2.1305  0.4265 -0.1369
  326MPD2    H2 4900   0.784   2.653  10.757 -1.5482  0.5317  1.9000
  326MPD2    H3 4901   0.760   2.806  10.918 -0.7369 -2.0811  1.6073
  326MPD2     N 4902   1.196   2.815  11.032  0.3361  0.4014 -0.2294
  326MPD2    H5 4903   1.176   2.901  11.083 -2.1192 -0.6459  0.5333
  326MPD2    N1 4904   1.022   2.540  10.668 -0.4895  0.1033  0.5843
  326MPD2    H7 4905   1.113   2.502  10.645 -0.1535  0.3380  1.5239
  327TMC3    C1 4906   0.995   2.426  10.468  0.3581  0.2337  0.7748
  327TMC3    C2 4907   0.943   2.481  10.351 -0.0726 -0.2483 -0.3370
  327TMC3    C3 4908   1.035   2.535  10.263 -0.4740 -0.1316 -0.5573
  327TMC3    C4 4909   1.131   2.405  10.485 -0.0593 -0.5720  0.5734
  327TMC3    C5 4910   1.220   2.447  10.385 -0.6788  0.0435 -0.6415
  327TMC3    C6 4911   1.169   2.519  10.283 -0.5126  0.0217  1.0187
  327TMC3     C 4912   0.930   2.491  10.580  0.5304 -0.7765 -0.3530
  327TMC3     O 4913   0.813   2.521  10.558  0.0115  0.0950 -0.1518
  327TMC3     H 4914   0.838   2.508  10.341 -0.0580  0.0538  0.3600
  327TMC3    H1 4915   1.164   2.341  10.565  1.6796 -0.6644 -0.2051
  327TMC3    H2 4916   1.241   2.580  10.230  0.7480  0.6605  3.4628
  327TMC3    C7 4917   1.358   2.446  10.409 -0.3889  0.3260  0.5484
  327TMC3    C8 4918   0.997   2.666  10.209  0.2823  0.6511  0.3040
  327TMC3    O1 4919   1.421   2.468  10.307 -0.0637  0.3970 -0.6117
  327TMC3    O2 4920   1.070   2.762  10.225 -0.3104 -0.8379  0.5260
  328MPD2     C 4921   3.087   2.334  17.306  0.1303  0.2794  0.8099
  328MPD2    C1 4922   3.045   2.271  17.193 -0.2266  0.4296  0.0697
  328MPD2    C2 4923   3.083   2.331  17.069  0.0850  0.8596 -0.9598
  328MPD2    C3 4924   3.135   2.449  17.051 -0.2969  0.0075 -0.5499
  328MPD2    C4 4925   3.189   2.506  17.166 -0.4330 -0.3390 -0.2229
  328MPD2    C5 4926   3.163   2.448  17.288 -0.0715  0.0615  0.3005
  328MPD2     H 4927   3.062   2.268  16.983  0.0104 -1.0904  0.4723
  328MPD2    H1 4928   3.208   2.613  17.164 -2.9283  0.1177 -0.0165
  328MPD2    H2 4929   3.065   2.279  17.397  0.1380 -4.8714 -2.2908
  328MPD2    H3 4930   3.201   2.507  17.371  1.7840  0.4223 -0.8086
  328MPD2     N 4931   3.147   2.523  16.927  0.5580  0.1953  0.6743
  328MPD2    H5 4932   3.203   2.608  16.934  0.0582  0.5503  0.3587
  328MPD2    N1 4933   2.954   2.161  17.211  0.0734  0.1602 -0.1371
  328MPD2    H7 4934   2.932   2.139  17.308 -0.9049 -1.0145 -0.6201
  329TMC3    C1 4935   2.749   2.039  17.144 -0.5710  0.2114 -0.0394
  329TMC3    C2 4936   2.669   2.117  17.226 -0.2247 -0.0097  0.1863
  329TMC3    C3 4937   2.531   2.111  17.215 -0.3952  0.1807 -0.6968
  329TMC3    C4 4938   2.700   1.958  17.043 -0.1491 -0.0579 -0.3004
  329TMC3    C5 4939   2.565   1.959  17.030 -0.2233  0.0232 -0.1917
  329TMC3    C6 4940   2.479   2.037  17.112  0.1438  0.0407  0.4056
  329TMC3     C 4941   2.876   2.095  17.112 -0.3084  0.3073 -0.4506
  329TMC3     O 4942   2.919   2.085  17.000 -0.1191  0.0199  0.4429
  329TMC3     H 4943   2.720   2.186  17.292  0.9728  0.0341 -0.7908
  329TMC3    H1 4944   2.776   1.904  16.988 -0.3105 -1.0510  0.4630
  329TMC3    H2 4945   2.371   2.040  17.100  0.3526  2.6245 -0.7604
  329TMC3    C7 4946   2.518   1.959  16.890  0.4389  0.4112 -0.3658
  329TMC3    C8 4947   2.458   2.239  17.232  0.3905 -0.3553 -0.8332
  329TMC3    O1 4948   2.421   2.020  16.849 -0.3686 -0.2219 -0.5907
  329TMC3    O2 4949   2.371   2.265  17.148 -0.6920 -0.1315  0.2652
  330TMC3    C1 4950   1.597   1.844   9.462 -0.3281  0.6115  0.6874
  330TMC3    C2 4951   1.480   1.791   9.433  0.5440  0.2522  0.2929
  330TMC3    C3 4952   1.462   1.658   9.454  0.0993 -0.9407  0.5897
  330TMC3    C4 4953   1.706   1.768   9.500  0.0219  0.2269 -0.0474
  330TMC3    C5 4954   1.688   1.629   9.515  0.2252 -1.3382 -0.2158
  330TMC3    C6 4955   1.563   1.577   9.492 -0.0548 -0.3124 -0.0331
  330TMC3     C 4956   1.630   1.987   9.437  0.5557  0.3856  0.1348
  330TMC3     O 4957   1.749   2.010   9.438 -0.1446  0.4617  0.4773
  330TMC3     H 4958   1.397   1.858   9.411  0.3120  0.2551  1.1363
  330TMC3    H1 4959   1.803   1.817   9.497  0.4791 -0.5910  1.4241
  330TMC3    H2 4960   1.555   1.469   9.499  1.3636 -0.4295 -0.2343
  330TMC3    C7 4961   1.792   1.536   9.535  0.9350  0.1991  0.3000
  330TMC3    C8 4962   1.344   1.603   9.388 -0.1216  0.4418 -0.2129
  330TMC3    O1 4963   1.762   1.427   9.589  0.4485  0.2651 -0.8935
  330TMC3    O2 4964   1.305   1.681   9.300  0.1358 -0.1618  0.2425
  331MPD2     C 4965   4.054   0.603  12.815  0.2817 -0.4057 -0.6109
  331MPD2    C1 4966   4.166   0.643  12.741 -0.0283  0.3934 -0.3452
  331MPD2    C2 4967   4.160   0.612  12.607 -0.1061 -0.6669  0.3070
  331MPD2    C3 4968   4.048   0.542  12.558 -0.4328 -0.5777 -0.2738
  331MPD2    C4 4969   3.943   0.507  12.632  0.4179 -0.3880 -0.4238
  331MPD2    C5 4970   3.953   0.535  12.764  0.2216  0.3221 -0.1865
  331MPD2     H 4971   4.232   0.644  12.533 -2.3410 -0.0091 -1.5642
  331MPD2    H1 4972   3.865   0.440  12.598  2.4480 -1.1668 -3.5225
  331MPD2    H2 4973   4.055   0.614  12.923 -2.0985 -1.3252 -0.5064
  331MPD2    H3 4974   3.878   0.504  12.836  2.2698 -2.1935  0.8906
  331MPD2     N 4975   4.058   0.498  12.423  0.1867 -0.1443 -0.2770
  331MPD2    H5 4976   4.150   0.493  12.382 -0.5174 -0.6408 -1.7916
  331MPD2    N1 4977   4.265   0.720  12.809 -1.0724  0.0221 -0.5993
  331MPD2    H7 4978   4.248   0.757  12.902 -0.7595 -0.3884 -0.3802
  332TMC3    C1 4979   4.016   0.374  12.241 -0.5736  0.2796  0.4100
  332TMC3    C2 4980   4.081   0.441  12.140  0.0060 -0.2097  0.8252
  332TMC3    C3 4981   4.201   0.398  12.094 -0.8179 -0.7471  0.8593
  332TMC3    C4 4982   4.080   0.269  12.296  0.9487  0.1040  0.0158
  332TMC3    C5 4983   4.199   0.228  12.244  0.0635 -0.5126  1.0568
  332TMC3    C6 4984   4.267   0.297  12.149  0.7723  0.0978  0.0394
  332TMC3     C 4985   3.952   0.460  12.340  0.2383  0.5737  0.2337
  332TMC3     O 4986   3.832   0.472  12.341  0.0937  0.0965  0.1222
  332TMC3     H 4987   4.041   0.540  12.121  0.6496 -0.0621  0.2478
  332TMC3    H1 4988   4.047   0.232  12.392  0.6890  0.7789  0.1836
  332TMC3    H2 4989   4.362   0.259  12.112 -0.5118 -1.3454 -1.7445
  332TMC3    C7 4990   4.276   0.136  12.331  0.6759 -0.4159  0.1804
  332TMC3    C8 4991   4.286   0.471  11.996 -0.1682  0.2377  0.7089
  332TMC3    O1 4992   4.208   0.061  12.402 -0.1912  0.5111  0.5196
  332TMC3    O2 4993   4.410   0.460  12.003  0.7429  0.1758  0.4713
  333MPD2     C 4994   0.047   0.811  11.252 -0.9864 -0.0214 -0.5350
  333MPD2    C1 4995   0.023   0.800  11.117  0.1368 -0.1235  0.0746
  333MPD2    C2 4996   4.649   0.714  11.072  0.7505  0.5982  0.3376
  333MPD2    C3 4997   4.576   0.641  11.162  0.3167  0.2475  0.0925
  333MPD2    C4 4998   4.592   0.667  11.296  0.1157  0.1728  0.6532
  333MPD2    C5 4999   4.689   0.748  11.342  0.0982  0.3474  0.2517
  333MPD2     H 5000   4.637   0.700  10.965  0.9119 -0.8458  0.5177
  333MPD2    H1 5001   4.522   0.631  11.370  2.1106 -1.1019  1.9243
  333MPD2    H2 5002   0.131   0.867  11.294  1.0055 -4.1096  0.8850
  333MPD2    H3 5003   4.697   0.773  11.447 -0.2008 -3.1822  1.1052
  333MPD2     N 5004   4.506   0.534  11.109 -0.5834  0.8477 -0.1780
  333MPD2    H5 5005   4.531   0.504  11.016 -2.6399  1.1826 -0.8425
  333MPD2    N1 5006   0.113   0.862  11.030 -0.2814  0.0368  0.5460
  333MPD2    H7 5007   0.194   0.911  11.066  1.8751 -2.9432 -0.2558
  334TMC3    C1 5008   0.198   0.955  10.838 -0.0949 -0.4819 -0.2633
  334TMC3    C2 5009   0.331   0.919  10.856  0.2336 -0.1735 -0.3311
  334TMC3    C3 5010   0.419   0.991  10.784  0.6386 -0.6137 -0.7484
  334TMC3    C4 5011   0.151   1.043  10.751 -0.1312 -0.2626 -0.5206
  334TMC3    C5 5012   0.242   1.117  10.680  0.2214  0.3020  0.8827
  334TMC3    C6 5013   0.374   1.089  10.695 -0.2610  0.0893  0.0177
  334TMC3     C 5014   0.093   0.878  10.896 -0.6885  0.4025 -0.6762
  334TMC3     O 5015   4.715   0.857  10.836  0.8974 -0.1888  0.0714
  334TMC3     H 5016   0.363   0.847  10.931 -3.7589 -1.5203  0.0619
  334TMC3    H1 5017   0.047   1.072  10.754 -0.0419  0.1273 -1.2747
  334TMC3    H2 5018   0.440   1.153  10.638 -0.4317 -0.1543 -0.4509
  334TMC3    C7 5019   0.201   1.245  10.640  0.0733  0.3042  0.2738
  334TMC3    C8 5020   0.562   0.971  10.793  0.1766 -0.0021  0.1124
  334TMC3    O1 5021   0.280   1.339  10.641 -0.0753  0.8087  0.2576
  334TMC3    O2 5022   0.629   1.071  10.769 -0.7126 -0.2627 -0.4475
  335TMC3    C1 5023   4.297   1.885  17.262  0.6363  0.4621 -0.1460
  335TMC3    C2 5024   4.173   1.943  17.284  0.2699 -1.0198  0.3807
  335TMC3    C3 5025   4.154   2.072  17.229 -0.0368  0.3088 -0.1558
  335TMC3    C4 5026   4.403   1.947  17.206 -0.5386  0.3412  0.5282
  335TMC3    C5 5027   4.374   2.072  17.156 -0.4051  0.2920  0.1673
  335TMC3    C6 5028   4.252   2.134  17.166 -1.2502 -0.0756  0.3026
  335TMC3     C 5029   4.317   1.744  17.285  0.5452 -0.3699 -0.4642
  335TMC3     O 5030   4.412   1.685  17.234 -0.1185 -0.7936  0.5271
  335TMC3     H 5031   4.089   1.905  17.341  0.2513 -2.6472 -0.7333
  335TMC3    H1 5032   4.500   1.899  17.203  0.6435  2.7896 -0.3278
  335TMC3    H2 5033   4.234   2.227  17.114  0.0425  0.5557  1.0123
  335TMC3    C7 5034   4.468   2.132  17.062  1.1760 -0.0516 -0.8253
  335TMC3    C8 5035   4.023   2.114  17.177  0.5866 -0.7671  0.2069
  335TMC3    O1 5036   4.458   2.253  17.046  0.6267  0.3655 -0.0903
  335TMC3    O2 5037   4.007   2.233  17.153 -0.6208 -0.0714  0.2156
  336MPD2     C 5038   4.015   0.548  16.135 -0.4061  0.7718 -0.3094
  336MPD2    C1 5039   3.895   0.503  16.087 -0.5221 -0.8632 -0.1287
  336MPD2    C2 5040   3.885   0.367  16.075 -0.3151 -0.0407  0.4633
  336MPD2    C3 5041   3.977   0.274  16.121 -0.1649  0.0207 -0.6757
  336MPD2    C4 5042   4.096   0.322  16.170 -0.4028 -0.6845 -0.1906
  336MPD2    C5 5043   4.104   0.456  16.177 -0.6967 -0.0977 -0.3814
  336MPD2     H 5044   3.792   0.327  16.037 -0.8854  0.5832  1.2240
  336MPD2    H1 5045   4.171   0.250  16.200  1.2256  0.0717 -2.4683
  336MPD2    H2 5046   4.044   0.652  16.123  2.1414  0.1596  0.5320
  336MPD2    H3 5047   4.196   0.502  16.214 -1.3115 -0.0110  1.0378
  336MPD2     N 5048   3.954   0.132  16.123  0.6344 -0.1587  0.0741
  336MPD2    H5 5049   4.028   0.071  16.158  0.3982  0.5904  1.8750
  336MPD2    N1 5050   3.790   0.585  16.040 -0.3744  0.3159  0.3611
  336MPD2    H7 5051   3.709   0.535  16.003 -0.3610  2.1020 -2.1336
  337TMC3    C1 5052   3.683   0.782  15.977  0.2947 -0.2301  0.4707
  337TMC3    C2 5053   3.558   0.724  15.978  0.6595  0.1285  0.0721
  337TMC3    C3 5054   3.472   0.763  15.880 -0.3827 -0.4535  0.0222
  337TMC3    C4 5055   3.720   0.880  15.889  0.8608  0.6716 -0.4398
  337TMC3    C5 5056   3.620   0.927  15.803  0.0188 -0.7158 -0.4365
  337TMC3    C6 5057   3.499   0.862  15.787  0.3236 -0.6192 -0.4646
  337TMC3     C 5058   3.793   0.723  16.047 -0.4746 -0.6740  0.0323
  337TMC3     O 5059   3.891   0.795  16.054  0.1568  0.3223 -0.2222
  337TMC3     H 5060   3.536   0.649  16.053 -2.1332  0.6649 -0.2230
  337TMC3    H1 5061   3.817   0.927  15.888  0.5857  1.2074 -1.3866
  337TMC3    H2 5062   3.426   0.901  15.716  1.4968 -0.9563 -1.8546
  337TMC3    C7 5063   3.660   1.033  15.712 -0.0286 -0.1609  0.0938
  337TMC3    C8 5064   3.342   0.706  15.884 -0.7209 -0.4827  0.0121
  337TMC3    O1 5065   3.603   1.064  15.609  0.2391  0.5168 -0.4128
  337TMC3    O2 5066   3.282   0.666  15.983  0.6934 -0.2363  0.3605
  338MPD2     C 5067   3.838   3.554   0.890  0.1476  0.1337 -0.0421
  338MPD2    C1 5068   3.767   3.571   0.771 -0.4708  0.0514  0.6535
  338MPD2    C2 5069   3.653   3.649   0.776 -0.6322 -0.2971 -0.2306
  338MPD2    C3 5070   3.602   3.702   0.896 -0.4208  0.3213 -0.2705
  338MPD2    C4 5071   3.680   3.684   1.011  0.0377  0.0992 -1.1476
  338MPD2    C5 5072   3.798   3.607   1.005  0.1575  0.1342 -0.7091
  338MPD2     H 5073   3.599   3.664   0.683  0.0637  1.1371 -0.4015
  338MPD2    H1 5074   3.654   3.733   1.105  2.8885 -1.0867  0.2677
  338MPD2    H2 5075   3.932   3.501   0.900 -0.4052 -0.6482  1.0103
  338MPD2    H3 5076   3.857   3.582   1.093 -3.0437  1.3801  1.7797
  338MPD2     N 5077   3.481   3.775   0.884  0.3271  0.5954  0.1150
  338MPD2    H5 5078   3.440   3.776   0.791  0.3464 -0.0216  0.0986
  338MPD2    N1 5079   3.798   3.512   0.647  0.0514  0.3114  0.0644
  338MPD2    H7 5080   3.728   3.530   0.575  0.1526  1.1487  0.1828
  339TMC3    C1 5081   3.289   3.888   0.949 -1.0673 -0.3491 -0.2505
  339TMC3    C2 5082   3.168   3.829   0.976  0.7149  0.4340 -0.1250
  339TMC3    C3 5083   3.069   3.834   0.879  0.4109 -0.4067  0.6415
  339TMC3    C4 5084   3.309   3.960   0.829 -0.2629 -0.3813  0.3092
  339TMC3    C5 5085   3.213   3.951   0.736  0.0799  0.1022  0.0782
  339TMC3    C6 5086   3.086   3.899   0.761 -0.4397  0.5934  0.1567
  339TMC3     C 5087   3.399   3.806   0.986 -0.5782 -0.0695 -0.1120
  339TMC3     O 5088   3.426   3.794   1.104 -0.3432 -0.1608 -0.5984
  339TMC3     H 5089   3.161   3.771   1.067  3.4849  0.4949  0.1424
  339TMC3    H1 5090   3.403   4.013   0.817  1.6414 -3.6273  0.7967
  339TMC3    H2 5091   3.019   3.878   0.679 -1.9219 -1.6912  1.9759
  339TMC3    C7 5092   3.254   3.976   0.606 -0.0415 -0.5789 -0.0418
  339TMC3    C8 5093   2.961   3.739   0.880  0.2838  0.1254  0.5444
  339TMC3    O1 5094   3.366   4.025   0.594 -0.1871  0.6321  0.4176
  339TMC3    O2 5095   2.911   3.696   0.779  0.2244 -0.2629  0.6189
  340MPD2     C 5096   4.460   0.823   9.230  0.4093  0.7684  0.6097
  340MPD2    C1 5097   4.402   0.932   9.156 -0.2191 -0.3618  0.7182
  340MPD2    C2 5098   4.316   1.023   9.217  0.9499  0.3901 -0.1280
  340MPD2    C3 5099   4.294   1.014   9.360 -0.6321 -0.1472  0.2744
  340MPD2    C4 5100   4.357   0.911   9.428  0.1855  0.4520 -0.2315
  340MPD2    C5 5101   4.436   0.821   9.362 -0.6361  0.0095 -0.1814
  340MPD2     H 5102   4.271   1.103   9.160  0.1148 -1.1239 -1.5733
  340MPD2    H1 5103   4.364   0.897   9.535 -0.6288  4.0010  0.2503
  340MPD2    H2 5104   4.523   0.749   9.184  1.0555  1.5047  0.3122
  340MPD2    H3 5105   4.488   0.746   9.421 -2.0661  0.8149  2.1310
  340MPD2     N 5106   4.228   1.106   9.439 -0.2278 -0.3319  0.0756
  340MPD2    H5 5107   4.233   1.103   9.540  1.0566  0.7884  0.0427
  340MPD2    N1 5108   4.450   0.935   9.018 -0.7695  0.2185 -0.2410
  340MPD2    H7 5109   4.524   0.870   8.994 -1.0712 -0.6595  1.2227
  341TMC3    C1 5110   4.530   1.021   8.825 -0.1657  0.4467 -0.0818
  341TMC3    C2 5111   4.595   0.898   8.823  0.1890 -0.3337  0.5527
  341TMC3    C3 5112   0.005   0.890   8.809  0.0084 -0.1086 -0.1810
  341TMC3    C4 5113   4.594   1.140   8.806  0.2668  0.2262  0.8625
  341TMC3    C5 5114   0.001   1.126   8.779 -0.5035  0.5372 -0.5438
  341TMC3    C6 5115   0.068   1.010   8.787 -0.1004  0.4305  0.8041
  341TMC3     C 5116   4.422   1.029   8.919 -0.0781  0.6247 -0.7438
  341TMC3     O 5117   4.357   1.130   8.921 -0.6204  0.1136  0.1937
  341TMC3     H 5118   4.549   0.803   8.848  1.1298 -0.8170  0.4253
  341TMC3    H1 5119   4.544   1.234   8.826  1.2973  0.9168  0.1899
  341TMC3    H2 5120   0.176   1.016   8.794 -0.1475  1.2639  0.8509
  341TMC3    C7 5121   0.077   1.247   8.797 -0.1758  0.4753  0.0490
  341TMC3    C8 5122   0.060   0.820   8.930 -0.0220  0.2201 -0.3824
  341TMC3    O1 5123   0.041   1.339   8.871 -0.1080  0.4453 -0.2999
  341TMC3    O2 5124   4.716   0.823   9.031  0.5039  0.1496  0.8489
  342MPD2     C 5125   2.328   0.601   0.246  0.1300 -0.2263 -0.7140
  342MPD2    C1 5126   2.417   0.604   0.142 -0.1692 -0.0982 -0.5206
  342MPD2    C2 5127   2.464   0.719   0.087 -0.7579 -0.7167 -0.1852
  342MPD2    C3 5128   2.407   0.835   0.133  0.2014  0.6678 -0.0119
  342MPD2    C4 5129   2.318   0.835   0.232 -0.2856  0.0358 -0.4242
  342MPD2    C5 5130   2.276   0.717   0.283  0.3225 -0.4039 -0.3944
  342MPD2     H 5131   2.543   0.712   0.012 -0.3941 -0.3402  0.1600
  342MPD2    H1 5132   2.273   0.922   0.279  0.9590 -0.3835  1.5255
  342MPD2    H2 5133   2.306   0.507   0.295  0.3078 -0.1716 -0.5332
  342MPD2    H3 5134   2.198   0.713   0.359  1.5388  1.3902  0.9695
  342MPD2     N 5135   2.451   0.966   0.104 -0.1363  0.1945  0.4394
  342MPD2    H5 5136   2.414   1.042   0.158  2.7286  0.5188  1.9461
  342MPD2    N1 5137   2.468   0.491   0.082  0.0088  0.5805 -0.0762
  342MPD2    H7 5138   2.544   0.500   0.016  0.1174 -2.4576 -0.3305
  343TMC3    C1 5139   2.453   0.265  17.692  0.5915  0.5587 -0.4201
  343TMC3    C2 5140   2.573   0.281  17.630  0.1726  0.1367  0.9037
  343TMC3    C3 5141   2.616   0.176  17.553 -1.1446  0.7229 -0.5456
  343TMC3    C4 5142   2.373   0.152  17.691  0.4912  0.0527 -0.2843
  343TMC3    C5 5143   2.420   0.053  17.601 -0.3271  0.1259 -0.1335
  343TMC3    C6 5144   2.540   0.055  17.539 -0.1896 -0.0300 -0.4153
  343TMC3     C 5145   2.402   0.365   0.084 -0.0222 -0.5764 -0.2340
  343TMC3     O 5146   2.304   0.332   0.151  0.0424  0.2669  0.0570
  343TMC3     H 5147   2.636   0.368  17.642  0.3387  0.2035 -0.4261
  343TMC3    H1 5148   2.270   0.147   0.023  0.6814  1.8286  0.5919
  343TMC3    H2 5149   2.571   4.693  17.482  1.2500  1.1393 -1.4090
  343TMC3    C7 5150   2.332   4.672  17.575  0.1099 -1.0486 -0.3351
  343TMC3    C8 5151   2.760   0.172  17.535 -0.0126  0.0823  0.3443
  343TMC3    O1 5152   2.364   4.596  17.482  0.1395  0.4750  0.6734
  343TMC3    O2 5153   2.810   0.268  17.590 -0.2493 -0.2603 -0.3792
  344MPD2     C 5154   2.780   0.114  10.245  0.4362 -0.3772  0.5911
  344MPD2    C1 5155   2.864   0.049  10.163 -0.7985 -0.4723  0.6239
  344MPD2    C2 5156   2.927   0.113  10.062  0.5684 -0.0116 -0.3611
  344MPD2    C3 5157   2.911   0.255  10.043 -0.9534  0.0812  0.3860
  344MPD2    C4 5158   2.820   0.320  10.123 -0.4988 -0.0014  0.3317
  344MPD2    C5 5159   2.756   0.248  10.221  0.7454  0.4152  0.2918
  344MPD2     H 5160   2.994   0.049  10.005 -1.0318 -2.3699  0.3971
  344MPD2    H1 5161   2.798   0.425  10.112  1.9051  0.5132  0.4705
  344MPD2    H2 5162   2.720   0.062  10.319  0.3963  0.9080  1.4788
  344MPD2    H3 5163   2.671   0.292  10.272  0.0466 -0.5937  0.0070
  344MPD2     N 5164   2.977   0.329   9.937 -0.2654 -0.5339 -0.7828
  344MPD2    H5 5165   2.942   0.421   9.913 -1.6781 -1.2128 -1.2786
  344MPD2    N1 5166   2.884   4.635  10.179  0.6264  0.1150 -0.4541
  344MPD2    H7 5167   2.933   4.580  10.109 -2.3376  0.2040 -2.5849
  345TMC3    C1 5168   3.147   0.378   9.791 -0.5586  0.2048  0.5219
  345TMC3    C2 5169   3.275   0.416   9.821 -0.4933  0.2606 -0.2835
  345TMC3    C3 5170   3.321   0.534   9.769 -0.2725  0.4359  1.2418
  345TMC3    C4 5171   3.054   0.461   9.732  0.6321  0.0022 -0.6551
  345TMC3    C5 5172   3.102   0.580   9.685  1.0638  0.1074  0.1047
  345TMC3    C6 5173   3.233   0.619   9.702  0.0053 -0.5575 -0.8450
  345TMC3     C 5174   3.098   0.284   9.894 -0.0632  0.1088  0.6568
  345TMC3     O 5175   3.173   0.205   9.949 -0.4396 -0.0799  0.0677
  345TMC3     H 5176   3.338   0.347   9.876  0.9539 -0.6064 -3.0197
  345TMC3    H1 5177   2.950   0.434   9.725  0.2741  0.7137  1.8034
  345TMC3    H2 5178   3.270   0.704   9.647 -0.9302 -0.2001 -0.9247
  345TMC3    C7 5179   3.006   0.697   9.673  0.2104 -0.0751 -0.7138
  345TMC3    C8 5180   3.403   0.622   9.843 -0.3940  0.5568 -0.5720
  345TMC3    O1 5181   2.886   0.675   9.651 -0.5067  0.6058 -0.2420
  345TMC3    O2 5182   3.355   0.737   9.853 -0.3637 -0.7452 -0.2689
  346MPD2     C 5183   3.178   1.935  14.352 -0.1236 -0.0670  0.2217
  346MPD2    C1 5184   3.231   2.020  14.256  0.1308 -0.0921 -0.6253
  346MPD2    C2 5185   3.312   2.123  14.283 -0.3177  0.2455  0.5431
  346MPD2    C3 5186   3.338   2.153  14.416  0.0030 -0.4194 -0.0507
  346MPD2    C4 5187   3.280   2.070  14.516 -0.5428  0.6338 -0.6722
  346MPD2    C5 5188   3.209   1.956  14.485  0.4197  0.2711 -0.0294
  346MPD2     H 5189   3.346   2.185  14.201 -0.0674 -0.1042  0.3806
  346MPD2    H1 5190   3.319   2.081  14.617 -2.3400 -0.2958  0.1269
  346MPD2    H2 5191   3.103   1.857  14.337  1.2186 -1.2971 -0.0677
  346MPD2    H3 5192   3.170   1.897  14.567 -0.3704  0.7576 -0.0509
  346MPD2     N 5193   3.429   2.253  14.444 -0.0782 -0.2226 -0.2226
  346MPD2    H5 5194   3.451   2.315  14.366  0.9381  1.7229  1.6130
  346MPD2    N1 5195   3.211   1.999  14.117  1.1727 -0.3477 -0.4013
  346MPD2    H7 5196   3.262   2.059  14.054 -0.6428  0.5237 -1.0191
  347TMC3    C1 5197   3.590   2.392  14.561 -0.1029  0.6469 -0.4394
  347TMC3    C2 5198   3.609   2.464  14.444 -0.6714 -0.3664  0.6797
  347TMC3    C3 5199   3.718   2.551  14.438 -0.9133  1.0247 -0.4412
  347TMC3    C4 5200   3.679   2.409  14.659 -0.6069 -0.3224  0.5794
  347TMC3    C5 5201   3.787   2.489  14.644 -0.0294 -0.3026 -0.5432
  347TMC3    C6 5202   3.807   2.575  14.545  0.0876  0.4402 -0.4327
  347TMC3     C 5203   3.497   2.277  14.562 -0.7223 -0.3520  0.7068
  347TMC3     O 5204   3.505   2.220  14.669 -0.2208 -0.2655 -0.7080
  347TMC3     H 5205   3.538   2.463  14.362 -1.4531  1.7190  1.3316
  347TMC3    H1 5206   3.666   2.342  14.743  1.3899 -1.5691 -0.0871
  347TMC3    H2 5207   3.897   2.635  14.536  0.8863 -0.9834 -1.8309
  347TMC3    C7 5208   3.899   2.460  14.736 -0.3904  0.1822  0.5601
  347TMC3    C8 5209   3.789   2.516  14.316  0.4967 -0.2920  0.0273
  347TMC3    O1 5210   3.879   2.376  14.824  0.0645 -0.2524  0.2083
  347TMC3    O2 5211   3.745   2.427  14.246 -0.1308  0.1449  0.1855
  348MPD2     C 5212   2.110   1.585  12.311 -0.2436  0.2512 -0.0245
  348MPD2    C1 5213   2.220   1.577  12.224  0.1740  0.0586  0.6711
  348MPD2    C2 5214   2.207   1.631  12.102 -0.4748  0.8745  0.2347
  348MPD2    C3 5215   2.082   1.683  12.052  0.5570  1.2844 -0.6648
  348MPD2    C4 5216   1.973   1.699  12.134 -1.0884 -0.1148  0.4828
  348MPD2    C5 5217   1.997   1.649  12.260 -0.5940 -0.3109  0.5103
  348MPD2     H 5218   2.288   1.622  12.031 -1.9509 -1.4654 -1.1657
  348MPD2    H1 5219   1.880   1.746  12.104 -1.3570 -0.2418  1.1161
  348MPD2    H2 5220   2.116   1.548  12.413  1.9541 -0.0904 -0.2855
  348MPD2    H3 5221   1.921   1.650  12.337  1.7480 -0.7858  2.8393
  348MPD2     N 5222   2.094   1.738  11.922 -0.1694 -0.8474  0.2141
  348MPD2    H5 5223   2.181   1.727  11.870 -0.3411  0.2288 -0.3130
  348MPD2    N1 5224   2.340   1.513  12.260  0.4715  0.0268 -0.3054
  348MPD2    H7 5225   2.414   1.500  12.192  0.1262 -0.8349 -0.5232
  349TMC3    C1 5226   2.491   1.366  12.361 -0.6040  0.1249 -0.2751
  349TMC3    C2 5227   2.480   1.234  12.381 -0.8472 -0.1017  0.7664
  349TMC3    C3 5228   2.550   1.153  12.294 -0.5116  0.8835  0.4616
  349TMC3    C4 5229   2.583   1.428  12.276  0.6256  0.1719 -0.0560
  349TMC3    C5 5230   2.647   1.336  12.188  0.0736  0.0232  0.2320
  349TMC3    C6 5231   2.628   1.201  12.189  0.2965 -0.0198 -0.0698
  349TMC3     C 5232   2.370   1.440  12.378 -0.4991  0.4250 -0.4289
  349TMC3     O 5233   2.285   1.411  12.465  0.2105 -0.1926 -0.5660
  349TMC3     H 5234   2.405   1.200  12.452 -0.3987  0.7991  1.6663
  349TMC3    H1 5235   2.602   1.534  12.279 -0.3268  0.3521 -0.3985
  349TMC3    H2 5236   2.670   1.141  12.109 -0.4972  0.2972 -0.7183
  349TMC3    C7 5237   2.627   1.390  12.051  0.0535 -0.5029  0.2584
  349TMC3    C8 5238   2.521   1.011  12.299  0.6220  0.9533 -0.1600
  349TMC3    O1 5239   2.522   1.359  11.995  0.1031  0.9084  0.4668
  349TMC3    O2 5240   2.421   0.972  12.355  0.1021 -0.1507  0.0613
  350MPD2     C 5241   0.705   4.639   9.380  0.0377  0.1310  0.3397
  350MPD2    C1 5242   0.745   4.524   9.450  0.1993  0.5462 -0.2068
  350MPD2    C2 5243   0.810   4.535   9.574  0.9945 -0.7806  0.9398
  350MPD2    C3 5244   0.801   4.657   9.638 -0.2434 -0.0766  0.1439
  350MPD2    C4 5245   0.742   0.043   9.576  0.9088 -0.5519 -0.4030
  350MPD2    C5 5246   0.702   0.032   9.444  0.2972 -0.1689  0.7080
  350MPD2     H 5247   0.852   4.446   9.620  0.8090 -0.6434  1.3740
  350MPD2    H1 5248   0.723   0.134   9.632 -0.4366 -2.0303  1.5072
  350MPD2    H2 5249   0.680   4.631   9.275  0.5512 -1.1028  0.3123
  350MPD2    H3 5250   0.659   0.117   9.393  2.2813  0.3858 -0.0391
  350MPD2     N 5251   0.856   4.659   9.775  0.4999 -0.4629  0.1864
  350MPD2    H5 5252   0.915   4.578   9.794  0.0204 -0.9610 -0.4550
  350MPD2    N1 5253   0.724   4.398   9.397 -0.2458  0.6398 -0.1580
  350MPD2    H7 5254   0.768   4.317   9.439  0.3529  0.9841 -0.1134
  351TMC3    C1 5255   0.645   4.228   9.271  0.1062 -0.2382 -0.1475
  351TMC3    C2 5256   0.763   4.168   9.306  0.1094 -0.4117  0.7148
  351TMC3    C3 5257   0.756   4.044   9.361  0.0830 -0.2213  0.2161
  351TMC3    C4 5258   0.523   4.164   9.284  0.6206  0.8020  0.2578
  351TMC3    C5 5259   0.525   4.049   9.355 -0.1884  0.0523 -0.7271
  351TMC3    C6 5260   0.637   3.976   9.388  0.0932 -0.0355  0.0693
  351TMC3     C 5261   0.634   4.372   9.299 -0.3295  0.1356  0.3124
  351TMC3     O 5262   0.543   4.437   9.258  0.3467 -0.1318 -0.4096
  351TMC3     H 5263   0.860   4.217   9.299  0.5912 -1.3740  0.7342
  351TMC3    H1 5264   0.434   4.221   9.261 -0.0011 -0.7282 -1.0938
  351TMC3    H2 5265   0.627   3.876   9.429  1.7948 -0.1830  0.1404
  351TMC3    C7 5266   0.397   3.993   9.360  0.0043  0.0719  0.8568
  351TMC3    C8 5267   0.881   3.972   9.379 -0.1883 -0.2225  0.0730
  351TMC3    O1 5268   0.325   4.021   9.262  0.1556  0.1056 -0.7068
  351TMC3    O2 5269   0.981   4.005   9.316  0.4446 -0.0456  0.0051
  352MPD2     C 5270   3.818   1.577   0.599  0.5237 -0.3237 -0.1161
  352MPD2    C1 5271   3.744   1.558   0.712  0.1470  0.5785  0.2878
  352MPD2    C2 5272   3.762   1.447   0.788 -0.1941  0.6267 -0.0936
  352MPD2    C3 5273   3.856   1.352   0.753 -0.3765 -0.5425 -0.2582
  352MPD2    C4 5274   3.937   1.380   0.649  0.1083 -0.0556 -0.2587
  352MPD2    C5 5275   3.918   1.493   0.575 -0.0974 -0.8358 -0.4042
  352MPD2     H 5276   3.701   1.428   0.875  0.1192  0.9190  0.1943
  352MPD2    H1 5277   4.016   1.310   0.626  1.1256  0.5812  1.3030
  352MPD2    H2 5278   3.798   1.652   0.524 -1.1076 -1.3649 -0.7279
  352MPD2    H3 5279   3.982   1.513   0.490  2.0724 -2.1858  0.9052
  352MPD2     N 5280   3.892   1.234   0.826 -0.0195  0.6910 -0.6555
  352MPD2    H5 5281   3.974   1.182   0.797 -0.8501  0.5682 -2.7739
  352MPD2    N1 5282   3.638   1.648   0.734 -0.0808 -0.1861  0.3043
  352MPD2    H7 5283   3.627   1.710   0.654  1.0096  2.1912  2.0131
  353TMC3    C1 5284   3.879   1.058   0.967 -0.0814 -0.4378  0.2151
  353TMC3    C2 5285   3.988   1.006   0.916  0.2476  0.0100 -0.0593
  353TMC3    C3 5286   4.018   0.879   0.959 -0.0373 -0.2924 -0.2864
  353TMC3    C4 5287   3.803   0.996   1.066  0.0622  0.7656  0.6633
  353TMC3    C5 5288   3.843   0.875   1.111  0.5940  0.5789 -0.2549
  353TMC3    C6 5289   3.954   0.811   1.056 -0.0176 -0.4757  0.0396
  353TMC3     C 5290   3.833   1.198   0.945  0.6863 -0.2870  0.1579
  353TMC3     O 5291   3.746   1.246   1.014 -0.6331 -0.1164 -0.4608
  353TMC3     H 5292   4.056   1.054   0.847  1.8308 -0.9164  0.8624
  353TMC3    H1 5293   3.708   1.042   1.092  1.0122  1.3757  3.0862
  353TMC3    H2 5294   3.975   0.713   1.098  0.0801  0.0129  1.1256
  353TMC3    C7 5295   3.738   0.780   1.160 -0.1510 -0.2485  0.6608
  353TMC3    C8 5296   4.136   0.819   0.911  0.4929 -0.4603  0.2183
  353TMC3    O1 5297   3.738   0.661   1.126  0.0317  0.1850 -0.3097
  353TMC3    O2 5298   4.217   0.900   0.864  0.2909  0.0735 -0.1361
  354TMC3    C1 5299   0.996   2.628  13.110 -0.0530 -0.1597  0.3983
  354TMC3    C2 5300   1.030   2.760  13.124  0.2247 -0.7357 -0.0706
  354TMC3    C3 5301   1.136   2.798  13.054 -0.7202 -0.6655 -0.0072
  354TMC3    C4 5302   1.075   2.535  13.048 -0.5295  0.5896 -0.2143
  354TMC3    C5 5303   1.175   2.584  12.970  0.2963 -0.4936 -0.6270
  354TMC3    C6 5304   1.207   2.717  12.974  0.4031  0.1860  0.7294
  354TMC3     C 5305   0.870   2.587  13.160 -0.2210  0.1279  0.4114
  354TMC3     O 5306   0.870   2.469  13.194  0.1869  0.0103  0.4159
  354TMC3     H 5307   0.963   2.810  13.193 -0.4204 -0.7341 -0.6954
  354TMC3    H1 5308   1.038   2.434  13.035 -1.4099  0.9427 -0.4278
  354TMC3    H2 5309   1.309   2.730  12.939 -0.1286 -0.3123 -1.0198
  354TMC3    C7 5310   1.258   2.487  12.902  0.0074  0.1850 -0.4542
  354TMC3    C8 5311   1.164   2.938  13.021  0.1379 -0.6242  0.1761
  354TMC3    O1 5312   1.247   2.365  12.926  0.5124  0.0328 -0.5433
  354TMC3    O2 5313   1.221   2.964  12.916 -0.1030  0.7449 -0.4720
  355MPD2     C 5314   1.068   3.762  11.747  0.1689 -0.0371  0.2479
  355MPD2    C1 5315   1.165   3.815  11.661  0.4804  0.5515 -0.4480
  355MPD2    C2 5316   1.298   3.796  11.693  0.2109 -0.0518 -0.7869
  355MPD2    C3 5317   1.338   3.731  11.807  0.0579 -0.6391 -0.2173
  355MPD2    C4 5318   1.242   3.695  11.891 -0.8778 -0.3380  0.0791
  355MPD2    C5 5319   1.104   3.701  11.861  0.1239  0.3266  1.0250
  355MPD2     H 5320   1.375   3.843  11.633 -1.3515  0.3131 -2.5193
  355MPD2    H1 5321   1.254   3.655  11.991 -0.2368  1.1654  0.6021
  355MPD2    H2 5322   0.964   3.768  11.718  0.2924 -3.6286 -0.8916
  355MPD2    H3 5323   1.024   3.668  11.926 -1.3025  0.0161 -0.8855
  355MPD2     N 5324   1.472   3.709  11.837 -0.1681 -0.5927 -0.3792
  355MPD2    H5 5325   1.484   3.655  11.923  0.1811  2.7618  1.6549
  355MPD2    N1 5326   1.124   3.879  11.540 -0.4828 -0.7447  0.9117
  355MPD2    H7 5327   1.024   3.890  11.531 -0.2127  0.8992 -0.1123
  356TMC3    C1 5328   1.713   3.728  11.793 -0.1437 -0.0733  0.5303
  356TMC3    C2 5329   1.807   3.729  11.690  0.2376 -1.1220  0.4187
  356TMC3    C3 5330   1.935   3.786  11.707  0.2873  1.0643  0.3083
  356TMC3    C4 5331   1.755   3.783  11.911  0.6560  0.1821  0.0022
  356TMC3    C5 5332   1.875   3.843  11.926  0.3899  0.0917  1.5878
  356TMC3    C6 5333   1.980   3.844  11.831 -0.3204  0.4952  0.6141
  356TMC3     C 5334   1.577   3.742  11.746  0.1187  0.0010  0.0985
  356TMC3     O 5335   1.576   3.780  11.632 -0.9532  0.0752  0.1112
  356TMC3     H 5336   1.782   3.679  11.597 -0.8231 -0.4924  0.3625
  356TMC3    H1 5337   1.683   3.812  11.987  0.2843  1.6077 -0.8870
  356TMC3    H2 5338   2.083   3.867  11.852  0.2793 -2.3788  0.8223
  356TMC3    C7 5339   1.909   3.876  12.065 -0.4117 -0.0166  0.9637
  356TMC3    C8 5340   2.011   3.814  11.585  0.5379 -0.1725 -0.3122
  356TMC3    O1 5341   1.869   3.801  12.154  0.6005 -0.3005  0.0491
  356TMC3    O2 5342   1.966   3.755  11.487  0.2087  0.7750  0.1900
  357MPD2     C 5343   0.314   2.785   0.690  0.4119  0.2073 -0.1938
  357MPD2    C1 5344   0.366   2.664   0.637  0.2845 -0.1666  0.0722
  357MPD2    C2 5345   0.286   2.574   0.574 -0.3436  0.2365  0.1683
  357MPD2    C3 5346   0.148   2.586   0.583  0.0556 -0.0989  0.3707
  357MPD2    C4 5347   0.094   2.697   0.649  0.8022 -1.1824  0.2065
  357MPD2    C5 5348   0.177   2.790   0.695 -0.1374  0.1522 -0.3022
  357MPD2     H 5349   0.336   2.496   0.517 -1.1403 -1.0236  1.1899
  357MPD2    H1 5350   4.713   2.717   0.661  1.5475  0.9366  3.2609
  357MPD2    H2 5351   0.372   2.862   0.739  0.1288  0.1517  0.2260
  357MPD2    H3 5352   0.144   2.861   0.770 -0.1660 -0.4421  0.2529
  357MPD2     N 5353   0.061   2.488   0.529 -0.5784  0.2105 -0.5551
  357MPD2    H5 5354   4.687   2.494   0.551 -0.6880  0.5521 -1.1336
  357MPD2    N1 5355   0.507   2.657   0.633  0.3229 -0.0217 -0.3026
  357MPD2    H7 5356   0.551   2.744   0.660 -0.3791 -0.2120  1.4407
  358TMC3    C1 5357   0.725   2.571   0.627  0.1283 -0.0633 -0.4603
  358TMC3    C2 5358   0.816   2.493   0.562 -0.3692  0.4442 -0.0401
  358TMC3    C3 5359   0.939   2.538   0.549  0.1840  0.6702  0.2521
  358TMC3    C4 5360   0.752   2.694   0.682  0.2448 -0.6876  0.1316
  358TMC3    C5 5361   0.880   2.734   0.674 -0.2083  0.4535 -0.1099
  358TMC3    C6 5362   0.972   2.666   0.588  0.0169  0.1251 -0.6078
  358TMC3     C 5363   0.583   2.548   0.601  0.3789 -0.9520  0.7422
  358TMC3     O 5364   0.551   2.425   0.595 -0.1772  0.0247  0.0769
  358TMC3     H 5365   0.786   2.406   0.505  0.9374  1.3352 -2.0772
  358TMC3    H1 5366   0.680   2.737   0.750  0.8788  2.2992 -1.1131
  358TMC3    H2 5367   1.075   2.696   0.602  0.1233  0.1642 -1.4948
  358TMC3    C7 5368   0.916   2.866   0.726  0.3634  0.0019 -0.3918
  358TMC3    C8 5369   1.029   2.471   0.462 -0.0555  0.1435  0.6879
  358TMC3    O1 5370   0.825   2.939   0.750 -0.1660  0.6290 -0.0391
  358TMC3    O2 5371   1.128   2.532   0.429 -0.5060  0.2711 -0.2143
  359MPD2     C 5372   1.741   1.909  12.610 -0.5380  0.0012  0.4874
  359MPD2    C1 5373   1.752   1.833  12.489 -0.4400  0.4316  0.1749
  359MPD2    C2 5374   1.698   1.706  12.488  0.3346 -0.1679 -0.0065
  359MPD2    C3 5375   1.662   1.644  12.606 -0.3788  0.3531 -0.0201
  359MPD2    C4 5376   1.651   1.718  12.722  0.2931 -0.2059 -0.6252
  359MPD2    C5 5377   1.695   1.849  12.721  0.2852 -0.2607 -0.1625
  359MPD2     H 5378   1.695   1.655  12.393 -2.2066  2.4410 -1.3418
  359MPD2    H1 5379   1.618   1.662  12.810  0.1796  0.4972 -0.2215
  359MPD2    H2 5380   1.772   2.013  12.615  2.2561 -0.8563  1.2665
  359MPD2    H3 5381   1.711   1.906  12.813 -0.1297 -1.1859  0.4834
  359MPD2     N 5382   1.613   1.512  12.610 -0.1879  0.3409  0.0915
  359MPD2    H5 5383   1.569   1.483  12.697 -0.6053  2.9338  0.7400
  359MPD2    N1 5384   1.790   1.900  12.372  0.2555 -0.0413 -0.7139
  359MPD2    H7 5385   1.758   1.863  12.283 -1.8100  1.4982 -0.6047
  360TMC3    C1 5386   1.952   2.011  12.251 -0.3389  0.0299 -0.1394
  360TMC3    C2 5387   2.088   2.026  12.259 -0.2607 -0.1977  0.5820
  360TMC3    C3 5388   2.155   2.061  12.144  0.0397 -0.2422 -0.1698
  360TMC3    C4 5389   1.887   2.034  12.135 -0.7453 -0.2533  0.4112
  360TMC3    C5 5390   1.958   2.089  12.034  0.1680 -0.4099  0.3392
  360TMC3    C6 5391   2.086   2.096  12.033 -0.2971 -0.0753 -0.0783
  360TMC3     C 5392   1.881   1.998  12.373  0.4977 -0.3306  0.3455
  360TMC3     O 5393   1.946   2.035  12.469  0.1109  0.4539  0.3595
  360TMC3     H 5394   2.128   1.977  12.347 -0.7939 -0.8094  0.4915
  360TMC3    H1 5395   1.780   2.044  12.151 -0.7674 -1.2375  0.9213
  360TMC3    H2 5396   2.137   2.132  11.945 -2.0405  2.7970  0.0792
  360TMC3    C7 5397   1.888   2.120  11.908 -0.2398  0.4876  0.4597
  360TMC3    C8 5398   2.296   2.090  12.156  0.8073 -0.1480 -0.2063
  360TMC3    O1 5399   1.941   2.197  11.825  0.4253  0.2760 -0.2006
  360TMC3    O2 5400   2.350   2.117  12.053 -0.0993  0.5335 -0.0004
  361MPD2     C 5401   3.700   0.920  16.390  0.6247  1.4919  1.0524
  361MPD2    C1 5402   3.599   0.901  16.482  0.8732  0.3991  0.6925
  361MPD2    C2 5403   3.602   0.802  16.581 -0.0391 -0.8348  0.1596
  361MPD2    C3 5404   3.701   0.707  16.580 -0.3963 -0.1775  0.5657
  361MPD2    C4 5405   3.793   0.721  16.478  1.0013  0.1041 -0.6206
  361MPD2    C5 5406   3.791   0.817  16.386  0.3270 -0.0912 -0.3036
  361MPD2     H 5407   3.519   0.796  16.650 -2.3669 -0.7350 -2.6102
  361MPD2    H1 5408   3.870   0.645  16.471  0.3838 -0.7482  1.6582
  361MPD2    H2 5409   3.720   1.015  16.342 -0.3263  1.6231  0.9303
  361MPD2    H3 5410   3.871   0.820  16.313  0.5984 -0.5324 -0.0247
  361MPD2     N 5411   3.713   0.611  16.679 -0.1739 -0.5043  0.0023
  361MPD2    H5 5412   3.793   0.549  16.686 -2.7874 -3.8017  0.2459
  361MPD2    N1 5413   3.494   0.994  16.488  0.2955 -0.5504 -0.1495
  361MPD2    H7 5414   3.418   0.977  16.554 -0.2926 -2.1577 -1.2472
  362TMC3    C1 5415   3.337   1.161  16.425  0.0520  0.7178 -0.6392
  362TMC3    C2 5416   3.260   1.133  16.539  0.7524 -0.2446  0.2837
  362TMC3    C3 5417   3.158   1.217  16.577 -0.6140  0.4322 -0.5912
  362TMC3    C4 5418   3.327   1.280  16.365 -0.0741  0.4505  0.5551
  362TMC3    C5 5419   3.231   1.369  16.406  0.0596 -0.4389 -0.3801
  362TMC3    C6 5420   3.140   1.335  16.503 -0.5193 -0.1413  0.2941
  362TMC3     C 5421   3.462   1.098  16.397  0.5814  0.0451 -0.4449
  362TMC3     O 5422   3.525   1.136  16.300 -0.8899 -0.9048 -0.0552
  362TMC3     H 5423   3.257   1.036  16.586 -1.6287 -0.5331 -0.4284
  362TMC3    H1 5424   3.371   1.303  16.268 -1.4283  1.8454  0.2703
  362TMC3    H2 5425   3.068   1.409  16.538  0.9690 -0.8610  4.9214
  362TMC3    C7 5426   3.234   1.502  16.349 -0.3427  0.0965 -0.4542
  362TMC3    C8 5427   3.061   1.188  16.679 -0.2355 -0.7947 -0.6085
  362TMC3    O1 5428   3.130   1.566  16.366  0.2877  0.3069 -0.5135
  362TMC3    O2 5429   3.099   1.103  16.757  0.0055 -0.2413  0.6357
  363TMC3    C1 5430   2.335   3.631   9.555 -0.4545  0.1527 -0.3792
  363TMC3    C2 5431   2.314   3.535   9.647  0.0338 -0.3309  0.3421
  363TMC3    C3 5432   2.185   3.506   9.689  0.5180  0.2313 -0.5592
  363TMC3    C4 5433   2.226   3.716   9.515 -0.4053 -0.0009 -0.1546
  363TMC3    C5 5434   2.110   3.694   9.584 -0.1942  0.2436  0.0032
  363TMC3    C6 5435   2.084   3.598   9.672 -0.6088  0.1721 -0.1878
  363TMC3     C 5436   2.475   3.656   9.522  0.2678  0.1455 -0.2211
  363TMC3     O 5437   2.564   3.576   9.558  0.1087 -0.7749  0.2217
  363TMC3     H 5438   2.402   3.485   9.686 -0.6898 -1.1835  0.8767
  363TMC3    H1 5439   2.235   3.797   9.443 -1.2312  0.5953  0.4070
  363TMC3    H2 5440   1.989   3.590   9.723  0.3693 -1.5913  1.3408
  363TMC3    C7 5441   2.008   3.795   9.547 -1.0515  0.3206  0.4837
  363TMC3    C8 5442   2.141   3.377   9.731 -0.0754 -0.1824  0.1407
  363TMC3    O1 5443   2.056   3.902   9.509  0.4809 -0.3462  0.4987
  363TMC3    O2 5444   2.019   3.353   9.719 -0.3448  0.0557 -0.2589
  364MPD2     C 5445   0.629   2.944   9.967  0.3423  0.1706  0.3290
  364MPD2    C1 5446   0.740   2.988  10.033  0.0976  0.1962 -0.2555
  364MPD2    C2 5447   0.824   2.892  10.089 -0.7077 -0.1773  0.0540
  364MPD2    C3 5448   0.809   2.755  10.077 -0.1802  0.1140 -0.2678
  364MPD2    C4 5449   0.688   2.717  10.021 -0.2839  0.3592  0.1072
  364MPD2    C5 5450   0.611   2.811   9.959  0.1302 -0.4833  0.5263
  364MPD2     H 5451   0.914   2.928  10.138 -0.2001  1.8372 -2.3728
  364MPD2    H1 5452   0.672   2.610  10.011  1.6292  0.1065 -0.2352
  364MPD2    H2 5453   0.557   3.012   9.922 -1.2808 -1.3513  0.6177
  364MPD2    H3 5454   0.524   2.778   9.903  1.2388 -1.6214 -0.5333
  364MPD2     N 5455   0.876   2.650  10.144 -0.2097 -0.3497 -0.7564
  364MPD2    H5 5456   0.843   2.554  10.140 -2.7108  0.4992 -0.8003
  364MPD2    N1 5457   0.749   3.130  10.062  0.0295 -0.6898  0.5090
  364MPD2    H7 5458   0.677   3.184  10.015  2.5405 -0.8257 -3.5091
  365TMC3    C1 5459   0.803   3.343  10.121  0.3954  0.7693  0.1381
  365TMC3    C2 5460   0.813   3.371   9.986 -0.5368  0.2795 -0.3367
  365TMC3    C3 5461   0.794   3.508   9.954  0.4406 -1.0367  0.2854
  365TMC3    C4 5462   0.798   3.437  10.221  0.8970 -0.6823  0.0086
  365TMC3    C5 5463   0.784   3.569  10.185 -0.4225 -0.1640 -0.2879
  365TMC3    C6 5464   0.783   3.607  10.049 -0.2214 -0.1663  0.3540
  365TMC3     C 5465   0.835   3.204  10.146 -0.0252 -0.0400 -0.0280
  365TMC3     O 5466   0.914   3.172  10.233  0.5309  0.4025  0.1823
  365TMC3     H 5467   0.858   3.301   9.916  2.1827  2.2318 -0.5629
  365TMC3    H1 5468   0.809   3.402  10.323  0.4329  3.9034  1.6475
  365TMC3    H2 5469   0.756   3.709  10.027 -1.3379 -0.1419  1.7997
  365TMC3    C7 5470   0.734   3.670  10.281 -0.5273  0.1071  0.3405
  365TMC3    C8 5471   0.732   3.527   9.830  0.0992  0.2789  0.3846
  365TMC3    O1 5472   0.735   3.784  10.235 -0.0793 -0.5878  0.6038
  365TMC3    O2 5473   0.670   3.630   9.811 -0.0061  0.0122  0.2750
  366MPD2     C 5474   3.668   3.740  15.227  0.4456 -0.0579  0.5171
  366MPD2    C1 5475   3.753   3.831  15.282 -0.6184  0.1518 -0.1617
  366MPD2    C2 5476   3.881   3.790  15.303 -0.0978 -0.1017 -0.3153
  366MPD2    C3 5477   3.933   3.664  15.259  0.1101 -0.5735 -0.0118
  366MPD2    C4 5478   3.846   3.573  15.208  0.2344  0.1330 -0.4764
  366MPD2    C5 5479   3.716   3.616  15.184 -0.5187 -0.2300  0.4852
  366MPD2     H 5480   3.952   3.866  15.335 -2.9252  2.2181  0.3448
  366MPD2    H1 5481   3.878   3.477  15.169 -0.7083 -0.2123 -0.3889
  366MPD2    H2 5482   3.565   3.759  15.201  0.3129 -0.7733  0.5300
  366MPD2    H3 5483   3.644   3.555  15.133 -0.6695  1.5243 -1.4196
  366MPD2     N 5484   4.068   3.628  15.258  0.0162 -1.0043  0.4155
  366MPD2    H5 5485   4.076   3.527  15.267  1.0985 -0.8878  0.8989
  366MPD2    N1 5486   3.712   3.963  15.315  0.0387 -0.4533 -0.4716
  366MPD2    H7 5487   3.785   4.021  15.356  0.5591 -0.8937 -0.7612
  367TMC3    C1 5488   3.598   4.173  15.304 -0.4149 -0.0129 -0.5644
  367TMC3    C2 5489   3.689   4.231  15.383  0.1383 -0.2424  0.3261
  367TMC3    C3 5490   3.692   4.370  15.384 -0.2922 -0.0140  0.4964
  367TMC3    C4 5491   3.519   4.244  15.221  0.9998 -0.3888 -0.0774
  367TMC3    C5 5492   3.529   4.380  15.214  0.2345  0.1650 -0.4694
  367TMC3    C6 5493   3.621   4.449  15.298  0.0637  0.0396  0.9465
  367TMC3     C 5494   3.599   4.032  15.271 -0.2348  0.1787 -0.3753
  367TMC3     O 5495   3.518   3.999  15.186 -0.1799  0.2613  0.3755
  367TMC3     H 5496   3.740   4.171  15.457 -1.2638 -0.6288  0.9698
  367TMC3    H1 5497   3.448   4.189  15.160  0.0308 -1.2202  1.8043
  367TMC3    H2 5498   3.634   4.557  15.301  0.8702 -0.0756  1.9503
  367TMC3    C7 5499   3.437   4.458  15.140  0.0298  1.3677  0.4688
  367TMC3    C8 5500   3.793   4.426  15.472  0.4844 -0.0753 -0.1721
  367TMC3    O1 5501   3.474   4.577  15.129  0.7813  0.0534  0.2374
  367TMC3    O2 5502   3.874   4.346  15.519  0.2855 -0.4332  0.8139
  368MPD2     C 5503   4.649   0.845  13.106 -0.3710  0.5353  0.3751
  368MPD2    C1 5504   4.692   0.969  13.062 -0.5337 -0.4244 -0.1142
  368MPD2    C2 5505   0.089   0.975  12.994 -0.8353  0.0278  0.0160
  368MPD2    C3 5506   0.158   0.852  12.967 -0.7034 -0.1259 -0.7571
  368MPD2    C4 5507   0.105   0.734  13.011  0.1397 -0.1955 -0.3197
  368MPD2    C5 5508   4.714   0.734  13.078  0.0741 -0.4959 -0.4781
  368MPD2     H 5509   0.117   1.070  12.952  3.4705 -0.9760  0.6519
  368MPD2    H1 5510   0.144   0.635  12.994  1.3229 -0.2557  2.8870
  368MPD2    H2 5511   4.552   0.841  13.154  1.7275  1.3404  4.6526
  368MPD2    H3 5512   4.663   0.642  13.107  1.1042 -0.7174  0.6259
  368MPD2     N 5513   0.288   0.858  12.923  0.2404  0.4312 -0.2054
  368MPD2    H5 5514   0.336   0.768  12.930  0.8369  0.8576  1.3326
  368MPD2    N1 5515   4.603   1.078  13.090 -0.6076 -0.7587 -0.0142
  368MPD2    H7 5516   4.514   1.060  13.136 -0.6676  2.5497  1.2115
  369TMC3    C1 5517   4.501   1.288  13.067  0.1183  0.4887  0.4339
  369TMC3    C2 5518   4.490   1.393  12.986 -0.1103  0.1861 -0.9063
  369TMC3    C3 5519   4.374   1.463  12.993 -0.4845  0.0375  0.0746
  369TMC3    C4 5520   4.412   1.253  13.166  0.1656  0.6178 -0.5439
  369TMC3    C5 5521   4.299   1.332  13.177 -0.4159 -0.1180  0.1335
  369TMC3    C6 5522   4.280   1.438  13.091  0.2490 -0.7226 -0.5732
  369TMC3     C 5523   4.623   1.204  13.052  0.1149 -0.6653 -0.1760
  369TMC3     O 5524   4.722   1.262  13.007  0.2686  0.4993 -0.5125
  369TMC3     H 5525   4.568   1.407  12.912  0.7353 -0.6345 -0.1607
  369TMC3    H1 5526   4.431   1.174  13.238 -0.2854 -0.5349 -1.6944
  369TMC3    H2 5527   4.192   1.502  13.085 -0.4868 -1.5777  1.0003
  369TMC3    C7 5528   4.188   1.271  13.243 -0.1714 -0.5149 -0.4158
  369TMC3    C8 5529   4.370   1.593  12.924 -0.0014  0.6526 -1.0226
  369TMC3    O1 5530   4.212   1.231  13.357  0.2575  0.3164 -0.2532
  369TMC3    O2 5531   4.265   1.653  12.914  0.4527 -0.2524  0.0247
  370TMC3    C1 5532   4.217   2.102  16.302 -0.1126 -1.1029 -0.3070
  370TMC3    C2 5533   4.160   2.007  16.381 -0.4335 -0.0711  0.2535
  370TMC3    C3 5534   4.177   1.878  16.333  0.9011  0.7759 -0.0999
  370TMC3    C4 5535   4.308   2.075  16.195 -0.1340  0.0727  0.0215
  370TMC3    C5 5536   4.324   1.947  16.165 -0.1011 -0.7546  0.2137
  370TMC3    C6 5537   4.256   1.848  16.226 -0.9050 -0.4485 -0.3578
  370TMC3     C 5538   4.159   2.230  16.301 -0.1438  0.9823  0.9899
  370TMC3     O 5539   4.048   2.222  16.358 -0.3487 -0.0398  0.1712
  370TMC3     H 5540   4.111   2.030  16.475  0.4319  0.8577  0.4680
  370TMC3    H1 5541   4.346   2.144  16.120 -0.4160  2.1662  1.8058
  370TMC3    H2 5542   4.254   1.748  16.185 -0.5801 -1.2282  1.5116
  370TMC3    C7 5543   4.413   1.905  16.051  0.4978  0.6551 -0.3447
  370TMC3    C8 5544   4.113   1.770  16.400  0.0301  0.2495  0.3400
  370TMC3    O1 5545   4.462   1.998  15.989 -0.1794 -0.5059  0.0427
  370TMC3    O2 5546   4.132   1.658  16.352  0.8817  0.1555 -0.0967
  371TMC3    C1 5547   0.915   0.186  15.569 -0.3974 -0.6323 -0.3981
  371TMC3    C2 5548   0.833   0.238  15.657  0.6432  0.6692 -0.0216
  371TMC3    C3 5549   0.792   0.365  15.638 -0.6769  0.4166  0.2364
  371TMC3    C4 5550   0.974   0.262  15.475  0.0362  0.0355 -0.1330
  371TMC3    C5 5551   0.918   0.379  15.447  0.2364  0.0714  0.7826
  371TMC3    C6 5552   0.822   0.440  15.531  0.9926  0.4586 -0.3786
  371TMC3     C 5553   0.978   0.053  15.591  0.0244 -0.4938  0.3025
  371TMC3     O 5554   1.096   0.038  15.548 -0.1857  1.0219  0.1350
  371TMC3     H 5555   0.814   0.187  15.750 -1.3352  0.7163 -0.3969
  371TMC3    H1 5556   1.061   0.225  15.423 -0.1344  0.7185 -0.8961
  371TMC3    H2 5557   0.804   0.546  15.522 -1.3298 -0.0632 -1.9670
  371TMC3    C7 5558   0.947   0.445  15.322 -0.1216 -0.0389 -0.0126
  371TMC3    C8 5559   0.774   0.433  15.760 -0.1675  0.6055 -0.8531
  371TMC3    O1 5560   0.903   0.559  15.303  0.0909 -0.0408 -0.3297
  371TMC3    O2 5561   0.834   0.385  15.857  0.0621  0.2292  0.1177
  372MPD2     C 5562   0.779   1.263  13.134  0.2565 -0.0472 -0.1676
  372MPD2    C1 5563   0.824   1.157  13.208  0.1803 -0.8271 -0.4228
  372MPD2    C2 5564   0.733   1.063  13.246  0.2094 -1.1100 -0.7032
  372MPD2    C3 5565   0.601   1.086  13.226 -0.3065 -0.9729 -0.4982
  372MPD2    C4 5566   0.562   1.204  13.160  0.7143  0.8036  0.2999
  372MPD2    C5 5567   0.651   1.291  13.103 -0.2780 -0.0040  0.3140
  372MPD2     H 5568   0.772   0.974  13.294  2.5471  0.9200  1.1845
  372MPD2    H1 5569   0.459   1.234  13.148  0.1067 -1.9498 -1.3820
  372MPD2    H2 5570   0.849   1.321  13.075 -1.5272 -0.7590 -2.9636
  372MPD2    H3 5571   0.612   1.371  13.040 -0.0923 -0.9478 -0.9963
  372MPD2     N 5572   0.513   0.986  13.264 -0.6214  0.0076  0.3095
  372MPD2    H5 5573   0.557   0.906  13.307 -1.8700  0.8607  3.2148
  372MPD2    N1 5574   0.958   1.132  13.235  0.8812  0.3655 -0.9103
  372MPD2    H7 5575   0.979   1.048  13.289 -2.2810 -0.0151 -0.2572
  373TMC3    C1 5576   0.325   0.861  13.302  0.0122 -0.0466 -0.2599
  373TMC3    C2 5577   0.206   0.864  13.367  0.3575  0.3184 -0.8058
  373TMC3    C3 5578   0.159   0.742  13.393  0.2269 -0.0892 -0.3828
  373TMC3    C4 5579   0.393   0.743  13.270 -0.3187 -0.0653  0.2018
  373TMC3    C5 5580   0.327   0.620  13.285 -0.3253 -0.0434  0.4880
  373TMC3    C6 5581   0.204   0.624  13.353 -0.1611 -0.1418  0.4766
  373TMC3     C 5582   0.379   0.994  13.269 -0.4554  0.5204  0.2813
  373TMC3     O 5583   0.312   1.092  13.255  0.0937 -0.2643  0.4682
  373TMC3     H 5584   0.156   0.953  13.405 -0.0990  0.3978 -1.6014
  373TMC3    H1 5585   0.491   0.753  13.223 -0.6735  1.7696 -0.1473
  373TMC3    H2 5586   0.144   0.535  13.368 -0.4131  0.0099  0.3725
  373TMC3    C7 5587   0.406   0.501  13.299 -0.5235  0.1908 -0.0589
  373TMC3    C8 5588   0.115   0.725  13.525  0.2487  0.6711 -0.2374
  373TMC3    O1 5589   0.524   0.515  13.295 -0.5270 -0.2552  1.0743
  373TMC3    O2 5590   0.041   0.634  13.549  0.2771  0.2657  0.1852
  374TMC3    C1 5591   0.959   1.366  10.057 -0.4053 -0.4603  1.1457
  374TMC3    C2 5592   1.088   1.394  10.024  0.6489 -0.5279 -0.0750
  374TMC3    C3 5593   1.118   1.439   9.899 -0.8896  0.4593 -0.8882
  374TMC3    C4 5594   0.870   1.364   9.952  0.4697 -0.4028 -0.0265
  374TMC3    C5 5595   0.902   1.397   9.824 -0.0692 -0.2978  0.2180
  374TMC3    C6 5596   1.028   1.444   9.792  0.0735 -0.1806  0.3869
  374TMC3     C 5597   0.917   1.375  10.198 -0.5727  0.6421  0.3422
  374TMC3     O 5598   1.006   1.386  10.277  0.3788  0.3195 -0.3800
  374TMC3     H 5599   1.174   1.383  10.089 -0.0010 -0.0517  0.8720
  374TMC3    H1 5600   0.766   1.347   9.977  0.3482  0.1230 -0.1858
  374TMC3    H2 5601   1.078   1.445   9.695 -0.2397  1.2091  0.2514
  374TMC3    C7 5602   0.805   1.374   9.721  0.5402  0.5489  0.1273
  374TMC3    C8 5603   1.254   1.471   9.866 -0.2014  0.2014  0.2837
  374TMC3    O1 5604   0.711   1.298   9.748  0.3698 -0.6919  0.4629
  374TMC3    O2 5605   1.290   1.473   9.749  0.2700 -0.5250 -0.5362
  375MPD2     C 5606   0.903   2.521  16.610  0.0269  0.3111 -0.0192
  375MPD2    C1 5607   0.795   2.439  16.634  0.5748 -0.1456 -0.1315
  375MPD2    C2 5608   0.827   2.302  16.621  0.3830 -0.2892  0.5385
  375MPD2    C3 5609   0.949   2.259  16.563 -0.2167  0.3838  0.6775
  375MPD2    C4 5610   1.047   2.348  16.534 -0.7048  0.5954 -0.0742
  375MPD2    C5 5611   1.026   2.477  16.570  0.0568 -0.4155  0.5147
  375MPD2     H 5612   0.746   2.237  16.653 -1.3841  0.8164 -1.6873
  375MPD2    H1 5613   1.137   2.315  16.484 -1.3665  0.4051 -1.1222
  375MPD2    H2 5614   0.897   2.629  16.616 -0.7261  0.2468  0.2935
  375MPD2    H3 5615   1.109   2.547  16.577 -1.3061  1.4540 -1.9386
  375MPD2     N 5616   0.974   2.135  16.511 -0.5371 -0.7049  0.2858
  375MPD2    H5 5617   1.072   2.123  16.490  0.1016  2.1248  1.5626
  375MPD2    N1 5618   0.671   2.489  16.666 -0.0131 -0.1252 -0.2627
  375MPD2    H7 5619   0.602   2.422  16.699 -0.5633 -0.5231 -2.2032
  376TMC3    C1 5620   0.919   1.930  16.411 -0.6736 -0.5256 -0.1634
  376TMC3    C2 5621   1.043   1.877  16.437 -0.2849  0.4495 -0.5870
  376TMC3    C3 5622   1.106   1.793  16.347 -0.2934 -0.6708  0.2181
  376TMC3    C4 5623   0.857   1.890  16.296  1.0965 -0.0403  0.2350
  376TMC3    C5 5624   0.925   1.814  16.202  0.5336 -0.3623 -0.2576
  376TMC3    C6 5625   1.049   1.754  16.228  0.4146  0.1504 -0.2977
  376TMC3     C 5626   0.873   2.044  16.480 -0.2140  0.3201 -0.4250
  376TMC3     O 5627   0.761   2.078  16.468  0.2457 -0.4301  0.7598
  376TMC3     H 5628   1.101   1.907  16.523 -1.5879  1.2442  0.0258
  376TMC3    H1 5629   0.763   1.938  16.273  0.8283 -0.2932  0.8029
  376TMC3    H2 5630   1.108   1.709  16.148 -0.5847 -1.9961  0.1758
  376TMC3    C7 5631   0.891   1.840  16.068 -0.0645  0.0302 -0.5922
  376TMC3    C8 5632   1.244   1.829  16.336 -0.2940  0.5694 -0.1135
  376TMC3    O1 5633   0.825   1.935  16.032 -0.1072 -0.2506 -0.3334
  376TMC3    O2 5634   1.272   1.922  16.261  0.0617 -0.1877  0.0925
  377MPD2     C 5635   3.849   1.904  12.643  0.2606 -0.5502  0.2556
  377MPD2    C1 5636   3.860   1.774  12.675 -0.7347  0.0461 -0.2739
  377MPD2    C2 5637   3.759   1.714  12.749  0.6146 -0.6511 -0.0640
  377MPD2    C3 5638   3.645   1.772  12.782 -0.5255 -0.4705 -0.4509
  377MPD2    C4 5639   3.626   1.906  12.748  1.0040  0.2718  0.3608
  377MPD2    C5 5640   3.731   1.971  12.672  0.4396 -0.7020 -0.3849
  377MPD2     H 5641   3.775   1.611  12.779  1.1660  0.0754  2.0896
  377MPD2    H1 5642   3.538   1.962  12.775  0.7129 -0.3792  0.7494
  377MPD2    H2 5643   3.931   1.963  12.605  1.0013 -2.8115 -1.6591
  377MPD2    H3 5644   3.722   2.076  12.650  0.5253 -1.2637 -3.0652
  377MPD2     N 5645   3.541   1.721  12.862 -0.0486 -0.3163 -0.2214
  377MPD2    H5 5646   3.463   1.784  12.879 -0.0002 -0.7529  1.5458
  377MPD2    N1 5647   3.969   1.706  12.624 -0.9936  0.1524 -0.4138
  377MPD2    H7 5648   4.043   1.754  12.573 -2.3664  0.3148 -2.2417
  378TMC3    C1 5649   4.175   1.518  12.325  0.6460  0.0322  0.0747
  378TMC3    C2 5650   4.084   1.553  12.414  0.3195  0.2853 -0.3953
  378TMC3    C3 5651   4.109   1.538  12.553  0.1023  0.1251  0.1994
  378TMC3    C4 5652   4.303   1.485  12.362 -0.0134  0.4078 -0.1481
  378TMC3    C5 5653   4.324   1.485  12.495 -0.1608 -0.1559 -1.0379
  378TMC3    C6 5654   4.231   1.498  12.597  0.6877 -0.0275 -0.6438
  378TMC3     C 5655   4.141   1.533  12.179 -0.4866  0.1806 -0.6327
  378TMC3     O 5656   4.017   1.542  12.161 -0.3670  0.4463  0.7474
  378TMC3     H 5657   3.989   1.596  12.382  0.7952  1.5535 -0.1287
  378TMC3    H1 5658   4.376   1.443  12.295  0.7526  0.1683  0.8425
  378TMC3    H2 5659   4.258   1.498  12.703 -1.1809 -3.1253 -0.1730
  378TMC3    C7 5660   4.457   1.451  12.549 -0.6997  0.4068  0.0994
  378TMC3    C8 5661   3.995   1.569  12.638  0.1634  0.4733 -0.3181
  378TMC3    O1 5662   4.456   1.404  12.663  0.5905  1.1554  0.0639
  378TMC3    O2 5663   3.945   1.481  12.701  0.5460  0.3137 -0.2224
  379MPD2     C 5664   0.330   4.675  16.009  0.0534 -0.8232  0.2765
  379MPD2    C1 5665   0.218   4.624  16.071 -0.3540  0.3174  0.0577
  379MPD2    C2 5666   0.233   4.567  16.199 -0.2557 -0.0891 -0.0639
  379MPD2    C3 5667   0.355   4.567  16.263  0.5480  0.0402  0.0558
  379MPD2    C4 5668   0.469   4.622  16.202  0.4946 -0.7927 -0.6911
  379MPD2    C5 5669   0.451   4.679  16.074 -0.1217 -0.0386  0.5729
  379MPD2     H 5670   0.149   4.516  16.244 -0.2470  2.0226  2.3624
  379MPD2    H1 5671   0.569   4.627  16.244 -0.0648 -1.9590  0.7819
  379MPD2    H2 5672   0.323   0.001  15.913 -2.9768 -0.0190  0.9232
  379MPD2    H3 5673   0.537   0.009  16.039 -1.1098  0.2320 -1.4042
  379MPD2     N 5674   0.391   4.507  16.387 -0.6296  0.1870 -0.4938
  379MPD2    H5 5675   0.486   4.525  16.417 -0.8569  1.4242 -0.4986
  379MPD2    N1 5676   0.106   4.611  15.989  0.1334  0.8058 -0.5459
  379MPD2    H7 5677   0.126   4.640  15.894 -0.8674 -1.2171 -1.3580
  380TMC3    C1 5678   4.612   4.582  15.915 -0.0595  0.3350  0.7616
  380TMC3    C2 5679   4.651   4.532  15.792 -0.7352  0.1017  0.4146
  380TMC3    C3 5680   4.568   4.527  15.691  0.2193 -1.0497  1.2240
  380TMC3    C4 5681   4.484   4.630  15.935 -0.0820 -0.6290  0.5680
  380TMC3    C5 5682   4.403   4.635  15.824  0.0670  0.3196 -0.2822
  380TMC3    C6 5683   4.446   4.589  15.703  0.2808 -0.1457 -0.1634
  380TMC3     C 5684   4.701   4.579  16.029 -0.3522  0.3984  0.3157
  380TMC3     O 5685   4.661   4.583  16.145  0.4113 -0.2065 -0.1816
  380TMC3     H 5686   0.019   4.476  15.785 -1.6136 -1.2479 -0.5665
  380TMC3    H1 5687   4.457   4.679  16.028 -0.1411  1.5802 -0.6385
  380TMC3    H2 5688   4.402   4.625  15.610  0.0594  0.9403  0.3641
  380TMC3    C7 5689   4.272   4.697  15.832 -0.4350  0.1898 -0.7414
  380TMC3    C8 5690   4.624   4.519  15.561  0.4844  0.0775  0.8512
  380TMC3    O1 5691   4.255   0.058  15.921 -0.0130 -0.4926 -0.1352
  380TMC3    O2 5692   0.018   4.531  15.556  0.2345  0.0397 -0.5022
  381TMC3    C1 5693   4.159   1.178  16.057 -0.2556 -0.5477  0.5278
  381TMC3    C2 5694   4.247   1.281  16.073 -0.0717  0.5656 -0.4361
  381TMC3    C3 5695   4.244   1.350  16.189 -0.1536 -1.0789 -0.2852
  381TMC3    C4 5696   4.077   1.130  16.163 -0.9453  0.5575  0.1149
  381TMC3    C5 5697   4.078   1.214  16.275 -0.4005  0.6220  0.0836
  381TMC3    C6 5698   4.156   1.323  16.295  0.9761 -0.2678  0.4194
  381TMC3     C 5699   4.138   1.130  15.919 -0.6953  0.6796  1.0669
  381TMC3     O 5700   4.187   1.202  15.833  0.1575 -0.4593  0.8684
  381TMC3     H 5701   4.319   1.298  15.994 -0.1144  0.2337 -0.5475
  381TMC3    H1 5702   4.008   1.047  16.155 -0.3485  0.0457  0.2426
  381TMC3    H2 5703   4.164   1.381  16.387 -0.4371 -0.0890  0.4329
  381TMC3    C7 5704   4.019   1.142  16.388  0.3911  0.5595  0.4718
  381TMC3    C8 5705   4.378   1.393  16.235 -0.1945  0.0622 -0.3321
  381TMC3    O1 5706   4.056   1.025  16.386  1.4999 -0.8146  0.3158
  381TMC3    O2 5707   4.475   1.340  16.181  0.0731  0.5676  0.2573
  382MPD2     C 5708   3.393   3.298  16.968 -1.3340  0.0076  0.6383
  382MPD2    C1 5709   3.364   3.294  17.104  0.4911 -0.5705 -0.4933
  382MPD2    C2 5710   3.296   3.187  17.161 -0.4437  0.3297  0.2836
  382MPD2    C3 5711   3.238   3.091  17.077 -0.3198  0.7967  0.2824
  382MPD2    C4 5712   3.251   3.107  16.942 -0.3073 -0.3106  0.3497
  382MPD2    C5 5713   3.336   3.198  16.891 -0.0381  0.1983 -0.8386
  382MPD2     H 5714   3.278   3.186  17.268  0.7245 -0.5248  0.4721
  382MPD2    H1 5715   3.208   3.035  16.873 -0.0196  0.0060 -0.1635
  382MPD2    H2 5716   3.455   3.371  16.918 -1.2700 -0.7950 -0.4636
  382MPD2    H3 5717   3.350   3.210  16.784  1.8689 -0.3888 -0.6458
  382MPD2     N 5718   3.160   2.983  17.122  0.0274  0.0787  0.3705
  382MPD2    H5 5719   3.118   2.922  17.053  4.6408 -2.3629 -0.2271
  382MPD2    N1 5720   3.402   3.401  17.191 -0.4592  0.2426  0.6469
  382MPD2    H7 5721   3.378   3.396  17.289  1.1036 -0.8513  0.9758
  383TMC3    C1 5722   3.043   2.840  17.271  0.5318 -0.2157  0.7660
  383TMC3    C2 5723   2.936   2.835  17.186  0.2302  0.1946  0.2015
  383TMC3    C3 5724   2.852   2.727  17.202  0.0922 -0.2768  0.6234
  383TMC3    C4 5725   3.054   2.765  17.379  0.7942 -0.4077 -0.0475
  383TMC3    C5 5726   2.971   2.663  17.393 -0.4132  0.2951  0.1426
  383TMC3    C6 5727   2.876   2.635  17.302 -0.2967 -0.3651 -0.2906
  383TMC3     C 5728   3.131   2.953  17.255  0.3003 -0.4051  0.6627
  383TMC3     O 5729   3.168   3.011  17.358 -0.4341  0.4489  0.6206
  383TMC3     H 5730   2.911   2.900  17.103 -1.0255  0.3864  0.7392
  383TMC3    H1 5731   3.133   2.803  17.444  1.8914 -1.4451 -0.7650
  383TMC3    H2 5732   2.805   2.554  17.311  0.7190 -1.3524 -1.1267
  383TMC3    C7 5733   2.925   2.618  17.527  0.0253 -0.1071  0.1981
  383TMC3    C8 5734   2.764   2.693  17.094 -0.3950  0.1170  0.6537
  383TMC3    O1 5735   2.849   2.526  17.532 -0.2897 -0.0747 -0.1997
  383TMC3    O2 5736   2.692   2.777  17.040  1.0081 -0.7313 -0.2409
  384MPD2     C 5737   0.513   4.695  12.207 -0.4579  0.0549 -0.1553
  384MPD2    C1 5738   0.466   4.567  12.230  0.8355 -0.2681 -0.6918
  384MPD2    C2 5739   0.543   4.454  12.211 -0.6375 -0.4311 -0.9722
  384MPD2    C3 5740   0.678   4.476  12.180  0.1363 -1.0244 -1.1500
  384MPD2    C4 5741   0.728   4.600  12.158 -0.1213  0.9594  0.2666
  384MPD2    C5 5742   0.642   4.703  12.172  0.5880  0.0278  0.7950
  384MPD2     H 5743   0.507   4.352  12.213 -2.5779  0.2354 -1.6019
  384MPD2    H1 5744   0.828   4.614  12.118  0.3631  0.2784  1.2582
  384MPD2    H2 5745   0.455   0.059  12.228  0.7220  1.0144 -0.9905
  384MPD2    H3 5746   0.675   0.081  12.167 -2.8075  1.1115  0.8018
  384MPD2     N 5747   0.751   4.357  12.157  0.3896 -0.2293 -0.0402
  384MPD2    H5 5748   0.697   4.274  12.180  0.6836 -0.6522 -0.8807
  384MPD2    N1 5749   0.336   4.537  12.261 -0.6357 -0.0507 -0.2651
  384MPD2    H7 5750   0.322   4.437  12.275  1.4298 -0.4306 -0.9409
  385TMC3    C1 5751   0.902   4.204  12.081 -0.1412 -0.0380  0.0116
  385TMC3    C2 5752   0.926   4.196  11.945 -0.4058 -0.2304 -0.1687
  385TMC3    C3 5753   0.865   4.094  11.878 -0.5599 -0.7769  0.3775
  385TMC3    C4 5754   0.818   4.117  12.147 -0.2527 -0.7977  0.0771
  385TMC3    C5 5755   0.757   4.019  12.073 -1.2252 -0.1250 -0.6580
  385TMC3    C6 5756   0.778   4.005  11.940  0.0138  0.3253 -0.1341
  385TMC3     C 5757   0.881   4.347  12.111  0.1535  0.7564 -0.1999
  385TMC3     O 5758   0.959   4.428  12.070  0.1319  0.2201 -0.3813
  385TMC3     H 5759   0.981   4.271  11.888  0.4100  0.4625  1.5282
  385TMC3    H1 5760   0.815   4.120  12.256 -2.7188  2.4998 -0.0889
  385TMC3    H2 5761   0.709   3.936  11.893 -1.4198  1.9828 -0.4439
  385TMC3    C7 5762   0.615   4.032  12.109  0.5979  1.0839  0.0027
  385TMC3    C8 5763   0.870   4.091  11.729 -0.8518 -0.0858  0.1713
  385TMC3    O1 5764   0.591   4.125  12.186 -0.2631  0.5058 -0.1622
  385TMC3    O2 5765   0.959   4.167  11.689  0.1418 -0.3780  0.2363
  386TMC3    C1 5766   0.387   1.708  11.588  0.8905 -0.3138  0.0988
  386TMC3    C2 5767   0.418   1.746  11.459  0.8010 -0.3767 -0.3706
  386TMC3    C3 5768   0.308   1.788  11.385 -0.1612  0.0077 -0.4029
  386TMC3    C4 5769   0.260   1.711  11.639  0.0587  0.4126  0.4619
  386TMC3    C5 5770   0.158   1.737  11.555  0.3654 -0.1226  0.9034
  386TMC3    C6 5771   0.182   1.779  11.426  0.1306  0.2897  0.0290
  386TMC3     C 5772   0.497   1.709  11.683 -0.2005 -0.1811  0.4552
  386TMC3     O 5773   0.472   1.732  11.801  0.2371 -0.4144 -0.3103
  386TMC3     H 5774   0.520   1.756  11.423  1.8211  0.6711  2.7503
  386TMC3    H1 5775   0.237   1.669  11.736 -0.2341 -2.5044 -0.8724
  386TMC3    H2 5776   0.111   1.818  11.354 -0.9695 -1.0818  0.3841
  386TMC3    C7 5777   0.031   1.754  11.623  0.2043  0.5582  0.0027
  386TMC3    C8 5778   0.327   1.833  11.247  0.7426  0.0638  0.5217
  386TMC3    O1 5779   0.027   1.725  11.742 -0.6760  0.0970  0.7080
  386TMC3    O2 5780   0.246   1.781  11.168 -0.2794  0.5672 -0.3304
  387MPD2     C 5781   3.047   2.213  10.138 -0.1609  0.1057  0.2381
  387MPD2    C1 5782   3.080   2.141  10.248  0.3986  0.6221  0.1857
  387MPD2    C2 5783   3.020   2.019  10.273 -1.3008  0.2479 -0.5634
  387MPD2    C3 5784   2.949   1.955  10.180 -0.0307 -0.0626 -0.0474
  387MPD2    C4 5785   2.914   2.022  10.071 -0.3547 -0.3447  0.2981
  387MPD2    C5 5786   2.963   2.148  10.052 -0.1364  0.7525  0.2570
  387MPD2     H 5787   3.024   1.967  10.368  2.4092  1.4475 -0.0576
  387MPD2    H1 5788   2.852   1.978   9.994  0.3523  1.5383 -1.3369
  387MPD2    H2 5789   3.078   2.316  10.128  1.0719 -0.0645  2.3638
  387MPD2    H3 5790   2.932   2.202   9.963  0.1680  1.5072  0.6127
  387MPD2     N 5791   2.933   1.816  10.171  0.2189  0.2376 -0.4381
  387MPD2    H5 5792   2.888   1.781  10.087 -0.2439 -0.4604  0.1048
  387MPD2    N1 5793   3.170   2.186  10.340  0.0868 -0.1488  0.4948
  387MPD2    H7 5794   3.188   2.125  10.419  0.2322  0.7019  1.1182
  388TMC3    C1 5795   3.347   2.296  10.439  0.3267  0.4555  0.4087
  388TMC3    C2 5796   3.399   2.414  10.482  0.2018  0.0346 -0.0446
  388TMC3    C3 5797   3.493   2.405  10.584 -0.4020  0.2457  0.1194
  388TMC3    C4 5798   3.394   2.173  10.488 -0.1033 -0.8158  0.0895
  388TMC3    C5 5799   3.487   2.171  10.584  0.3018  0.4851 -0.5711
  388TMC3    C6 5800   3.535   2.287  10.640 -0.8216  0.2893 -0.3163
  388TMC3     C 5801   3.246   2.295  10.339  0.5231 -0.3605  0.2467
  388TMC3     O 5802   3.251   2.386  10.257 -0.1072 -0.0714  0.1441
  388TMC3     H 5803   3.361   2.507  10.442 -1.9971 -0.7351  0.2575
  388TMC3    H1 5804   3.375   2.083  10.431 -2.8340 -0.4281  0.4139
  388TMC3    H2 5805   3.603   2.282  10.725 -0.3101  1.1255 -0.6823
  388TMC3    C7 5806   3.536   2.040  10.619 -0.1321  0.2656 -0.1791
  388TMC3    C8 5807   3.527   2.526  10.656  0.5108  0.7161  0.0648
  388TMC3    O1 5808   3.655   2.033  10.635 -0.1063 -0.4326 -0.3432
  388TMC3    O2 5809   3.542   2.515  10.778 -0.0880  0.3891  0.3466
  389MPD2     C 5810   2.449   4.523  10.152 -0.9338 -0.0560 -0.2987
  389MPD2    C1 5811   2.434   4.651  10.184 -0.0954  0.0709 -0.3788
  389MPD2    C2 5812   2.371   4.686  10.302 -0.2014  0.1297 -0.2896
  389MPD2    C3 5813   2.334   4.585  10.394  0.0254  0.3988 -0.0006
  389MPD2    C4 5814   2.359   4.451  10.355  0.1287  0.7217 -0.0687
  389MPD2    C5 5815   2.410   4.419  10.232 -0.6577 -0.1170  0.0223
  389MPD2     H 5816   2.348   0.065  10.322 -1.7153 -0.5782  1.6804
  389MPD2    H1 5817   2.350   4.366  10.421 -0.6440 -0.1191 -1.2688
  389MPD2    H2 5818   2.493   4.480  10.064  2.5622 -0.4743  1.6619
  389MPD2    H3 5819   2.434   4.317  10.204 -0.2500  0.1799 -0.7130
  389MPD2     N 5820   2.277   4.612  10.520  0.8949 -0.0403  0.4562
  389MPD2    H5 5821   2.284   4.705  10.559  3.6076  0.2475 -0.7295
  389MPD2    N1 5822   2.473   0.016  10.083 -0.5306  0.4615  0.0040
  389MPD2    H7 5823   2.519   4.707   9.999  0.0223  1.2929 -0.0282
  390TMC3    C1 5824   2.149   4.589  10.718 -0.2256  0.5366  0.1986
  390TMC3    C2 5825   2.026   4.534  10.758  0.2751  0.2020 -0.7340
  390TMC3    C3 5826   1.978   4.546  10.888 -0.0359  0.5651 -0.3249
  390TMC3    C4 5827   2.231   4.661  10.804 -0.3103 -0.4501  0.1006
  390TMC3    C5 5828   2.178   4.669  10.935  0.5324  0.5794 -0.9556
  390TMC3    C6 5829   2.052   4.628  10.967  0.5234 -0.1528  0.0585
  390TMC3     C 5830   2.211   4.522  10.607  0.1993 -0.2764  0.0201
  390TMC3     O 5831   2.198   4.399  10.592  0.2238  0.1091  0.2173
  390TMC3     H 5832   1.967   4.468  10.696 -2.3928  2.2428 -0.3717
  390TMC3    H1 5833   2.336   4.685  10.791 -1.1224  1.2936 -3.2405
  390TMC3    H2 5834   2.015   4.646  11.068  2.4428 -1.4699  0.9987
  390TMC3    C7 5835   2.265   0.016  11.023 -0.6856  0.0286 -0.4904
  390TMC3    C8 5836   1.858   4.480  10.926 -0.0880 -0.3747 -0.1704
  390TMC3    O1 5837   2.351   0.092  10.978  0.0169 -0.4329  0.1949
  390TMC3    O2 5838   1.810   4.391  10.862  0.1979 -0.2724  0.0704
  391MPD2     C 5839   1.582   1.682  11.346 -0.4392 -0.1776  0.3095
  391MPD2    C1 5840   1.694   1.755  11.307 -0.3584  0.7117  0.1656
  391MPD2    C2 5841   1.708   1.790  11.177 -0.3682 -1.1414  0.6588
  391MPD2    C3 5842   1.627   1.738  11.082 -0.7487 -0.0962 -0.0714
  391MPD2    C4 5843   1.517   1.665  11.116 -0.2889  0.7926 -0.3931
  391MPD2    C5 5844   1.494   1.639  11.252 -0.0621  0.3068  0.3252
  391MPD2     H 5845   1.791   1.844  11.132  0.5810 -1.4190  2.0839
  391MPD2    H1 5846   1.445   1.633  11.041  0.1998  1.4392 -1.1280
  391MPD2    H2 5847   1.553   1.639  11.441  0.4348  0.3666  0.8259
  391MPD2    H3 5848   1.416   1.569  11.276  0.6924 -0.7378 -0.2583
  391MPD2     N 5849   1.661   1.754  10.945  0.2540 -0.0828  0.3961
  391MPD2    H5 5850   1.753   1.796  10.932  0.7905 -1.6400 -0.8690
  391MPD2    N1 5851   1.794   1.789  11.404  0.4260 -0.1614 -0.1020
  391MPD2    H7 5852   1.801   1.725  11.483 -1.5767 -0.2956 -0.0395
  392TMC3    C1 5853   1.674   1.770  10.714  0.0767 -0.8567 -0.0306
  392TMC3    C2 5854   1.609   1.745  10.598 -0.0486 -0.4669  0.1898
  392TMC3    C3 5855   1.671   1.772  10.476 -0.4909  0.5738  0.5330
  392TMC3    C4 5856   1.800   1.821  10.715 -0.4094  0.6576  0.1211
  392TMC3    C5 5857   1.853   1.858  10.591 -0.4236  0.0983 -0.1522
  392TMC3    C6 5858   1.791   1.832  10.473  0.9638  0.7959  0.0373
  392TMC3     C 5859   1.597   1.717  10.832  0.2819 -0.4863  0.7295
  392TMC3     O 5860   1.495   1.648  10.811 -0.7395 -0.0804 -0.2229
  392TMC3     H 5861   1.503   1.721  10.602 -0.6763  2.4441  1.1951
  392TMC3    H1 5862   1.846   1.861  10.805 -1.4155  0.2695  0.8063
  392TMC3    H2 5863   1.834   1.870  10.381  1.0318  1.0870  0.1892
  392TMC3    C7 5864   1.978   1.937  10.585  0.2377  0.0537 -0.5116
  392TMC3    C8 5865   1.589   1.759  10.355 -0.1595 -0.3841  0.2139
  392TMC3    O1 5866   2.002   2.004  10.685  0.9647 -0.3624  0.3302
  392TMC3    O2 5867   1.471   1.779  10.345  0.0622  0.8101  0.0603
  393TMC3    C1 5868   4.711   4.523  10.526  0.2004  0.1243  0.7953
  393TMC3    C2 5869   4.608   4.483  10.609 -0.8303  0.3180  0.3768
  393TMC3    C3 5870   4.644   4.467  10.739 -0.1546  0.1452 -0.5686
  393TMC3    C4 5871   0.109   4.567  10.565 -0.0280 -0.2766 -0.4638
  393TMC3    C5 5872   0.137   4.565  10.695  0.2779 -0.0364  0.3447
  393TMC3    C6 5873   0.044   4.507  10.783  0.0876  0.4346  0.5862
  393TMC3     C 5874   4.686   4.537  10.381 -0.8725 -0.0575 -0.7588
  393TMC3     O 5875   0.049   4.597  10.321  0.0597 -0.1330 -0.4484
  393TMC3     H 5876   4.525   4.425  10.572 -0.5499 -0.2677  0.6580
  393TMC3    H1 5877   0.175   4.625  10.501  0.4597 -1.6184 -1.1833
  393TMC3    H2 5878   0.072   4.521  10.886 -0.0106  0.2777  0.6349
  393TMC3    C7 5879   0.263   4.607  10.753 -0.3410  0.4267 -0.1019
  393TMC3    C8 5880   4.546   4.421  10.835 -0.0292 -0.5603  0.4430
  393TMC3    O1 5881   0.268   4.621  10.874  0.5601 -0.7556 -0.1415
  393TMC3    O2 5882   4.448   4.358  10.795 -0.0236  0.1956 -0.3624
  394TMC3    C1 5883   2.503   0.209   9.950  0.5947 -0.4453  0.2043
  394TMC3    C2 5884   2.506   0.125   9.841  0.2509  0.0955 -0.4577
  394TMC3    C3 5885   2.530   0.181   9.717  0.2831  0.4412  0.3260
  394TMC3    C4 5886   2.525   0.349   9.934 -0.2230  0.3563  0.7275
  394TMC3    C5 5887   2.559   0.398   9.808 -0.0882 -0.8537 -0.0859
  394TMC3    C6 5888   2.560   0.315   9.695 -0.7909  0.6781  0.5087
  394TMC3     C 5889   2.464   0.160  10.082  0.0682  0.3446  0.3898
  394TMC3     O 5890   2.414   0.233  10.168  0.7511 -0.2575  0.1503
  394TMC3     H 5891   2.484   0.019   9.842 -0.8720  0.3410  0.5757
  394TMC3    H1 5892   2.524   0.422  10.014  2.0657  0.7736  0.3824
  394TMC3    H2 5893   2.557   0.347   9.591 -0.0816  2.9181  1.1677
  394TMC3    C7 5894   2.548   0.544   9.793 -0.3986  0.5996  0.1805
  394TMC3    C8 5895   2.454   0.124   9.605 -0.3380  0.5435  0.0229
  394TMC3    O1 5896   2.546   0.618   9.889  0.2830  0.3733  0.0589
  394TMC3    O2 5897   2.412   0.205   9.523  0.2145 -0.3580 -0.3749
  395TMC3    C1 5898   1.670   1.919  15.355  0.2370  0.3699  0.6726
  395TMC3    C2 5899   1.600   1.827  15.285  0.1295  0.3909  0.0278
  395TMC3    C3 5900   1.560   1.855  15.156 -0.1494  0.3589  0.0295
  395TMC3    C4 5901   1.689   2.045  15.302 -0.3882 -0.1327 -0.2769
  395TMC3    C5 5902   1.645   2.070  15.177 -0.1781 -1.0466  0.1638
  395TMC3    C6 5903   1.587   1.978  15.099  0.4966  0.3865 -0.1185
  395TMC3     C 5904   1.679   1.888  15.494  0.3321  0.2123 -0.1942
  395TMC3     O 5905   1.686   1.764  15.512  0.0330  0.2806  0.0896
  395TMC3     H 5906   1.579   1.727  15.322  2.5842 -0.3373 -0.5623
  395TMC3    H1 5907   1.749   2.115  15.358 -0.1707 -0.3186 -0.2771
  395TMC3    H2 5908   1.583   1.995  14.992  1.4115  3.5141  0.3488
  395TMC3    C7 5909   1.722   2.165  15.104 -0.6679  0.2481  0.0791
  395TMC3    C8 5910   1.492   1.764  15.075 -0.8714 -0.7228  0.0595
  395TMC3    O1 5911   1.798   2.118  15.026  0.2366  0.4033  0.0482
  395TMC3    O2 5912   1.534   1.651  15.063  0.3045  0.0314 -0.1748
  396MPD2     C 5913   1.716   3.178  17.030  0.0323  1.2340  0.3665
  396MPD2    C1 5914   1.832   3.175  17.096 -0.0428  0.1853  0.1939
  396MPD2    C2 5915   1.896   3.298  17.123  0.1848 -0.1305  0.5058
  396MPD2    C3 5916   1.847   3.415  17.077  0.1445  0.3138 -0.2289
  396MPD2    C4 5917   1.726   3.421  17.008  0.3451 -0.1575  0.2551
  396MPD2    C5 5918   1.665   3.300  16.986  0.2854  0.9111 -1.4397
  396MPD2     H 5919   1.993   3.304  17.171  0.1959  2.0606  0.1874
  396MPD2    H1 5920   1.672   3.509  16.975  1.7852 -0.1339 -2.0090
  396MPD2    H2 5921   1.660   3.085  17.019  1.6028  0.1483  1.6437
  396MPD2    H3 5922   1.573   3.286  16.929 -0.2622 -1.6832  0.0786
  396MPD2     N 5923   1.920   3.532  17.101  0.5904  0.5107 -0.4888
  396MPD2    H5 5924   2.007   3.513  17.150  0.1843  0.5281  0.2425
  396MPD2    N1 5925   1.891   3.047  17.124  0.1822 -0.3404 -0.3610
  396MPD2    H7 5926   1.841   2.962  17.102 -0.4037  0.1272 -0.8156
  397TMC3    C1 5927   2.057   2.895  17.175  0.7084 -0.5085  0.1538
  397TMC3    C2 5928   2.137   2.880  17.066  0.1939  0.6785  0.6631
  397TMC3    C3 5929   2.095   2.792  16.974 -0.2641  0.0793 -0.1675
  397TMC3    C4 5930   1.968   2.798  17.213  0.2823 -0.0838  0.0131
  397TMC3    C5 5931   1.953   2.691  17.128  0.0093 -0.3708 -0.0363
  397TMC3    C6 5932   2.007   2.694  17.002 -0.0941  0.5459  0.4537
  397TMC3     C 5933   2.010   3.034  17.186  0.8677 -0.0788 -0.0217
  397TMC3     O 5934   2.091   3.116  17.214 -0.1421 -0.5312  0.4956
  397TMC3     H 5935   2.190   2.969  17.035  0.0002  0.5476 -0.0448
  397TMC3    H1 5936   1.893   2.816  17.290  1.4929 -1.8845  1.6057
  397TMC3    H2 5937   1.968   2.627  16.927  0.5961 -0.0995  0.6625
  397TMC3    C7 5938   1.847   2.593  17.159  0.1953 -0.3132  0.0946
  397TMC3    C8 5939   2.098   2.823  16.826  0.3420  0.1257  0.0079
  397TMC3    O1 5940   1.793   2.551  17.056  0.6851  0.2362  0.2091
  397TMC3    O2 5941   2.013   2.774  16.755 -0.7097  0.3175  0.7718
  398MPD2     C 5942   4.658   3.712  17.570 -0.0128  0.1758 -0.0101
  398MPD2    C1 5943   0.013   3.626  17.638  0.0895 -0.6641 -1.0121
  398MPD2    C2 5944   0.115   3.678   0.002 -0.2488 -0.7093  0.0808
  398MPD2    C3 5945   0.160   3.806  17.687 -0.2253 -0.0643 -0.3409
  398MPD2    C4 5946   0.069   3.892  17.629 -0.0931  0.0128 -0.6828
  398MPD2    C5 5947   4.683   3.846  17.565 -0.3597 -0.4757 -0.6274
  398MPD2     H 5948   0.183   3.611   0.054  1.0444  0.4344 -0.1386
  398MPD2    H1 5949   0.092   3.997  17.614  0.2587  0.4324  2.7855
  398MPD2    H2 5950   4.564   3.685  17.522 -1.0706  1.4758  1.3367
  398MPD2    H3 5951   4.611   3.913  17.519  0.5273 -0.5591 -2.1356
  398MPD2     N 5952   0.284   3.846   0.042  0.2830  0.1721 -0.7669
  398MPD2    H5 5953   0.338   3.773   0.089 -0.8765 -1.0652 -1.3653
  398MPD2    N1 5954   4.716   3.488  17.644  0.2912  0.1883  0.1391
  398MPD2    H7 5955   0.050   3.441   0.010  2.5010  0.5788 -1.5307
  399TMC3    C1 5956   4.629   3.271  17.592  0.8333  0.4192 -0.3014
  399TMC3    C2 5957   0.021   3.208  17.631 -0.0171 -0.6669  0.1601
  399TMC3    C3 5958   0.020   3.069  17.620  0.5252 -0.0277 -0.4481
  399TMC3    C4 5959   4.518   3.202  17.545 -0.5718  0.5847 -0.4866
  399TMC3    C5 5960   4.524   3.069  17.528  0.6735  0.3740  0.0840
  399TMC3    C6 5961   4.630   2.999  17.570  0.7771  0.3133  0.3037
  399TMC3     C 5962   4.614   3.422  17.589  0.6687 -0.6083 -0.1574
  399TMC3     O 5963   4.514   3.462  17.528  0.4524  0.2833  0.4073
  399TMC3     H 5964   0.113   3.260  17.656  0.1150  0.6807 -3.0932
  399TMC3    H1 5965   4.430   3.257  17.514  0.4645  1.5804 -1.6836
  399TMC3    H2 5966   4.612   2.894  17.589 -1.2546  0.4996 -0.5753
  399TMC3    C7 5967   4.398   2.999  17.538 -0.1570 -0.3029  0.3821
  399TMC3    C8 5968   0.145   3.005  17.621 -0.9906  0.0419  0.8898
  399TMC3    O1 5969   4.396   2.887  17.489  0.4429  1.0623  0.3027
  399TMC3    O2 5970   0.243   3.072  17.637 -0.2192 -0.6290  0.4786
  400TMC3    C1 5971   3.079   2.585  16.705  0.1631 -0.2604 -0.5091
  400TMC3    C2 5972   2.997   2.544  16.607  0.2583  0.5721  0.0114
  400TMC3    C3 5973   2.902   2.638  16.554 -0.2475  0.5754  0.6894
  400TMC3    C4 5974   3.065   2.715  16.752 -0.1302  0.2386  0.3747
  400TMC3    C5 5975   2.980   2.801  16.697 -0.2328  0.2995  0.9164
  400TMC3    C6 5976   2.886   2.763  16.607  0.4638 -0.4540  0.3183
  400TMC3     C 5977   3.098   2.481  16.804  0.2088 -0.2183  0.7820
  400TMC3     O 5978   3.057   2.370  16.785 -0.2202 -0.2377 -0.0689
  400TMC3     H 5979   3.007   2.441  16.574  0.7645  1.0677 -1.3398
  400TMC3    H1 5980   3.134   2.766  16.818  0.3798  2.4225 -1.8325
  400TMC3    H2 5981   2.814   2.831  16.561  0.4046 -0.9795 -0.3687
  400TMC3    C7 5982   2.930   2.908  16.780  0.0406  0.3338  0.1611
  400TMC3    C8 5983   2.800   2.602  16.452 -0.2425  0.4709  0.0152
  400TMC3    O1 5984   2.987   2.919  16.890 -0.1967  0.3967  0.0063
  400TMC3    O2 5985   2.704   2.683  16.435 -0.0008 -0.3371 -0.2618
  401MPD2     C 5986   1.245   0.990   0.802 -0.6619 -0.5057  0.4512
  401MPD2    C1 5987   1.361   0.918   0.819  0.4706 -0.3553 -0.9065
  401MPD2    C2 5988   1.352   0.776   0.798  0.2807 -0.3804 -1.0064
  401MPD2    C3 5989   1.238   0.716   0.750 -0.3835 -0.1845  0.6484
  401MPD2    C4 5990   1.132   0.789   0.717 -0.2610  0.3742  0.2828
  401MPD2    C5 5991   1.137   0.928   0.738 -1.0133 -0.1084 -0.1588
  401MPD2     H 5992   1.444   0.722   0.816  0.2990 -0.2339 -0.6652
  401MPD2    H1 5993   1.046   0.743   0.671  0.5003  0.7316 -1.4748
  401MPD2    H2 5994   1.226   1.093   0.828  1.8477  0.6055 -2.1136
  401MPD2    H3 5995   1.048   0.986   0.719  0.3281  1.3951 -1.9015
  401MPD2     N 5996   1.248   0.576   0.723 -0.1192  0.3120  0.0897
  401MPD2    H5 5997   1.339   0.536   0.745 -1.1598 -1.1486  1.6880
  401MPD2    N1 5998   1.479   0.978   0.867  0.1779 -0.1150  0.2977
  401MPD2    H7 5999   1.558   0.915   0.874  0.0028 -0.4711 -0.9614
  402TMC3    C1 6000   1.213   0.376   0.591  0.7712  0.2793  0.4933
  402TMC3    C2 6001   1.253   0.268   0.675  0.4512 -0.2420 -0.0844
  402TMC3    C3 6002   1.359   0.184   0.637 -0.0287 -0.1756  0.1311
  402TMC3    C4 6003   1.307   0.417   0.500  0.2844  0.4457  0.6096
  402TMC3    C5 6004   1.413   0.343   0.470  0.6686  0.1488 -0.1831
  402TMC3    C6 6005   1.434   0.220   0.532  0.0750 -0.6843 -0.0095
  402TMC3     C 6006   1.157   0.495   0.660  0.0522 -0.8173 -0.4291
  402TMC3     O 6007   1.046   0.519   0.623 -0.4676 -0.2627  0.5361
  402TMC3     H 6008   1.193   0.255   0.764  0.1013 -2.7085 -0.6947
  402TMC3    H1 6009   1.287   0.506   0.441 -0.3470 -1.4575 -2.0663
  402TMC3    H2 6010   1.529   0.171   0.511  0.2062 -0.7384  0.7185
  402TMC3    C7 6011   1.517   0.405   0.384  0.3704 -0.0230 -0.5195
  402TMC3    C8 6012   1.423   0.100   0.739  0.1242 -0.4927 -0.1584
  402TMC3    O1 6013   1.492   0.494   0.308 -0.5610  0.0505  0.1053
  402TMC3    O2 6014   1.540   0.078   0.727 -0.6155 -0.3282  0.0536
  403MPD2     C 6015   4.332   4.655  13.715  0.3642 -0.5645  0.1084
  403MPD2    C1 6016   4.431   4.584  13.651  0.5027 -1.1214  0.0120
  403MPD2    C2 6017   4.562   4.592  13.697  0.4901  0.2325 -0.3348
  403MPD2    C3 6018   4.598   4.677  13.797 -0.8799 -0.2614 -0.6482
  403MPD2    C4 6019   4.501   0.018  13.869 -0.4639 -0.2143 -1.3156
  403MPD2    C5 6020   4.374   0.012  13.817  0.3979  0.2654 -0.2891
  403MPD2     H 6021   4.643   4.546  13.643  1.5003  1.0903  0.4544
  403MPD2    H1 6022   4.519   0.098  13.940  0.5561  0.2507 -2.0988
  403MPD2    H2 6023   4.234   4.650  13.668  0.3575 -1.1888  0.1902
  403MPD2    H3 6024   4.302   0.084  13.855  1.3965  1.2806 -0.3079
  403MPD2     N 6025   0.011   4.667  13.838  0.1621 -0.1602 -0.0695
  403MPD2    H5 6026   0.074   4.593  13.810 -1.3225 -0.5671 -2.3448
  403MPD2    N1 6027   4.398   4.505  13.539  0.0765  0.3155  0.0531
  403MPD2    H7 6028   4.300   4.480  13.525 -0.3092  0.9749  1.5424
  404TMC3    C1 6029   4.408   4.370  13.363  0.4778 -0.5627  0.2123
  404TMC3    C2 6030   4.392   4.247  13.418 -0.8606 -0.1918 -0.2069
  404TMC3    C3 6031   4.376   4.144  13.327  0.4048 -0.7243  0.6935
  404TMC3    C4 6032   4.428   4.398  13.228 -0.3998  0.1899  0.1026
  404TMC3    C5 6033   4.420   4.294  13.146 -0.3153 -0.9560 -0.3106
  404TMC3    C6 6034   4.386   4.168  13.189  0.1630  0.5964 -0.2603
  404TMC3     C 6035   4.481   4.463  13.447 -0.3589 -0.3193  0.4089
  404TMC3     O 6036   4.592   4.497  13.416 -0.6214  0.1495 -0.1279
  404TMC3     H 6037   4.400   4.230  13.525 -0.7201 -1.6005 -0.4428
  404TMC3    H1 6038   4.463   4.496  13.198  0.0813  0.0240  0.1262
  404TMC3    H2 6039   4.379   4.082  13.124  0.4581 -0.5457  1.2218
  404TMC3    C7 6040   4.407   4.331  13.009  0.1605 -0.0076 -0.5191
  404TMC3    C8 6041   4.417   4.017  13.370 -0.1636  0.2705 -0.1099
  404TMC3    O1 6042   4.418   4.451  12.987 -0.3922 -0.7759 -0.0160
  404TMC3    O2 6043   4.480   3.945  13.293 -0.0006  0.1378 -0.2167
  405MPD2     C 6044   0.162   4.599  14.368 -1.0399  0.6633 -0.1956
  405MPD2    C1 6045   0.026   4.620  14.336 -0.4531 -0.0975 -0.4716
  405MPD2    C2 6046   4.703   0.018  14.367 -0.1531 -0.5904  0.1413
  405MPD2    C3 6047   0.051   0.116  14.430 -0.0705  0.5870 -0.4110
  405MPD2    C4 6048   0.181   0.094  14.468  0.7881  0.3798  0.0054
  405MPD2    C5 6049   0.236   4.698  14.437 -0.1601 -0.8688 -0.2093
  405MPD2     H 6050   4.599   0.043  14.350 -0.0165 -0.9161 -1.1899
  405MPD2    H1 6051   0.235   0.177  14.512  0.2614  1.5801 -1.6226
  405MPD2    H2 6052   0.212   4.504  14.355  0.4956  1.3950  0.3507
  405MPD2    H3 6053   0.338   4.677  14.467  0.6837  3.5788  0.0829
  405MPD2     N 6054   4.708   0.231  14.451  0.2052  0.0691  0.1396
  405MPD2    H5 6055   4.620   0.230  14.401  1.0158 -3.6756 -1.1897
  405MPD2    N1 6056   4.682   4.517  14.265 -0.0498  0.1159 -0.7363
  405MPD2    H7 6057   4.720   4.424  14.266  2.1143  1.0071 -0.8485
  406TMC3    C1 6058   4.596   0.677  14.499  0.4653  0.0474  1.0720
  406TMC3    C2 6059   4.469   0.644  14.454 -0.5195 -0.5394  0.2710
  406TMC3    C3 6060   4.440   0.517  14.428 -0.1006 -0.4325 -0.6481
  406TMC3    C4 6061   4.686   0.575  14.534  0.5733 -0.4462 -0.7469
  406TMC3    C5 6062   4.648   0.451  14.514  0.3221 -0.4584  0.0375
  406TMC3    C6 6063   4.530   0.418  14.449 -0.2699  0.1333  0.7930
  406TMC3     C 6064   4.642   0.821  14.515  0.4420  0.2550 -0.2034
  406TMC3     O 6065   0.039   0.841  14.532 -0.7362 -0.1567  0.2909
  406TMC3     H 6066   4.390   0.717  14.439 -2.3829 -2.5353  0.2561
  406TMC3    H1 6067   0.052   0.599  14.587  0.7394 -0.8520 -0.8449
  406TMC3    H2 6068   4.499   0.315  14.450  0.2023 -0.0199 -0.5212
  406TMC3    C7 6069   0.025   0.353  14.518  0.1514 -0.3561  0.1587
  406TMC3    C8 6070   4.310   0.482  14.378 -0.3567  0.2827 -0.3420
  406TMC3    O1 6071   0.132   0.384  14.568 -0.5272 -0.0774 -0.3617
  406TMC3    O2 6072   4.210   0.538  14.417  0.9962 -0.0259  0.1194
  407MPD2     C 6073   2.622   1.839   9.752 -0.3019  0.1146 -0.1642
  407MPD2    C1 6074   2.687   1.736   9.818 -0.5409 -0.0330  0.3975
  407MPD2    C2 6075   2.679   1.722   9.956  0.1480  0.5077  1.0288
  407MPD2    C3 6076   2.602   1.815  10.027  0.5776 -0.0455  0.2385
  407MPD2    C4 6077   2.530   1.910   9.952  0.1924 -0.1288  0.0949
  407MPD2    C5 6078   2.539   1.921   9.820 -0.6250 -0.3639 -0.1684
  407MPD2     H 6079   2.724   1.637  10.004 -1.6557 -1.3029 -0.5025
  407MPD2    H1 6080   2.468   1.984  10.002  1.9793  0.9513  0.6842
  407MPD2    H2 6081   2.634   1.870   9.649 -1.3095  1.8708  0.2379
  407MPD2    H3 6082   2.483   2.005   9.779 -0.4951  0.2368  0.8858
  407MPD2     N 6083   2.588   1.823  10.170 -0.1485 -0.3334 -0.7413
  407MPD2    H5 6084   2.557   1.910  10.213 -1.2897 -0.7036 -0.8109
  407MPD2    N1 6085   2.771   1.650   9.745  0.4679  0.5380  1.0373
  407MPD2    H7 6086   2.823   1.575   9.789 -0.2037 -0.1630  0.6314
  408TMC3    C1 6087   2.895   1.564   9.560  0.2798  0.1305 -0.0267
  408TMC3    C2 6088   3.009   1.564   9.632 -0.1524  0.7441  0.1959
  408TMC3    C3 6089   3.119   1.504   9.577 -0.3623 -0.5044  0.0365
  408TMC3    C4 6090   2.878   1.501   9.440  0.3249 -0.5390  0.3599
  408TMC3    C5 6091   2.986   1.438   9.390 -0.4961  1.0012 -0.6895
  408TMC3    C6 6092   3.110   1.443   9.459  0.7970  0.3036  0.4407
  408TMC3     C 6093   2.785   1.646   9.606 -0.1807 -0.3573 -0.0781
  408TMC3     O 6094   2.704   1.680   9.518  0.4169 -0.5587  0.3578
  408TMC3     H 6095   3.015   1.620   9.725  2.5623  1.1175 -0.2125
  408TMC3    H1 6096   2.789   1.514   9.379  1.4143  0.2032 -1.0666
  408TMC3    H2 6097   3.191   1.384   9.418  1.2011  1.8270 -0.9807
  408TMC3    C7 6098   2.994   1.428   9.248 -1.0525 -1.0825 -0.0217
  408TMC3    C8 6099   3.223   1.471   9.678 -1.0095 -0.4900  0.1638
  408TMC3    O1 6100   3.102   1.418   9.201  0.3656 -0.2975  0.3767
  408TMC3    O2 6101   3.227   1.544   9.779  0.2518 -0.7997 -0.2388
  409MPD2     C 6102   2.269   1.927  16.202 -0.5284 -0.3369  0.1486
  409MPD2    C1 6103   2.256   1.971  16.334  0.0670  0.1172  0.3489
  409MPD2    C2 6104   2.218   2.102  16.357 -0.1006  0.2685 -0.5002
  409MPD2    C3 6105   2.206   2.194  16.253  0.2564  0.2022  1.3559
  409MPD2    C4 6106   2.240   2.155  16.123  0.2468  0.3557 -0.0016
  409MPD2    C5 6107   2.266   2.023  16.096  0.2274  0.6790 -0.4330
  409MPD2     H 6108   2.195   2.148  16.452 -1.1689  1.2879 -1.2533
  409MPD2    H1 6109   2.236   2.225  16.040 -0.8164  0.5144  0.1847
  409MPD2    H2 6110   2.271   1.820  16.186  0.7310 -0.2394 -0.3159
  409MPD2    H3 6111   2.276   1.987  15.995 -0.1783  0.4639 -0.3984
  409MPD2     N 6112   2.175   2.330  16.275 -0.4312  0.3758  0.3603
  409MPD2    H5 6113   2.203   2.391  16.198  4.1627 -1.0020  0.9384
  409MPD2    N1 6114   2.255   1.874  16.441 -0.0551 -0.3377  0.5154
  409MPD2    H7 6115   2.272   1.775  16.426  1.5937  0.2633 -1.6218
  410TMC3    C1 6116   2.186   2.527  16.417  0.2696  0.1493 -0.5119
  410TMC3    C2 6117   2.248   2.536  16.536 -0.4563  0.0566  0.1900
  410TMC3    C3 6118   2.319   2.652  16.557  0.4756 -0.6881 -0.2470
  410TMC3    C4 6119   2.207   2.613  16.319 -0.1744  0.0912 -0.4872
  410TMC3    C5 6120   2.255   2.736  16.345  0.0626 -0.1533  0.3464
  410TMC3    C6 6121   2.324   2.757  16.465  0.5564  0.2095  0.0159
  410TMC3     C 6122   2.130   2.393  16.389 -0.1525  0.1518 -0.1533
  410TMC3     O 6123   2.077   2.337  16.485 -0.2519  0.1094 -0.0441
  410TMC3     H 6124   2.229   2.464  16.615  0.6896 -2.3875 -1.7642
  410TMC3    H1 6125   2.147   2.598  16.230 -0.0661  0.6269 -0.6513
  410TMC3    H2 6126   2.370   2.853  16.483 -1.5136  1.2605 -0.3318
  410TMC3    C7 6127   2.284   2.827  16.228 -0.0611  0.2449 -0.0397
  410TMC3    C8 6128   2.429   2.657  16.654 -0.0576 -0.7502  0.2550
  410TMC3    O1 6129   2.257   2.771  16.123  0.0974  0.5056  0.3012
  410TMC3    O2 6130   2.477   2.765  16.685  0.1439  0.2856 -0.5048
  411MPD2     C 6131   2.522   2.799  14.658 -0.7595 -0.3769  0.4158
  411MPD2    C1 6132   2.441   2.852  14.555 -0.7272 -0.3025  0.7477
  411MPD2    C2 6133   2.378   2.769  14.463  0.4035  0.4715 -0.5834
  411MPD2    C3 6134   2.399   2.631  14.476 -0.0697 -0.3193  0.0210
  411MPD2    C4 6135   2.498   2.580  14.562  0.1800  0.0664 -0.1111
  411MPD2    C5 6136   2.540   2.662  14.661 -0.0623 -0.1337  0.1314
  411MPD2     H 6137   2.305   2.804  14.391 -1.6575 -1.2930  0.6341
  411MPD2    H1 6138   2.499   2.474  14.584  0.6933  0.5713  2.3300
  411MPD2    H2 6139   2.563   2.860  14.738  0.7337 -1.7610  0.7060
  411MPD2    H3 6140   2.594   2.615  14.743 -0.2791 -0.0664  0.3131
  411MPD2     N 6141   2.335   2.537  14.393  0.0655  0.0757 -0.4333
  411MPD2    H5 6142   2.377   2.445  14.393 -1.3419 -0.5586  0.5818
  411MPD2    N1 6143   2.425   2.998  14.550 -0.1706  0.2597  0.3974
  411MPD2    H7 6144   2.462   3.054  14.626  1.7068 -0.4508  0.0069
  412TMC3    C1 6145   2.196   2.445  14.220  0.4446  0.0961 -0.1349
  412TMC3    C2 6146   2.077   2.456  14.158 -0.4534  0.7204 -0.5008
  412TMC3    C3 6147   2.062   2.391  14.037 -0.3683 -0.0086  0.7419
  412TMC3    C4 6148   2.296   2.397  14.146 -0.2835  0.3043 -0.9973
  412TMC3    C5 6149   2.281   2.330  14.032 -0.6223 -0.0191 -0.2665
  412TMC3    C6 6150   2.153   2.306  13.985  0.0834  1.0033  0.2415
  412TMC3     C 6151   2.232   2.564  14.300 -0.0192  0.0191 -0.2710
  412TMC3     O 6152   2.164   2.663  14.271  0.3911 -0.0681  0.0512
  412TMC3     H 6153   2.005   2.517  14.211 -1.6346 -0.3666 -0.8756
  412TMC3    H1 6154   2.395   2.378  14.187 -1.3738 -1.6530  0.7024
  412TMC3    H2 6155   2.130   2.253  13.894  0.3367  2.8215 -0.8910
  412TMC3    C7 6156   2.377   2.371  13.930 -0.0734 -0.3202  0.0240
  412TMC3    C8 6157   1.986   2.458  13.940 -0.4714 -0.0755 -0.8150
  412TMC3    O1 6158   2.494   2.381  13.965 -0.1076  0.3606 -0.1003
  412TMC3    O2 6159   2.046   2.462  13.830 -0.0130 -0.5534 -0.0928
  413MPD2     C 6160   3.735   0.741  15.300 -0.3065  0.1438  0.6993
  413MPD2    C1 6161   3.730   0.872  15.253 -0.0909 -0.0208  0.1220
  413MPD2    C2 6162   3.831   0.905  15.157 -0.2056  1.0746  0.4262
  413MPD2    C3 6163   3.929   0.818  15.119 -0.6043 -0.4752 -0.2764
  413MPD2    C4 6164   3.936   0.695  15.179 -0.0900  0.2579  0.4663
  413MPD2    C5 6165   3.834   0.655  15.262 -0.0006  0.3730 -0.3554
  413MPD2     H 6166   3.830   0.997  15.100 -3.2657 -0.1177 -1.4862
  413MPD2    H1 6167   4.020   0.628  15.166 -0.7837 -0.6057  0.4057
  413MPD2    H2 6168   3.664   0.704  15.372  0.2437 -3.5752 -0.6614
  413MPD2    H3 6169   3.835   0.554  15.301 -0.1677  0.0225 -1.2505
  413MPD2     N 6170   4.029   0.868  15.032  0.1767 -0.0590 -0.3870
  413MPD2    H5 6171   4.037   0.969  15.024  1.7756 -0.2751 -1.5255
  413MPD2    N1 6172   3.637   0.964  15.308  0.3222 -0.7301  0.2353
  413MPD2    H7 6173   3.584   0.922  15.384 -0.3854 -0.2354  0.0140
  414TMC3    C1 6174   4.230   0.846  14.897  0.2136 -0.4324  0.1391
  414TMC3    C2 6175   4.333   0.754  14.878 -0.0187 -0.4957 -0.1504
  414TMC3    C3 6176   4.446   0.803  14.829 -0.4148 -0.3762 -0.0925
  414TMC3    C4 6177   4.249   0.978  14.879  0.0025  0.0671  0.0012
  414TMC3    C5 6178   4.367   1.021  14.828 -0.1968 -0.0268  0.0932
  414TMC3    C6 6179   4.477   0.933  14.814  0.7214 -0.0844 -0.5061
  414TMC3     C 6180   4.112   0.782  14.962 -0.2368  0.5929 -0.1556
  414TMC3     O 6181   4.092   0.664  14.938 -0.1407 -0.4150  0.8432
  414TMC3     H 6182   4.316   0.652  14.911  1.1348  0.0347  2.1287
  414TMC3    H1 6183   4.161   1.040  14.891 -0.4361 -0.8065  1.2041
  414TMC3    H2 6184   4.578   0.959  14.787  1.4276 -0.2653  1.9741
  414TMC3    C7 6185   4.375   1.157  14.795  0.6387 -0.4282  0.1017
  414TMC3    C8 6186   4.552   0.710  14.858  0.9050  0.3541  0.0060
  414TMC3    O1 6187   4.273   1.220  14.778 -0.1695 -0.1490 -0.1442
  414TMC3    O2 6188   4.519   0.594  14.831 -0.1110  0.5218  0.0997
  415TMC3    C1 6189   4.464   3.955   9.744 -0.2032  0.5693  0.0740
  415TMC3    C2 6190   4.467   4.044   9.637 -0.2385 -0.4918  0.3462
  415TMC3    C3 6191   4.416   3.997   9.518  0.2627  0.5179 -0.1105
  415TMC3    C4 6192   4.417   3.828   9.729  0.1758 -0.0106 -0.3735
  415TMC3    C5 6193   4.370   3.782   9.605 -0.0272 -0.1607  0.3368
  415TMC3    C6 6194   4.365   3.873   9.499 -0.0001 -0.4220  0.3200
  415TMC3     C 6195   4.539   3.996   9.855  0.7786 -0.0046  0.3784
  415TMC3     O 6196   4.559   3.910   9.939 -0.5506  0.2595 -0.2852
  415TMC3     H 6197   4.501   4.146   9.648  0.4674 -0.7155  0.2693
  415TMC3    H1 6198   4.411   3.764   9.817  0.3909  1.8829  1.0121
  415TMC3    H2 6199   4.336   3.839   9.400 -1.0782 -1.3277  0.9398
  415TMC3    C7 6200   4.387   3.638   9.576  0.5701 -0.0976 -0.3829
  415TMC3    C8 6201   4.424   4.076   9.403 -0.0974  0.1331 -0.0280
  415TMC3    O1 6202   4.355   3.614   9.461 -0.7440 -0.2150  0.0912
  415TMC3    O2 6203   4.315   4.096   9.349  0.1351  0.2507 -0.0870
  416MPD2     C 6204   1.884   3.286  11.199  1.3491 -0.1448  0.1484
  416MPD2    C1 6205   1.791   3.232  11.281 -0.5897  0.3074  0.0033
  416MPD2    C2 6206   1.787   3.097  11.297  0.3871 -0.2652 -0.4105
  416MPD2    C3 6207   1.852   3.013  11.207 -0.3990 -0.3245 -0.3501
  416MPD2    C4 6208   1.937   3.072  11.111  0.0914 -0.1473  0.1779
  416MPD2    C5 6209   1.954   3.210  11.103 -0.1637  0.2317 -0.3036
  416MPD2     H 6210   1.722   3.055  11.373  0.4261 -0.3446 -0.4207
  416MPD2    H1 6211   2.001   3.016  11.044  0.3136  3.2567 -2.4680
  416MPD2    H2 6212   1.904   3.392  11.191 -1.1104  0.3013  0.1164
  416MPD2    H3 6213   2.017   3.263  11.033  0.5385  1.1716  1.0544
  416MPD2     N 6214   1.840   2.876  11.217 -0.7327  0.4196  0.3221
  416MPD2    H5 6215   1.895   2.820  11.152 -2.8318  1.9402 -2.7563
  416MPD2    N1 6216   1.715   3.320  11.360 -0.1623  0.2245  0.8870
  416MPD2    H7 6217   1.722   3.421  11.353  0.3152  0.0267 -1.3720
  417TMC3    C1 6218   1.555   3.388  11.532  0.3272 -0.2821 -0.6168
  417TMC3    C2 6219   1.501   3.352  11.653 -0.0705  0.6390 -0.3442
  417TMC3    C3 6220   1.371   3.380  11.684 -0.2580 -0.2406 -1.0714
  417TMC3    C4 6221   1.484   3.458  11.441  0.1569  0.0227  0.4159
  417TMC3    C5 6222   1.356   3.491  11.480  0.2964  1.1084 -0.1027
  417TMC3    C6 6223   1.295   3.453  11.599 -1.0719  0.4716  0.4276
  417TMC3     C 6224   1.639   3.287  11.473 -0.2132 -0.0639 -0.2910
  417TMC3     O 6225   1.656   3.189  11.543 -0.2121 -0.6811  0.0200
  417TMC3     H 6226   1.562   3.297  11.723 -2.3698 -1.7084 -0.2146
  417TMC3    H1 6227   1.507   3.483  11.338  0.6039  2.0423  1.0172
  417TMC3    H2 6228   1.191   3.481  11.616 -1.3426  1.4193 -2.7290
  417TMC3    C7 6229   1.270   3.538  11.376  0.4402  0.0165  0.8096
  417TMC3    C8 6230   1.324   3.366  11.819 -0.2887 -0.0253  0.4800
  417TMC3    O1 6231   1.318   3.613  11.290  0.4132  0.3330 -0.2645
  417TMC3    O2 6232   1.397   3.393  11.912 -0.2091 -0.5621 -0.0055
  418TMC3    C1 6233   0.670   3.864   0.021  0.0984 -0.1475 -0.0169
  418TMC3    C2 6234   0.575   3.962  17.701  0.2147 -0.5928 -0.0573
  418TMC3    C3 6235   0.478   3.972   0.082  0.2397 -0.1778  0.6015
  418TMC3    C4 6236   0.668   3.791   0.132 -0.1083 -0.4427 -0.2864
  418TMC3    C5 6237   0.566   3.809   0.227  0.4403 -0.0839 -0.8219
  418TMC3    C6 6238   0.472   3.896   0.196 -0.1476  0.3672 -0.3756
  418TMC3     C 6239   0.786   3.868  17.630 -0.0574  0.0124 -0.5342
  418TMC3     O 6240   0.787   3.958  17.549 -0.2508 -0.0738 -0.0924
  418TMC3     H 6241   0.567   4.025  17.613 -3.5539  3.4186  3.1625
  418TMC3    H1 6242   0.744   3.715   0.140  0.7416  0.4694  0.2393
  418TMC3    H2 6243   0.385   3.897   0.260  0.0666 -0.2324 -0.0771
  418TMC3    C7 6244   0.530   3.682   0.290 -1.0076 -0.3431  0.5777
  418TMC3    C8 6245   0.346   3.970   0.017  0.5864  0.1676  0.0045
  418TMC3    O1 6246   0.417   3.639   0.272  0.1257 -0.0546 -0.0195
  418TMC3    O2 6247   0.315   4.060  17.639  0.0666  0.4979  0.1449
  419MPD2     C 6248   4.076   2.828  12.308  0.0161  0.8683 -0.5743
  419MPD2    C1 6249   3.948   2.876  12.286 -0.5274  0.8977 -0.1409
  419MPD2    C2 6250   3.861   2.886  12.389  0.5856  0.1004 -0.3182
  419MPD2    C3 6251   3.902   2.850  12.519 -0.4434  0.1404  0.5868
  419MPD2    C4 6252   4.020   2.780  12.538 -0.7434 -0.3411 -0.4210
  419MPD2    C5 6253   4.107   2.770  12.433  0.8580 -0.4598  0.3331
  419MPD2     H 6254   3.763   2.930  12.381  1.2335  1.5580 -0.3669
  419MPD2    H1 6255   4.054   2.739  12.632 -0.1210  4.1510  1.3428
  419MPD2    H2 6256   4.154   2.828  12.233  0.1743  0.9601 -0.4093
  419MPD2    H3 6257   4.207   2.730  12.446  1.0387  0.2516  1.1090
  419MPD2     N 6258   3.807   2.876  12.623  0.5344 -0.1314  0.5459
  419MPD2    H5 6259   3.720   2.914  12.587  1.3906 -0.2768 -1.6835
  419MPD2    N1 6260   3.908   2.929  12.161  0.3179  0.2805 -0.2233
  419MPD2    H7 6261   3.817   2.975  12.158  1.0201  1.5476 -2.3186
  420TMC3    C1 6262   3.705   2.878  12.833  0.1014  0.2550 -0.4771
  420TMC3    C2 6263   3.587   2.889  12.768  0.4397  0.5412 -1.0286
  420TMC3    C3 6264   3.481   2.929  12.846  0.5212  0.2120  0.7359
  420TMC3    C4 6265   3.723   2.899  12.968 -0.1016 -0.0967 -0.5587
  420TMC3    C5 6266   3.614   2.932  13.039  0.2708 -0.1939 -0.8586
  420TMC3    C6 6267   3.492   2.945  12.980  0.0213  0.5441  0.3963
  420TMC3     C 6268   3.824   2.846  12.755  0.8792  0.5415 -0.2712
  420TMC3     O 6269   3.923   2.800  12.811  0.1922 -0.1753 -0.2467
  420TMC3     H 6270   3.559   2.843  12.675  1.9513  0.0620 -1.2500
  420TMC3    H1 6271   3.822   2.874  13.004  0.3248  3.1314  0.4531
  420TMC3    H2 6272   3.406   2.987  13.032 -0.2013  0.9476 -0.3071
  420TMC3    C7 6273   3.635   2.980  13.178  0.3610 -0.5092  0.5844
  420TMC3    C8 6274   3.357   2.947  12.782  0.2670 -0.5213 -0.2203
  420TMC3    O1 6275   3.543   2.967  13.257 -0.5304 -0.6873  0.0200
  420TMC3    O2 6276   3.356   2.977  12.662 -0.0295  0.1678  0.2838
  421TMC3    C1 6277   0.194   4.723  13.978  0.5621 -0.4974 -0.0043
  421TMC3    C2 6278   0.264   0.102  14.033  0.3533 -0.0368  0.8521
  421TMC3    C3 6279   0.391   0.070  14.089  0.1757  0.3432 -0.1516
  421TMC3    C4 6280   0.230   4.591  14.003  0.6264 -0.5232 -0.1703
  421TMC3    C5 6281   0.343   4.565  14.066  0.7186 -0.8148  0.4200
  421TMC3    C6 6282   0.431   4.669  14.109 -0.1717  0.4933  0.2877
  421TMC3     C 6283   0.064   0.031  13.924  0.6300  0.3285 -0.1195
  421TMC3     O 6284   0.016   0.138  13.967 -0.0865  0.5497 -0.1054
  421TMC3     H 6285   0.219   0.200  14.030 -0.2370 -0.3224  0.5026
  421TMC3    H1 6286   0.167   4.509  13.970  2.3319 -2.1008  0.4651
  421TMC3    H2 6287   0.503   4.636  14.183  0.0179 -1.2414 -0.6686
  421TMC3    C7 6288   0.371   4.425  14.096  0.7871 -0.1313  0.1155
  421TMC3    C8 6289   0.445   0.182  14.168  0.1277 -0.3877 -0.4680
  421TMC3    O1 6290   0.274   4.351  14.108  0.0951 -0.0886  0.2076
  421TMC3    O2 6291   0.365   0.278  14.176 -0.1484  0.0897  0.5657
  422TMC3    C1 6292   2.643   0.980  12.680  0.2044 -0.0841 -0.8054
  422TMC3    C2 6293   2.600   1.107  12.716  0.0771 -0.2148 -0.3261
  422TMC3    C3 6294   2.464   1.121  12.755  0.1023  0.5676 -0.1385
  422TMC3    C4 6295   2.564   0.878  12.684  0.4580 -0.0065  0.5369
  422TMC3    C5 6296   2.429   0.892  12.716  0.0702  0.6499  0.4303
  422TMC3    C6 6297   2.374   1.010  12.752  0.3943 -0.3941  0.4305
  422TMC3     C 6298   2.760   0.973  12.591 -0.1299 -0.8620  0.1332
  422TMC3     O 6299   2.811   1.073  12.555  0.0269  0.2233 -0.5271
  422TMC3     H 6300   2.670   1.189  12.717 -1.9151  1.4805 -1.2388
  422TMC3    H1 6301   2.593   0.775  12.666 -2.1661 -0.7933  0.7710
  422TMC3    H2 6302   2.268   1.021  12.772  0.0730 -0.4799 -1.2898
  422TMC3    C7 6303   2.338   0.784  12.674  0.0935  0.0002  0.1635
  422TMC3    C8 6304   2.423   1.246  12.821  0.2780 -0.0380 -0.2219
  422TMC3    O1 6305   2.381   0.698  12.601 -0.0415  0.2905  0.2328
  422TMC3    O2 6306   2.485   1.346  12.788  0.0022 -0.0298  0.3629
  423MPD2     C 6307   3.134   1.788   0.283  0.4615 -0.1881  0.2001
  423MPD2    C1 6308   3.237   1.720   0.336 -0.9833  0.2402 -0.0460
  423MPD2    C2 6309   3.323   1.651   0.250 -0.2963 -0.2464 -0.6896
  423MPD2    C3 6310   3.320   1.661   0.114 -0.6914 -0.3709  0.6460
  423MPD2    C4 6311   3.216   1.733   0.061  0.0911  0.2039 -0.0539
  423MPD2    C5 6312   3.120   1.787   0.144 -0.5209 -0.4771 -0.2144
  423MPD2     H 6313   3.395   1.586   0.299  0.0757  0.6597 -0.0274
  423MPD2    H1 6314   3.196   1.746  17.657  3.2529 -0.4531 -0.7417
  423MPD2    H2 6315   3.048   1.827   0.337  1.0365 -0.1452  1.0739
  423MPD2    H3 6316   3.037   1.841   0.100 -0.0123 -0.1756 -0.7988
  423MPD2     N 6317   3.396   1.574   0.029 -0.3316  0.7983  0.2799
  423MPD2    H5 6318   3.377   1.575  17.630 -0.5652 -1.0894  0.3217
  423MPD2    N1 6319   3.256   1.699   0.476 -0.4843  0.3623  0.2009
  423MPD2    H7 6320   3.342   1.656   0.508 -0.0400  1.1691  0.0927
  424TMC3    C1 6321   3.239   1.759   0.699 -1.1950  0.2448  0.2056
  424TMC3    C2 6322   3.366   1.714   0.720  0.7350  0.5808  0.0135
  424TMC3    C3 6323   3.439   1.746   0.829  0.1997 -0.0427  0.0429
  424TMC3    C4 6324   3.170   1.815   0.804 -0.5488  0.3327  0.3216
  424TMC3    C5 6325   3.248   1.834   0.919  0.2659  0.1796  0.0012
  424TMC3    C6 6326   3.378   1.801   0.936 -0.4471 -0.6206 -0.6910
  424TMC3     C 6327   3.179   1.760   0.571 -0.3912  0.0477  0.2058
  424TMC3     O 6328   3.065   1.811   0.567  0.0057 -0.0679  0.1942
  424TMC3     H 6329   3.417   1.657   0.643 -1.9982  0.6347 -1.8481
  424TMC3    H1 6330   3.069   1.852   0.793 -1.0195 -0.1770  2.9944
  424TMC3    H2 6331   3.433   1.833   1.024 -0.8810 -0.5416 -0.4501
  424TMC3    C7 6332   3.174   1.889   1.032 -1.0244 -0.3704  0.6261
  424TMC3    C8 6333   3.563   1.662   0.851 -0.4649  0.3540  0.0712
  424TMC3    O1 6334   3.070   1.946   1.001  0.3194 -0.5220  0.4599
  424TMC3    O2 6335   3.605   1.633   0.962  0.3707 -0.2098  0.0432
  425MPD2     C 6336   3.140   1.072  17.116 -0.1302 -0.1805  0.0808
  425MPD2    C1 6337   3.126   0.996  17.232  0.4318  0.0129  0.2969
  425MPD2    C2 6338   3.042   1.040  17.332 -0.2621 -0.9705 -0.3088
  425MPD2    C3 6339   2.977   1.163  17.329 -0.0239 -0.3443 -0.2951
  425MPD2    C4 6340   2.997   1.239  17.216  0.4371 -0.3866  0.5750
  425MPD2    C5 6341   3.070   1.187  17.108 -0.5308 -0.4764  0.3515
  425MPD2     H 6342   3.024   0.975  17.417  2.5307  0.6840  1.5206
  425MPD2    H1 6343   2.959   1.338  17.196  1.4653  0.6991  4.1024
  425MPD2    H2 6344   3.209   1.047  17.036 -0.0072 -0.7020  0.3449
  425MPD2    H3 6345   3.089   1.236  17.013 -0.6634  1.1701  1.1640
  425MPD2     N 6346   2.882   1.192  17.426 -0.6228  0.3429 -0.4530
  425MPD2    H5 6347   2.899   1.140  17.511 -0.9521  1.4478  0.2972
  425MPD2    N1 6348   3.194   0.875  17.243  0.0884 -0.1160 -0.5156
  425MPD2    H7 6349   3.252   0.845  17.165 -1.0458 -0.3667 -1.2678
  426TMC3    C1 6350   3.262   0.667  17.326 -0.4234 -0.0235  1.3629
  426TMC3    C2 6351   3.242   0.601  17.201  0.1894  0.6010  0.9060
  426TMC3    C3 6352   3.240   0.463  17.208 -0.2524  0.4709 -0.2428
  426TMC3    C4 6353   3.303   0.598  17.437 -0.0893 -1.2849  0.2883
  426TMC3    C5 6354   3.312   0.466  17.433 -0.2093 -0.3077 -0.3717
  426TMC3    C6 6355   3.295   0.398  17.318 -0.4111  0.1612  0.2490
  426TMC3     C 6356   3.192   0.790  17.354  0.8843 -0.2809 -0.4059
  426TMC3     O 6357   3.136   0.792  17.467  0.0080 -1.0252 -0.1465
  426TMC3     H 6358   3.198   0.655  17.118 -1.1510 -1.5614  0.2141
  426TMC3    H1 6359   3.322   0.659  17.524  0.7036  1.2778 -1.6566
  426TMC3    H2 6360   3.317   0.291  17.319  0.1575  0.2611 -0.7852
  426TMC3    C7 6361   3.379   0.398  17.549  0.0171  0.4694 -0.3933
  426TMC3    C8 6362   3.237   0.389  17.086 -0.5141 -0.2925  0.1297
  426TMC3    O1 6363   3.455   0.306  17.532  0.0949 -0.0943 -0.8125
  426TMC3    O2 6364   3.222   0.267  17.087 -0.0648 -0.2336 -0.0518
  427MPD2     C 6365   1.446   3.424  14.961  0.4124 -0.3490  0.9383
  427MPD2    C1 6366   1.417   3.391  15.090 -0.9778 -0.3418 -0.7127
  427MPD2    C2 6367   1.293   3.413  15.146  0.0160 -0.2870  0.8166
  427MPD2    C3 6368   1.194   3.459  15.061  0.8678  0.1378  0.9959
  427MPD2    C4 6369   1.222   3.493  14.930  0.1902  0.4516  0.0453
  427MPD2    C5 6370   1.346   3.469  14.877  0.6847  0.4299 -0.7860
  427MPD2     H 6371   1.279   3.386  15.250  0.7155  0.0840  1.0021
  427MPD2    H1 6372   1.144   3.526  14.863 -1.7324  0.8140  2.4297
  427MPD2    H2 6373   1.543   3.407  14.915  0.7093 -1.7208  2.0790
  427MPD2    H3 6374   1.360   3.492  14.771 -1.5345  0.8231 -0.9798
  427MPD2     N 6375   1.060   3.460  15.097  0.1491 -0.2821 -0.1912
  427MPD2    H5 6376   0.994   3.459  15.020  2.2214 -0.5694 -1.9612
  427MPD2    N1 6377   1.502   3.311  15.169 -0.1825 -0.4182 -0.8448
  427MPD2    H7 6378   1.490   3.302  15.270  1.7926  3.0729 -0.2979
  428TMC3    C1 6379   1.673   3.170  15.243  0.4088 -0.7423 -0.3801
  428TMC3    C2 6380   1.646   3.215  15.375  0.2772 -0.3784 -0.4893
  428TMC3    C3 6381   1.681   3.124  15.470  0.1560 -0.1791  0.4471
  428TMC3    C4 6382   1.740   3.052  15.212 -0.2047 -0.7201  0.3190
  428TMC3    C5 6383   1.794   2.981  15.320  0.0978  0.7255  0.3453
  428TMC3    C6 6384   1.745   3.008  15.445  0.3087 -1.1148 -0.0555
  428TMC3     C 6385   1.605   3.232  15.130  0.3669 -0.0800  0.3169
  428TMC3     O 6386   1.633   3.194  15.017  0.2389 -0.1712  0.2591
  428TMC3     H 6387   1.584   3.297  15.407 -0.1650 -1.0531  0.3831
  428TMC3    H1 6388   1.759   3.027  15.108  0.4633  1.0039  0.0276
  428TMC3    H2 6389   1.786   2.949  15.527 -0.9105  1.0531  2.1097
  428TMC3    C7 6390   1.935   2.949  15.317  0.4607  0.6150  0.9488
  428TMC3    C8 6391   1.652   3.165  15.605  0.4329 -0.4664 -0.0586
  428TMC3    O1 6392   1.986   2.915  15.423  0.5246  0.1594  0.0988
  428TMC3    O2 6393   1.638   3.285  15.633  0.2465 -0.3759 -0.0569
  429MPD2     C 6394   2.054   2.894  17.545  0.0032 -0.6732 -0.6752
  429MPD2    C1 6395   2.184   2.844  17.543 -0.3145  0.2309 -0.1788
  429MPD2    C2 6396   2.282   2.941  17.530 -0.1432 -0.0025  0.4855
  429MPD2    C3 6397   2.261   3.076  17.510 -0.4094 -0.1007  0.0603
  429MPD2    C4 6398   2.130   3.119  17.522  0.4932  0.5355  0.0312
  429MPD2    C5 6399   2.039   3.030  17.526 -0.1510  0.1988  0.5938
  429MPD2     H 6400   2.383   2.905  17.520  0.6555  1.8713  1.9812
  429MPD2    H1 6401   2.094   3.221  17.517  0.0215  0.3836  0.3221
  429MPD2    H2 6402   1.965   2.833  17.559 -0.4815  0.0965 -0.3987
  429MPD2    H3 6403   1.944   3.082  17.537 -0.2510  0.3462 -1.0196
  429MPD2     N 6404   2.379   3.153  17.486  0.5636  0.1341  0.6083
  429MPD2    H5 6405   2.464   3.099  17.476 -0.7134 -1.9088  0.7771
  429MPD2    N1 6406   2.222   2.702  17.547  0.3897 -0.9672 -0.2038
  429MPD2    H7 6407   2.318   2.689  17.578  0.5095 -1.0453 -0.6034
  430TMC3    C1 6408   2.502   3.333  17.424  0.0687 -0.2740 -0.8775
  430TMC3    C2 6409   2.489   3.466  17.391 -1.1960  0.0293  0.6552
  430TMC3    C3 6410   2.580   3.534  17.313  0.1514  0.5721  0.1188
  430TMC3    C4 6411   2.599   3.254  17.374 -0.9061  0.0385  0.0113
  430TMC3    C5 6412   2.689   3.321  17.296  0.2759 -0.4428 -0.5851
  430TMC3    C6 6413   2.672   3.453  17.262 -0.1275 -0.6718 -0.5582
  430TMC3     C 6414   2.373   3.286  17.468  0.8880 -0.1930  0.0936
  430TMC3     O 6415   2.271   3.361  17.463 -0.0573 -0.1766  0.3217
  430TMC3     H 6416   2.407   3.523  17.432 -2.3859  0.4588 -2.3853
  430TMC3    H1 6417   2.614   3.146  17.371  0.2449  0.1770  0.5894
  430TMC3    H2 6418   2.756   3.500  17.211 -0.0142  2.0245  2.0822
  430TMC3    C7 6419   2.753   3.256  17.182  0.4919  0.5754 -0.1269
  430TMC3    C8 6420   2.525   3.597  17.191  0.4278  0.7921  0.3870
  430TMC3    O1 6421   2.818   3.158  17.202  0.1906 -0.1744  0.0249
  430TMC3    O2 6422   2.594   3.684  17.141  0.1703  0.3045  0.5216
  431MPD2     C 6423   3.556   3.529  12.350  0.2038  0.3229 -0.0990
  431MPD2    C1 6424   3.643   3.572  12.250 -0.4673  0.4961 -0.7547
  431MPD2    C2 6425   3.654   3.496  12.132  1.2307  0.1902 -0.0999
  431MPD2    C3 6426   3.578   3.380  12.120 -0.5570  0.7889  0.4520
  431MPD2    C4 6427   3.480   3.350  12.210 -0.3772  0.4326  0.6176
  431MPD2    C5 6428   3.487   3.412  12.332  0.1167 -0.8265  0.2034
  431MPD2     H 6429   3.731   3.530  12.063  1.0322 -0.9537 -0.8973
  431MPD2    H1 6430   3.416   3.263  12.204  0.0912 -0.0048  1.8942
  431MPD2    H2 6431   3.549   3.587  12.441 -0.1904 -1.8226  1.2362
  431MPD2    H3 6432   3.427   3.381  12.417  1.1012 -1.7895  0.5454
  431MPD2     N 6433   3.605   3.288  12.017 -0.3426 -0.3748  0.6007
  431MPD2    H5 6434   3.565   3.196  12.025 -2.6480  0.6248  0.6877
  431MPD2    N1 6435   3.725   3.687  12.266 -0.4038  0.4403  0.3701
  431MPD2    H7 6436   3.786   3.721  12.193  0.3072 -2.9945 -0.6362
  432TMC3    C1 6437   3.754   3.179  11.882 -0.6250 -0.6490 -0.9589
  432TMC3    C2 6438   3.796   3.177  11.756 -0.7266  0.3444 -0.5718
  432TMC3    C3 6439   3.898   3.094  11.726  0.4500  0.4504  0.2945
  432TMC3    C4 6440   3.799   3.091  11.979 -0.1628  0.4868  0.1901
  432TMC3    C5 6441   3.895   3.002  11.942  0.2473  0.4075  0.0623
  432TMC3    C6 6442   3.951   3.006  11.813  0.4979  0.2692  0.0743
  432TMC3     C 6443   3.699   3.307  11.922 -0.5434  0.1188  0.2263
  432TMC3     O 6444   3.714   3.406  11.854 -0.1622 -0.5229  0.7021
  432TMC3     H 6445   3.759   3.251  11.686 -2.8180  0.1689  0.3462
  432TMC3    H1 6446   3.778   3.120  12.082  3.0311 -0.2775  1.0724
  432TMC3    H2 6447   4.042   2.956  11.784  0.2213 -0.7415  0.9375
  432TMC3    C7 6448   3.970   2.932  12.043  0.0252 -0.3752 -0.4524
  432TMC3    C8 6449   3.968   3.122  11.611  0.4481  0.4310 -0.1126
  432TMC3    O1 6450   4.060   2.864  12.004 -0.6884 -0.1597  0.2561
  432TMC3    O2 6451   3.983   3.240  11.588 -0.1706 -0.2700  0.6286
  433MPD2     C 6452   2.716   2.244  11.305  0.2943 -0.2994  0.2099
  433MPD2    C1 6453   2.781   2.123  11.305  0.4450  0.2700  0.5942
  433MPD2    C2 6454   2.874   2.101  11.407 -0.1618  0.3008 -0.3126
  433MPD2    C3 6455   2.901   2.194  11.502 -0.1012  0.8418  0.0840
  433MPD2    C4 6456   2.840   2.318  11.493  0.6100  0.9683  0.2461
  433MPD2    C5 6457   2.746   2.343  11.399 -0.2337 -0.4387 -0.0085
  433MPD2     H 6458   2.916   2.001  11.408  2.6216  1.4321 -2.9408
  433MPD2    H1 6459   2.860   2.400  11.560  2.4923  1.8489 -1.3755
  433MPD2    H2 6460   2.630   2.259  11.240  1.0252  0.4362 -0.5701
  433MPD2    H3 6461   2.684   2.432  11.404 -0.0854 -0.3577  0.4273
  433MPD2     N 6462   2.991   2.175  11.610 -0.0509 -0.4803  0.5156
  433MPD2    H5 6463   2.990   2.253  11.676 -1.2924 -0.8885  0.9764
  433MPD2    N1 6464   2.743   2.011  11.230 -0.2906 -0.6233  0.3073
  433MPD2    H7 6465   2.802   1.928  11.236  1.6610  0.6734 -0.8463
  434TMC3    C1 6466   2.599   1.861  11.115  0.2252  0.1449 -0.0519
  434TMC3    C2 6467   2.672   1.757  11.164 -0.1237 -0.4062 -0.6995
  434TMC3    C3 6468   2.618   1.635  11.128  0.1221  0.7272  0.1051
  434TMC3    C4 6469   2.501   1.859  11.020  0.6961 -0.7718  0.0162
  434TMC3    C5 6470   2.455   1.736  10.994 -0.1885  0.0163 -0.4085
  434TMC3    C6 6471   2.511   1.624  11.048  0.5602  0.3139  0.2309
  434TMC3     C 6472   2.616   1.998  11.168 -0.9214  0.0737 -0.7698
  434TMC3     O 6473   2.538   2.086  11.136 -0.1711  0.3821  0.1845
  434TMC3     H 6474   2.756   1.749  11.233  0.2535  0.1823 -1.0885
  434TMC3    H1 6475   2.454   1.948  10.981 -0.1891 -1.0437  0.4715
  434TMC3    H2 6476   2.467   1.525  11.045  0.0181  0.5326  0.8917
  434TMC3    C7 6477   2.373   1.721  10.877  0.3910  0.4548 -0.0643
  434TMC3    C8 6478   2.685   1.515  11.187 -0.4188  0.5417 -1.3051
  434TMC3    O1 6479   2.307   1.821  10.862 -0.4431 -0.0098 -0.0184
  434TMC3    O2 6480   2.760   1.533  11.286  0.1713 -0.6681  0.3499
  435MPD2     C 6481   4.724   2.164  15.608  0.1170 -0.1604 -0.3042
  435MPD2    C1 6482   4.645   2.112  15.710  0.1341  0.1276 -0.3979
  435MPD2    C2 6483   4.707   2.025  15.791 -0.1885  0.8221  0.5385
  435MPD2    C3 6484   0.099   1.960  15.760 -0.4193 -0.0817  0.0769
  435MPD2    C4 6485   0.176   2.016  15.655 -0.0112  0.1150  0.3478
  435MPD2    C5 6486   0.121   2.116  15.583  0.2442  0.3551 -0.3016
  435MPD2     H 6487   4.663   1.998  15.886 -0.9537 -1.9609 -0.5807
  435MPD2    H1 6488   0.273   1.984  15.621  0.1026 -0.1482  0.9159
  435MPD2    H2 6489   4.683   2.232  15.534 -2.1341 -1.1593  0.0391
  435MPD2    H3 6490   0.174   2.172  15.507  0.0595  0.0856 -0.6279
  435MPD2     N 6491   0.138   1.843  15.834  0.1887 -0.0994 -0.8848
  435MPD2    H5 6492   0.083   1.825  15.917  1.6416 -0.8402 -0.0820
  435MPD2    N1 6493   4.509   2.153  15.737  0.2717  0.2562  0.1838
  435MPD2    H7 6494   4.470   2.094  15.810 -2.4111  0.7215 -0.8932
  436TMC3    C1 6495   4.115   2.177  15.844 -0.3179 -0.6256 -0.1539
  436TMC3    C2 6496   4.235   2.154  15.789  0.3936  0.5540  1.0138
  436TMC3    C3 6497   4.295   2.252  15.715  0.1843 -0.8662 -0.0564
  436TMC3    C4 6498   4.050   2.297  15.826 -0.1060  0.3411 -0.0724
  436TMC3    C5 6499   4.106   2.384  15.732  0.2292  0.2437 -0.5218
  436TMC3    C6 6500   4.231   2.370  15.682  0.1802  0.2913  0.1509
  436TMC3     C 6501   4.059   2.079  15.930  0.7991  0.1966  0.9363
  436TMC3     O 6502   4.113   1.967  15.927 -0.4888 -0.2493  0.3257
  436TMC3     H 6503   4.281   2.056  15.798 -0.4284  0.0587 -0.0749
  436TMC3    H1 6504   3.949   2.312  15.861 -0.0130  0.4873  0.1335
  436TMC3    H2 6505   4.264   2.431  15.599  1.2600  0.1260  0.4644
  436TMC3    C7 6506   4.023   2.496  15.686  0.9920 -0.5906  0.5941
  436TMC3    C8 6507   4.434   2.251  15.679 -0.2292 -0.1485  0.5663
  436TMC3    O1 6508   3.909   2.499  15.730 -0.1901  0.1285  0.2117
  436TMC3    O2 6509   4.462   2.319  15.580  0.7740 -0.1434 -0.4307
  437TMC3    C1 6510   2.828   3.963  12.533  0.7425 -0.3480  0.0980
  437TMC3    C2 6511   2.723   4.032  12.600 -0.2616  1.1104  0.1419
  437TMC3    C3 6512   2.706   4.162  12.559 -0.1158 -0.7512 -0.0719
  437TMC3    C4 6513   2.916   4.032  12.447  0.4886  0.5331  0.6615
  437TMC3    C5 6514   2.889   4.158  12.418 -0.1478  0.2824  0.0664
  437TMC3    C6 6515   2.786   4.226  12.473  0.5575  0.2311 -0.0172
  437TMC3     C 6516   2.863   3.831  12.565  0.0280 -0.1550  0.2688
  437TMC3     O 6517   2.968   3.798  12.512  0.2727  0.2983 -0.5161
  437TMC3     H 6518   2.646   3.976  12.651 -0.3865  0.1130 -1.1456
  437TMC3    H1 6519   2.998   3.981  12.397 -0.6563 -0.8129  0.1524
  437TMC3    H2 6520   2.744   4.312  12.422  0.0247 -1.5225 -2.4896
  437TMC3    C7 6521   2.948   4.218  12.300 -0.2716 -0.1019 -1.2425
  437TMC3    C8 6522   2.627   4.234  12.658 -0.3160 -1.1253 -0.3942
  437TMC3    O1 6523   2.880   4.277  12.220 -0.8552  0.0734  0.0266
  437TMC3    O2 6524   2.594   4.169  12.754 -0.0598  0.8629 -0.2739
  438MPD2     C 6525   0.689   4.673  16.694  0.1604  0.2377 -0.4763
  438MPD2    C1 6526   0.751   4.582  16.773 -0.2654  0.6067  0.0185
  438MPD2    C2 6527   0.685   4.545  16.883 -0.6008  0.5479  0.7480
  438MPD2    C3 6528   0.553   4.580  16.918 -0.6402  0.3766 -0.8189
  438MPD2    C4 6529   0.486   4.654  16.826 -0.5599  0.8043  0.0928
  438MPD2    C5 6530   0.556   4.706  16.717  0.6118 -0.3261  0.7917
  438MPD2     H 6531   0.742   4.476  16.945  0.3408  1.9153  1.4005
  438MPD2    H1 6532   0.378   4.662  16.827 -0.6653 -0.4250 -1.4728
  438MPD2    H2 6533   0.746   4.718  16.613  0.7274  1.4966  0.6250
  438MPD2    H3 6534   0.504   0.040  16.642  0.2381  0.3757  1.6054
  438MPD2     N 6535   0.500   4.521  17.035  0.6998  0.1614 -0.8097
  438MPD2    H5 6536   0.568   4.476  17.095 -1.3277 -4.5774 -2.0202
  438MPD2    N1 6537   0.879   4.535  16.748  0.1900  0.3667  0.0641
  438MPD2    H7 6538   0.917   4.484  16.828  1.8855  0.5229 -0.6384
  439TMC3    C1 6539   1.076   4.486  16.649 -0.6417 -0.1139  0.0820
  439TMC3    C2 6540   1.144   4.452  16.535 -0.1263  0.1687 -0.6052
  439TMC3    C3 6541   1.281   4.442  16.541  0.0835 -0.3120  0.4771
  439TMC3    C4 6542   1.145   4.500  16.769 -0.2309  0.8421  0.0494
  439TMC3    C5 6543   1.277   4.482  16.764 -0.0362 -0.4196  0.4672
  439TMC3    C6 6544   1.351   4.464  16.650 -0.2351  0.4378 -0.6124
  439TMC3     C 6545   0.950   4.544  16.636  0.4222 -0.1504  0.8338
  439TMC3     O 6546   0.914   4.581  16.525  0.4901 -0.0658  0.6543
  439TMC3     H 6547   1.083   4.431  16.447 -0.2386  0.3862 -0.5797
  439TMC3    H1 6548   1.102   4.530  16.864 -0.7706 -0.5271  0.2420
  439TMC3    H2 6549   1.457   4.440  16.645 -0.2388  0.3721 -0.4070
  439TMC3    C7 6550   1.331   4.407  16.874  0.2691  0.4140 -0.0154
  439TMC3    C8 6551   1.351   4.396  16.421 -0.0575 -0.8643 -0.1042
  439TMC3    O1 6552   1.450   4.429  16.897 -0.4265  0.0869  0.6145
  439TMC3    O2 6553   1.430   4.304  16.432  0.2488  0.1361 -0.2315
  440MPD2     C 6554   4.322   4.707  14.762  0.2104  0.4893 -0.4108
  440MPD2    C1 6555   4.394   0.042  14.861 -0.1049  0.2671  0.0233
  440MPD2    C2 6556   4.527   0.063  14.847  0.1579 -0.3084 -0.5476
  440MPD2    C3 6557   4.591   0.000  14.742  0.0331 -0.1406  0.3096
  440MPD2    C4 6558   4.520   4.649  14.647  0.5498 -0.2706 -0.2105
  440MPD2    C5 6559   4.382   4.652  14.659 -0.0715 -0.1844 -0.3502
  440MPD2     H 6560   4.573   0.126  14.922  1.3933 -1.2479 -0.5160
  440MPD2    H1 6561   4.571   4.589  14.573  1.6029 -0.4858  0.6993
  440MPD2    H2 6562   4.213   4.704  14.766  0.2268 -1.9752 -1.6224
  440MPD2    H3 6563   4.337   4.575  14.597 -0.9520 -0.2464  0.3713
  440MPD2     N 6564   0.005   4.723  14.730  0.0354  0.2583 -0.4144
  440MPD2    H5 6565   0.042   4.649  14.672  1.6244  0.2720  0.5952
  440MPD2    N1 6566   4.334   0.097  14.976 -0.7423  0.4314 -0.1223
  440MPD2    H7 6567   4.401   0.127  15.046  0.1283  0.3560 -0.9122
  441TMC3    C1 6568   0.232   0.044  14.800 -0.0690 -0.2723 -0.1949
  441TMC3    C2 6569   0.299   0.156  14.835  0.8269 -0.3758  0.0890
  441TMC3    C3 6570   0.339   0.164  14.960  0.7755 -0.6664 -0.0564
  441TMC3    C4 6571   0.242   4.657  14.882  0.5591  0.4748  0.3216
  441TMC3    C5 6572   0.289   4.666  15.010  0.0989  0.6523  0.1552
  441TMC3    C6 6573   0.345   0.054  15.045 -0.3840 -0.3355  0.6452
  441TMC3     C 6574   0.092   0.084  14.790  0.1817 -0.1457 -0.1880
  441TMC3     O 6575   0.064   0.185  14.854  0.5167 -0.1326  0.0716
  441TMC3     H 6576   0.273   0.244  14.776  0.7148 -1.1931 -1.0860
  441TMC3    H1 6577   0.189   4.567  14.853  1.8187 -0.6542  1.5117
  441TMC3    H2 6578   0.380   0.067  15.147  0.4564  1.9921  0.0536
  441TMC3    C7 6579   0.203   4.613  15.118  0.0317 -0.4533 -0.0743
  441TMC3    C8 6580   0.327   0.294  15.023 -0.0026 -0.1282 -0.9281
  441TMC3    O1 6581   0.244   4.629  15.234  0.1287 -0.3691  0.3756
  441TMC3    O2 6582   0.395   0.317  15.122  0.3401 -0.1787 -0.3456
  442MPD2     C 6583   2.671   0.615  16.400  0.3854  0.4495 -0.9027
  442MPD2    C1 6584   2.622   0.531  16.499 -0.1877  0.6061 -0.3848
  442MPD2    C2 6585   2.580   0.408  16.468 -0.4564 -0.4102 -0.6439
  442MPD2    C3 6586   2.588   0.374  16.330 -0.7161 -0.3944  0.5891
  442MPD2    C4 6587   2.636   0.455  16.232  0.2521  0.1236  0.7807
  442MPD2    C5 6588   2.689   0.571  16.269  0.4530  0.4976  0.4248
  442MPD2     H 6589   2.541   0.347  16.548 -1.8803  1.7762  0.3274
  442MPD2    H1 6590   2.647   0.426  16.128 -0.1693 -0.6432  0.9501
  442MPD2    H2 6591   2.710   0.715  16.418 -0.2244  0.7454 -1.2538
  442MPD2    H3 6592   2.727   0.638  16.192 -2.6610 -0.4396 -1.9261
  442MPD2     N 6593   2.549   0.249  16.286  0.3134 -0.1647  0.3280
  442MPD2    H5 6594   2.575   0.227  16.191  2.7412  0.4638  0.8441
  442MPD2    N1 6595   2.626   0.570  16.634 -0.0907 -0.0380 -0.0477
  442MPD2    H7 6596   2.592   0.506  16.704 -1.6650  0.7970 -0.0569
  443TMC3    C1 6597   2.635   0.729  16.825  0.4018  1.2729 -0.3286
  443TMC3    C2 6598   2.605   0.853  16.858 -0.0013  0.1354 -0.2092
  443TMC3    C3 6599   2.527   0.880  16.971  0.1416  0.6545  0.1495
  443TMC3    C4 6600   2.602   0.623  16.912 -0.3956  0.3989  0.2137
  443TMC3    C5 6601   2.544   0.654  17.029 -0.1386 -0.5377 -0.7149
  443TMC3    C6 6602   2.499   0.780  17.056 -0.0614  0.0312  0.1744
  443TMC3     C 6603   2.664   0.698  16.686 -0.0862  0.0998 -0.5464
  443TMC3     O 6604   2.687   0.799  16.618 -0.0035 -0.5939  0.3445
  443TMC3     H 6605   2.600   0.929  16.781 -0.2477  0.5245  0.1862
  443TMC3    H1 6606   2.640   0.524  16.889 -1.3053  0.3933 -1.2682
  443TMC3    H2 6607   2.459   0.796  17.155 -1.5727  0.7492 -0.5558
  443TMC3    C7 6608   2.496   0.544  17.115  0.8042 -0.5912 -0.2104
  443TMC3    C8 6609   2.419   0.974  16.948  0.2693 -1.0662 -0.4448
  443TMC3    O1 6610   2.469   0.439  17.062 -0.2084 -0.1713 -0.2356
  443TMC3    O2 6611   2.436   1.051  16.855 -0.1010 -0.2708 -0.3688
  444MPD2     C 6612   3.048   0.116  17.483 -0.6915 -0.4856 -0.8468
  444MPD2    C1 6613   2.946   0.067  17.404  0.1110 -0.8785 -0.3560
  444MPD2    C2 6614   2.978   4.705  17.294 -0.4082  0.8169 -0.2137
  444MPD2    C3 6615   3.112   4.671  17.280 -0.2125 -0.7563  0.3483
  444MPD2    C4 6616   3.211   0.001  17.360 -0.5436  0.6252 -0.9355
  444MPD2    C5 6617   3.182   0.085  17.458  0.2280  0.1444 -1.1492
  444MPD2     H 6618   2.902   4.655  17.235  0.2282 -0.3229 -0.0808
  444MPD2    H1 6619   3.312   4.693  17.343 -1.2660 -1.9764 -0.1302
  444MPD2    H2 6620   3.036   0.191  17.560 -1.4326 -0.7301 -0.7188
  444MPD2    H3 6621   3.256   0.132  17.522 -2.6882  2.7433  0.3047
  444MPD2     N 6622   3.149   4.571  17.185 -0.2459  1.0781 -0.1675
  444MPD2    H5 6623   3.076   4.527  17.131  1.3770 -2.0750  0.1973
  444MPD2    N1 6624   2.803   0.088  17.442 -0.1236  0.2097 -0.6785
  444MPD2    H7 6625   2.735   0.034  17.389 -0.0273 -0.0196 -0.5707
  445TMC3    C1 6626   3.261   4.448  17.030  0.5248  0.4681 -0.1700
  445TMC3    C2 6627   3.228   4.329  17.084 -0.1855  0.3827  0.0212
  445TMC3    C3 6628   3.272   4.215  17.026  0.2928 -0.3765 -0.3680
  445TMC3    C4 6629   3.349   4.468  16.924 -0.1643 -0.2560  0.5064
  445TMC3    C5 6630   3.379   4.347  16.867 -0.4134  0.6109 -0.2236
  445TMC3    C6 6631   3.347   4.227  16.911 -0.3758 -0.1157 -0.2891
  445TMC3     C 6632   3.270   4.559  17.122  0.7724 -0.3211  0.1463
  445TMC3     O 6633   3.371   4.630  17.118  0.0309 -0.4856 -0.0281
  445TMC3     H 6634   3.176   4.333  17.178  2.4276 -3.5606  1.6386
  445TMC3    H1 6635   3.360   4.566  16.879 -0.4698 -1.4058 -2.0952
  445TMC3    H2 6636   3.385   4.139  16.861 -0.0384 -0.1051 -0.0472
  445TMC3    C7 6637   3.430   4.356  16.734  0.7030  0.3094 -0.4282
  445TMC3    C8 6638   3.220   4.087  17.078 -0.6598  0.0507 -0.5196
  445TMC3    O1 6639   3.501   4.455  16.706  0.3788 -0.1574  0.2959
  445TMC3    O2 6640   3.133   4.084  17.169  0.1291 -0.4162 -0.2864
  446MPD2     C 6641   2.471   1.185  11.648 -0.1491  0.1119  0.3551
  446MPD2    C1 6642   2.469   1.258  11.527 -1.1249 -0.1776 -0.0229
  446MPD2    C2 6643   2.563   1.354  11.505  0.5987  0.0653 -0.8161
  446MPD2    C3 6644   2.667   1.370  11.594 -0.8144 -0.2377 -0.1283
  446MPD2    C4 6645   2.663   1.303  11.720 -0.5402 -0.2846 -0.8844
  446MPD2    C5 6646   2.570   1.208  11.745 -0.0061 -0.0387  0.3465
  446MPD2     H 6647   2.570   1.399  11.407  1.8492  0.3359 -0.6005
  446MPD2    H1 6648   2.732   1.323  11.800  0.8589  0.8457 -2.3777
  446MPD2    H2 6649   2.390   1.115  11.667 -0.4515  0.1855 -0.6653
  446MPD2    H3 6650   2.571   1.152  11.837 -1.1020 -0.7828 -0.0892
  446MPD2     N 6651   2.780   1.445  11.553 -0.1681  0.2028  0.0783
  446MPD2    H5 6652   2.763   1.501  11.471 -0.7284  1.0905  0.8025
  446MPD2    N1 6653   2.392   1.213  11.418 -0.4911 -0.4036 -0.6089
  446MPD2    H7 6654   2.406   1.271  11.336 -0.1584  0.0185 -0.2473
  447TMC3    C1 6655   3.000   1.548  11.561 -0.0326  0.2966 -0.2951
  447TMC3    C2 6656   2.969   1.622  11.448  0.4562 -0.0047  0.8959
  447TMC3    C3 6657   3.086   1.657  11.372 -0.0474  0.4594  0.4148
  447TMC3    C4 6658   3.130   1.514  11.591 -0.9088  1.0146  0.0818
  447TMC3    C5 6659   3.237   1.563  11.521 -1.1250  0.8875  0.6794
  447TMC3    C6 6660   3.211   1.625  11.407  0.1828 -0.2663  0.4357
  447TMC3     C 6661   2.902   1.456  11.615  0.6126  0.1626 -0.0957
  447TMC3     O 6662   2.935   1.390  11.713  0.6109  0.2077 -0.4229
  447TMC3     H 6663   2.871   1.669  11.440  1.2627  1.6003  0.4117
  447TMC3    H1 6664   3.147   1.450  11.678  0.7921  1.2882 -0.0610
  447TMC3    H2 6665   3.285   1.681  11.350 -1.6416  1.2931 -0.3930
  447TMC3    C7 6666   3.360   1.488  11.503  0.2034  0.0213  0.1144
  447TMC3    C8 6667   3.059   1.696  11.235 -0.5820  0.9805 -0.2640
  447TMC3    O1 6668   3.431   1.495  11.400  0.0698 -0.7742 -0.2466
  447TMC3    O2 6669   2.977   1.783  11.211 -0.3857  0.1383  0.0134
  448TMC3    C1 6670   1.687   1.400  17.234  0.8768 -0.5754 -0.8557
  448TMC3    C2 6671   1.555   1.387  17.278 -0.7389 -0.6761 -0.5648
  448TMC3    C3 6672   1.527   1.283  17.366 -0.2907 -0.0972 -0.4250
  448TMC3    C4 6673   1.790   1.328  17.289 -0.5117  0.4228  0.8173
  448TMC3    C5 6674   1.752   1.218  17.364 -0.1359 -0.1737  0.1644
  448TMC3    C6 6675   1.621   1.193  17.394  0.5450 -0.2226 -0.4206
  448TMC3     C 6676   1.716   1.491  17.123 -0.1930 -0.4328  0.7578
  448TMC3     O 6677   1.639   1.585  17.115  0.6353  0.0627  0.2864
  448TMC3     H 6678   1.476   1.442  17.229  0.7013  0.9314 -1.0598
  448TMC3    H1 6679   1.892   1.328  17.252 -0.5968  3.2271  0.5772
  448TMC3    H2 6680   1.596   1.117  17.467  1.4217  1.1916  1.3776
  448TMC3    C7 6681   1.838   1.100  17.353  0.3156  0.6481 -0.6484
  448TMC3    C8 6682   1.409   1.213  17.320  0.1781 -0.3159  0.0539
  448TMC3    O1 6683   1.955   1.122  17.332  0.4814 -0.1495 -0.3456
  448TMC3    O2 6684   1.428   1.098  17.292 -0.4703  0.9615 -0.1924
  449MPD2     C 6685   2.448   4.641  14.050 -0.2474 -0.1945  0.2759
  449MPD2    C1 6686   2.404   4.611  13.922  0.5151  0.2616  0.0162
  449MPD2    C2 6687   2.396   4.478  13.883 -0.0697 -0.1550  0.2625
  449MPD2    C3 6688   2.406   4.378  13.978  0.6746 -0.8232  0.3689
  449MPD2    C4 6689   2.432   4.406  14.109 -0.4891 -0.3398 -0.0673
  449MPD2    C5 6690   2.453   4.537  14.143 -0.0268  0.1781  0.4443
  449MPD2     H 6691   2.365   4.451  13.783  0.1849 -0.2453  0.2085
  449MPD2    H1 6692   2.427   4.333  14.189  0.8989 -0.0759  0.2693
  449MPD2    H2 6693   2.467   0.017  14.086 -2.3415 -0.4752  2.2063
  449MPD2    H3 6694   2.462   4.561  14.249 -1.2580  2.6794 -0.0051
  449MPD2     N 6695   2.383   4.248  13.932  0.0128 -0.5126 -0.0706
  449MPD2    H5 6696   2.362   4.244  13.832 -0.3818  0.6356 -0.0297
  449MPD2    N1 6697   2.389   4.706  13.814  0.2823 -0.4942  0.3357
  449MPD2    H7 6698   2.343   4.664  13.733 -0.2087  0.2929  0.1994
  450TMC3    C1 6699   2.407   0.149  13.667  0.0174  0.0106 -0.3958
  450TMC3    C2 6700   2.526   0.165  13.595  0.1620  0.5051 -0.1451
  450TMC3    C3 6701   2.533   0.114  13.469 -0.0084  0.8629  0.2425
  450TMC3    C4 6702   2.297   0.103  13.611  0.2749  0.0180  0.0221
  450TMC3    C5 6703   2.305   0.054  13.484 -0.8197 -0.2320 -0.1004
  450TMC3    C6 6704   2.419   0.068  13.406 -0.5792 -0.4619 -0.6767
  450TMC3     C 6705   2.415   0.116  13.806 -0.3303 -0.1934 -0.5800
  450TMC3     O 6706   2.495   0.177  13.873 -0.4146  0.1265  0.2379
  450TMC3     H 6707   2.617   0.201  13.641 -0.4230  1.8026 -0.0227
  450TMC3    H1 6708   2.206   0.099  13.669 -0.1622  1.0190 -0.5842
  450TMC3    H2 6709   2.427   0.023  13.307 -1.3566  1.1144 -1.4648
  450TMC3    C7 6710   2.249   4.648  13.488  0.1514 -0.3431  0.2541
  450TMC3    C8 6711   2.651   0.136  13.395 -0.1373 -0.2312  0.2480
  450TMC3    O1 6712   2.238   4.596  13.600 -0.4522  0.8774  0.1168
  450TMC3    O2 6713   2.721   0.233  13.424 -0.0982 -0.5479  0.0182
  451MPD2     C 6714   3.374   2.158   1.368  0.3800 -0.1253  0.2212
  451MPD2    C1 6715   3.364   2.184   1.236 -0.6334 -0.7388 -0.9012
  451MPD2    C2 6716   3.465   2.129   1.152 -0.1624  0.0016 -0.8043
  451MPD2    C3 6717   3.571   2.056   1.198 -0.1433 -0.2960 -0.4133
  451MPD2    C4 6718   3.583   2.041   1.339 -0.3351  0.0628 -0.2350
  451MPD2    C5 6719   3.482   2.087   1.422  0.6925  0.9944  0.0750
  451MPD2     H 6720   3.439   2.134   1.046 -2.5472 -0.6981 -0.2572
  451MPD2    H1 6721   3.660   1.974   1.374  0.8429  0.2938 -2.3645
  451MPD2    H2 6722   3.290   2.175   1.434 -0.9868 -2.0574 -1.0020
  451MPD2    H3 6723   3.477   2.056   1.526  0.3062  0.5073 -0.0917
  451MPD2     N 6724   3.667   1.997   1.117  0.4861  0.1620  0.1062
  451MPD2    H5 6725   3.746   1.964   1.173 -0.5107 -0.8965  0.8859
  451MPD2    N1 6726   3.250   2.257   1.186 -0.1113  0.0477  0.4276
  451MPD2    H7 6727   3.173   2.283   1.247 -0.0327 -1.8847  1.3536
  452TMC3    C1 6728   3.791   1.938   0.930  0.4755  0.1531 -0.1578
  452TMC3    C2 6729   3.848   1.827   0.994 -0.3756  0.0862 -0.0394
  452TMC3    C3 6730   3.930   1.747   0.923  0.5269 -0.3621 -0.2378
  452TMC3    C4 6731   3.822   1.979   0.797 -0.5395  0.8903  0.3554
  452TMC3    C5 6732   3.912   1.894   0.732  0.8393  0.8145 -0.2414
  452TMC3    C6 6733   3.972   1.783   0.797  0.3181  0.5974 -0.0859
  452TMC3     C 6734   3.669   1.995   0.977  0.7226 -0.1431  0.6156
  452TMC3     O 6735   3.588   2.029   0.892  0.0268 -0.3761  0.4428
  452TMC3     H 6736   3.834   1.802   1.099  2.9045  0.5978  0.5187
  452TMC3    H1 6737   3.769   2.068   0.765 -2.7479 -0.2824  0.7497
  452TMC3    H2 6738   4.039   1.726   0.734 -1.0290 -1.4913  0.3591
  452TMC3    C7 6739   3.935   1.911   0.597 -0.2622  0.0139  0.1637
  452TMC3    C8 6740   3.996   1.647   0.998  0.0042  0.0161 -0.1612
  452TMC3    O1 6741   3.846   1.982   0.550  0.3528  0.3138  0.5805
  452TMC3    O2 6742   3.970   1.634   1.115 -0.3197 -0.1675 -0.4031
  453TMC3    C1 6743   4.679   0.473  11.752 -0.2680 -0.3753 -0.4506
  453TMC3    C2 6744   4.610   0.355  11.769 -0.1554 -0.1127  0.2225
  453TMC3    C3 6745   4.553   0.314  11.648  0.8262  0.3583  0.5715
  453TMC3    C4 6746   4.712   0.528  11.631 -0.2976  0.5353  0.4780
  453TMC3    C5 6747   4.679   0.455  11.519 -0.2877  0.2901  0.0108
  453TMC3    C6 6748   4.590   0.360  11.524  0.8551  0.1158  0.9472
  453TMC3     C 6749   0.030   0.523  11.868 -0.5320 -0.4234 -0.0466
  453TMC3     O 6750   0.024   0.644  11.882  0.1582 -0.2192  0.5014
  453TMC3     H 6751   4.570   0.327  11.865  0.3970  0.1308  0.5242
  453TMC3    H1 6752   0.068   0.600  11.637 -1.4561  1.5287  4.8636
  453TMC3    H2 6753   4.544   0.310  11.439  1.3378  0.2805  0.5879
  453TMC3    C7 6754   0.046   0.431  11.407  0.3157  0.2918  0.0194
  453TMC3    C8 6755   4.480   0.188  11.660 -0.0953 -0.3311  0.3473
  453TMC3    O1 6756   0.011   0.369  11.308 -0.6023 -0.0403 -0.0352
  453TMC3    O2 6757   4.381   0.178  11.591  0.4278  0.3530 -0.4836
  454MPD2     C 6758   3.473   4.723  15.762 -0.2895 -0.1162  0.8230
  454MPD2    C1 6759   3.431   4.594  15.795  0.1981 -0.0670 -0.4237
  454MPD2    C2 6760   3.403   4.574  15.930 -0.3669  0.0664  0.5351
  454MPD2    C3 6761   3.408   4.675  16.027 -0.2669  0.6576  0.7542
  454MPD2    C4 6762   3.458   0.070  15.994 -0.7842  0.4287  0.0950
  454MPD2    C5 6763   3.480   0.092  15.861  0.1541  0.9384 -0.2028
  454MPD2     H 6764   3.366   4.477  15.959 -0.0132  0.1422  1.2335
  454MPD2    H1 6765   3.478   0.151  16.063  0.9263  3.2369 -3.6455
  454MPD2    H2 6766   3.486   0.019  15.657 -1.8946  1.1861  0.8966
  454MPD2    H3 6767   3.507   0.192  15.830  1.1490  0.8252  0.2952
  454MPD2     N 6768   3.375   4.658  16.162  0.4040  0.7031  0.0750
  454MPD2    H5 6769   3.396   0.004  16.232  0.2497  1.0117 -0.1882
  454MPD2    N1 6770   3.411   4.488  15.698  0.0661 -0.3608  0.8918
  454MPD2    H7 6771   3.398   4.391  15.727  1.2946 -1.4109 -2.0018
  455TMC3    C1 6772   3.260   4.541  16.339 -0.3028 -0.3624  0.1883
  455TMC3    C2 6773   3.261   4.649  16.429 -0.0859  0.2956  0.2561
  455TMC3    C3 6774   3.199   4.634  16.550 -0.7155 -0.6815 -0.6637
  455TMC3    C4 6775   3.207   4.426  16.376  0.4389  0.2114  0.2179
  455TMC3    C5 6776   3.135   4.424  16.493 -0.6311  0.3988 -0.1802
  455TMC3    C6 6777   3.124   4.526  16.578  0.3840 -0.5381 -0.6138
  455TMC3     C 6778   3.287   4.556  16.199 -0.0631  0.0166  0.5058
  455TMC3     O 6779   3.238   4.465  16.135 -0.0699  0.0490  0.3717
  455TMC3     H 6780   3.309   0.016  16.398  1.1439 -0.1354  0.8607
  455TMC3    H1 6781   3.229   4.337  16.318  0.6156 -0.9391  2.0376
  455TMC3    H2 6782   3.056   4.513  16.661 -0.3119  2.2878 -0.7371
  455TMC3    C7 6783   3.034   4.311  16.508 -0.7213 -0.1663  0.5162
  455TMC3    C8 6784   3.215   0.009  16.662  0.4680  0.4303  0.1319
  455TMC3    O1 6785   2.989   4.278  16.616 -0.4548  0.4712  0.2183
  455TMC3    O2 6786   3.208   4.707  16.781 -0.0636 -0.5029  0.6768
  456MPD2     C 6787   1.006   0.492  16.199  0.0035  0.7092 -0.5268
  456MPD2    C1 6788   1.137   0.487  16.244 -0.0523  0.2729  0.3770
  456MPD2    C2 6789   1.174   0.512  16.381 -0.0008  0.2375 -0.1099
  456MPD2    C3 6790   1.075   0.547  16.463  0.0399  0.1061 -0.1947
  456MPD2    C4 6791   0.945   0.563  16.413  0.2545 -0.0678  0.5668
  456MPD2    C5 6792   0.912   0.533  16.283  0.1272 -0.8084 -0.4444
  456MPD2     H 6793   1.275   0.501  16.417 -0.1469 -0.8976 -0.0475
  456MPD2    H1 6794   0.862   0.592  16.477 -1.6717 -1.3786 -1.3357
  456MPD2    H2 6795   0.971   0.457  16.103  3.3425 -0.0040 -1.4600
  456MPD2    H3 6796   0.806   0.533  16.263  0.0726 -0.3056 -0.1680
  456MPD2     N 6797   1.102   0.567  16.601 -0.1864 -0.5590 -0.0422
  456MPD2    H5 6798   1.192   0.538  16.637  0.6187  1.5924 -0.3183
  456MPD2    N1 6799   1.230   0.458  16.147 -0.4014 -0.3542 -0.0254
  456MPD2    H7 6800   1.199   0.419  16.058  2.3605 -0.1894 -1.0925
  457TMC3    C1 6801   1.050   0.615  16.830 -0.2187 -0.3962 -0.0055
  457TMC3    C2 6802   1.015   0.709  16.920 -0.4685 -0.3300 -0.2113
  457TMC3    C3 6803   1.053   0.690  17.048 -0.0220  0.1162 -0.6898
  457TMC3    C4 6804   1.122   0.504  16.863  0.1772 -0.0524 -0.2294
  457TMC3    C5 6805   1.143   0.487  16.995  0.0387  0.3866  0.4915
  457TMC3    C6 6806   1.112   0.572  17.094  0.4916  0.1120  0.4708
  457TMC3     C 6807   1.022   0.636  16.687  0.1050  0.1846 -0.1735
  457TMC3     O 6808   0.945   0.726  16.656  0.0399 -0.1069  0.6816
  457TMC3     H 6809   0.949   0.793  16.902  1.2503  1.0637 -0.0325
  457TMC3    H1 6810   1.153   0.428  16.792 -1.3645 -0.1662 -0.7803
  457TMC3    H2 6811   1.143   0.557  17.197 -2.1538 -3.2145  0.7781
  457TMC3    C7 6812   1.255   0.397  17.025 -0.3693  0.3644  0.4171
  457TMC3    C8 6813   1.109   0.804  17.115  0.0069 -0.4296 -1.0126
  457TMC3    O1 6814   1.345   0.383  16.940  0.5278 -0.3700  0.3553
  457TMC3    O2 6815   1.229   0.806  17.141 -0.0401 -0.3635  0.7128
  458MPD2     C 6816   3.384   4.286  12.032 -0.0079 -0.0503 -0.4210
  458MPD2    C1 6817   3.414   4.230  12.157 -1.2260  0.4927 -0.2060
  458MPD2    C2 6818   3.312   4.203  12.243  0.6258 -0.0528  0.5043
  458MPD2    C3 6819   3.177   4.224  12.212 -0.6402 -0.0689  0.5425
  458MPD2    C4 6820   3.152   4.277  12.085 -0.2314 -0.1512  0.5507
  458MPD2    C5 6821   3.251   4.312  11.996  0.5242  0.3335 -0.6635
  458MPD2     H 6822   3.338   4.171  12.343  1.0431 -3.1785 -0.6167
  458MPD2    H1 6823   3.049   4.300  12.063 -0.0493  0.1445  0.0077
  458MPD2    H2 6824   3.467   4.318  11.971 -0.6042 -1.8316 -2.1690
  458MPD2    H3 6825   3.216   4.364  11.908 -0.6788 -0.4028 -0.6114
  458MPD2     N 6826   3.081   4.199  12.312 -0.4189  0.4541 -0.1727
  458MPD2    H5 6827   3.111   4.148  12.395 -2.5313  0.4820  0.6192
  458MPD2    N1 6828   3.541   4.213  12.186  0.0161  0.7132 -0.3630
  458MPD2    H7 6829   3.606   4.281  12.147 -0.0811  0.6090 -0.7008
  459TMC3    C1 6830   3.699   4.158  12.359 -0.1923  0.1263  0.0564
  459TMC3    C2 6831   3.786   4.250  12.306 -0.0697  0.4329  0.8060
  459TMC3    C3 6832   3.907   4.269  12.371 -0.4719 -1.0345  0.0040
  459TMC3    C4 6833   3.711   4.111  12.486  0.5548 -0.7522 -0.2682
  459TMC3    C5 6834   3.817   4.157  12.559 -0.1206  0.6616  0.4195
  459TMC3    C6 6835   3.922   4.227  12.503 -0.4545 -0.2966  0.5667
  459TMC3     C 6836   3.581   4.124  12.287 -0.2975 -0.1598  0.2978
  459TMC3     O 6837   3.525   4.030  12.343 -0.4068  0.1709  0.1896
  459TMC3     H 6838   3.779   4.284  12.203 -0.7954 -3.3310 -0.3882
  459TMC3    H1 6839   3.640   4.045  12.535  0.3058 -0.0898  0.2674
  459TMC3    H2 6840   4.017   4.226  12.555  1.1150  0.9442 -2.2845
  459TMC3    C7 6841   3.839   4.107  12.690 -0.5430 -0.1079  0.5609
  459TMC3    C8 6842   4.030   4.319  12.304 -0.1666 -0.8080  0.1443
  459TMC3    O1 6843   3.807   3.995  12.719 -0.5742 -0.3705  0.2367
  459TMC3    O2 6844   4.129   4.252  12.320 -0.2651 -0.1353  0.1990
  460MPD2     C 6845   3.207   1.533  10.935  0.0177 -0.4674 -0.4674
  460MPD2    C1 6846   3.116   1.616  11.007 -0.9660 -0.3007 -0.9442
  460MPD2    C2 6847   3.026   1.683  10.916  0.5195 -0.2625 -0.3708
  460MPD2    C3 6848   3.014   1.655  10.777 -0.7848 -1.0071  0.4232
  460MPD2    C4 6849   3.105   1.570  10.719  0.1789 -0.4634  0.2211
  460MPD2    C5 6850   3.198   1.516  10.798  0.4153 -0.0464  0.5442
  460MPD2     H 6851   2.951   1.744  10.965  0.7607 -1.7185  1.7820
  460MPD2    H1 6852   3.097   1.540  10.615  0.5906 -0.7139  0.2609
  460MPD2    H2 6853   3.276   1.476  10.995  1.3180 -0.5150 -2.0045
  460MPD2    H3 6854   3.273   1.449  10.760 -0.4019  0.2644 -1.5873
  460MPD2     N 6855   2.910   1.693  10.693  0.3172 -0.4284  0.1604
  460MPD2    H5 6856   2.923   1.655  10.600 -2.7088  0.2104 -0.5406
  460MPD2    N1 6857   3.126   1.618  11.147 -0.5429 -0.0589  0.1224
  460MPD2    H7 6858   3.197   1.558  11.188 -0.0415 -0.3725 -1.1828
  461TMC3    C1 6859   2.706   1.803  10.615 -0.1990  0.0048  0.0249
  461TMC3    C2 6860   2.701   1.724  10.492 -0.2172  0.0483  0.1122
  461TMC3    C3 6861   2.611   1.782  10.396 -0.5576  0.1877  0.2449
  461TMC3    C4 6862   2.646   1.923  10.631 -0.4166  0.3254 -0.6911
  461TMC3    C5 6863   2.580   1.979  10.529 -0.2045  0.5709 -0.8103
  461TMC3    C6 6864   2.538   1.897  10.427  0.4012  0.1467 -0.0229
  461TMC3     C 6865   2.798   1.772  10.729 -0.1436  0.9111 -0.2600
  461TMC3     O 6866   2.774   1.818  10.840  0.4900 -0.0396 -0.5993
  461TMC3     H 6867   2.752   1.628  10.481 -1.9963 -0.7747 -0.8769
  461TMC3    H1 6868   2.649   1.980  10.723  0.5514 -0.7252 -0.0868
  461TMC3    H2 6869   2.456   1.934  10.367  1.4275  0.7437 -1.0503
  461TMC3    C7 6870   2.641   2.092  10.470 -0.4385  0.2898 -0.0132
  461TMC3    C8 6871   2.623   1.731  10.259 -0.3247 -0.3960  0.0069
  461TMC3    O1 6872   2.610   2.107  10.354 -0.0498 -0.1815 -0.0179
  461TMC3    O2 6873   2.670   1.619  10.244  0.3447 -0.2555  0.3000
  462TMC3    C1 6874   2.518   3.066   0.148 -0.2759 -0.1349  0.1590
  462TMC3    C2 6875   2.608   3.019   0.057  0.8197 -0.1370  0.3130
  462TMC3    C3 6876   2.625   2.880   0.046  0.2775 -0.8899  0.6123
  462TMC3    C4 6877   2.444   2.983   0.236 -0.0090 -0.0010  0.0462
  462TMC3    C5 6878   2.466   2.849   0.213  0.4856 -0.9497 -0.0294
  462TMC3    C6 6879   2.561   2.796   0.128 -0.2579  0.2581  0.0592
  462TMC3     C 6880   2.479   3.206   0.126  0.0318  0.2821 -0.0612
  462TMC3     O 6881   2.540   3.274   0.041  0.0399  0.3755  0.2503
  462TMC3     H 6882   2.661   3.088  17.693  0.6197  1.7680  2.1656
  462TMC3    H1 6883   2.362   3.018   0.297 -0.1119  1.0623 -0.7005
  462TMC3    H2 6884   2.561   2.690   0.109  0.3976 -0.0229  1.5620
  462TMC3    C7 6885   2.364   2.744   0.246  0.2340 -0.5886  0.2581
  462TMC3    C8 6886   2.628   2.842  17.606 -0.5284  0.0604 -0.9079
  462TMC3    O1 6887   2.411   2.630   0.257 -0.0346 -0.0013 -0.3678
  462TMC3    O2 6888   2.641   2.933  17.525  0.7846 -0.1107 -0.3023
  463MPD2     C 6889   4.077   0.840   1.388 -0.3075  0.3546  1.1646
  463MPD2    C1 6890   3.995   0.738   1.442  0.8523 -0.1110  0.0654
  463MPD2    C2 6891   4.026   0.606   1.413  0.3750 -0.5531 -0.3365
  463MPD2    C3 6892   4.136   0.574   1.337 -0.6595 -1.1079  0.4952
  463MPD2    C4 6893   4.209   0.675   1.280 -0.4012  0.3337 -0.1884
  463MPD2    C5 6894   4.174   0.805   1.302  0.4202 -0.2721  0.4666
  463MPD2     H 6895   3.962   0.528   1.454  0.7543 -1.1542 -0.8948
  463MPD2    H1 6896   4.288   0.653   1.208 -1.4805 -0.5119 -1.1013
  463MPD2    H2 6897   4.053   0.940   1.422  1.0935  1.1180 -0.1047
  463MPD2    H3 6898   4.234   0.884   1.258 -0.8017  0.5429  0.2639
  463MPD2     N 6899   4.185   0.444   1.321 -0.3386 -0.4986 -0.2600
  463MPD2    H5 6900   4.279   0.443   1.282 -0.1916  1.3902  0.0019
  463MPD2    N1 6901   3.883   0.757   1.528 -0.4073  0.0797  0.1821
  463MPD2    H7 6902   3.838   0.675   1.568 -0.8515  1.1785  1.9021
  464TMC3    C1 6903   3.720   0.878   1.652  0.5795 -0.6784 -0.0182
  464TMC3    C2 6904   3.619   0.966   1.630  0.0942 -0.2926 -0.1267
  464TMC3    C3 6905   3.509   0.950   1.705 -0.2639 -0.9863 -0.0200
  464TMC3    C4 6906   3.715   0.778   1.736 -0.8568 -0.1208  0.3183
  464TMC3    C5 6907   3.590   0.750   1.792  0.5278 -0.0025  0.3396
  464TMC3    C6 6908   3.491   0.844   1.784 -0.1481  0.1904  0.6877
  464TMC3     C 6909   3.827   0.878   1.551 -0.0816 -0.5540  0.8564
  464TMC3     O 6910   3.829   0.976   1.477 -0.4277  0.4321 -0.0444
  464TMC3     H 6911   3.633   1.045   1.557  0.4971  0.2008  0.4925
  464TMC3    H1 6912   3.804   0.718   1.752 -1.2203 -0.3724  1.4258
  464TMC3    H2 6913   3.389   0.818   1.809  0.0925 -0.4684  0.9725
  464TMC3    C7 6914   3.591   0.640   1.882  0.7309 -0.3926  0.6456
  464TMC3    C8 6915   3.408   1.057   1.685 -0.7720 -0.9112  0.1265
  464TMC3    O1 6916   3.693   0.618   1.944  0.3558 -0.3966 -0.2420
  464TMC3    O2 6917   3.418   1.103   1.573 -0.1879 -0.4261  0.0502
  465MPD2     C 6918   0.628   0.308  16.217  0.0303 -0.7173  0.2568
  465MPD2    C1 6919   0.552   0.296  16.329 -0.3257  0.0405  0.9427
  465MPD2    C2 6920   0.415   0.285  16.314  0.2766 -0.0099 -0.0276
  465MPD2    C3 6921   0.353   0.289  16.193  0.2646  0.0746  0.8157
  465MPD2    C4 6922   0.424   0.312  16.082 -0.2455 -0.0446  0.1467
  465MPD2    C5 6923   0.562   0.320  16.099  0.1716 -0.7019  0.3249
  465MPD2     H 6924   0.353   0.272  16.402  0.3121 -0.1348 -0.0206
  465MPD2    H1 6925   0.388   0.326  15.980  2.2020  0.5913 -0.6372
  465MPD2    H2 6926   0.735   0.328  16.214 -0.4827  1.6814 -1.1636
  465MPD2    H3 6927   0.623   0.352  16.015 -1.9850 -0.1328 -1.0315
  465MPD2     N 6928   0.208   0.261  16.191  0.2814  0.3962  0.5955
  465MPD2    H5 6929   0.164   0.243  16.281  0.5271  2.1167  1.0643
  465MPD2    N1 6930   0.607   0.306  16.456  0.2522  0.4695 -0.2821
  465MPD2    H7 6931   0.539   0.320  16.530 -1.5406 -0.1134 -1.8506
  466TMC3    C1 6932   4.531   0.215  16.257 -0.2257  0.5980 -0.5437
  466TMC3    C2 6933   4.464   0.329  16.216 -0.0825  0.1319  0.6371
  466TMC3    C3 6934   4.521   0.404  16.115  0.9687 -0.2442  1.1646
  466TMC3    C4 6935   4.659   0.182  16.213  0.1551 -0.6450 -0.2610
  466TMC3    C5 6936   4.706   0.261  16.107  0.4849  0.9509  0.4347
  466TMC3    C6 6937   4.640   0.372  16.057 -0.0546  0.7011 -0.1242
  466TMC3     C 6938   4.467   0.129  16.352 -0.2628 -0.1340  0.1559
  466TMC3     O 6939   4.361   0.164  16.397 -0.1140  0.0460 -0.1413
  466TMC3     H 6940   4.367   0.363  16.249  0.5041  0.7955  1.6802
  466TMC3    H1 6941   4.719   0.096  16.243 -0.3226 -0.7840  0.2819
  466TMC3    H2 6942   4.680   0.450  15.993  2.7233 -2.2540 -1.9901
  466TMC3    C7 6943   0.126   0.274  16.080 -0.7788  0.3484 -0.1651
  466TMC3    C8 6944   4.481   0.545  16.095  0.2162 -0.5994 -0.5573
  466TMC3    O1 6945   0.153   0.313  15.967 -0.2492 -0.2035  0.1186
  466TMC3    O2 6946   4.531   0.600  15.998 -0.1973  0.2083  0.1966
  467TMC3    C1 6947   0.693   3.772  14.094  0.6234  0.1194 -0.2719
  467TMC3    C2 6948   0.603   3.815  13.992  0.2514  0.2346 -0.2302
  467TMC3    C3 6949   0.515   3.724  13.946  0.5425  0.2128  0.2667
  467TMC3    C4 6950   0.667   3.663  14.164 -0.3283 -0.0420 -0.0772
  467TMC3    C5 6951   0.558   3.587  14.126  0.5391  0.2352 -0.1990
  467TMC3    C6 6952   0.481   3.611  14.022  0.4836  0.1406  0.5250
  467TMC3     C 6953   0.834   3.782  14.064  0.4697  0.3074  0.8800
  467TMC3     O 6954   0.910   3.777  14.159 -0.4091  0.1972 -0.4245
  467TMC3     H 6955   0.611   3.907  13.935  1.9914 -0.1896 -0.6774
  467TMC3    H1 6956   0.717   3.642  14.257 -0.8235 -0.6335  0.0577
  467TMC3    H2 6957   0.409   3.535  13.993  0.1588  0.9630 -0.8118
  467TMC3    C7 6958   0.513   3.500  14.229 -0.8699 -0.4991  0.0188
  467TMC3    C8 6959   0.540   3.715  13.803 -0.2605 -0.0082  0.0039
  467TMC3    O1 6960   0.607   3.447  14.287 -0.4071 -0.0870  1.0432
  467TMC3    O2 6961   0.643   3.768  13.756  0.3014 -0.3239 -0.6782
  468MPD2     C 6962   4.593   1.572  10.440  0.0560 -0.2948 -0.3094
  468MPD2    C1 6963   4.723   1.600  10.486  0.7870 -0.1628  0.8625
  468MPD2    C2 6964   0.067   1.492  10.534 -0.1209 -0.2325  0.3534
  468MPD2    C3 6965   0.012   1.364  10.528  0.3002  0.3770 -0.2176
  468MPD2    C4 6966   4.619   1.336  10.462  0.1707  0.1907  0.0558
  468MPD2    C5 6967   4.542   1.445  10.424 -0.2306  0.4616  0.4860
  468MPD2     H 6968   0.156   1.509  10.594  0.2962 -0.6695 -0.1471
  468MPD2    H1 6969   4.575   1.238  10.450 -2.9515  1.2919  2.5851
  468MPD2    H2 6970   4.521   1.643  10.402  0.3221 -0.6132 -1.4046
  468MPD2    H3 6971   4.440   1.442  10.390 -0.0525  0.8984 -0.0824
  468MPD2     N 6972   0.079   1.247  10.580 -0.5138 -0.0958 -0.5532
  468MPD2    H5 6973   0.014   1.169  10.584  1.6200 -1.8486 -0.3004
  468MPD2    N1 6974   0.053   1.726  10.493 -0.3588 -0.1776  0.6058
  468MPD2    H7 6975   0.144   1.740  10.536 -0.4393  1.5414  0.2285
  469TMC3    C1 6976   0.084   1.953  10.456  0.2125  0.7253 -0.0880
  469TMC3    C2 6977   0.187   1.956  10.548 -0.7852  0.2302  0.4004
  469TMC3    C3 6978   0.280   2.059  10.540 -0.3868  0.2548 -0.6723
  469TMC3    C4 6979   0.064   2.051  10.363  0.8674  0.4497 -0.0482
  469TMC3    C5 6980   0.156   2.151  10.364  0.5548 -0.4953  0.2080
  469TMC3    C6 6981   0.272   2.157  10.443 -0.8484  0.2086 -0.5336
  469TMC3     C 6982   4.718   1.845  10.453 -0.3392 -0.1465 -0.2342
  469TMC3     O 6983   4.620   1.866  10.385 -0.3408  0.2136  0.3477
  469TMC3     H 6984   0.198   1.878  10.621 -2.1040  1.0760  1.5103
  469TMC3    H1 6985   4.712   2.053  10.287  1.1983  1.8249 -0.3435
  469TMC3    H2 6986   0.332   2.248  10.444  1.3249 -1.2821  1.8648
  469TMC3    C7 6987   0.120   2.263  10.286 -0.1268 -0.4547 -0.1876
  469TMC3    C8 6988   0.384   2.077  10.642 -0.3639  0.1554  0.7767
  469TMC3    O1 6989   4.721   2.273  10.271 -0.2640 -0.6117 -0.3006
  469TMC3    O2 6990   0.482   2.146  10.613  0.9212  0.0824 -0.5737
  470TMC3    C1 6991   1.483   1.639   0.752 -0.2264  0.8286 -0.0364
  470TMC3    C2 6992   1.541   1.760   0.752  0.3316  0.1300 -0.3005
  470TMC3    C3 6993   1.607   1.810   0.858 -0.0732 -0.0336 -0.3647
  470TMC3    C4 6994   1.489   1.556   0.870 -0.0275  0.2173  0.2615
  470TMC3    C5 6995   1.562   1.606   0.979 -0.6686 -0.0781 -0.2713
  470TMC3    C6 6996   1.617   1.733   0.969  0.5226 -0.0729  0.7465
  470TMC3     C 6997   1.387   1.607   0.645  0.0989  0.4310 -0.1435
  470TMC3     O 6998   1.400   1.668   0.538  0.1941 -0.0487  0.1107
  470TMC3     H 6999   1.536   1.817   0.659 -0.0579  0.5820 -0.0036
  470TMC3    H1 7000   1.440   1.459   0.873 -2.1558  1.1738 -3.7241
  470TMC3    H2 7001   1.678   1.767   1.052  0.1229 -1.4594  1.6019
  470TMC3    C7 7002   1.583   1.531   1.101 -0.4716  0.4273  0.5308
  470TMC3    C8 7003   1.671   1.939   0.854 -0.3908  0.3311 -0.2879
  470TMC3    O1 7004   1.682   1.556   1.164 -0.1867 -0.3192 -0.4885
  470TMC3    O2 7005   1.724   1.965   0.961  0.8135  0.2379 -0.3490
  471MPD2     C 7006   2.249   3.536  16.771  0.7159 -0.4551 -0.5405
  471MPD2    C1 7007   2.365   3.606  16.790 -0.2977 -0.1749  1.5595
  471MPD2    C2 7008   2.419   3.606  16.917 -0.0867 -0.2732 -0.1333
  471MPD2    C3 7009   2.352   3.551  17.020  0.8118  0.5226 -0.1626
  471MPD2    C4 7010   2.232   3.492  16.998  0.3333 -0.1854  0.6079
  471MPD2    C5 7011   2.181   3.482  16.873  0.0722 -0.5644  0.0148
  471MPD2     H 7012   2.517   3.650  16.933 -0.0969 -0.6271  0.8843
  471MPD2    H1 7013   2.188   3.440  17.082 -1.7395 -0.4056 -0.5998
  471MPD2    H2 7014   2.199   3.535  16.674 -1.8938  0.6433  0.8093
  471MPD2    H3 7015   2.091   3.424  16.858 -1.0559  1.5116 -1.2385
  471MPD2     N 7016   2.413   3.532  17.144  0.2407 -0.2623  0.5326
  471MPD2    H5 7017   2.367   3.462  17.200  0.8546 -1.6389 -0.6830
  471MPD2    N1 7018   2.451   3.660  16.693 -0.0450 -0.0374 -0.5310
  471MPD2    H7 7019   2.543   3.688  16.727  1.5935 -2.6983 -2.8250
  472TMC3    C1 7020   2.535   3.711  16.484  0.6208 -0.3301 -0.2151
  472TMC3    C2 7021   2.493   3.795  16.379 -0.0305  0.0712  0.5011
  472TMC3    C3 7022   2.513   3.758  16.251  0.2137 -0.1034 -0.0602
  472TMC3    C4 7023   2.596   3.594  16.449  0.6416  0.2248  1.2077
  472TMC3    C5 7024   2.596   3.557  16.319 -0.8681 -0.6481 -0.1026
  472TMC3    C6 7025   2.561   3.640  16.217  0.5585  0.2549 -0.0710
  472TMC3     C 7026   2.421   3.682  16.564 -0.0650  0.3640  0.0312
  472TMC3     O 7027   2.311   3.682  16.513 -0.0934  0.3306  0.8107
  472TMC3     H 7028   2.429   3.882  16.384  0.6981  0.6201  0.2636
  472TMC3    H1 7029   2.617   3.530  16.534 -2.2372  0.8905  2.4271
  472TMC3    H2 7030   2.578   3.611  16.114 -0.0689 -0.4680  0.0214
  472TMC3    C7 7031   2.570   3.420  16.310 -0.2407  0.3929  0.3599
  472TMC3    C8 7032   2.412   3.809  16.160 -0.4962 -0.6091 -0.3891
  472TMC3    O1 7033   2.586   3.344  16.406  0.3406 -0.1149 -0.0809
  472TMC3    O2 7034   2.445   3.839  16.048 -0.6651 -0.5740 -0.1593
  473MPD2     C 7035   2.301   1.196  14.054  0.0875 -0.2030 -0.8563
  473MPD2    C1 7036   2.332   1.327  14.004 -0.9113  0.7832  0.4604
  473MPD2    C2 7037   2.381   1.419  14.094 -0.7871 -0.6104 -0.5309
  473MPD2    C3 7038   2.396   1.401  14.228  0.1078 -0.0410  0.3521
  473MPD2    C4 7039   2.368   1.274  14.275 -0.3389  0.1858 -0.2618
  473MPD2    C5 7040   2.319   1.177  14.191 -0.5116 -0.0980 -0.8485
  473MPD2     H 7041   2.388   1.516  14.046 -0.6053  0.9562  2.6424
  473MPD2    H1 7042   2.359   1.255  14.381 -1.3013 -3.6500 -1.0322
  473MPD2    H2 7043   2.251   1.118  13.999  2.3792 -0.6031 -2.4005
  473MPD2    H3 7044   2.293   1.084  14.239 -0.0104  0.7530  1.0740
  473MPD2     N 7045   2.442   1.496  14.319 -0.2492  0.5584  0.7163
  473MPD2    H5 7046   2.422   1.486  14.418 -1.6316 -0.9500  0.2830
  473MPD2    N1 7047   2.300   1.374  13.874  0.2859  0.1776  0.8489
  473MPD2    H7 7048   2.331   1.468  13.851 -1.8981  0.2871 -1.5651
  474TMC3    C1 7049   2.563   1.670  14.404 -0.2238  0.3937 -0.0838
  474TMC3    C2 7050   2.558   1.806  14.400  0.9470  0.1703  0.1748
  474TMC3    C3 7051   2.673   1.874  14.437  0.4422  0.1794 -0.0632
  474TMC3    C4 7052   2.666   1.595  14.460 -0.3023  0.1747  0.0931
  474TMC3    C5 7053   2.765   1.668  14.514 -0.4816  0.2472 -0.1733
  474TMC3    C6 7054   2.769   1.805  14.499  0.0431  0.3807  0.0658
  474TMC3     C 7055   2.500   1.613  14.289 -0.3305 -0.0658  0.6013
  474TMC3     O 7056   2.508   1.674  14.182  0.2478  0.5998 -0.2795
  474TMC3     H 7057   2.474   1.854  14.351 -0.0731 -0.8648  0.9129
  474TMC3    H1 7058   2.681   1.488  14.447 -0.2331  0.2365 -0.3416
  474TMC3    H2 7059   2.861   1.862  14.511  0.6617 -0.5791 -0.1075
  474TMC3    C7 7060   2.871   1.599  14.581 -0.3852 -0.0797  0.1734
  474TMC3    C8 7061   2.726   1.974  14.345 -0.0815 -0.0659  0.1992
  474TMC3    O1 7062   2.892   1.482  14.542 -0.0114  0.1250 -0.5075
  474TMC3    O2 7063   2.804   2.059  14.381 -0.8180  0.0952  0.3274
  475MPD2     C 7064   0.779   4.706  10.700 -0.8830 -0.1608 -0.6971
  475MPD2    C1 7065   0.716   4.710  10.574  1.5025 -0.4972  0.1110
  475MPD2    C2 7066   0.583   4.677  10.566  0.2377  0.0375 -0.3507
  475MPD2    C3 7067   0.503   4.654  10.679  0.1826 -0.5565 -0.1243
  475MPD2    C4 7068   0.564   4.668  10.804  0.1549  0.2099 -0.4783
  475MPD2    C5 7069   0.699   4.686  10.812 -0.1457  0.3578 -0.7434
  475MPD2     H 7070   0.532   4.677  10.470  0.0027  0.7953 -0.2282
  475MPD2    H1 7071   0.506   4.656  10.895 -0.0979  1.1440 -0.5253
  475MPD2    H2 7072   0.875   0.031  10.708 -0.2212 -1.3023 -1.4763
  475MPD2    H3 7073   0.757   4.714  10.899  0.7675 -1.2042 -0.8365
  475MPD2     N 7074   0.365   4.615  10.660 -0.2290 -0.1260 -0.6476
  475MPD2    H5 7075   0.342   4.595  10.563  0.8115  1.8872 -1.3195
  475MPD2    N1 7076   0.790   0.020  10.459 -0.1168 -0.0112 -0.3395
  475MPD2    H7 7077   0.889   0.029  10.477  0.1303  0.8355 -2.1004
  476TMC3    C1 7078   0.835   0.023  10.227  0.4947  0.3467 -0.0044
  476TMC3    C2 7079   0.791   0.051  10.103 -0.2886  0.0605 -0.8508
  476TMC3    C3 7080   0.877   0.007   9.998  0.3588 -0.5482 -0.1047
  476TMC3    C4 7081   0.948   4.681  10.252 -0.0223 -0.2417  0.4906
  476TMC3    C5 7082   1.023   4.642  10.145  0.2280  0.6323 -0.5439
  476TMC3    C6 7083   0.987   4.658  10.017  0.2606 -0.1480 -0.5491
  476TMC3     C 7084   0.735   0.032  10.332 -0.4975  0.1976  0.0274
  476TMC3     O 7085   0.618   0.035  10.290 -0.1335  0.6331  0.5254
  476TMC3     H 7086   0.707   0.115  10.080 -1.2953 -0.8777  0.2288
  476TMC3    H1 7087   0.985   4.657  10.350 -1.1186 -1.4061  0.6266
  476TMC3    H2 7088   1.065   4.637   9.944 -1.1682 -2.3603 -1.4537
  476TMC3    C7 7089   1.157   4.590  10.170 -0.1166  0.2499  0.5720
  476TMC3    C8 7090   0.838   0.040   9.862 -0.4070 -0.2733 -0.6253
  476TMC3    O1 7091   1.205   4.498  10.102 -0.3310  0.1155  0.1592
  476TMC3    O2 7092   0.765   0.138   9.853 -0.7662  0.0199  0.2216
  477MPD2     C 7093   3.547   0.898  11.725  0.1366 -0.1867  0.1448
  477MPD2    C1 7094   3.455   0.804  11.781 -0.4651  0.2769 -0.8976
  477MPD2    C2 7095   3.506   0.706  11.859  0.2306 -0.4942 -0.0722
  477MPD2    C3 7096   3.642   0.698  11.891  0.0972  0.5466 -0.2623
  477MPD2    C4 7097   3.725   0.798  11.845  0.2301 -0.8602  0.2885
  477MPD2    C5 7098   3.678   0.896  11.761  0.3180 -0.7896 -0.0153
  477MPD2     H 7099   3.443   0.631  11.905  0.0235 -0.6332 -0.5790
  477MPD2    H1 7100   3.832   0.790  11.862  0.6568  2.6608 -0.7163
  477MPD2    H2 7101   3.521   0.976  11.654 -0.0173  0.6809  1.1397
  477MPD2    H3 7102   3.743   0.977  11.728 -1.8358  1.4546  1.2784
  477MPD2     N 7103   3.685   0.573  11.948 -0.3865  0.0221  0.3704
  477MPD2    H5 7104   3.608   0.523  11.992 -1.8953  1.0655 -1.0888
  477MPD2    N1 7105   3.314   0.830  11.761  0.5586  0.2317  0.1084
  477MPD2    H7 7106   3.293   0.909  11.701  3.4038  0.7100 -0.2651
  478TMC3    C1 7107   3.082   0.845  11.788 -0.0015  0.2212  0.4630
  478TMC3    C2 7108   3.011   0.889  11.890 -0.0013 -0.2296  0.3061
  478TMC3    C3 7109   2.941   1.007  11.873 -1.0430  0.6172 -0.2659
  478TMC3    C4 7110   3.064   0.891  11.657 -0.7900 -0.0701  0.4874
  478TMC3    C5 7111   2.992   1.004  11.637 -0.2115 -0.6279  0.0463
  478TMC3    C6 7112   2.929   1.059  11.749  0.1229  0.0959 -0.5248
  478TMC3     C 7113   3.208   0.773  11.828 -0.0362 -0.5077 -0.6092
  478TMC3     O 7114   3.207   0.708  11.931 -0.2808 -0.5786 -0.2926
  478TMC3     H 7115   3.021   0.841  11.987 -0.8083 -0.3815  0.3152
  478TMC3    H1 7116   3.131   0.857  11.579  1.0512 -1.5754  2.7113
  478TMC3    H2 7117   2.863   1.144  11.733  2.2519  1.4952 -1.8072
  478TMC3    C7 7118   2.937   1.004  11.505 -0.4062  0.7340  0.1818
  478TMC3    C8 7119   2.925   1.097  11.987  0.0253 -0.0259 -0.3444
  478TMC3    O1 7120   2.957   0.897  11.450 -0.2916  0.1696  0.0186
  478TMC3    O2 7121   2.872   1.044  12.082  0.6587 -0.2331 -0.0927
  479MPD2     C 7122   2.188   3.001  15.049 -0.4789 -0.8232 -0.2221
  479MPD2    C1 7123   2.140   2.968  15.171  0.1030  0.2478 -0.1335
  479MPD2    C2 7124   2.228   2.940  15.273 -0.0976 -0.0572 -0.3329
  479MPD2    C3 7125   2.363   2.947  15.259 -0.5453  0.4249  0.2054
  479MPD2    C4 7126   2.408   2.969  15.132  0.0806 -1.1589  0.1134
  479MPD2    C5 7127   2.324   2.998  15.027 -0.0536  0.5609 -0.0731
  479MPD2     H 7128   2.189   2.905  15.369 -1.1414  0.1874 -0.6734
  479MPD2    H1 7129   2.510   2.945  15.107 -0.1730 -1.1319 -0.9387
  479MPD2    H2 7130   2.123   3.012  14.963  1.0382 -1.1008 -1.3997
  479MPD2    H3 7131   2.364   3.031  14.932  0.1502 -0.3517 -0.3045
  479MPD2     N 7132   2.460   2.929  15.356  0.1479  0.4019 -0.2181
  479MPD2    H5 7133   2.551   2.930  15.311  0.0257  2.2539 -0.4240
  479MPD2    N1 7134   1.996   2.972  15.195 -0.0151  0.8019  0.0542
  479MPD2    H7 7135   1.936   2.990  15.115 -2.0626  0.0385  1.4340
  480TMC3    C1 7136   2.163   2.964  15.707  0.2301  0.5822  0.4215
  480TMC3    C2 7137   2.107   3.073  15.659 -0.5272  0.2996  0.2809
  480TMC3    C3 7138   2.171   3.149  15.555 -0.0382 -0.4652  0.4468
  480TMC3    C4 7139   2.279   2.917  15.652 -0.0652 -0.3042 -0.3585
  480TMC3    C5 7140   2.345   2.991  15.556  0.0825  0.2988 -0.6498
  480TMC3    C6 7141   2.291   3.111  15.507  0.0695  0.4122 -0.0746
  480TMC3     C 7142   2.090   2.858  15.776 -0.0450  0.1222 -0.0212
  480TMC3     O 7143   2.141   2.749  15.767 -0.3868  0.2379  0.0256
  480TMC3     H 7144   2.015   3.111  15.702 -1.4260 -3.0511  1.3229
  480TMC3    H1 7145   2.323   2.826  15.693 -0.9568  0.0149  1.3141
  480TMC3    H2 7146   2.339   3.150  15.419  2.5122 -0.3900  0.9092
  480TMC3    C7 7147   2.449   2.917  15.494 -0.4596  0.2280  0.4354
  480TMC3    C8 7148   2.095   3.249  15.485  0.3253  0.2316  0.1471
  480TMC3    O1 7149   2.544   2.898  15.573  0.0819  0.4541 -0.4004
  480TMC3    O2 7150   2.009   3.302  15.552  0.0444 -0.5655 -0.2664
  481MPD2     C 7151   4.179   2.929  14.218 -0.3378  0.0130  0.5217
  481MPD2    C1 7152   4.061   2.917  14.270 -0.3719  0.1937  0.2063
  481MPD2    C2 7153   4.052   2.903  14.407 -0.3382  0.3149 -0.3162
  481MPD2    C3 7154   4.167   2.891  14.491 -0.2780 -0.6324  0.6917
  481MPD2    C4 7155   4.292   2.900  14.430 -0.1698  0.0345 -0.5706
  481MPD2    C5 7156   4.296   2.923  14.295 -0.0059 -0.2234  0.3886
  481MPD2     H 7157   3.958   2.925  14.457 -0.2560  0.9953 -0.4633
  481MPD2    H1 7158   4.384   2.899  14.487 -0.1398 -1.9478 -0.6853
  481MPD2    H2 7159   4.194   2.944  14.112  0.2522 -0.5982  0.5170
  481MPD2    H3 7160   4.385   2.943  14.237  0.6771  0.3549  1.6389
  481MPD2     N 7161   4.165   2.871  14.635  0.1360 -0.3806 -0.2584
  481MPD2    H5 7162   4.256   2.855  14.677  0.1643  0.7185  0.0901
  481MPD2    N1 7163   3.947   2.937  14.190 -0.9923 -0.0330  0.0883
  481MPD2    H7 7164   3.962   2.950  14.090  0.3650  2.6962  0.6298
  482TMC3    C1 7165   3.732   2.904  14.115 -0.6338 -0.4680  0.2952
  482TMC3    C2 7166   3.649   2.797  14.090 -0.0863  0.1900  0.3253
  482TMC3    C3 7167   3.593   2.789  13.959 -0.7352  0.2144 -0.3379
  482TMC3    C4 7168   3.738   3.015  14.035  0.3046  0.1363  0.9752
  482TMC3    C5 7169   3.678   3.014  13.911 -0.7054 -0.1806  0.8950
  482TMC3    C6 7170   3.610   2.899  13.871 -0.2587  0.5767  0.2167
  482TMC3     C 7171   3.826   2.901  14.230 -0.0467 -0.3157  0.5149
  482TMC3     O 7172   3.780   2.843  14.328 -0.1238  0.1374  0.1691
  482TMC3     H 7173   3.644   2.708  14.153 -0.8745  0.3098  0.4333
  482TMC3    H1 7174   3.799   3.098  14.069 -0.3006  0.9401  0.0766
  482TMC3    H2 7175   3.582   2.879  13.769  0.3697 -3.5685  0.8769
  482TMC3    C7 7176   3.753   3.089  13.810  0.1375 -0.2452 -0.2909
  482TMC3    C8 7177   3.507   2.684  13.923  0.3617  0.2714 -0.4440
  482TMC3    O1 7178   3.857   3.139  13.856  0.1707  0.4136  0.0227
  482TMC3    O2 7179   3.538   2.574  13.962  0.0598  0.5767 -0.9752
  483TMC3    C1 7180   1.644   1.138   0.891  0.3440  0.6772 -0.1018
  483TMC3    C2 7181   1.698   1.244   0.837  0.0315  0.4020 -0.2018
  483TMC3    C3 7182   1.818   1.279   0.886  0.5107 -0.1046  0.3382
  483TMC3    C4 7183   1.699   1.075   0.999 -0.0021 -0.7710  0.0545
  483TMC3    C5 7184   1.815   1.124   1.048  1.1421  0.2957 -0.7728
  483TMC3    C6 7185   1.882   1.224   0.992 -0.3463 -1.0032  0.3583
  483TMC3     C 7186   1.508   1.113   0.870  0.4379  0.9139  0.1941
  483TMC3     O 7187   1.449   1.202   0.807 -0.1992 -0.2617  0.1825
  483TMC3     H 7188   1.648   1.295   0.756 -2.4124 -1.0214  0.3925
  483TMC3    H1 7189   1.634   1.008   1.056  0.1912 -1.6926 -0.8173
  483TMC3    H2 7190   1.985   1.249   1.016 -0.5128  1.2487 -1.3362
  483TMC3    C7 7191   1.879   1.056   1.162 -0.0397 -0.6561 -0.7637
  483TMC3    C8 7192   1.853   1.414   0.833 -0.3051  0.2986 -0.6663
  483TMC3    O1 7193   1.966   1.122   1.218 -0.6780  0.4085  0.2072
  483TMC3    O2 7194   1.787   1.462   0.739 -0.1985 -0.1701 -0.3337
  484MPD2     C 7195   4.041   4.600  12.072  0.0579  0.7668  0.1279
  484MPD2    C1 7196   4.089   4.509  12.166 -1.3444 -1.1728  0.2501
  484MPD2    C2 7197   4.222   4.505  12.194  0.1826 -0.1392 -0.1268
  484MPD2    C3 7198   4.307   4.585  12.118  0.4815  0.0044  0.0171
  484MPD2    C4 7199   4.257   4.689  12.038  0.4411 -0.5966 -0.3675
  484MPD2    C5 7200   4.118   4.693  12.011  0.4139  0.3615 -0.6767
  484MPD2     H 7201   4.253   4.426  12.262  2.0987 -0.4355 -1.3669
  484MPD2    H1 7202   4.329   0.019  11.979 -1.6511  1.3054 -1.1287
  484MPD2    H2 7203   3.935   4.609  12.049  1.0343  1.4843 -4.0659
  484MPD2    H3 7204   4.081   0.045  11.945 -1.0136  0.6308  0.4455
  484MPD2     N 7205   4.447   4.571  12.133  0.3648 -0.0236  0.1233
  484MPD2    H5 7206   4.505   4.653  12.116  0.5946 -0.4733 -1.2396
  484MPD2    N1 7207   3.999   4.422  12.223  1.1497  0.3942  0.3338
  484MPD2    H7 7208   3.902   4.447  12.213  0.9569 -0.4908 -0.0461
  485TMC3    C1 7209   4.641   4.446  12.216  0.2665 -0.0559 -0.0484
  485TMC3    C2 7210   4.671   4.326  12.275  0.6293  0.4876  0.2755
  485TMC3    C3 7211   0.060   4.311  12.345  1.2602 -0.6316 -0.3344
  485TMC3    C4 7212   4.718   4.558  12.239  0.2896  0.1479  0.2558
  485TMC3    C5 7213   0.103   4.541  12.315  0.0033  0.5879 -0.9790
  485TMC3    C6 7214   0.130   4.427  12.380 -0.1225  0.9332  0.0696
  485TMC3     C 7215   4.501   4.451  12.167  0.1661  0.2125 -0.0570
  485TMC3     O 7216   4.453   4.341  12.157 -0.7671  0.1603 -0.3759
  485TMC3     H 7217   4.607   4.239  12.260  0.5407  0.1089  2.8064
  485TMC3    H1 7218   4.704   4.651  12.185  0.0005  0.2813  0.5600
  485TMC3    H2 7219   0.213   4.427  12.449 -0.5730  3.1077  0.6073
  485TMC3    C7 7220   0.223   4.626  12.280 -0.5807 -0.5308  0.1030
  485TMC3    C8 7221   0.161   4.219  12.296  0.0260  0.2958  0.0005
  485TMC3    O1 7222   0.211   0.011  12.234  0.5962 -1.0140 -0.0684
  485TMC3    O2 7223   0.275   4.269  12.293 -0.0030  0.5103  0.4056
  486MPD2     C 7224   1.579   3.218  12.749 -0.2403 -0.0243  0.4298
  486MPD2    C1 7225   1.627   3.247  12.629  0.1544 -0.5525 -0.3024
  486MPD2    C2 7226   1.649   3.382  12.599  0.1193 -0.4479  0.3671
  486MPD2    C3 7227   1.596   3.479  12.682  0.1604 -0.9227 -0.3046
  486MPD2    C4 7228   1.529   3.450  12.797 -0.5909 -0.4886  1.0244
  486MPD2    C5 7229   1.529   3.318  12.830  0.2555  0.9822 -0.2121
  486MPD2     H 7230   1.688   3.411  12.502  0.9345  2.1499  1.4828
  486MPD2    H1 7231   1.486   3.516  12.871 -0.2308  0.8513  0.0370
  486MPD2    H2 7232   1.575   3.115  12.782  0.0929 -0.4986 -1.0429
  486MPD2    H3 7233   1.489   3.292  12.928 -2.2954  1.2012 -1.2047
  486MPD2     N 7234   1.603   3.606  12.631  0.0569  0.4086  0.3823
  486MPD2    H5 7235   1.637   3.613  12.536 -2.7567 -2.7033 -0.8335
  486MPD2    N1 7236   1.661   3.141  12.548  0.4880  0.6984 -0.1308
  486MPD2    H7 7237   1.631   3.046  12.565 -1.6500  1.1445 -1.3835
  487TMC3    C1 7238   1.758   3.015  12.384 -0.1826 -1.2303 -0.2120
  487TMC3    C2 7239   1.642   2.941  12.363 -0.4940 -0.4041  0.7439
  487TMC3    C3 7240   1.665   2.810  12.326  0.1417 -0.0987 -0.4041
  487TMC3    C4 7241   1.881   2.963  12.370  0.1112  0.3949 -0.4963
  487TMC3    C5 7242   1.904   2.825  12.360  0.5561 -0.4519  0.2312
  487TMC3    C6 7243   1.795   2.750  12.325  0.2339  0.3927 -0.8416
  487TMC3     C 7244   1.751   3.142  12.446 -0.0693 -1.0468  0.4823
  487TMC3     O 7245   1.822   3.238  12.412  0.1411  0.0343  0.3220
  487TMC3     H 7246   1.542   2.983  12.368 -1.4183 -2.2289 -2.2548
  487TMC3    H1 7247   1.968   3.024  12.392  0.5763  0.2730 -1.9756
  487TMC3    H2 7248   1.807   2.666  12.257 -0.0552  0.2032 -0.6608
  487TMC3    C7 7249   1.949   2.793  12.492 -0.0012 -0.0828 -0.5279
  487TMC3    C8 7250   1.557   2.723  12.377  0.2692 -0.1050 -0.1791
  487TMC3    O1 7251   1.964   2.890  12.566 -0.4331 -1.0050 -0.2639
  487TMC3    O2 7252   1.449   2.777  12.402  0.4581  0.6187 -0.7561
  488MPD2     C 7253   2.039   0.086  16.438  0.3346 -0.0686 -0.1383
  488MPD2    C1 7254   2.089   0.176  16.532 -0.0858 -0.0378  0.2596
  488MPD2    C2 7255   2.084   0.151  16.664 -0.0881 -0.6682  0.4067
  488MPD2    C3 7256   2.051   0.023  16.709 -0.3374 -0.1516  0.1952
  488MPD2    C4 7257   2.005   4.657  16.615 -0.2069  0.0326 -0.1356
  488MPD2    C5 7258   1.994   4.689  16.485  0.3756 -0.0183  0.1722
  488MPD2     H 7259   2.129   0.213  16.740  2.0461 -1.5393 -0.1362
  488MPD2    H1 7260   1.982   4.554  16.641 -0.1490  0.1084  0.2083
  488MPD2    H2 7261   2.038   0.108  16.332  0.0463 -3.8522 -0.9294
  488MPD2    H3 7262   1.970   4.610  16.414  1.4743  0.5619 -0.8623
  488MPD2     N 7263   2.057   4.721  16.846 -0.0021  0.4102 -0.2131
  488MPD2    H5 7264   2.109   0.062  16.903 -0.5997  1.0659 -0.4215
  488MPD2    N1 7265   2.127   0.306  16.494  0.2406 -0.4256 -0.8062
  488MPD2    H7 7266   2.146   0.370  16.571  0.7925 -1.3488 -0.1710
  489TMC3    C1 7267   2.017   4.614  17.045  0.1353 -0.4724 -0.3197
  489TMC3    C2 7268   2.139   4.667  17.089 -0.0278 -0.6856  1.0570
  489TMC3    C3 7269   2.136   4.703  17.219  0.2412  0.4990 -0.1575
  489TMC3    C4 7270   1.918   4.577  17.118 -0.1961  0.1121  0.6341
  489TMC3    C5 7271   1.923   4.616  17.249  0.3160  0.2681 -0.2979
  489TMC3    C6 7272   2.031   4.682  17.301 -0.1294  0.0635  0.1989
  489TMC3     C 7273   2.008   4.610  16.906  0.9415  0.2628 -0.1312
  489TMC3     O 7274   1.919   4.543  16.857 -0.5242 -0.5120  0.4222
  489TMC3     H 7275   2.222   4.666  17.019 -1.0680 -5.9394 -0.0449
  489TMC3    H1 7276   1.825   4.538  17.076  0.1415 -0.4653  0.4165
  489TMC3    H2 7277   2.046   4.697  17.407 -2.4099  1.4076  0.3393
  489TMC3    C7 7278   1.829   4.565  17.344  0.6974  0.6957  0.1505
  489TMC3    C8 7279   2.231   0.078  17.254 -0.7765 -0.1443  0.1876
  489TMC3    O1 7280   1.852   4.570  17.465  0.4289 -0.0515 -0.5409
  489TMC3    O2 7281   2.328   0.093  17.181  0.3544  0.8275  0.1092
  490MPD2     C 7282   2.668   0.098   0.214 -0.3258 -0.1291 -0.0292
  490MPD2    C1 7283   2.721   4.702   0.172  0.6573 -0.9023 -0.2601
  490MPD2    C2 7284   2.858   4.693   0.151  0.0935  0.2193 -0.1392
  490MPD2    C3 7285   2.945   0.073   0.184  0.1547 -0.8757 -0.0628
  490MPD2    C4 7286   2.885   0.194   0.226  1.0742 -0.0999  0.6237
  490MPD2    C5 7287   2.746   0.205   0.234  0.0133 -0.1842  0.1986
  490MPD2     H 7288   2.890   4.599   0.109  1.5294  0.6321  0.0328
  490MPD2    H1 7289   2.937   0.287   0.249  0.3347  0.3819  0.3511
  490MPD2    H2 7290   2.563   0.115   0.232 -0.0696  0.1265  1.2522
  490MPD2    H3 7291   2.705   0.293   0.283  2.7680  0.2281  1.7871
  490MPD2     N 7292   3.083   0.067   0.165  0.6002 -0.1635 -0.1469
  490MPD2    H5 7293   3.144   0.138   0.203 -1.4723  0.4784  1.9510
  490MPD2    N1 7294   2.650   4.582   0.162 -0.2595 -0.5145  0.5503
  490MPD2    H7 7295   2.697   4.493   0.159  0.0743 -0.2921 -0.7824
  491TMC3    C1 7296   2.470   4.445   0.183 -0.0160 -0.3967  0.1256
  491TMC3    C2 7297   2.377   4.423   0.277  0.5579  0.5937  0.6731
  491TMC3    C3 7298   2.303   4.311   0.268  0.0917 -0.1065 -1.6004
  491TMC3    C4 7299   2.502   4.368   0.074  0.6565 -0.1355  0.6213
  491TMC3    C5 7300   2.421   4.257   0.066 -0.6134  0.2858 -0.4087
  491TMC3    C6 7301   2.321   4.229   0.161 -1.6564  0.1734 -0.2149
  491TMC3     C 7302   2.519   4.581   0.184 -0.0877 -0.7452  0.0279
  491TMC3     O 7303   2.438   4.668   0.227 -0.0942  0.3486 -0.0543
  491TMC3     H 7304   2.356   4.497   0.354  0.1134  1.5531 -0.3692
  491TMC3    H1 7305   2.569   4.396  17.695 -1.7767  0.6416 -1.1399
  491TMC3    H2 7306   2.255   4.143   0.150 -0.9612 -0.0997 -2.3038
  491TMC3    C7 7307   2.416   4.177  17.645  0.3271  0.5619 -0.4032
  491TMC3    C8 7308   2.209   4.267   0.364 -0.3208  0.3056 -0.2130
  491TMC3    O1 7309   2.319   4.103  17.628  0.2150  0.2752 -0.0829
  491TMC3    O2 7310   2.130   4.184   0.322 -0.3079  0.4158  0.3405
  492MPD2     C 7311   3.049   4.456  10.875 -0.2878  0.1779  0.3917
  492MPD2    C1 7312   2.975   4.348  10.823 -0.0099  0.8824 -0.2530
  492MPD2    C2 7313   2.893   4.280  10.908 -0.4193 -0.8204  0.0544
  492MPD2    C3 7314   2.891   4.301  11.050  0.1449  0.1903  0.3325
  492MPD2    C4 7315   2.968   4.409  11.094  0.4786 -0.1652 -0.0088
  492MPD2    C5 7316   3.042   4.484  11.004  0.7341 -0.3977  0.3712
  492MPD2     H 7317   2.833   4.199  10.868 -1.3347  0.3903 -0.9968
  492MPD2    H1 7318   2.965   4.450  11.194  1.1844 -2.0899  0.8205
  492MPD2    H2 7319   3.114   4.514  10.812  0.2312 -0.0030  0.7581
  492MPD2    H3 7320   3.100   4.566  11.045 -0.6908  1.5332 -1.5599
  492MPD2     N 7321   2.815   4.227  11.144  1.3616 -0.0987  0.4353
  492MPD2    H5 7322   2.829   4.254  11.241 -0.1441  1.8590  0.1040
  492MPD2    N1 7323   2.984   4.341  10.689 -0.4687 -0.0678  0.2025
  492MPD2    H7 7324   3.052   4.400  10.642  0.8130 -0.4748  1.5484
  493TMC3    C1 7325   2.929   4.263  10.468 -0.3526  1.3310 -0.0876
  493TMC3    C2 7326   2.953   4.391  10.425 -0.3540 -0.1510  0.4937
  493TMC3    C3 7327   2.893   4.423  10.307  0.1674 -0.3795  0.9791
  493TMC3    C4 7328   2.855   4.175  10.390  0.1213 -0.0468  0.5145
  493TMC3    C5 7329   2.811   4.216  10.272  0.1871  0.1333  0.4222
  493TMC3    C6 7330   2.823   4.341  10.220  0.1616 -0.5177  0.2207
  493TMC3     C 7331   2.922   4.240  10.616 -0.5589  0.7551 -0.1029
  493TMC3     O 7332   2.864   4.141  10.661 -0.0734 -0.7586  0.1033
  493TMC3     H 7333   3.007   4.461  10.486 -2.0521  2.2751 -0.7806
  493TMC3    H1 7334   2.830   4.077  10.429  0.2866 -0.0316  0.6586
  493TMC3    H2 7335   2.790   4.375  10.123 -2.2690 -0.0563  1.2004
  493TMC3    C7 7336   2.720   4.132  10.197  0.0850 -0.3535  0.2596
  493TMC3    C8 7337   2.867   4.567  10.296  0.6304  0.3494 -0.2910
  493TMC3    O1 7338   2.673   4.184  10.098 -0.2931 -0.2694 -0.0676
  493TMC3    O2 7339   2.847   4.613  10.406  0.5939  0.0815 -0.0020
  494TMC3    C1 7340   3.104   1.303   0.511 -0.3804 -0.2268 -0.0217
  494TMC3    C2 7341   3.154   1.182   0.542  0.5386 -0.6606  0.5354
  494TMC3    C3 7342   3.198   1.101   0.440 -0.8294  0.0917 -0.2527
  494TMC3    C4 7343   3.084   1.348   0.381  0.2935  0.3965 -0.1066
  494TMC3    C5 7344   3.131   1.265   0.284 -0.8942 -0.5026  0.3312
  494TMC3    C6 7345   3.190   1.144   0.310  0.1601  0.1581  0.3450
  494TMC3     C 7346   3.116   1.401   0.612 -0.1653 -0.3916  1.3559
  494TMC3     O 7347   3.021   1.477   0.639  0.1768 -0.2393 -0.1757
  494TMC3     H 7348   3.157   1.147   0.645 -2.1508  1.0546  1.2110
  494TMC3    H1 7349   3.062   1.452   0.364 -3.1792 -0.3386  0.0123
  494TMC3    H2 7350   3.195   1.068   0.233  0.7677  0.5910 -0.0452
  494TMC3    C7 7351   3.149   1.313   0.150 -0.1822  0.3553  0.3508
  494TMC3    C8 7352   3.226   0.968   0.477 -0.0187 -0.1308 -0.4753
  494TMC3    O1 7353   3.239   1.257   0.087 -0.1306 -0.3582 -0.4556
  494TMC3    O2 7354   3.184   0.934   0.586 -0.1749 -0.3921 -0.2906
  495TMC3    C1 7355   2.292   3.191  14.501  0.4291 -0.4582  0.5765
  495TMC3    C2 7356   2.199   3.221  14.408 -0.0071  0.2740 -0.3655
  495TMC3    C3 7357   2.083   3.287  14.451 -0.5691  0.1583 -0.1518
  495TMC3    C4 7358   2.266   3.212  14.635 -0.3180 -0.3550 -1.0871
  495TMC3    C5 7359   2.148   3.279  14.674  0.1314 -0.4512  0.0356
  495TMC3    C6 7360   2.055   3.320  14.587  0.2548  0.3150  0.3914
  495TMC3     C 7361   2.346   3.061  14.459  0.1899 -0.5082 -0.3635
  495TMC3     O 7362   2.317   3.022  14.346  0.2409  0.6250 -0.2449
  495TMC3     H 7363   2.225   3.218  14.303  0.9425 -1.4320 -0.0659
  495TMC3    H1 7364   2.329   3.169  14.712 -1.5784  1.2903  0.8664
  495TMC3    H2 7365   1.960   3.353  14.629 -1.6137 -1.3743 -2.5251
  495TMC3    C7 7366   2.138   3.299  14.824  0.2870 -0.1198 -0.1779
  495TMC3    C8 7367   1.975   3.314  14.357 -0.5953  0.4938 -0.8479
  495TMC3    O1 7368   2.241   3.275  14.883  0.2812 -0.2067  0.5942
  495TMC3    O2 7369   1.876   3.366  14.402  0.2906  0.4607  0.0045
  496MPD2     C 7370   4.465   3.747  15.626  0.1781 -0.2021 -0.5104
  496MPD2    C1 7371   4.405   3.639  15.688  0.1802 -0.0343 -0.7496
  496MPD2    C2 7372   4.340   3.653  15.808 -0.6352 -0.0199 -0.5313
  496MPD2    C3 7373   4.331   3.772  15.873  0.4868  0.4139 -0.4789
  496MPD2    C4 7374   4.383   3.881  15.806  0.2612 -0.2494  0.4109
  496MPD2    C5 7375   4.449   3.870  15.686 -0.0773 -0.0349 -0.0366
  496MPD2     H 7376   4.283   3.569  15.845 -0.1240 -0.5651 -0.9845
  496MPD2    H1 7377   4.369   3.984  15.838 -0.6434 -0.6372  1.2572
  496MPD2    H2 7378   4.520   3.733  15.534  0.9943  0.8989 -0.1975
  496MPD2    H3 7379   4.466   3.959  15.627 -1.1359  0.4979  0.4621
  496MPD2     N 7380   4.243   3.791  15.975  0.1911  0.2848  0.1992
  496MPD2    H5 7381   4.233   3.882  16.019 -0.8193  2.0422 -3.6749
  496MPD2    N1 7382   4.416   3.512  15.618  0.0950  0.4700  0.3090
  496MPD2    H7 7383   4.455   3.518  15.525 -1.4373 -0.4938 -0.3969
  497TMC3    C1 7384   4.065   3.733  16.126 -0.1227  0.1314 -0.3956
  497TMC3    C2 7385   3.929   3.714  16.084 -0.6916  0.2067  0.1488
  497TMC3    C3 7386   3.843   3.677  16.188 -0.3517 -0.3748 -0.4943
  497TMC3    C4 7387   4.108   3.715  16.254 -0.4559  0.6693 -0.7103
  497TMC3    C5 7388   4.007   3.690  16.348 -0.5291 -0.7806 -0.0808
  497TMC3    C6 7389   3.876   3.669  16.317  0.0761 -0.7163 -0.0659
  497TMC3     C 7390   4.157   3.692  16.026  0.0801  0.1507  0.2279
  497TMC3     O 7391   4.145   3.574  16.002  0.2598  0.0533 -0.2791
  497TMC3     H 7392   3.893   3.707  15.982 -0.1061  0.3027 -0.0604
  497TMC3    H1 7393   4.214   3.702  16.273 -0.5558 -0.1184 -0.6988
  497TMC3    H2 7394   3.806   3.651  16.397 -0.9153  3.0234 -0.0873
  497TMC3    C7 7395   4.037   3.638  16.477  0.3569 -0.6420  0.0863
  497TMC3    C8 7396   3.736   3.592  16.148 -0.3407 -0.1425  0.4606
  497TMC3    O1 7397   3.966   3.543  16.511  0.1651  0.1491 -0.3573
  497TMC3    O2 7398   3.717   3.599  16.029  0.6182  0.5124 -0.4106
  498MPD2     C 7399   4.678   4.192   8.976 -0.3926  0.1600 -0.5027
  498MPD2    C1 7400   0.035   4.113   9.056 -0.2881  0.6198  0.1576
  498MPD2    C2 7401   4.711   4.083   9.177  0.4583  0.0037 -0.1124
  498MPD2    C3 7402   4.585   4.120   9.219 -0.2043 -0.0417 -0.5470
  498MPD2    C4 7403   4.502   4.194   9.137 -0.1956 -0.4360  0.0732
  498MPD2    C5 7404   4.554   4.230   9.019 -0.3310  0.5828 -0.4697
  498MPD2     H 7405   0.046   4.025   9.246 -0.5394 -2.0169 -0.9412
  498MPD2    H1 7406   4.399   4.214   9.163  0.3004 -0.4511  2.0753
  498MPD2    H2 7407   4.714   4.234   8.883  1.5556  0.1641  0.2632
  498MPD2    H3 7408   4.494   4.280   8.943  0.6373 -0.4900 -1.9570
  498MPD2     N 7409   4.550   4.083   9.351 -0.8639 -0.8114  0.7737
  498MPD2    H5 7410   4.622   4.033   9.403 -0.9321  0.2486  1.8877
  498MPD2    N1 7411   0.181   4.094   9.034 -0.1792 -0.4819 -0.2390
  498MPD2    H7 7412   0.226   4.053   9.115 -1.5207  0.5107  1.0058
  499TMC3    C1 7413   0.393   4.089   8.909 -0.0360  0.0858 -0.2581
  499TMC3    C2 7414   0.444   3.980   8.982 -0.7493 -0.5371 -0.1151
  499TMC3    C3 7415   0.578   3.977   9.003 -0.0289  0.1075  0.0637
  499TMC3    C4 7416   0.477   4.179   8.859 -0.0346  0.7353  0.5073
  499TMC3    C5 7417   0.608   4.173   8.891 -0.3246  0.2018  0.2197
  499TMC3    C6 7418   0.663   4.081   8.962  0.5887 -0.5626 -0.9316
  499TMC3     C 7419   0.248   4.120   8.916 -0.0936 -0.0104 -0.4267
  499TMC3     O 7420   0.201   4.181   8.820  0.1445 -0.3504  0.2257
  499TMC3     H 7421   0.382   3.891   8.992 -0.6556 -0.6416 -0.4695
  499TMC3    H1 7422   0.430   4.258   8.801  0.2675  0.0882 -0.6227
  499TMC3    H2 7423   0.770   4.070   8.976  0.8964  2.0802 -1.1435
  499TMC3    C7 7424   0.665   4.307   8.915  0.2814 -0.4659  0.1072
  499TMC3    C8 7425   0.642   3.861   9.059 -0.3025 -0.7106 -0.4124
  499TMC3    O1 7426   0.768   4.311   8.980  0.4198  0.0646 -0.0345
  499TMC3    O2 7427   0.763   3.868   9.060  0.3528 -0.5421  0.4549
  500MPD2     C 7428   2.171   1.016   9.790  0.3468 -0.0653  0.1818
  500MPD2    C1 7429   2.137   1.077   9.910 -0.7306 -0.4414 -0.6157
  500MPD2    C2 7430   2.007   1.140   9.919  0.0319 -0.1495 -0.5843
  500MPD2    C3 7431   1.920   1.124   9.814 -0.4899  0.5632  0.0990
  500MPD2    C4 7432   1.959   1.054   9.703  0.3949  0.0923  0.1397
  500MPD2    C5 7433   2.085   0.998   9.690 -0.1760 -0.4536 -0.0710
  500MPD2     H 7434   1.985   1.196  10.008 -0.8805  2.2726 -2.3354
  500MPD2    H1 7435   1.888   1.044   9.621 -2.7405 -0.1244  2.9159
  500MPD2    H2 7436   2.274   0.983   9.776 -0.6287 -2.8732 -0.2803
  500MPD2    H3 7437   2.113   0.947   9.599 -0.3773 -0.3429 -0.1936
  500MPD2     N 7438   1.789   1.172   9.816 -0.3235 -0.8643  0.2691
  500MPD2    H5 7439   1.728   1.158   9.737 -1.0356 -0.3715  0.7331
  500MPD2    N1 7440   2.221   1.075  10.022 -0.0387 -0.2605 -0.2793
  500MPD2    H7 7441   2.170   1.118  10.099  0.0376  2.0721 -1.5317
  501TMC3    C1 7442   2.397   1.024  10.172 -0.5317 -0.5441  0.0768
  501TMC3    C2 7443   2.349   1.097  10.274  0.7321  0.0925 -0.4305
  501TMC3    C3 7444   2.409   1.086  10.396 -0.2372 -0.1379  0.0487
  501TMC3    C4 7445   2.515   0.950  10.185 -0.7148  0.2427  1.1314
  501TMC3    C5 7446   2.582   0.961  10.304 -0.0181  0.8639 -0.3553
  501TMC3    C6 7447   2.527   1.018  10.413  0.1434 -0.5107  0.4032
  501TMC3     C 7448   2.347   1.020  10.037 -0.0040  0.0735 -0.2420
  501TMC3     O 7449   2.410   0.952   9.958 -0.0372  0.5908 -0.4329
  501TMC3     H 7450   2.256   1.149  10.257 -0.4666 -1.9026  0.0296
  501TMC3    H1 7451   2.557   0.894  10.102  0.1085  1.0454  1.0039
  501TMC3    H2 7452   2.580   1.015  10.508 -0.4879  1.3031  0.8053
  501TMC3    C7 7453   2.683   0.855  10.317  0.6522  0.2389  0.4346
  501TMC3    C8 7454   2.395   1.204  10.490  0.0920 -0.2036  0.5779
  501TMC3    O1 7455   2.673   0.794  10.422  0.2510  0.3637  0.2672
  501TMC3    O2 7456   2.447   1.194  10.599 -0.0179 -0.1845 -0.2508
  502TMC3    C1 7457   1.576   0.119  15.566 -0.5166 -0.3007 -0.2509
  502TMC3    C2 7458   1.552   0.202  15.460  0.0975 -0.2790  0.2711
  502TMC3    C3 7459   1.470   0.156  15.361 -0.0305 -0.1104 -0.1599
  502TMC3    C4 7460   1.511   4.724  15.580 -0.3140 -0.4686 -0.1483
  502TMC3    C5 7461   1.418   4.693  15.488  0.3296  0.6718  0.3819
  502TMC3    C6 7462   1.405   0.040  15.372 -1.1639 -0.5337 -0.0876
  502TMC3     C 7463   1.709   0.126  15.619  0.3572 -0.3388  0.4288
  502TMC3     O 7464   1.761   0.238  15.631 -0.2217  0.6747 -0.7371
  502TMC3     H 7465   1.598   0.300  15.463 -0.2124 -0.1503  0.7842
  502TMC3    H1 7466   1.514   4.660  15.667  5.4864  1.8775  1.3355
  502TMC3    H2 7467   1.356   4.724  15.285  1.3260 -1.6522 -0.9683
  502TMC3    C7 7468   1.378   4.550  15.478  0.2121 -0.2806 -0.0262
  502TMC3    C8 7469   1.486   0.212  15.228 -0.0437  0.4988 -0.1661
  502TMC3    O1 7470   1.451   4.469  15.535 -0.2200  0.1260  0.2586
  502TMC3    O2 7471   1.497   0.139  15.133 -0.0787 -0.2092 -0.3037
  503MPD2     C 7472   3.779   4.596  16.818  0.6185  0.1075  0.2933
  503MPD2    C1 7473   3.785   4.653  16.941 -0.7340  0.5117  0.3558
  503MPD2    C2 7474   3.838   4.579  17.040  0.6861  0.6830  1.1322
  503MPD2    C3 7475   3.922   4.474  17.016 -0.0715  0.0315  0.1937
  503MPD2    C4 7476   3.931   4.432  16.884  0.2740  0.1026  0.0951
  503MPD2    C5 7477   3.857   4.487  16.788 -0.5834  0.8335  0.0124
  503MPD2     H 7478   3.840   4.614  17.142  1.4255  2.1626  0.6146
  503MPD2    H1 7479   3.983   4.340  16.857  2.5535  1.2635  0.5386
  503MPD2    H2 7480   3.738   4.640  16.727 -0.4598  1.5960  1.5057
  503MPD2    H3 7481   3.852   4.445  16.689 -1.3755  1.0863 -0.0556
  503MPD2     N 7482   3.998   4.417  17.121 -0.1008  0.1477 -0.2962
  503MPD2    H5 7483   3.959   4.415  17.214  0.6562 -2.2020 -0.0302
  503MPD2    N1 7484   3.734   0.061  16.963  0.3153 -0.0925  0.2972
  503MPD2    H7 7485   3.743   0.085  17.061 -0.1860  2.4766 -0.3013
  504TMC3    C1 7486   4.150   4.262  17.197 -0.7287 -0.1077  0.0127
  504TMC3    C2 7487   4.051   4.185  17.256  0.7322 -0.0267 -1.0217
  504TMC3    C3 7488   4.093   4.079  17.339  0.0348 -0.8919  0.2586
  504TMC3    C4 7489   4.282   4.226  17.200  0.2602  0.5215  0.3100
  504TMC3    C5 7490   4.317   4.112  17.270  0.0910 -0.4710  0.1891
  504TMC3    C6 7491   4.228   4.041  17.343  0.2566  0.4879 -0.7835
  504TMC3     C 7492   4.109   4.345  17.091  0.0239 -0.2556 -0.1544
  504TMC3     O 7493   4.183   4.364  16.998 -0.3092 -0.5018  0.1567
  504TMC3     H 7494   3.945   4.202  17.243  0.3673 -0.6520  1.1948
  504TMC3    H1 7495   4.356   4.291  17.154  2.6718 -0.7821  2.3941
  504TMC3    H2 7496   4.256   3.945  17.386 -1.2179  0.8503  0.9933
  504TMC3    C7 7497   4.454   4.059  17.277 -0.5081 -0.0228 -0.1887
  504TMC3    C8 7498   3.999   3.971  17.363 -1.1787  0.4844  0.7338
  504TMC3    O1 7499   4.481   3.968  17.354 -0.1233 -0.1160  0.5572
  504TMC3    O2 7500   3.890   3.983  17.309  0.0278  0.6001 -0.2194
  505MPD2     C 7501   4.467   3.260  10.417 -0.5867 -0.2709  0.4704
  505MPD2    C1 7502   4.602   3.285  10.399  0.0841  0.5618 -0.0689
  505MPD2    C2 7503   4.662   3.397  10.445  0.6266  0.1975  0.0275
  505MPD2    C3 7504   4.593   3.486  10.523  0.2799 -0.3898  0.2500
  505MPD2    C4 7505   4.460   3.458  10.555  0.2087  0.2461 -0.0843
  505MPD2    C5 7506   4.401   3.351  10.497 -0.2379  0.3960 -0.4005
  505MPD2     H 7507   0.036   3.431  10.418  0.5875  0.6276  0.4334
  505MPD2    H1 7508   4.394   3.525  10.608 -1.7514 -0.7353 -1.2841
  505MPD2    H2 7509   4.403   3.182  10.377 -0.7096  0.5924 -1.0206
  505MPD2    H3 7510   4.296   3.338  10.522  0.0327 -1.0465 -0.0206
  505MPD2     N 7511   4.663   3.598  10.565  0.3840  0.5127  0.6322
  505MPD2    H5 7512   0.038   3.613  10.551  0.7816 -1.9780  0.9435
  505MPD2    N1 7513   4.674   3.197  10.315 -0.7049 -0.1620  0.0074
  505MPD2    H7 7514   4.622   3.128  10.262  1.2897 -1.0454 -0.7825
  506TMC3    C1 7515   0.147   3.131  10.198 -0.5624  0.2600  0.6441
  506TMC3    C2 7516   0.087   3.105  10.085  0.2609  0.1385  0.2274
  506TMC3    C3 7517   0.155   3.095   9.966  0.1211  0.0599 -0.3910
  506TMC3    C4 7518   0.279   3.134  10.205 -0.7257 -0.9358  0.0535
  506TMC3    C5 7519   0.350   3.126  10.094 -0.0288  0.7771  0.0858
  506TMC3    C6 7520   0.287   3.107   9.972 -0.7640 -0.4328 -0.2192
  506TMC3     C 7521   0.084   3.191  10.319  0.1109 -0.1630 -0.1183
  506TMC3     O 7522   0.161   3.228  10.406 -0.3834 -0.0907  0.0572
  506TMC3     H 7523   4.704   3.098  10.078  0.0645  3.3575  0.1366
  506TMC3    H1 7524   0.332   3.129  10.299 -1.8562 -0.1012  0.7303
  506TMC3    H2 7525   0.344   3.116   9.880 -1.7488 -0.2625 -0.8121
  506TMC3    C7 7526   0.433   3.248  10.083 -0.3870  0.3746  0.3088
  506TMC3    C8 7527   0.083   3.109   9.841  0.2760 -0.0808  0.5261
  506TMC3    O1 7528   0.500   3.259   9.985 -0.4278  0.7509 -0.6395
  506TMC3    O2 7529   0.108   3.035   9.747 -0.0331  0.1076 -0.5934
  507TMC3    C1 7530   4.341   4.321  14.332  0.6815 -0.2164 -0.1600
  507TMC3    C2 7531   4.232   4.378  14.269  0.3048 -0.9584 -0.5444
  507TMC3    C3 7532   4.255   4.439  14.149  0.1941  0.3489  0.2820
  507TMC3    C4 7533   4.467   4.353  14.286 -0.3722 -0.2997  0.2075
  507TMC3    C5 7534   4.490   4.427  14.174 -0.2885 -0.3788 -0.4954
  507TMC3    C6 7535   4.382   4.466  14.101 -0.1847  0.0123 -0.8202
  507TMC3     C 7536   4.338   4.271  14.467 -0.3773 -0.1234  0.2849
  507TMC3     O 7537   4.425   4.189  14.501 -0.0578  0.1889 -0.4141
  507TMC3     H 7538   4.133   4.369  14.311  0.4723  1.5824  0.3955
  507TMC3    H1 7539   4.552   4.325  14.347 -0.0652 -0.6249 -0.3722
  507TMC3    H2 7540   4.389   4.516  14.005  0.4868  1.4444 -0.0295
  507TMC3    C7 7541   4.569   4.547  14.198 -0.4406  0.5313  0.6675
  507TMC3    C8 7542   4.166   4.551  14.126 -0.2045  0.5359  0.0230
  507TMC3    O1 7543   4.507   4.650  14.186  0.2880  0.3556  0.5520
  507TMC3    O2 7544   4.048   4.535  14.155  0.2795 -0.4016 -1.0877
  508MPD2     C 7545   0.972   1.667  15.759 -1.0796  0.3409 -0.1830
  508MPD2    C1 7546   0.953   1.775  15.838 -0.4239 -0.2407  0.4603
  508MPD2    C2 7547   0.950   1.901  15.785 -0.0422  0.1259 -0.1701
  508MPD2    C3 7548   0.970   1.927  15.650  0.5351 -0.2592 -0.2040
  508MPD2    C4 7549   0.998   1.817  15.572 -0.2120 -0.4122 -0.1363
  508MPD2    C5 7550   1.001   1.688  15.627 -0.2013 -0.3055 -0.3968
  508MPD2     H 7551   0.939   1.996  15.836 -0.8730 -1.4307  2.4904
  508MPD2    H1 7552   1.034   1.825  15.471  1.5016  1.1854  0.5942
  508MPD2    H2 7553   0.982   1.563  15.790  1.8048  1.0219  1.1839
  508MPD2    H3 7554   1.020   1.596  15.572 -1.6966  0.2820 -1.8819
  508MPD2     N 7555   0.966   2.054  15.595 -0.0809 -0.0465 -0.0842
  508MPD2    H5 7556   0.927   2.125  15.656  1.4848 -0.7076  1.6813
  508MPD2    N1 7557   0.940   1.747  15.978  0.4108 -0.6134  0.5117
  508MPD2    H7 7558   0.979   1.657  16.004 -0.7270 -0.7533  1.7158
  509TMC3    C1 7559   0.886   2.430  15.473  0.0085 -0.0362 -1.3409
  509TMC3    C2 7560   0.966   2.482  15.376  0.4973  0.3161 -0.1991
  509TMC3    C3 7561   1.065   2.407  15.319 -0.3020  0.8774  0.0203
  509TMC3    C4 7562   0.905   2.303  15.505  0.4127  0.7864  0.2198
  509TMC3    C5 7563   1.010   2.229  15.444  0.2476 -0.0024  0.7425
  509TMC3    C6 7564   1.101   2.280  15.359 -0.1091 -1.1733  0.2883
  509TMC3     C 7565   0.826   2.514  15.575  0.2905  0.5602  0.1751
  509TMC3     O 7566   0.822   2.474  15.693  0.2721 -0.5830 -0.1996
  509TMC3     H 7567   0.965   2.587  15.349 -0.9414  0.3522 -0.0091
  509TMC3    H1 7568   0.823   2.258  15.559 -0.4503  1.2836 -0.6734
  509TMC3    H2 7569   1.189   2.233  15.315  0.1505  0.1574 -0.6430
  509TMC3    C7 7570   1.023   2.088  15.471 -0.2259 -0.1473  0.4543
  509TMC3    C8 7571   1.170   2.487  15.265  0.0517  0.0145  0.4566
  509TMC3    O1 7572   1.085   2.017  15.388  0.1448 -0.1153  0.5637
  509TMC3    O2 7573   1.199   2.473  15.147  0.0062 -0.2510 -0.0097
  510MPD2     C 7574   3.428   3.717  14.344 -0.1304 -0.8834 -0.5012
  510MPD2    C1 7575   3.487   3.652  14.445  0.0634 -0.2727 -0.3409
  510MPD2    C2 7576   3.625   3.660  14.445  0.5793  0.7875 -0.0058
  510MPD2    C3 7577   3.698   3.709  14.335  0.3307 -0.0385  0.2858
  510MPD2    C4 7578   3.631   3.760  14.229 -0.8807  0.0048  0.0711
  510MPD2    C5 7579   3.492   3.773  14.237 -0.7895 -0.2420  0.7490
  510MPD2     H 7580   3.687   3.610  14.519 -2.3437  2.2621  3.4886
  510MPD2    H1 7581   3.682   3.811  14.148 -1.8313  2.6379  1.1297
  510MPD2    H2 7582   3.320   3.707  14.335 -0.2489  0.2002 -0.2865
  510MPD2    H3 7583   3.441   3.829  14.160  0.6261  1.3955  1.0075
  510MPD2     N 7584   3.842   3.696  14.323 -0.3645 -0.1237  0.6699
  510MPD2    H5 7585   3.889   3.667  14.409  1.3717 -0.1152 -0.2846
  510MPD2    N1 7586   3.411   3.573  14.534  0.6199  0.8102  0.4247
  510MPD2    H7 7587   3.313   3.561  14.509  0.2895 -0.8090  2.5462
  511TMC3    C1 7588   3.364   3.438  14.713 -0.5769  0.0910  0.4199
  511TMC3    C2 7589   3.354   3.459  14.845 -0.4307  0.3382 -0.6426
  511TMC3    C3 7590   3.310   3.355  14.921 -0.4445 -0.2989  0.5467
  511TMC3    C4 7591   3.328   3.322  14.653 -0.8046  0.2937  0.5672
  511TMC3    C5 7592   3.278   3.220  14.729  0.7397  0.1359 -0.7105
  511TMC3    C6 7593   3.275   3.232  14.867  0.1816 -0.9339 -0.2670
  511TMC3     C 7594   3.467   3.516  14.645  0.1760  0.3397 -0.0649
  511TMC3     O 7595   3.564   3.554  14.709  0.1509  0.5460  0.2971
  511TMC3     H 7596   3.391   3.550  14.891 -1.0435  0.9493 -1.3569
  511TMC3    H1 7597   3.324   3.315  14.545  1.6454  0.3632  0.4657
  511TMC3    H2 7598   3.222   3.162  14.930  0.5211  1.3879  2.5624
  511TMC3    C7 7599   3.226   3.097  14.664  0.6640  0.0184  0.2215
  511TMC3    C8 7600   3.276   3.376  15.066 -0.0648 -0.4381  0.0844
  511TMC3    O1 7601   3.196   3.102  14.548 -0.3635  0.0859 -0.0713
  511TMC3    O2 7602   3.272   3.497  15.100 -0.3504  0.2201 -0.0761
  512TMC3    C1 7603   2.315   3.039  12.497 -0.3314 -1.0416  0.0530
  512TMC3    C2 7604   2.279   3.070  12.626 -0.1365  0.2552 -0.3645
  512TMC3    C3 7605   2.273   2.972  12.720  0.3042 -0.6784  0.1791
  512TMC3    C4 7606   2.331   2.905  12.463  0.6483 -0.2004  0.0122
  512TMC3    C5 7607   2.326   2.806  12.560 -0.3352 -0.5128 -0.7264
  512TMC3    C6 7608   2.278   2.839  12.684  0.0189 -0.5566 -0.0428
  512TMC3     C 7609   2.246   3.114  12.393  0.0774  0.6144  0.5906
  512TMC3     O 7610   2.195   3.048  12.303 -0.3486 -0.0090 -0.6488
  512TMC3     H 7611   2.237   3.165  12.657 -1.5099 -0.1631 -0.9360
  512TMC3    H1 7612   2.348   2.880  12.359  1.5098 -2.0892  0.6134
  512TMC3    H2 7613   2.263   2.760  12.757 -0.4091 -0.1349  0.3222
  512TMC3    C7 7614   2.315   2.666  12.514  0.5203 -0.7378  0.2663
  512TMC3    C8 7615   2.218   3.004  12.855  0.1807 -0.2443  0.3461
  512TMC3    O1 7616   2.267   2.645  12.403 -0.2246 -0.0527  0.2058
  512TMC3    O2 7617   2.138   2.926  12.900  0.3729  0.2384 -0.2784
  513MPD2     C 7618   0.094   2.553  12.558  0.1027 -0.5692  0.8327
  513MPD2    C1 7619   0.149   2.468  12.466  0.1779  0.2531  0.4172
  513MPD2    C2 7620   0.276   2.487  12.415  0.4408 -0.0264 -0.0999
  513MPD2    C3 7621   0.346   2.599  12.443 -0.4235  0.1442 -0.3372
  513MPD2    C4 7622   0.303   2.685  12.538  0.3344 -0.4404 -0.4988
  513MPD2    C5 7623   0.172   2.661  12.587 -0.0212 -0.4627 -0.6387
  513MPD2     H 7624   0.325   2.416  12.349  0.7978 -2.8474  3.2095
  513MPD2    H1 7625   0.362   2.773  12.561  0.7236 -0.2582 -2.1946
  513MPD2    H2 7626   4.720   2.536  12.598  0.9003 -3.2179  1.6843
  513MPD2    H3 7627   0.133   2.735  12.656  0.4878 -1.2603  0.4980
  513MPD2     N 7628   0.468   2.614  12.372 -0.0726 -0.1289 -0.1740
  513MPD2    H5 7629   0.464   2.559  12.287  1.4092 -1.8237  0.8462
  513MPD2    N1 7630   0.091   2.341  12.435 -0.3427 -0.4865  0.6082
  513MPD2    H7 7631   0.151   2.288  12.373 -0.0711  0.7511 -0.1836
  514TMC3    C1 7632   4.651   2.178  12.406 -0.2617  0.4883 -0.2316
  514TMC3    C2 7633   4.553   2.211  12.317 -0.6948 -0.6105 -0.1439
  514TMC3    C3 7634   4.570   2.187  12.184 -0.0500  0.9484 -0.3430
  514TMC3    C4 7635   0.038   2.106  12.364  0.8988  0.4686 -0.0524
  514TMC3    C5 7636   0.049   2.085  12.230  0.2091  0.5571  0.4926
  514TMC3    C6 7637   4.681   2.129  12.142  0.8871  0.0038 -0.0936
  514TMC3     C 7638   4.694   2.297  12.479  0.4059  0.1464 -0.2861
  514TMC3     O 7639   4.613   2.339  12.556  0.8992 -0.3638  0.2836
  514TMC3     H 7640   4.483   2.287  12.351  0.3701  0.3807 -0.1592
  514TMC3    H1 7641   0.120   2.082  12.431  0.7837  1.1634  0.3368
  514TMC3    H2 7642   4.700   2.110  12.037 -0.7352  2.6395 -0.8747
  514TMC3    C7 7643   0.187   2.111  12.191  0.4232  0.2505 -0.4773
  514TMC3    C8 7644   4.457   2.217  12.097 -0.2387 -0.0234 -0.1810
  514TMC3    O1 7645   0.252   2.175  12.275 -0.5218 -0.3948  0.2219
  514TMC3    O2 7646   4.354   2.229  12.161  0.1125  0.1847 -0.3168
  515MPD2     C 7647   2.586   4.713  15.211  0.2932 -0.3184 -0.5841
  515MPD2    C1 7648   2.593   0.012  15.076  0.3113  0.5089  0.0830
  515MPD2    C2 7649   2.635   0.138  15.035 -0.5615  0.0922  1.0429
  515MPD2    C3 7650   2.680   0.227  15.129 -0.3088 -0.4993  0.3322
  515MPD2    C4 7651   2.674   0.199  15.266  0.6530  0.4572  0.2853
  515MPD2    C5 7652   2.623   0.077  15.309  0.0958  0.8864 -0.3469
  515MPD2     H 7653   2.626   0.166  14.931  2.7161  1.5400  1.1655
  515MPD2    H1 7654   2.720   0.266  15.339  1.1604 -0.1094  0.4811
  515MPD2    H2 7655   2.543   4.617  15.237 -1.4204  0.9907  1.4048
  515MPD2    H3 7656   2.615   0.043  15.411  1.2597  0.4638 -0.3967
  515MPD2     N 7657   2.765   0.334  15.091  0.0553  0.3398 -0.2762
  515MPD2    H5 7658   2.794   0.401  15.161  0.3137 -1.1352  1.0405
  515MPD2    N1 7659   2.556   4.651  14.968  0.5443  0.4680 -0.1168
  515MPD2    H7 7660   2.566   4.688  14.874  0.3433 -0.9709 -0.7032
  516TMC3    C1 7661   2.511   4.444  14.870 -0.5038  0.3694 -0.2478
  516TMC3    C2 7662   2.444   4.509  14.771 -0.7548 -0.2839  0.8339
  516TMC3    C3 7663   2.415   4.440  14.655 -0.1063 -0.0963 -0.3042
  516TMC3    C4 7664   2.541   4.311  14.865  0.1508  1.4614 -0.0901
  516TMC3    C5 7665   2.506   4.243  14.748 -0.2843 -0.3208 -0.3806
  516TMC3    C6 7666   2.438   4.304  14.645  0.1767 -0.4811  0.3756
  516TMC3     C 7667   2.525   4.519  14.992  0.1837 -0.7354 -0.8163
  516TMC3     O 7668   2.528   4.451  15.097  0.4086  0.3622  0.4866
  516TMC3     H 7669   2.416   4.613  14.776  3.3153  0.9163 -0.6593
  516TMC3    H1 7670   2.585   4.253  14.946 -3.2530  0.9818  1.3755
  516TMC3    H2 7671   2.416   4.262  14.548  0.3062 -0.5590  0.3801
  516TMC3    C7 7672   2.492   4.096  14.766  0.4098 -0.1414 -0.1123
  516TMC3    C8 7673   2.350   4.509  14.536 -0.5792  1.1445 -0.3078
  516TMC3    O1 7674   2.567   4.040  14.847 -0.1468 -0.1333  0.0153
  516TMC3    O2 7675   2.300   4.439  14.446 -0.3340  0.0318  1.0439
  517MPD2     C 7676   2.153   1.569  17.354  0.0678  0.4187  0.2766
  517MPD2    C1 7677   2.216   1.561  17.477 -0.0238  0.4157 -0.1877
  517MPD2    C2 7678   2.168   1.633  17.580  0.2339 -0.1670 -0.3174
  517MPD2    C3 7679   2.064   1.720  17.566  0.2329  0.3526 -0.2402
  517MPD2    C4 7680   2.008   1.735  17.440  0.2280  0.8647 -0.2609
  517MPD2    C5 7681   2.047   1.654  17.335 -0.0108  0.2640 -0.0332
  517MPD2     H 7682   2.223   1.637  17.673 -0.5159  0.7271  0.0865
  517MPD2    H1 7683   1.923   1.796  17.411 -0.6393 -0.1338  0.1549
  517MPD2    H2 7684   2.185   1.502  17.275 -2.1008  0.0734 -0.3050
  517MPD2    H3 7685   2.001   1.659  17.236  1.4141 -1.7242 -0.7942
  517MPD2     N 7686   2.013   1.801  17.673  0.1657 -0.1293 -0.5465
  517MPD2    H5 7687   1.944   1.873  17.654 -1.6411 -2.6497 -3.3087
  517MPD2    N1 7688   2.321   1.465  17.505 -0.9129 -0.0491 -0.2184
  517MPD2    H7 7689   2.361   1.419  17.424 -0.9068  1.2855 -0.9701
  518TMC3    C1 7690   2.487   1.344  17.621  1.2587 -0.1529 -0.0682
  518TMC3    C2 7691   2.480   1.237   0.003  0.3625 -0.9936 -0.4561
  518TMC3    C3 7692   2.579   1.140  17.696  0.1990  0.0148  0.2081
  518TMC3    C4 7693   2.582   1.359  17.530  0.3033  0.4113  0.2636
  518TMC3    C5 7694   2.681   1.266  17.527  0.5999 -0.1182  0.3363
  518TMC3    C6 7695   2.688   1.160  17.612  0.2431  0.3781 -0.2833
  518TMC3     C 7696   2.370   1.436  17.632  0.1815 -0.2677  0.1437
  518TMC3     O 7697   2.328   1.463   0.043 -0.2663 -0.4604  0.2037
  518TMC3     H 7698   2.392   1.218   0.064 -1.3174 -0.5637 -2.7722
  518TMC3    H1 7699   2.596   1.446  17.466 -0.5089  1.5219  1.5980
  518TMC3    H2 7700   2.766   1.085  17.610 -1.6383 -1.5930  0.0881
  518TMC3    C7 7701   2.784   1.283  17.426 -0.2751  0.0406 -0.7044
  518TMC3    C8 7702   2.542   0.999   0.003 -0.5745 -0.4298 -0.4914
  518TMC3    O1 7703   2.773   1.373  17.344  0.1906  0.0879 -0.5094
  518TMC3    O2 7704   2.589   0.928  17.621 -0.3610 -0.1938 -0.4981
  519MPD2     C 7705   3.772   0.106  14.594  0.5610 -0.1846  0.3651
  519MPD2    C1 7706   3.718   0.082  14.469 -0.2213 -0.3450 -0.1416
  519MPD2    C2 7707   3.721   4.679  14.406  0.1338  0.9361 -0.7148
  519MPD2    C3 7708   3.773   4.579  14.487  0.8014  0.5535 -0.2724
  519MPD2    C4 7709   3.803   4.592  14.621 -0.1649  0.3352 -0.0120
  519MPD2    C5 7710   3.795   4.723  14.671 -0.3010  0.3534 -0.6950
  519MPD2     H 7711   3.684   4.667  14.305  1.1991  0.3516 -1.0348
  519MPD2    H1 7712   3.831   4.513  14.690  0.6348 -1.7772 -2.7987
  519MPD2    H2 7713   3.763   0.202  14.643 -1.7138 -0.1864 -0.0781
  519MPD2    H3 7714   3.827   0.010  14.774  0.0195  0.1464 -0.7718
  519MPD2     N 7715   3.768   4.440  14.450  0.2173  0.1380 -0.2104
  519MPD2    H5 7716   3.799   4.374  14.522 -0.9001  0.5755  0.6790
  519MPD2    N1 7717   3.679   0.197  14.407  0.3329 -0.1268  0.0268
  519MPD2    H7 7718   3.677   0.282  14.463 -1.3339  0.7892 -1.4149
  520TMC3    C1 7719   3.723   4.247  14.331 -0.4447 -0.2231 -0.2862
  520TMC3    C2 7720   3.636   4.185  14.240 -0.5445  0.7971 -0.9290
  520TMC3    C3 7721   3.682   4.101  14.144  0.4075 -0.1441  0.3693
  520TMC3    C4 7722   3.856   4.215  14.329  0.0541  0.3829  0.5514
  520TMC3    C5 7723   3.900   4.133  14.234 -0.9167 -1.1079  0.4885
  520TMC3    C6 7724   3.813   4.070  14.148 -0.2863  0.3703  0.8196
  520TMC3     C 7725   3.698   4.391  14.343  0.2093 -0.0605 -0.1843
  520TMC3     O 7726   3.643   4.450  14.255  0.0857  0.5948 -0.2932
  520TMC3     H 7727   3.539   4.231  14.226 -1.4343 -0.9598 -0.4770
  520TMC3    H1 7728   3.928   4.265  14.393  2.6799 -1.0276 -1.3147
  520TMC3    H2 7729   3.857   4.008  14.070  0.7926  3.0630 -0.7214
  520TMC3    C7 7730   4.035   4.087  14.250  0.3210 -0.1197  1.2390
  520TMC3    C8 7731   3.604   4.051  14.031  0.0027 -0.1094  0.1631
  520TMC3    O1 7732   4.088   4.064  14.362 -0.3247 -0.6644 -0.2436
  520TMC3    O2 7733   3.664   4.005  13.936 -0.2667  0.0828  0.6570
  521MPD2     C 7734   4.674   1.957  16.813  0.0679 -0.0339  0.2684
  521MPD2    C1 7735   4.633   2.065  16.894 -0.4798 -1.1157 -0.7716
  521MPD2    C2 7736   4.693   2.189  16.866  0.2076  0.3467 -0.1972
  521MPD2    C3 7737   0.076   2.202  16.785  0.7517 -0.4656  0.2221
  521MPD2    C4 7738   0.126   2.083  16.730 -0.4434 -0.0210 -0.0314
  521MPD2    C5 7739   0.060   1.965  16.732 -0.3997 -0.3547 -0.1162
  521MPD2     H 7740   4.650   2.275  16.918 -0.8643  0.9492 -2.0819
  521MPD2    H1 7741   0.208   2.075  16.659  0.2255 -0.2421  0.7651
  521MPD2    H2 7742   4.637   1.856  16.830  1.0920 -0.2478  1.2318
  521MPD2    H3 7743   0.110   1.875  16.698 -0.4705 -0.0122 -1.1427
  521MPD2     N 7744   0.126   2.323  16.743 -1.0827 -0.8764 -0.0832
  521MPD2    H5 7745   0.067   2.406  16.746 -0.4219 -0.4274  0.5642
  521MPD2    N1 7746   4.533   2.040  16.989 -0.1474 -0.0408 -0.2701
  521MPD2    H7 7747   4.492   1.949  16.974 -1.8116  0.5511  0.6422
  522TMC3    C1 7748   0.300   2.478  16.691 -0.9561 -0.4292 -0.8482
  522TMC3    C2 7749   0.434   2.500  16.727 -0.6569 -0.4751  0.3853
  522TMC3    C3 7750   0.478   2.613  16.687 -0.6498  0.4859  0.6179
  522TMC3    C4 7751   0.224   2.567  16.618  0.0492 -0.0946 -0.4297
  522TMC3    C5 7752   0.285   2.678  16.584  0.0631 -0.9944  0.5296
  522TMC3    C6 7753   0.412   2.702  16.608 -0.0843 -0.1233 -0.3205
  522TMC3     C 7754   0.263   2.344  16.705 -0.0342 -0.4620  0.7388
  522TMC3     O 7755   0.358   2.267  16.727  0.1296  0.4424  0.7491
  522TMC3     H 7756   0.476   2.445  16.811  1.8624 -0.6136 -0.9868
  522TMC3    H1 7757   0.126   2.548  16.577 -0.0329 -0.6856  0.0521
  522TMC3    H2 7758   0.465   2.793  16.582  1.3720 -0.6065  0.9136
  522TMC3    C7 7759   0.216   2.778  16.505 -1.0624 -0.1568  0.2234
  522TMC3    C8 7760   0.627   2.619  16.675 -0.7173  0.4633 -0.8863
  522TMC3    O1 7761   0.296   2.847  16.446 -0.4774  0.3907 -0.1771
  522TMC3    O2 7762   0.682   2.723  16.645  0.0478  0.3099 -0.1767
  523MPD2     C 7763   2.882   2.308  10.627 -0.2307 -0.0492  0.4864
  523MPD2    C1 7764   2.815   2.257  10.525 -0.5416  0.1123 -0.2928
  523MPD2    C2 7765   2.833   2.313  10.400  0.8854 -0.0766  0.6343
  523MPD2    C3 7766   2.909   2.425  10.389 -0.1724  0.0708  0.5253
  523MPD2    C4 7767   2.982   2.471  10.496 -0.9939 -0.3752  0.2152
  523MPD2    C5 7768   2.969   2.408  10.615  0.6286 -0.1500  0.3647
  523MPD2     H 7769   2.781   2.271  10.315  2.3665  0.7282 -0.6757
  523MPD2    H1 7770   3.046   2.558  10.494 -0.8267 -0.4927  0.4251
  523MPD2    H2 7771   2.851   2.274  10.725  1.2669 -3.6529 -0.2869
  523MPD2    H3 7772   3.011   2.465  10.696  0.1676  1.0480 -0.2354
  523MPD2     N 7773   2.907   2.506  10.269 -0.2881 -0.7606 -0.3142
  523MPD2    H5 7774   2.968   2.587  10.266 -0.1607 -0.8384  0.1096
  523MPD2    N1 7775   2.729   2.148  10.552  0.9857  0.1105 -0.1451
  523MPD2    H7 7776   2.723   2.113  10.647  1.1045  0.8117  0.1263
  524TMC3    C1 7777   2.814   2.614  10.079  0.1986  0.2737  0.0771
  524TMC3    C2 7778   2.921   2.680  10.032 -1.1384  0.2365 -0.1607
  524TMC3    C3 7779   2.892   2.785   9.949  0.2968 -0.0446  0.1462
  524TMC3    C4 7780   2.688   2.643  10.030 -0.0823  0.2639  0.6619
  524TMC3    C5 7781   2.662   2.745   9.947 -0.1694 -0.7881 -0.5399
  524TMC3    C6 7782   2.769   2.823   9.903  0.3190 -0.7903 -0.4277
  524TMC3     C 7783   2.819   2.489  10.163 -0.0796 -0.1908  0.0225
  524TMC3     O 7784   2.733   2.407  10.139 -0.0948 -0.8373  0.0264
  524TMC3     H 7785   3.017   2.670  10.081 -0.7550  0.6945 -0.8283
  524TMC3    H1 7786   2.613   2.568  10.054  0.7579 -0.7044  0.2408
  524TMC3    H2 7787   2.761   2.897   9.824 -1.8835  0.6908  1.2003
  524TMC3    C7 7788   2.525   2.784   9.946 -0.4521  0.7950 -0.0356
  524TMC3    C8 7789   3.002   2.847   9.882  1.1122 -0.9664  0.5101
  524TMC3    O1 7790   2.453   2.711  10.011 -0.6269 -0.6895 -0.4525
  524TMC3    O2 7791   3.000   2.969   9.867  0.1268  0.1080  0.0565
  525MPD2     C 7792   0.343   4.258  14.673  0.0788  0.4026 -0.5545
  525MPD2    C1 7793   0.477   4.216  14.689  0.1787 -0.3614 -0.4472
  525MPD2    C2 7794   0.569   4.314  14.679 -0.0505  0.4290  0.2330
  525MPD2    C3 7795   0.535   4.445  14.647  0.9309 -0.2346  0.5999
  525MPD2    C4 7796   0.403   4.482  14.644  0.2790 -0.8602  0.8055
  525MPD2    C5 7797   0.306   4.391  14.659 -0.2394 -0.3320  0.5723
  525MPD2     H 7798   0.673   4.282  14.683 -0.3172 -0.4783 -0.1340
  525MPD2    H1 7799   0.379   4.586  14.626  0.4983 -1.2294 -1.6240
  525MPD2    H2 7800   0.259   4.190  14.669 -1.1716  1.8476  1.0636
  525MPD2    H3 7801   0.203   4.426  14.663  0.1753  0.6775  2.4031
  525MPD2     N 7802   0.629   4.548  14.642 -0.1740 -0.0158 -0.5004
  525MPD2    H5 7803   0.589   4.639  14.622 -0.0020  0.4274  1.2307
  525MPD2    N1 7804   0.515   4.089  14.732  0.1284  0.5511  0.0813
  525MPD2    H7 7805   0.616   4.082  14.732  0.1001  0.0625  1.1254
  526TMC3    C1 7806   0.513   3.881  14.846  0.1162  0.4121  0.5136
  526TMC3    C2 7807   0.453   3.851  14.966 -0.0240  0.6529  0.0533
  526TMC3    C3 7808   0.529   3.778  15.056  0.0132 -0.9083 -0.0347
  526TMC3    C4 7809   0.645   3.851  14.816 -0.3736  0.7300 -0.2043
  526TMC3    C5 7810   0.714   3.785  14.915 -0.2892  0.0185  0.2199
  526TMC3    C6 7811   0.663   3.746  15.033  0.3719  0.2066  0.3762
  526TMC3     C 7812   0.434   3.988  14.782  0.0553 -0.0665 -0.7327
  526TMC3     O 7813   0.311   3.995  14.789  0.9103 -0.2450  0.2185
  526TMC3     H 7814   0.350   3.882  14.982 -0.7253 -1.2625 -0.7659
  526TMC3    H1 7815   0.689   3.874  14.720  0.3078  1.8802  0.3654
  526TMC3    H2 7816   0.722   3.703  15.112 -0.8572 -0.5954  0.8540
  526TMC3    C7 7817   0.860   3.774  14.911  0.3614  0.5218  0.4385
  526TMC3    C8 7818   0.478   3.764  15.192 -0.1636 -0.4319  0.3496
  526TMC3    O1 7819   0.924   3.777  15.019  0.0975 -0.1665 -0.0358
  526TMC3    O2 7820   0.560   3.740  15.281 -0.4058 -0.9787  1.0495
  527MPD2     C 7821   3.093   1.939   1.527 -0.4545  0.6255  0.4639
  527MPD2    C1 7822   3.180   1.830   1.505  0.3471  0.2124 -0.2156
  527MPD2    C2 7823   3.218   1.792   1.376 -0.5979  0.3227 -0.0872
  527MPD2    C3 7824   3.174   1.864   1.268  0.4547 -0.4799  0.3168
  527MPD2    C4 7825   3.073   1.954   1.288 -0.1899 -0.4727 -0.5690
  527MPD2    C5 7826   3.042   1.994   1.416 -0.8292 -0.2020 -0.2305
  527MPD2     H 7827   3.289   1.711   1.359 -0.5023  0.5439 -0.7367
  527MPD2    H1 7828   3.029   2.020   1.214 -2.1841 -1.1255  0.0301
  527MPD2    H2 7829   3.074   1.983   1.624  1.2384  2.4710 -0.0400
  527MPD2    H3 7830   2.976   2.077   1.436  0.4612  1.2033 -1.8524
  527MPD2     N 7831   3.224   1.829   1.141 -0.3123  0.0915  0.2296
  527MPD2    H5 7832   3.303   1.766   1.148 -1.6434 -1.7065 -0.9095
  527MPD2    N1 7833   3.232   1.758   1.620  0.3575  0.2638 -0.5351
  527MPD2    H7 7834   3.292   1.679   1.596 -0.6004 -0.7573  0.4806
  528TMC3    C1 7835   3.239   1.671   1.846 -0.2296  0.3714  0.8569
  528TMC3    C2 7836   3.357   1.597   1.826 -0.4609  0.3687 -0.2549
  528TMC3    C3 7837   3.400   1.508   1.920  0.5708  0.6620 -0.4685
  528TMC3    C4 7838   3.171   1.658   1.959  0.0763  0.6566 -0.0099
  528TMC3    C5 7839   3.221   1.579   2.059  0.1731 -0.5004 -0.9901
  528TMC3    C6 7840   3.335   1.500   2.039  0.0960  0.0837 -0.0745
  528TMC3     C 7841   3.198   1.773   1.755  0.1856  0.0847 -0.1772
  528TMC3     O 7842   3.116   1.859   1.792  1.0384 -0.0137 -0.7508
  528TMC3     H 7843   3.408   1.598   1.731  0.7483  1.8556  0.4176
  528TMC3    H1 7844   3.080   1.715   1.973 -1.1189 -0.6878 -2.4214
  528TMC3    H2 7845   3.374   1.434   2.115  0.3608 -0.3766 -0.6105
  528TMC3    C7 7846   3.123   1.558   2.164 -0.5268  0.5409  0.6423
  528TMC3    C8 7847   3.510   1.419   1.884 -0.1727 -0.9149 -0.7700
  528TMC3    O1 7848   3.010   1.610   2.159  0.4011 -0.3491  0.2254
  528TMC3    O2 7849   3.575   1.443   1.778  0.3720  0.3475 -0.3840
  529MPD2     C 7850   1.631   4.580   0.559  0.6729 -0.3623 -0.0166
  529MPD2    C1 7851   1.504   4.596   0.509  0.6778 -0.3794 -0.0130
  529MPD2    C2 7852   1.486   4.673   0.393 -0.0917  0.3218 -0.1683
  529MPD2    C3 7853   1.589   4.722   0.320  0.8236  0.0427 -0.7072
  529MPD2    C4 7854   1.717   4.684   0.356  0.1349 -0.4797 -0.1648
  529MPD2    C5 7855   1.734   4.622   0.477  0.5028  0.1255 -0.5814
  529MPD2     H 7856   1.383   4.695   0.368  0.0399  1.7405  0.5338
  529MPD2    H1 7857   1.800   4.720   0.296  1.3595 -1.7285  0.7775
  529MPD2    H2 7858   1.665   4.519   0.642 -1.3699 -1.2228  0.1992
  529MPD2    H3 7859   1.836   4.600   0.506  0.6695 -2.1228 -2.9370
  529MPD2     N 7860   1.570   0.076   0.203  0.1241  0.3136  0.2527
  529MPD2    H5 7861   1.633   0.071   0.123  0.0022 -0.3928  0.2000
  529MPD2    N1 7862   1.391   4.543   0.574 -0.8422  0.2942 -0.9233
  529MPD2    H7 7863   1.300   4.564   0.534 -2.8989 -1.9713  2.5045
  530TMC3    C1 7864   1.270   4.430   0.742 -0.1520  0.0555 -0.3726
  530TMC3    C2 7865   1.266   4.330   0.840  0.0686 -0.6082  0.1957
  530TMC3    C3 7866   1.145   4.296   0.888 -0.2405  0.2862  0.0186
  530TMC3    C4 7867   1.155   4.488   0.693  0.1710  1.0856  0.4340
  530TMC3    C5 7868   1.037   4.452   0.748 -0.0141 -0.7695  0.0738
  530TMC3    C6 7869   1.029   4.356   0.843 -0.5535  0.0417 -0.0391
  530TMC3     C 7870   1.396   4.470   0.691  0.7761 -0.4668  0.1947
  530TMC3     O 7871   1.485   4.431   0.758 -0.3641 -0.1230  0.2332
  530TMC3     H 7872   1.358   4.298   0.888  1.3327  3.9177  0.8470
  530TMC3    H1 7873   1.158   4.566   0.617 -0.9020  0.5745 -0.1348
  530TMC3    H2 7874   0.932   4.329   0.882 -0.1091  0.3045  1.2454
  530TMC3    C7 7875   0.918   4.482   0.667  0.5348  0.0107  0.5176
  530TMC3    C8 7876   1.124   4.227   1.014 -0.3228 -0.6677 -0.1919
  530TMC3    O1 7877   0.917   4.588   0.604  0.3789 -0.3638 -0.3917
  530TMC3    O2 7878   1.013   4.217   1.057 -0.2979  0.7172  0.1825
  531MPD2     C 7879   0.568   2.166  11.856  0.1754  0.5472  0.4407
  531MPD2    C1 7880   0.526   2.238  11.960  0.2577 -0.1953  0.2523
  531MPD2    C2 7881   0.410   2.206  12.033  0.2286  0.3645  0.0327
  531MPD2    C3 7882   0.330   2.099  11.991 -0.6118  0.0445  0.1563
  531MPD2    C4 7883   0.364   2.033  11.874 -0.1405  0.5430 -0.0042
  531MPD2    C5 7884   0.482   2.072  11.811  0.1084  0.2467 -0.1790
  531MPD2     H 7885   0.392   2.256  12.128  0.3327  0.5392 -0.0397
  531MPD2    H1 7886   0.301   1.950  11.844  0.4829 -0.0585  0.3434
  531MPD2    H2 7887   0.652   2.197  11.796  0.3764 -1.7460 -0.4556
  531MPD2    H3 7888   0.518   2.016  11.725  0.4128  1.0842 -0.6049
  531MPD2     N 7889   0.218   2.064  12.062 -0.1704  0.5591 -0.1208
  531MPD2    H5 7890   0.153   2.000  12.017  0.9055 -2.4490  2.5636
  531MPD2    N1 7891   0.610   2.345  11.998  0.9110  0.1345  0.2254
  531MPD2    H7 7892   0.701   2.354  11.956  0.4055  0.4931 -0.7947
  532TMC3    C1 7893   0.682   2.528  12.121 -0.5257 -0.6697  0.8669
  532TMC3    C2 7894   0.619   2.636  12.183 -0.7009 -0.9223  0.2498
  532TMC3    C3 7895   0.670   2.664  12.306  0.3282  0.9966  0.4940
  532TMC3    C4 7896   0.790   2.462  12.168 -0.3113 -0.1724  0.0128
  532TMC3    C5 7897   0.827   2.484  12.301  0.0409 -0.0680  0.1148
  532TMC3    C6 7898   0.774   2.596  12.361 -0.4980 -0.3092 -0.3948
  532TMC3     C 7899   0.577   2.439  12.090 -0.4917 -0.1201  0.0975
  532TMC3     O 7900   0.474   2.456  12.157  0.2598 -0.2696  0.0725
  532TMC3     H 7901   0.530   2.688  12.150 -1.4645 -1.9057  0.7336
  532TMC3    H1 7902   0.820   2.368  12.123  1.4343  1.4874 -2.3202
  532TMC3    H2 7903   0.794   2.608  12.466 -0.4124 -0.0493 -0.4427
  532TMC3    C7 7904   0.830   2.350  12.372  0.3117 -0.1362 -0.2025
  532TMC3    C8 7905   0.567   2.700  12.401 -0.4343  0.0689  0.7975
  532TMC3    O1 7906   0.898   2.266  12.316  0.0657 -0.1210  0.2626
  532TMC3    O2 7907   0.608   2.755  12.504 -0.0334  0.5732 -0.5054
  533TMC3    C1 7908   0.839   4.661  14.645 -0.1168  0.2976  0.4412
  533TMC3    C2 7909   0.973   4.658  14.615 -0.1248 -0.3994 -0.3012
  533TMC3    C3 7910   1.053   0.032  14.675 -0.6492 -0.0481 -0.2859
  533TMC3    C4 7911   0.782   0.029  14.728  0.4603  0.2767  0.6818
  533TMC3    C5 7912   0.862   0.123  14.783  1.0129 -0.2098  0.3104
  533TMC3    C6 7913   1.000   0.130  14.754 -0.2390  0.2789  0.3595
  533TMC3     C 7914   0.766   4.530  14.643 -1.1342  0.6004 -0.0130
  533TMC3     O 7915   0.832   4.428  14.648 -0.4574 -0.5720 -0.3030
  533TMC3     H 7916   1.019   4.577  14.560  0.6709 -1.3073  1.6919
  533TMC3    H1 7917   0.676   0.028  14.754  0.3075  0.6683  0.0871
  533TMC3    H2 7918   1.065   0.198  14.808  1.0279 -0.6673  0.0394
  533TMC3    C7 7919   0.822   0.162  14.918  0.4188 -0.3022 -0.3254
  533TMC3    C8 7920   1.202   0.025  14.670  0.7384 -0.2690 -0.0224
  533TMC3    O1 7921   0.845   0.277  14.956 -0.0962  0.6011 -0.2058
  533TMC3    O2 7922   1.270   0.120  14.699  0.3497 -0.1717 -0.2667
  534MPD2     C 7923   3.534   0.382   2.025 -0.0870  0.2165  0.3015
  534MPD2    C1 7924   3.451   0.431   1.923 -0.6202  0.3191 -0.0541
  534MPD2    C2 7925   3.343   0.354   1.874 -0.2791 -0.0052 -0.0595
  534MPD2    C3 7926   3.330   0.228   1.921  0.0650 -0.0452  0.6398
  534MPD2    C4 7927   3.411   0.181   2.025  0.1066  0.5196  0.8628
  534MPD2    C5 7928   3.513   0.258   2.076  0.2502  0.7316  0.9278
  534MPD2     H 7929   3.277   0.392   1.797 -0.2249  0.6658  0.2254
  534MPD2    H1 7930   3.387   0.081   2.060 -1.9542  1.4796  2.1601
  534MPD2    H2 7931   3.619   0.433   2.070 -0.1070  3.6221 -3.5480
  534MPD2    H3 7932   3.571   0.218   2.159  1.8406  1.1383 -0.0080
  534MPD2     N 7933   3.241   0.135   1.867 -0.0179 -0.1658 -0.6213
  534MPD2    H5 7934   3.242   0.039   1.902  1.2325  0.1675  0.2537
  534MPD2    N1 7935   3.474   0.556   1.859 -0.0992  0.4240  0.4123
  534MPD2    H7 7936   3.408   0.584   1.787 -0.4134  0.7020  0.8133
  535TMC3    C1 7937   3.086   0.050   1.714  0.3414 -0.1070 -0.3656
  535TMC3    C2 7938   2.955   0.072   1.666 -0.2009  0.8229  0.2631
  535TMC3    C3 7939   2.906   4.699   1.579  0.2858 -0.6756  0.9116
  535TMC3    C4 7940   3.156   4.661   1.696  0.5529 -0.4581  0.4797
  535TMC3    C5 7941   3.092   4.554   1.632 -0.2995 -0.0717 -0.0295
  535TMC3    C6 7942   2.973   4.576   1.571 -0.0194 -0.1741 -0.9796
  535TMC3     C 7943   3.146   0.169   1.772 -0.1181  0.3678  0.1801
  535TMC3     O 7944   3.094   0.278   1.740 -0.5233 -0.4918  0.1496
  535TMC3     H 7945   2.905   0.165   1.691 -0.7955  0.4941  0.2959
  535TMC3    H1 7946   3.253   4.654   1.744  0.2396  1.9258  1.4267
  535TMC3    H2 7947   2.924   4.492   1.523 -0.7167 -0.4057  0.1435
  535TMC3    C7 7948   3.171   4.446   1.581  0.0709  1.1325 -0.5819
  535TMC3    C8 7949   2.769   4.696   1.543 -0.1409  0.6817  0.5155
  535TMC3    O1 7950   3.143   4.411   1.469  0.2915 -0.2339  0.0939
  535TMC3    O2 7951   2.734   4.594   1.480  0.0009 -0.3614  0.5034
  536MPD2     C 7952   2.412   4.123  16.587 -0.8549  0.2513  0.0630
  536MPD2    C1 7953   2.292   4.055  16.591  0.7411 -0.3319  0.4871
  536MPD2    C2 7954   2.205   4.058  16.480 -0.4355 -0.0952  0.3651
  536MPD2    C3 7955   2.244   4.115  16.360 -0.0240 -0.0893 -0.8118
  536MPD2    C4 7956   2.366   4.179  16.354 -1.1944  0.3238  0.4905
  536MPD2    C5 7957   2.448   4.175  16.464 -1.0094  0.0419 -0.0276
  536MPD2     H 7958   2.113   4.005  16.501  0.6431 -1.1719  2.4278
  536MPD2    H1 7959   2.403   4.227  16.264 -0.2894 -1.8012 -0.2730
  536MPD2    H2 7960   2.489   4.118  16.664  0.4481  0.4430 -1.2226
  536MPD2    H3 7961   2.535   4.240  16.469 -2.5204  1.8457  3.0074
  536MPD2     N 7962   2.159   4.126  16.246 -0.1208 -0.0175  0.1245
  536MPD2    H5 7963   2.204   4.165  16.163  1.5541 -0.6299  0.7372
  536MPD2    N1 7964   2.267   3.984  16.711 -0.3920  0.6603  0.2107
  536MPD2    H7 7965   2.340   3.980  16.781  0.5053  0.3751 -0.7421
  537TMC3    C1 7966   2.139   3.870  16.873 -0.0874 -0.6024 -0.6055
  537TMC3    C2 7967   2.226   3.902  16.969  0.3127 -0.0125 -0.0989
  537TMC3    C3 7968   2.214   3.850  17.098 -0.1792 -0.2462 -0.5146
  537TMC3    C4 7969   2.038   3.785  16.897 -0.2455 -0.4513  1.2998
  537TMC3    C5 7970   2.011   3.748  17.031 -0.3596 -0.6809  0.1783
  537TMC3    C6 7971   2.106   3.767  17.136 -0.2403  0.3422  0.4963
  537TMC3     C 7972   2.141   3.933  16.742 -0.0413  0.3950 -0.1041
  537TMC3     O 7973   2.038   3.944  16.677 -0.2281  0.2325  0.9304
  537TMC3     H 7974   2.296   3.982  16.950  1.3229 -1.4761 -2.4068
  537TMC3    H1 7975   1.959   3.784  16.823  0.7674 -0.3550  0.2111
  537TMC3    H2 7976   2.092   3.727  17.235  1.1387 -2.3472 -0.3756
  537TMC3    C7 7977   1.896   3.659  17.049  0.1543 -0.2447 -0.5564
  537TMC3    C8 7978   2.281   3.932  17.201 -0.1600 -0.1227 -0.2241
  537TMC3    O1 7979   1.790   3.701  16.996 -0.1712  0.4534 -0.0520
  537TMC3    O2 7980   2.214   3.948  17.305 -0.6751  1.5756 -0.2249
  538TMC3    C1 7981   3.392   2.600  11.469 -0.3645  0.5874 -0.3886
  538TMC3    C2 7982   3.522   2.592  11.426  0.3581  0.3983  0.1648
  538TMC3    C3 7983   3.548   2.601  11.291  0.5314 -0.2351 -0.1819
  538TMC3    C4 7984   3.291   2.601  11.381  0.0205  0.5434 -0.2879
  538TMC3    C5 7985   3.319   2.622  11.246  0.4174  0.1741 -0.5602
  538TMC3    C6 7986   3.450   2.627  11.203  0.3629  0.5627 -0.0300
  538TMC3     C 7987   3.373   2.514  11.583 -0.2126  0.2974 -0.7987
  538TMC3     O 7988   3.321   2.562  11.686  0.2389 -0.2493  0.2495
  538TMC3     H 7989   3.607   2.564  11.487  0.3823  0.2451  0.0612
  538TMC3    H1 7990   3.189   2.601  11.417  0.1776  1.6184  0.1691
  538TMC3    H2 7991   3.474   2.648  11.099  2.1534  3.0601  0.8938
  538TMC3    C7 7992   3.210   2.634  11.155 -0.1655 -0.8274  0.6843
  538TMC3    C8 7993   3.684   2.631  11.265 -0.5629  0.5973  0.5324
  538TMC3    O1 7994   3.108   2.575  11.180 -0.1137 -0.0997  0.6923
  538TMC3    O2 7995   3.759   2.688  11.349  0.0342  0.1068 -0.2791
  539MPD2     C 7996   2.965   1.303  12.197  0.4056  1.1436 -0.7951
  539MPD2    C1 7997   2.988   1.328  12.060 -0.2308  0.2062 -0.6806
  539MPD2    C2 7998   3.024   1.455  12.025 -0.1257 -0.6839  0.6788
  539MPD2    C3 7999   3.049   1.553  12.118 -0.0043  0.3641  0.1491
  539MPD2    C4 8000   3.023   1.528  12.251 -0.6449 -0.0992  0.0181
  539MPD2    C5 8001   2.980   1.405  12.287 -0.0323  0.1087 -0.1024
  539MPD2     H 8002   3.042   1.484  11.922  1.6584  0.1282  1.2112
  539MPD2    H1 8003   3.036   1.603  12.329 -0.2232 -0.9793  0.7992
  539MPD2    H2 8004   2.931   1.209  12.239  0.7504  2.2737  2.0615
  539MPD2    H3 8005   2.954   1.384  12.390 -1.6212 -3.5190 -1.2549
  539MPD2     N 8006   3.083   1.686  12.094  0.6979 -0.0580 -0.5998
  539MPD2    H5 8007   3.088   1.755  12.169 -1.2782 -1.3210  0.6939
  539MPD2    N1 8008   2.968   1.228  11.960  0.0718 -0.7466 -0.1944
  539MPD2    H7 8009   2.992   1.258  11.866  4.7034  1.0897  1.6039
  540TMC3    C1 8010   3.108   1.882  11.954 -0.4952 -0.0994 -0.8981
  540TMC3    C2 8011   3.139   1.933  11.828  0.2464  1.3986  0.8922
  540TMC3    C3 8012   3.075   2.048  11.791  0.5533  0.0444  0.0388
  540TMC3    C4 8013   3.001   1.936  12.033 -0.3062  0.1198 -0.2501
  540TMC3    C5 8014   2.949   2.057  11.996  0.1029 -0.2972  0.6059
  540TMC3    C6 8015   2.989   2.114  11.876 -0.4942  0.4936  0.5855
  540TMC3     C 8016   3.122   1.735  11.973  0.3534  0.8233 -0.4340
  540TMC3     O 8017   3.174   1.674  11.880  0.6532  0.1049 -0.0330
  540TMC3     H 8018   3.206   1.886  11.756 -0.8710 -0.3785  1.0156
  540TMC3    H1 8019   2.964   1.877  12.116 -0.0354  0.1355 -0.1167
  540TMC3    H2 8020   2.939   2.204  11.843  0.6744  0.9772  0.1208
  540TMC3    C7 8021   2.810   2.087  12.048  0.1072  0.1248 -0.0707
  540TMC3    C8 8022   3.058   2.060  11.646 -0.3320 -0.0387 -0.5162
  540TMC3    O1 8023   2.729   2.126  11.968  0.0148 -0.6206 -0.0550
  540TMC3    O2 8024   3.067   1.951  11.584 -0.3207  0.0592  0.2682
  541MPD2     C 8025   1.066   3.228  13.230  0.4848  0.0908  0.0613
  541MPD2    C1 8026   1.097   3.158  13.113  0.2556 -0.5611 -0.0968
  541MPD2    C2 8027   1.122   3.237  13.000 -0.8999  0.1024 -0.4566
  541MPD2    C3 8028   1.136   3.377  13.013 -0.4648  0.2549  0.4189
  541MPD2    C4 8029   1.123   3.439  13.136  0.7656  0.1850 -0.1892
  541MPD2    C5 8030   1.085   3.361  13.242  0.3875  0.5316  0.2947
  541MPD2     H 8031   1.125   3.188  12.903 -0.5618  2.5321 -1.6782
  541MPD2    H1 8032   1.140   3.546  13.141  3.2529 -0.2517  0.2365
  541MPD2    H2 8033   1.036   3.175  13.320  2.9428  0.8651  1.3328
  541MPD2    H3 8034   1.068   3.412  13.336 -0.5264 -2.6109  1.8197
  541MPD2     N 8035   1.145   3.464  12.901  0.2487 -0.3609 -0.3187
  541MPD2    H5 8036   1.174   3.560  12.915 -0.0872 -0.0450 -1.7956
  541MPD2    N1 8037   1.109   3.016  13.118  0.2235  0.5291 -0.3909
  541MPD2    H7 8038   1.077   2.974  13.204 -1.9378  0.4165 -1.2611
  542TMC3    C1 8039   1.145   3.527  12.661  0.4457 -0.7721  0.5400
  542TMC3    C2 8040   1.164   3.476  12.537 -0.0303  0.1712 -0.0696
  542TMC3    C3 8041   1.235   3.554  12.449 -0.2627  0.4918  0.3033
  542TMC3    C4 8042   1.165   3.653  12.691 -0.1577  0.1690  0.2420
  542TMC3    C5 8043   1.216   3.734  12.597  0.0671 -0.2843 -0.0079
  542TMC3    C6 8044   1.245   3.687  12.473  0.2791  0.5863 -0.5800
  542TMC3     C 8045   1.125   3.424  12.764  0.0045 -0.0254 -0.0470
  542TMC3     O 8046   1.097   3.312  12.718 -0.3533  0.8338  0.1668
  542TMC3     H 8047   1.165   3.369  12.524  0.6978 -0.3461  4.3389
  542TMC3    H1 8048   1.136   3.691  12.788  0.9502  1.8463 -0.0847
  542TMC3    H2 8049   1.295   3.753  12.403  0.6551 -0.7460 -1.5727
  542TMC3    C7 8050   1.218   3.877  12.623  0.0183 -0.5077  0.8370
  542TMC3    C8 8051   1.216   3.524  12.306  0.4607 -0.1884 -0.2288
  542TMC3    O1 8052   1.205   3.911  12.740 -0.1129 -0.5811  0.0048
  542TMC3    O2 8053   1.271   3.601  12.229  0.3239  0.7424 -0.3132
  543TMC3    C1 8054   0.342   4.397  17.161 -0.0082  0.6071  0.7594
  543TMC3    C2 8055   0.427   4.285  17.180  0.4821  0.7251 -0.3050
  543TMC3    C3 8056   0.377   4.184  17.266 -0.0389 -0.1791 -0.4444
  543TMC3    C4 8057   0.225   4.413  17.231  0.6262  0.1765  0.1662
  543TMC3    C5 8058   0.196   4.314  17.328 -0.4073 -0.4300 -0.1586
  543TMC3    C6 8059   0.263   4.191  17.342 -0.4006 -0.7514 -0.4847
  543TMC3     C 8060   0.364   4.496  17.062  0.5174 -0.1115 -0.1327
  543TMC3     O 8061   0.266   4.530  16.998 -0.4152 -0.4307 -0.6084
  543TMC3     H 8062   0.520   4.276  17.126  0.2241 -2.9024 -0.1241
  543TMC3    H1 8063   0.152   4.489  17.205 -0.2066 -0.6624  0.0256
  543TMC3    H2 8064   0.232   4.115  17.413 -2.3812  1.2794  0.8351
  543TMC3    C7 8065   0.073   4.322  17.392 -0.4132 -0.1200 -0.2290
  543TMC3    C8 8066   0.445   4.055  17.266  0.6625  0.7045  0.9445
  543TMC3    O1 8067   4.705   4.380  17.336  0.4291  0.5528 -0.4689
  543TMC3    O2 8068   0.532   4.042  17.179 -0.4209 -0.0335 -0.0048
  544MPD2     C 8069   0.444   3.551  17.344 -0.5214  0.0850 -0.7455
  544MPD2    C1 8070   0.543   3.632  17.288  0.0770 -0.2581  0.3819
  544MPD2    C2 8071   0.517   3.767  17.282 -0.5888  0.7944  0.1651
  544MPD2    C3 8072   0.396   3.824  17.326  0.1247  0.4367  0.2041
  544MPD2    C4 8073   0.310   3.744  17.389  0.2101  0.7917  0.3152
  544MPD2    C5 8074   0.327   3.609  17.390 -0.6235  0.4101  0.0827
  544MPD2     H 8075   0.592   3.836  17.245  1.8041 -1.4380  0.8981
  544MPD2    H1 8076   0.225   3.791  17.436 -0.0922  1.8168 -1.2522
  544MPD2    H2 8077   0.432   3.444  17.349  0.3337 -0.0393 -1.3456
  544MPD2    H3 8078   0.260   3.539  17.438 -0.7392  0.2513 -0.3051
  544MPD2     N 8079   0.369   3.961  17.332  0.4178 -0.1114 -0.2682
  544MPD2    H5 8080   0.280   3.985  17.375  1.1620  0.2803  1.0719
  544MPD2    N1 8081   0.660   3.564  17.241 -0.1255  0.2074 -0.7941
  544MPD2    H7 8082   0.666   3.464  17.261 -1.1328  0.3807  0.3999
  545TMC3    C1 8083   0.886   3.541  17.179  0.4848  0.3981  1.0447
  545TMC3    C2 8084   0.991   3.601  17.122  0.1190 -0.2083 -0.0607
  545TMC3    C3 8085   1.103   3.519  17.090  0.5675 -0.0009  0.0645
  545TMC3    C4 8086   0.872   3.407  17.204  0.7514 -0.4434 -0.7997
  545TMC3    C5 8087   0.988   3.331  17.167 -0.2503  1.0607 -0.2534
  545TMC3    C6 8088   1.108   3.388  17.126  0.2395  0.2836 -0.3223
  545TMC3     C 8089   0.771   3.626  17.195 -0.2011  0.7353  0.0145
  545TMC3     O 8090   0.775   3.736  17.148  0.2402  0.2017 -0.5633
  545TMC3     H 8091   0.998   3.709  17.123  0.4136 -0.2177 -0.9063
  545TMC3    H1 8092   0.786   3.362  17.253  1.1863 -2.1324 -1.5720
  545TMC3    H2 8093   1.193   3.331  17.091 -1.3998 -1.8627 -0.7905
  545TMC3    C7 8094   0.994   3.184  17.178 -0.2521 -0.4525 -0.7662
  545TMC3    C8 8095   1.204   3.579  17.010  0.0298  0.2720  0.3714
  545TMC3    O1 8096   1.092   3.130  17.132  0.5032 -0.1216  0.2352
  545TMC3    O2 8097   1.309   3.517  16.994  0.5892 -0.1956 -0.7048
  546MPD2     C 8098   1.979   4.358   0.064 -0.3852 -0.8953  0.3960
  546MPD2    C1 8099   2.038   4.353  17.642 -0.3183  0.1599  0.0824
  546MPD2    C2 8100   2.128   4.451  17.605 -0.0569 -0.4099  0.4275
  546MPD2    C3 8101   2.150   4.558  17.694 -0.2318 -0.7797 -0.0223
  546MPD2    C4 8102   2.088   4.560   0.114 -0.1812  0.4169  0.8138
  546MPD2    C5 8103   1.995   4.467   0.150 -0.7076  0.2256 -0.3982
  546MPD2     H 8104   2.181   4.451  17.510 -0.7060  2.4354  0.0838
  546MPD2    H1 8105   2.121   4.631   0.189  0.9575 -0.8859  1.5366
  546MPD2    H2 8106   1.900   4.290   0.093 -2.2833  0.3280 -1.9057
  546MPD2    H3 8107   1.956   4.479   0.250  0.3212 -1.5213  0.2123
  546MPD2     N 8108   2.247   4.654  17.681 -0.2560  0.2796 -0.1556
  546MPD2    H5 8109   2.249   4.720   0.056  0.0595 -0.1295  0.1933
  546MPD2    N1 8110   1.994   4.241  17.558  0.3630 -0.2556  0.1548
  546MPD2    H7 8111   1.928   4.181  17.607  1.2942 -1.4573 -0.0764
  547TMC3    C1 8112   1.959   4.115  17.368  0.0048  0.3587 -0.3453
  547TMC3    C2 8113   1.888   4.150  17.256  0.2067 -0.0268  0.0522
  547TMC3    C3 8114   1.791   4.061  17.214 -0.1691 -0.0910  0.9115
  547TMC3    C4 8115   1.951   4.007  17.445  0.8920  0.4178  0.3522
  547TMC3    C5 8116   1.860   3.915  17.393 -0.8788 -0.7689  0.0359
  547TMC3    C6 8117   1.783   3.943  17.279  0.2084  0.1252 -0.0648
  547TMC3     C 8118   2.029   4.228  17.426 -0.2329  0.2353  0.4915
  547TMC3     O 8119   2.086   4.309  17.354  0.1513 -0.4431 -0.5665
  547TMC3     H 8120   1.896   4.252  17.221 -0.4712 -0.2341 -0.7105
  547TMC3    H1 8121   2.007   3.997  17.537 -1.9768 -0.5074  1.9885
  547TMC3    H2 8122   1.727   3.861  17.235 -1.2137  0.8373  0.4295
  547TMC3    C7 8123   1.797   3.839  17.501 -0.5532  0.4196 -0.0674
  547TMC3    C8 8124   1.684   4.106  17.132  0.3400 -0.4186 -0.1237
  547TMC3    O1 8125   1.680   3.808  17.492  0.0459  0.0904  0.0206
  547TMC3    O2 8126   1.697   4.199  17.056  0.2691  0.4284 -0.2231
  548MPD2     C 8127   2.008   0.515  12.271 -0.6369 -0.8979 -0.0656
  548MPD2    C1 8128   1.961   0.389  12.314 -0.0740 -0.2865 -0.1014
  548MPD2    C2 8129   2.040   0.278  12.285 -0.7274 -0.6103 -0.4128
  548MPD2    C3 8130   2.145   0.277  12.200 -0.0771 -0.2750  0.3135
  548MPD2    C4 8131   2.183   0.404  12.158 -0.4065 -0.0686  0.4508
  548MPD2    C5 8132   2.118   0.516  12.191  0.2507 -0.2766 -0.1340
  548MPD2     H 8133   2.006   0.178  12.313 -1.8675  0.3472  1.6392
  548MPD2    H1 8134   2.257   0.429  12.083 -0.1558  0.8702  1.0196
  548MPD2    H2 8135   1.952   0.608  12.276  1.3177  0.2853 -0.0970
  548MPD2    H3 8136   2.153   0.610  12.150  0.0970  0.2963  1.0566
  548MPD2     N 8137   2.199   0.163  12.153 -0.2123  0.8413  0.0925
  548MPD2    H5 8138   2.177   0.084  12.213 -1.4058  1.3692  0.3462
  548MPD2    N1 8139   1.833   0.381  12.382  0.1247  0.3827 -0.5323
  548MPD2    H7 8140   1.785   0.470  12.395 -1.0246 -0.0553 -1.8970
  549TMC3    C1 8141   1.654   0.272  12.481 -0.1599  0.1653 -0.1796
  549TMC3    C2 8142   1.578   0.375  12.445 -0.0153  0.1483  0.4780
  549TMC3    C3 8143   1.453   0.390  12.507 -0.2605 -0.2769 -0.8467
  549TMC3    C4 8144   1.610   0.171  12.571  0.4410 -0.6089 -0.1476
  549TMC3    C5 8145   1.483   0.184  12.616  0.0593  0.2130  0.6859
  549TMC3    C6 8146   1.404   0.292  12.586  0.0001  1.1953  0.8746
  549TMC3     C 8147   1.790   0.264  12.444  0.1776  0.0842 -0.8707
  549TMC3     O 8148   1.851   0.160  12.466 -0.6994  0.0299 -0.7796
  549TMC3     H 8149   1.597   0.428  12.353  0.2485 -2.6199 -1.0565
  549TMC3    H1 8150   1.672   0.092  12.611  0.8617  0.1934  0.7834
  549TMC3    H2 8151   1.298   0.297  12.605 -0.2275 -0.5307  0.0636
  549TMC3    C7 8152   1.420   0.086  12.705 -0.2314  0.4789  0.0428
  549TMC3    C8 8153   1.360   0.480  12.452  1.0088 -0.2946  0.1579
  549TMC3    O1 8154   1.329   0.127  12.772 -0.0365  0.1772  0.0842
  549TMC3    O2 8155   1.243   0.450  12.445  0.1881  0.3814 -0.0093
  550TMC3    C1 8156   0.178   2.403  11.945 -0.0016 -0.4280  0.5903
  550TMC3    C2 8157   0.094   2.454  12.038 -0.1496  0.2254  0.3112
  550TMC3    C3 8158   0.107   2.585  12.075  0.0724 -0.3848  0.4059
  550TMC3    C4 8159   0.268   2.492  11.889  0.0929 -0.2709  0.2276
  550TMC3    C5 8160   0.294   2.612  11.949  0.2813 -0.1483 -0.6679
  550TMC3    C6 8161   0.210   2.668  12.037  0.9282 -0.3613  0.4329
  550TMC3     C 8162   0.126   2.307  11.857  0.3339 -0.2642 -0.3296
  550TMC3     O 8163   0.017   2.262  11.886 -0.2569  0.6331 -0.5689
  550TMC3     H 8164   0.014   2.395  12.083 -0.0684 -0.6918 -0.7473
  550TMC3    H1 8165   0.347   2.455  11.824 -2.0988 -0.1713 -2.5017
  550TMC3    H2 8166   0.223   2.771  12.069 -1.3524 -0.4272  1.6124
  550TMC3    C7 8167   0.328   2.706  11.842  0.1719  0.8148  0.5968
  550TMC3    C8 8168   0.001   2.630  12.169  0.2975  1.0392 -0.6211
  550TMC3    O1 8169   0.398   2.803  11.865  0.4291 -0.0123 -0.4531
  550TMC3    O2 8170   4.654   2.545  12.221 -0.1207  0.4047 -0.6527
  551TMC3    C1 8171   2.878   0.550  13.347  0.0697  0.0686 -0.5770
  551TMC3    C2 8172   2.997   0.526  13.294  0.4647 -0.9963 -0.1549
  551TMC3    C3 8173   3.111   0.585  13.344  0.1632 -0.3037  0.2642
  551TMC3    C4 8174   2.850   0.643  13.440 -0.4707 -0.6215  0.3740
  551TMC3    C5 8175   2.963   0.704  13.496  0.3064 -0.1915  0.3159
  551TMC3    C6 8176   3.087   0.676  13.445  0.3517  0.0809  0.6548
  551TMC3     C 8177   2.771   0.512  13.259 -0.2025  0.0745 -0.0301
  551TMC3     O 8178   2.806   0.485  13.146 -0.5500 -0.0887  0.3516
  551TMC3     H 8179   3.009   0.461  13.208  1.8089  0.3693 -1.0169
  551TMC3    H1 8180   2.750   0.663  13.475  0.4208 -2.7629  4.1895
  551TMC3    H2 8181   3.177   0.724  13.481 -0.1183  2.1137 -0.9506
  551TMC3    C7 8182   2.954   0.775  13.610 -0.3104 -0.3993 -0.4052
  551TMC3    C8 8183   3.207   0.620  13.250 -0.6805 -0.6098  0.5872
  551TMC3    O1 8184   3.046   0.760  13.690 -0.0517  0.1582  0.2123
  551TMC3    O2 8185   3.249   0.525  13.183  0.4269 -0.0385 -0.0881
  552MPD2     C 8186   4.329   3.100  13.776 -0.2706  0.1867  0.1187
  552MPD2    C1 8187   4.370   2.973  13.826  0.4438  0.2914 -0.1886
  552MPD2    C2 8188   4.459   2.959  13.929  0.3171 -0.7705 -0.7709
  552MPD2    C3 8189   4.520   3.074  13.980 -0.0237 -0.5800 -0.0279
  552MPD2    C4 8190   4.496   3.199  13.923 -0.1951  0.0919  0.3252
  552MPD2    C5 8191   4.399   3.207  13.823 -0.3605 -0.3579 -0.1011
  552MPD2     H 8192   4.492   2.861  13.962  1.8708 -0.6386 -1.9412
  552MPD2    H1 8193   4.547   3.293  13.939 -0.7925  0.4504  0.1281
  552MPD2    H2 8194   4.259   3.103  13.692 -1.4378  0.7547  1.1188
  552MPD2    H3 8195   4.372   3.308  13.792 -1.4338 -1.1862 -1.8587
  552MPD2     N 8196   4.639   3.044  14.046 -0.7975  0.3893 -0.2475
  552MPD2    H5 8197   4.647   2.954  14.092  1.9064  1.3750  1.1968
  552MPD2    N1 8198   4.315   2.854  13.776  0.0635 -0.1666  0.1936
  552MPD2    H7 8199   4.347   2.766  13.815  1.9229 -0.2319 -1.4789
  553TMC3    C1 8200   4.222   2.694  13.632  0.0688  0.5020  0.1756
  553TMC3    C2 8201   4.257   2.663  13.500 -0.1319 -0.5816 -0.2141
  553TMC3    C3 8202   4.325   2.541  13.472  0.5604 -0.3220 -0.1958
  553TMC3    C4 8203   4.251   2.605  13.732 -0.5146  0.0682  0.5812
  553TMC3    C5 8204   4.317   2.492  13.697  0.8060 -0.5418  0.2207
  553TMC3    C6 8205   4.353   2.454  13.570 -0.1447  0.2518  0.1562
  553TMC3     C 8206   4.236   2.838  13.663 -0.1351 -0.5723  1.0457
  553TMC3     O 8207   4.224   2.919  13.574 -0.4972 -0.5291 -0.3022
  553TMC3     H 8208   4.253   2.746  13.430 -1.8471 -0.1269  0.4247
  553TMC3    H1 8209   4.218   2.628  13.833  0.1560  1.9121  0.3825
  553TMC3    H2 8210   4.407   2.363  13.544 -0.9103 -0.7211  1.9805
  553TMC3    C7 8211   4.363   2.415  13.808 -0.5394 -0.2198 -0.3087
  553TMC3    C8 8212   4.379   2.517  13.337 -0.1708  1.1026 -0.3259
  553TMC3    O1 8213   4.287   2.400  13.904 -0.0866 -0.9476 -0.1420
  553TMC3    O2 8214   4.442   2.413  13.321  0.1536  0.1783 -0.2513
  554TMC3    C1 8215   2.026   1.843  11.728 -0.4420  0.3385 -0.6936
  554TMC3    C2 8216   1.939   1.830  11.624 -0.5835 -0.2210  0.2513
  554TMC3    C3 8217   1.959   1.912  11.514  0.1860 -0.3723  0.0910
  554TMC3    C4 8218   2.129   1.937  11.732  0.1206 -1.6724  0.1347
  554TMC3    C5 8219   2.132   2.031  11.627 -0.0604 -0.2931  0.1903
  554TMC3    C6 8220   2.055   2.012  11.516 -0.0571 -0.1674  0.1841
  554TMC3     C 8221   1.987   1.773  11.850 -0.2506 -0.1302 -0.2109
  554TMC3     O 8222   1.865   1.746  11.875  0.8946  0.0901  0.3292
  554TMC3     H 8223   1.851   1.770  11.645  0.4040 -1.2061  1.6205
  554TMC3    H1 8224   2.189   1.949  11.821  0.8851 -0.4670 -0.5468
  554TMC3    H2 8225   2.056   2.094  11.444  2.6948  0.0707  0.5219
  554TMC3    C7 8226   2.228   2.143  11.638  0.2034 -0.0514  0.4836
  554TMC3    C8 8227   1.878   1.901  11.395  0.6938  0.1110 -0.1094
  554TMC3    O1 8228   2.281   2.169  11.748  0.6029 -0.1151 -0.3023
  554TMC3    O2 8229   1.875   1.995  11.314 -0.0373  0.2862  1.1009
  555TMC3    C1 8230   1.201   1.023  14.695 -0.5715  0.2326  0.4741
  555TMC3    C2 8231   1.183   1.149  14.748  0.2627  0.4503 -0.5534
  555TMC3    C3 8232   1.177   1.158  14.888 -0.1580  0.1783  0.2528
  555TMC3    C4 8233   1.228   0.918  14.776  0.5991  0.0786 -0.9713
  555TMC3    C5 8234   1.217   0.934  14.910 -0.1710  0.5269 -0.5167
  555TMC3    C6 8235   1.198   1.053  14.975 -0.0619  0.3990 -0.1841
  555TMC3     C 8236   1.195   0.998  14.551 -0.8250  0.0169 -0.1156
  555TMC3     O 8237   1.266   0.903  14.522 -0.4767  0.3489  0.7490
  555TMC3     H 8238   1.176   1.239  14.688  1.9154  0.0658 -1.3174
  555TMC3    H1 8239   1.229   0.818  14.734  1.3371  0.1092 -1.0368
  555TMC3    H2 8240   1.192   1.068  15.082 -2.6962  3.4753 -0.7646
  555TMC3    C7 8241   1.183   0.811  14.990 -0.6896 -0.2708  0.3166
  555TMC3    C8 8242   1.152   1.298  14.942  0.0456 -0.6108 -0.0922
  555TMC3    O1 8243   1.112   0.832  15.088 -0.4611 -0.4899 -0.0431
  555TMC3    O2 8244   1.146   1.383  14.855 -0.1644 -0.6679  0.5288
  556MPD2     C 8245   4.055   3.306  10.333  0.4875 -0.5040 -0.1346
  556MPD2    C1 8246   4.034   3.241  10.455  0.1164 -0.2204 -0.9031
  556MPD2    C2 8247   4.000   3.108  10.459  0.9077 -0.6059  0.1041
  556MPD2    C3 8248   3.988   3.038  10.342  0.2824  0.2277  0.3410
  556MPD2    C4 8249   4.011   3.095  10.224  0.2940 -0.3422 -0.3980
  556MPD2    C5 8250   4.051   3.230  10.219  0.7461  0.6425  0.3777
  556MPD2     H 8251   3.972   3.066  10.554 -0.8206  0.5560  0.0984
  556MPD2    H1 8252   4.003   3.039  10.131  0.8237 -0.7595 -0.1897
  556MPD2    H2 8253   4.068   3.414  10.332 -0.2055 -0.4181 -0.1250
  556MPD2    H3 8254   4.055   3.273  10.119  1.4061  1.6488  0.8332
  556MPD2     N 8255   3.956   2.904  10.358  0.3364 -0.9442  0.7048
  556MPD2    H5 8256   3.931   2.879  10.453 -0.4574 -0.4190  0.6290
  556MPD2    N1 8257   4.028   3.311  10.579 -0.1125  0.0934  0.1975
  556MPD2    H7 8258   4.008   3.263  10.666  0.9259  0.6792  0.7543
  557TMC3    C1 8259   3.930   2.681  10.323  0.3588  0.1077  0.6597
  557TMC3    C2 8260   3.876   2.584  10.244 -0.2799 -0.3684  0.1320
  557TMC3    C3 8261   3.839   2.461  10.297 -0.7468 -0.6381  0.4676
  557TMC3    C4 8262   3.939   2.666  10.461 -0.0007 -0.0674 -0.4482
  557TMC3    C5 8263   3.907   2.543  10.513  0.6034  0.0534  0.1614
  557TMC3    C6 8264   3.843   2.442  10.436 -0.4453  0.5867 -0.1162
  557TMC3     C 8265   3.956   2.806  10.262  0.1796  0.3606 -0.2489
  557TMC3     O 8266   3.989   2.815  10.141  0.4164  0.1571 -0.2357
  557TMC3     H 8267   3.867   2.597  10.136 -2.4020  1.0079  0.4687
  557TMC3    H1 8268   3.978   2.746  10.523 -0.9943 -0.2232  0.3682
  557TMC3    H2 8269   3.817   2.348  10.484  2.1642  0.4160  0.9915
  557TMC3    C7 8270   3.909   2.520  10.653  0.0025 -0.1367 -0.1012
  557TMC3    C8 8271   3.730   2.399  10.230  0.6111 -0.1857 -0.2165
  557TMC3    O1 8272   3.859   2.418  10.694  0.1567 -0.6296  0.4017
  557TMC3    O2 8273   3.663   2.457  10.147  0.2145 -0.1606 -0.4305
  558TMC3    C1 8274   1.583   1.226   9.904  0.2746  0.9685  0.4190
  558TMC3    C2 8275   1.497   1.210  10.009  0.4799 -0.2336  0.0686
  558TMC3    C3 8276   1.371   1.162   9.981 -0.3456 -0.2473 -0.6929
  558TMC3    C4 8277   1.544   1.217   9.775 -0.4318  0.4867 -0.2072
  558TMC3    C5 8278   1.417   1.174   9.752  0.1744 -0.1675  0.7112
  558TMC3    C6 8279   1.335   1.133   9.852  0.0210  0.3607  0.0336
  558TMC3     C 8280   1.730   1.229   9.926 -0.3552 -0.2363 -0.2593
  558TMC3     O 8281   1.772   1.258  10.040  0.1511  0.4395 -0.3673
  558TMC3     H 8282   1.533   1.242  10.106  2.1194 -0.5570 -0.4324
  558TMC3    H1 8283   1.610   1.255   9.698 -0.9454 -2.1174 -1.9326
  558TMC3    H2 8284   1.238   1.086   9.842 -0.2078  1.2148 -1.6939
  558TMC3    C7 8285   1.398   1.144   9.614 -0.4590 -0.1640  0.1532
  558TMC3    C8 8286   1.289   1.119  10.087 -0.4889  0.0975  0.1697
  558TMC3    O1 8287   1.468   1.201   9.534  0.4448 -0.3841 -0.0069
  558TMC3    O2 8288   1.178   1.078  10.066  0.3386  0.1531  0.0780
  559MPD2     C 8289   1.838   1.457  10.653 -0.7682 -0.2485 -0.7092
  559MPD2    C1 8290   1.802   1.338  10.702 -0.3925  0.1093 -0.4191
  559MPD2    C2 8291   1.885   1.253  10.780  0.3415 -0.1336 -0.8983
  559MPD2    C3 8292   2.011   1.302  10.813  0.0844 -0.7173  0.9507
  559MPD2    C4 8293   2.046   1.429  10.760 -0.0881  0.4027  0.6018
  559MPD2    C5 8294   1.961   1.499  10.679 -0.5199  0.2982 -1.3085
  559MPD2     H 8295   1.844   1.168  10.833  1.9445 -1.7030 -2.1813
  559MPD2    H1 8296   2.141   1.479  10.773 -0.7266  1.8726 -0.4056
  559MPD2    H2 8297   1.774   1.516  10.588 -0.5706  0.8457  0.0850
  559MPD2    H3 8298   1.989   1.600  10.650 -0.6431  0.5918 -0.3940
  559MPD2     N 8299   2.089   1.229  10.912  0.6832 -0.7975 -0.2346
  559MPD2    H5 8300   2.064   1.132  10.925  1.7649 -0.9063  1.0424
  559MPD2    N1 8301   1.666   1.294  10.679 -0.1995 -0.0415  0.0863
  559MPD2    H7 8302   1.612   1.361  10.626  0.2248  0.7109  0.5983
  560TMC3    C1 8303   2.274   1.188  11.056  0.1656  0.2921 -0.1108
  560TMC3    C2 8304   2.274   1.065  10.998 -0.2735  0.3169 -0.8001
  560TMC3    C3 8305   2.280   0.961  11.087  1.0255 -0.5137  0.0306
  560TMC3    C4 8306   2.271   1.206  11.191  0.0795 -0.2108  0.3637
  560TMC3    C5 8307   2.260   1.092  11.275  0.1781  0.0207  1.0363
  560TMC3    C6 8308   2.272   0.978  11.219  0.4123  0.1544  0.3690
  560TMC3     C 8309   2.189   1.282  10.987  0.2400  0.1717  0.0041
  560TMC3     O 8310   2.229   1.401  10.987  0.1061 -0.2538  0.6085
  560TMC3     H 8311   2.265   1.056  10.890 -0.7371 -0.4688 -0.7004
  560TMC3    H1 8312   2.261   1.310  11.221  2.9781  0.7251 -1.9831
  560TMC3    H2 8313   2.276   0.888  11.280 -1.3255 -0.3396 -0.2506
  560TMC3    C7 8314   2.327   1.092  11.404 -0.2030  0.1643 -0.1311
  560TMC3    C8 8315   2.258   0.832  11.031 -0.3059  0.6069 -0.1270
  560TMC3    O1 8316   2.285   1.008  11.481  0.2548 -0.1117  0.4716
  560TMC3    O2 8317   2.167   0.760  11.070  0.2801 -0.7176 -0.0061
  561TMC3    C1 8318   4.463   0.149  10.977  0.1746 -0.0532  0.2110
  561TMC3    C2 8319   4.402   0.055  11.057  0.1556 -0.2898 -1.0103
  561TMC3    C3 8320   4.362   0.087  11.190 -0.3076  0.2513  0.1415
  561TMC3    C4 8321   4.460   0.284  11.012 -0.1641  0.0277 -0.4662
  561TMC3    C5 8322   4.403   0.314  11.135  0.0967  0.5818  0.5286
  561TMC3    C6 8323   4.360   0.223  11.234  0.6330  0.3303 -0.1997
  561TMC3     C 8324   4.507   0.107  10.842 -0.2909  0.6071  0.1721
  561TMC3     O 8325   4.452   0.007  10.791 -0.2785  0.6657  0.0188
  561TMC3     H 8326   4.396   4.679  11.019 -1.0241 -0.6917  0.2499
  561TMC3    H1 8327   4.480   0.359  10.936 -1.0318  1.9694  1.2120
  561TMC3    H2 8328   4.313   0.256  11.325  0.9702  1.0476 -0.2845
  561TMC3    C7 8329   4.427   0.454  11.189  0.0183 -0.0606 -0.1487
  561TMC3    C8 8330   4.274   4.720  11.248 -0.1426 -0.1610  0.4933
  561TMC3    O1 8331   4.386   0.476  11.301 -0.3744  0.2768 -0.5348
  561TMC3    O2 8332   4.246   4.621  11.183  0.0075  0.1789 -0.1974
  562TMC3    C1 8333   0.604   1.793  15.869  0.1447 -0.2046  0.5455
  562TMC3    C2 8334   0.577   1.920  15.817  0.2229  0.0878 -0.5037
  562TMC3    C3 8335   0.567   1.930  15.680  0.0180 -0.1445  0.1894
  562TMC3    C4 8336   0.627   1.687  15.788  0.4958  0.0152 -0.0628
  562TMC3    C5 8337   0.620   1.700  15.651 -0.0876 -0.3913 -0.2813
  562TMC3    C6 8338   0.588   1.823  15.594 -0.2965  0.2384 -0.2198
  562TMC3     C 8339   0.587   1.759  16.011  0.1073  0.5091 -0.0340
  562TMC3     O 8340   0.604   1.641  16.036 -0.2412  0.7320 -0.2120
  562TMC3     H 8341   0.569   2.012  15.875  1.9859  0.6458 -1.1197
  562TMC3    H1 8342   0.669   1.598  15.835  1.3832  0.4229 -0.0943
  562TMC3    H2 8343   0.605   1.828  15.487 -3.0408  1.3744 -0.6159
  562TMC3    C7 8344   0.677   1.596  15.567  0.5605  0.1517 -0.4446
  562TMC3    C8 8345   0.571   2.063  15.624 -0.1002 -0.8518 -0.0746
  562TMC3    O1 8346   0.671   1.613  15.447  0.0682  0.1547 -0.6439
  562TMC3    O2 8347   0.650   2.136  15.682 -0.1477 -0.4040 -0.3942
  563MPD2     C 8348   2.892   2.919  15.531  0.0016  0.0547 -0.0828
  563MPD2    C1 8349   2.891   2.930  15.667 -0.5218  0.2461  0.1054
  563MPD2    C2 8350   2.996   2.870  15.730 -0.4799  0.0731  0.3240
  563MPD2    C3 8351   3.103   2.807  15.678 -0.1729 -0.5028  0.6269
  563MPD2    C4 8352   3.105   2.805  15.539 -0.6009  0.1996  0.6041
  563MPD2    C5 8353   2.993   2.851  15.470 -0.4699 -0.0208  0.3094
  563MPD2     H 8354   2.993   2.880  15.838  1.4913  2.1267  0.2072
  563MPD2    H1 8355   3.177   2.738  15.493 -0.8505 -0.1606  0.7382
  563MPD2    H2 8356   2.810   2.962  15.475  0.2984  0.3493 -0.2904
  563MPD2    H3 8357   3.006   2.835  15.364 -1.0300 -0.1767  0.2653
  563MPD2     N 8358   3.202   2.749  15.762  0.1310 -0.0722 -0.0430
  563MPD2    H5 8359   3.184   2.756  15.862 -0.0164  0.1343 -0.0836
  563MPD2    N1 8360   2.789   2.989  15.743  0.0512 -0.2263 -0.2758
  563MPD2    H7 8361   2.706   3.007  15.687  0.1857  0.0556 -0.3821
  564TMC3    C1 8362   2.695   2.953  15.951  0.6946  0.1911 -0.1101
  564TMC3    C2 8363   2.615   2.879  15.871  0.0433 -0.3095 -0.5127
  564TMC3    C3 8364   2.563   2.760  15.924 -0.5078 -0.5566 -1.1800
  564TMC3    C4 8365   2.740   2.900  16.066  0.0149 -0.8150  0.9582
  564TMC3    C5 8366   2.702   2.779  16.104  0.7983 -0.1422  0.6590
  564TMC3    C6 8367   2.613   2.704  16.039  0.0609 -0.2723  0.1924
  564TMC3     C 8368   2.798   3.026  15.882  0.3512  0.5402 -0.0927
  564TMC3     O 8369   2.896   3.041  15.949 -0.3642 -0.6239  0.6308
  564TMC3     H 8370   2.571   2.924  15.783  0.6728 -0.4106 -0.8752
  564TMC3    H1 8371   2.819   2.959  16.113 -0.0109  0.7332 -0.9272
  564TMC3    H2 8372   2.592   2.602  16.071  0.4932  0.0882  1.6246
  564TMC3    C7 8373   2.822   2.702  16.128  0.2424  0.0037  0.3146
  564TMC3    C8 8374   2.537   2.653  15.824 -1.0408 -0.0748 -0.1393
  564TMC3    O1 8375   2.904   2.751  16.207  0.5656 -0.2197 -0.1658
  564TMC3    O2 8376   2.490   2.553  15.876  0.2390 -0.0346  0.3338
  565TMC3    C1 8377   3.904   3.882  10.036  0.7437 -0.0228  0.0080
  565TMC3    C2 8378   3.854   3.845  10.155  0.2823  0.4093  0.1327
  565TMC3    C3 8379   3.882   3.715  10.198 -0.3592  0.2601 -0.1367
  565TMC3    C4 8380   3.983   3.794   9.964 -0.3892 -0.5149 -0.1549
  565TMC3    C5 8381   4.026   3.680  10.025  0.9371  0.1315 -0.1203
  565TMC3    C6 8382   3.975   3.634  10.144 -0.5402 -0.0635  0.3303
  565TMC3     C 8383   3.835   3.975   9.956 -0.5040 -0.6313  0.3151
  565TMC3     O 8384   3.794   4.075  10.016  0.0937  0.6516 -0.3391
  565TMC3     H 8385   3.771   3.901  10.197  0.5026  3.1690 -3.1205
  565TMC3    H1 8386   4.028   3.826   9.871  0.4386 -0.1280  0.3740
  565TMC3    H2 8387   3.970   3.527  10.162  1.2008  0.0489  1.4161
  565TMC3    C7 8388   4.116   3.588   9.956 -0.1229 -0.0094  0.0817
  565TMC3    C8 8389   3.796   3.665  10.296  0.4536  0.1945 -0.3357
  565TMC3    O1 8390   4.114   3.586   9.833 -0.2413  0.1679 -0.3842
  565TMC3    O2 8391   3.774   3.742  10.394  0.0918  0.2490  0.2356
  566MPD2     C 8392   0.195   0.788  14.028 -0.1688  0.1155 -0.3012
  566MPD2    C1 8393   0.300   0.841  13.958 -0.1429 -0.4445 -0.2859
  566MPD2    C2 8394   0.293   0.840  13.823 -0.2104 -0.6458  0.4374
  566MPD2    C3 8395   0.184   0.792  13.750  0.6036  0.2273  0.0273
  566MPD2    C4 8396   0.081   0.743  13.821  0.2884  0.2858  0.5313
  566MPD2    C5 8397   0.089   0.732  13.963 -0.0240  0.4652  0.0755
  566MPD2     H 8398   0.376   0.873  13.762  1.0606 -4.3210  0.2096
  566MPD2    H1 8399   4.719   0.702  13.771  0.2946 -1.3886  1.9024
  566MPD2    H2 8400   0.186   0.793  14.136 -0.3389 -0.3636 -0.2926
  566MPD2    H3 8401   4.725   0.695  14.012 -0.2791  0.6745 -0.2318
  566MPD2     N 8402   0.197   0.799  13.614 -0.2129 -0.5116 -0.0408
  566MPD2    H5 8403   0.272   0.864  13.595 -0.5021 -0.7692 -1.9967
  566MPD2    N1 8404   0.422   0.892  14.011  1.3164 -0.4422  0.2179
  566MPD2    H7 8405   0.489   0.931  13.945 -0.8639 -0.4937 -2.0551
  567TMC3    C1 8406   0.599   0.892  14.159 -0.1171 -0.3129  0.3904
  567TMC3    C2 8407   0.684   0.888  14.050 -0.4424  1.0901 -0.2676
  567TMC3    C3 8408   0.813   0.842  14.059 -0.0833 -0.4874  0.1185
  567TMC3    C4 8409   0.653   0.866  14.281 -0.2752 -1.0060 -0.4350
  567TMC3    C5 8410   0.780   0.832  14.284 -0.4574  0.1554 -0.6912
  567TMC3    C6 8411   0.866   0.813  14.176  0.0873 -0.1802 -0.2051
  567TMC3     C 8412   0.459   0.867  14.139  0.0900  0.1510  0.4319
  567TMC3     O 8413   0.390   0.840  14.238 -0.6014  0.6293 -0.3594
  567TMC3     H 8414   0.652   0.895  13.947 -2.7527  2.1385  0.5171
  567TMC3    H1 8415   0.587   0.863  14.367  0.5724  3.1737  0.3745
  567TMC3    H2 8416   0.972   0.808  14.197 -0.2220 -2.2303  0.8627
  567TMC3    C7 8417   0.848   0.813  14.413  0.3458  0.5968 -0.2040
  567TMC3    C8 8418   0.894   0.850  13.940 -0.3861  0.1388 -0.4111
  567TMC3    O1 8419   0.941   0.731  14.421  0.3272  0.3634 -0.0046
  567TMC3    O2 8420   0.867   0.925  13.847  0.2292 -0.3548 -0.2571
  568MPD2     C 8421   3.504   1.693  16.169  0.0173  0.3488  0.0557
  568MPD2    C1 8422   3.377   1.654  16.204 -0.0561  0.6664  0.2547
  568MPD2    C2 8423   3.268   1.723  16.152  0.0814  0.0875 -0.5010
  568MPD2    C3 8424   3.290   1.827  16.069  0.9042  0.0629 -0.2472
  568MPD2    C4 8425   3.417   1.873  16.034 -0.6988 -0.1412 -0.4653
  568MPD2    C5 8426   3.523   1.806  16.084 -0.2845 -0.1678  0.8182
  568MPD2     H 8427   3.166   1.691  16.172 -0.2332  1.9075  0.8377
  568MPD2    H1 8428   3.432   1.960  15.971  0.7446 -0.1144 -0.0848
  568MPD2    H2 8429   3.593   1.641  16.203  1.1092  1.9278 -0.3580
  568MPD2    H3 8430   3.622   1.822  16.043 -0.3280 -0.6178  0.5398
  568MPD2     N 8431   3.173   1.880  16.005  0.1959 -0.3395  0.2041
  568MPD2    H5 8432   3.089   1.826  16.020 -0.9687  1.4816  0.2512
  568MPD2    N1 8433   3.357   1.540  16.292 -0.2719  0.2640  0.0683
  568MPD2    H7 8434   3.440   1.485  16.310 -0.9238 -0.9681 -0.7309
  569TMC3    C1 8435   3.029   1.990  15.853 -0.5794  0.4259 -0.2187
  569TMC3    C2 8436   2.923   1.981  15.936 -0.8085 -0.6144  0.2104
  569TMC3    C3 8437   2.794   1.995  15.880 -0.3329 -0.0569  0.4874
  569TMC3    C4 8438   3.017   2.033  15.727  0.2500 -0.7280 -1.0352
  569TMC3    C5 8439   2.891   2.042  15.668  0.7315 -0.5743  0.3027
  569TMC3    C6 8440   2.781   2.010  15.747  0.4849  0.0083  0.3367
  569TMC3     C 8441   3.164   1.976  15.911 -0.2844 -0.0809  0.6736
  569TMC3     O 8442   3.246   2.040  15.848  0.2922  0.5283  0.6084
  569TMC3     H 8443   2.942   1.958  16.040  2.8527 -2.2975 -0.8193
  569TMC3    H1 8444   3.102   2.053  15.662  0.8392 -0.6620 -0.2384
  569TMC3    H2 8445   2.682   2.033  15.708 -0.4594 -1.9763  1.5549
  569TMC3    C7 8446   2.881   2.151  15.568  0.3625 -0.6612 -0.3713
  569TMC3    C8 8447   2.709   2.082  15.956  0.5472  0.0173  0.6845
  569TMC3    O1 8448   2.983   2.182  15.500  0.2405 -0.0610 -0.6535
  569TMC3    O2 8449   2.604   2.112  15.906  0.6213  0.2717 -0.0340
  570TMC3    C1 8450   2.173   0.486  16.340 -0.5202  0.0751 -0.0096
  570TMC3    C2 8451   2.265   0.510  16.234  0.0509 -0.0332  0.5155
  570TMC3    C3 8452   2.301   0.641  16.223  0.4491  0.1699 -0.8919
  570TMC3    C4 8453   2.136   0.588  16.428  0.1654 -0.4202 -0.2444
  570TMC3    C5 8454   2.174   0.717  16.402 -0.2023  0.1930 -0.5134
  570TMC3    C6 8455   2.256   0.746  16.297 -0.0351 -0.2788  0.2408
  570TMC3     C 8456   2.139   0.347  16.364  0.4412 -0.1984  0.9187
  570TMC3     O 8457   2.152   0.285  16.257  0.1650 -0.1253 -0.2467
  570TMC3     H 8458   2.313   0.431  16.178 -1.5552 -1.9090  1.7753
  570TMC3    H1 8459   2.078   0.557  16.514  1.3909 -0.9782  0.3813
  570TMC3    H2 8460   2.291   0.846  16.271 -0.2568 -0.1867  0.2944
  570TMC3    C7 8461   2.187   0.802  16.521 -0.0618  0.0843  0.8716
  570TMC3    C8 8462   2.387   0.679  16.110 -0.3634  0.5575  0.3949
  570TMC3    O1 8463   2.281   0.883  16.534 -0.2825 -0.0833 -0.0744
  570TMC3    O2 8464   2.431   0.788  16.093 -0.0224 -0.7602  0.2049
  571MPD2     C 8465   3.756   1.662   0.204 -0.1869 -0.2037  0.2638
  571MPD2    C1 8466   3.848   1.562   0.223 -0.0604  0.7514  0.0267
  571MPD2    C2 8467   3.981   1.591   0.209 -0.2125 -0.3978 -0.6195
  571MPD2    C3 8468   4.025   1.707   0.145 -0.2188  0.7399 -0.1745
  571MPD2    C4 8469   3.931   1.801   0.106 -0.5429  0.5896 -0.0059
  571MPD2    C5 8470   3.802   1.780   0.150 -0.4792  0.2094 -0.3022
  571MPD2     H 8471   4.050   1.510   0.232 -0.6864  0.1908  2.8203
  571MPD2    H1 8472   3.959   1.893   0.056 -1.7992  0.4073 -1.0470
  571MPD2    H2 8473   3.648   1.662   0.208 -0.2566  1.1102 -1.3367
  571MPD2    H3 8474   3.735   1.854   0.108  1.3402  0.6894 -2.3639
  571MPD2     N 8475   4.156   1.722   0.096  0.1394  0.1149 -0.1112
  571MPD2    H5 8476   4.163   1.780   0.013  1.2386 -3.2264 -2.3484
  571MPD2    N1 8477   3.805   1.433   0.248 -0.0301 -0.1527  0.0855
  571MPD2    H7 8478   3.705   1.419   0.259 -0.1438 -0.4622 -1.3299
  572TMC3    C1 8479   4.382   1.668   0.070 -0.1772 -0.4536  0.1623
  572TMC3    C2 8480   4.473   1.566   0.088  0.0894  0.2385  0.0207
  572TMC3    C3 8481   4.575   1.559   0.002  0.0923 -0.2245  0.4965
  572TMC3    C4 8482   4.399   1.763  17.678  0.0571  0.8080  0.3431
  572TMC3    C5 8483   4.499   1.752  17.589  0.3177  0.2733  0.0905
  572TMC3    C6 8484   4.586   1.646  17.605  0.2377 -0.3280 -0.2098
  572TMC3     C 8485   4.261   1.651   0.146 -0.7503  0.8555  0.1661
  572TMC3     O 8486   4.268   1.587   0.253 -0.9321  0.2826 -0.1052
  572TMC3     H 8487   4.455   1.488   0.162  0.6248  0.4357  0.3547
  572TMC3    H1 8488   4.324   1.835  17.650 -1.1455 -0.2402  0.8815
  572TMC3    H2 8489   4.674   1.637  17.543  0.2017  0.3910 -0.3652
  572TMC3    C7 8490   4.545   1.887  17.540 -0.4499 -0.2721  0.6173
  572TMC3    C8 8491   4.642   1.432  17.685  0.1616 -0.4061 -0.5408
  572TMC3    O1 8492   4.469   1.979  17.572 -0.4262  0.2934 -0.2627
  572TMC3    O2 8493   4.679   1.405  17.573 -0.8365 -0.2718  0.3578
  573MPD2     C 8494   1.017   2.135   0.319  0.0291  0.2139 -0.1122
  573MPD2    C1 8495   1.051   2.265   0.324 -0.5619 -0.1188  0.5558
  573MPD2    C2 8496   1.117   2.312   0.211  0.3638  0.6538  0.5024
  573MPD2    C3 8497   1.152   2.237   0.099  0.7556 -0.2674  0.5336
  573MPD2    C4 8498   1.111   2.107   0.099  0.1227 -0.3247  0.4425
  573MPD2    C5 8499   1.048   2.059   0.213 -0.4269 -0.4868 -0.3743
  573MPD2     H 8500   1.140   2.417   0.198  2.6693  0.3908  2.5427
  573MPD2    H1 8501   1.136   2.041   0.017 -0.7187 -0.9529  0.6872
  573MPD2    H2 8502   0.958   2.091   0.399 -0.7227  2.1680  0.4023
  573MPD2    H3 8503   1.007   1.958   0.209  1.4397 -1.2383 -0.3474
  573MPD2     N 8504   1.215   2.289  17.685  0.9553 -0.2191  0.5670
  573MPD2    H5 8505   1.219   2.223  17.608 -0.2285  1.3181 -0.8007
  573MPD2    N1 8506   1.006   2.341   0.433 -0.1695  0.4620 -0.6527
  573MPD2    H7 8507   0.953   2.299   0.508  0.6629  2.4397  1.0200
  574TMC3    C1 8508   1.310   2.435  17.540  0.6920 -0.6167 -0.0793
  574TMC3    C2 8509   1.199   2.424  17.448 -0.4883  0.6377 -0.5927
  574TMC3    C3 8510   1.202   2.506  17.337  0.1934 -0.1372  0.1109
  574TMC3    C4 8511   1.412   2.525  17.515 -0.1996  0.1013  0.0068
  574TMC3    C5 8512   1.412   2.595  17.399 -0.1366  0.5368  0.5667
  574TMC3    C6 8513   1.309   2.588  17.313 -0.7078  0.3411  0.1660
  574TMC3     C 8514   1.278   2.406  17.681 -0.2072  0.2585  0.7935
  574TMC3     O 8515   1.309   2.488   0.067  0.4759 -0.1565 -0.0742
  574TMC3     H 8516   1.108   2.377  17.481 -0.1244  1.6981  1.9102
  574TMC3    H1 8517   1.495   2.532  17.585  0.2767  1.9362 -0.7143
  574TMC3    H2 8518   1.315   2.646  17.222 -0.5664 -0.7489 -0.5302
  574TMC3    C7 8519   1.515   2.694  17.373 -0.0217 -0.3672  0.1235
  574TMC3    C8 8520   1.075   2.548  17.306  1.0827  0.2153 -0.6030
  574TMC3    O1 8521   1.527   2.733  17.257  0.8628 -0.3943 -0.1597
  574TMC3    O2 8522   0.983   2.467  17.297 -0.2094  0.1130  0.2639
  575TMC3    C1 8523   3.506   3.585  11.131  0.2493  0.1095 -0.1361
  575TMC3    C2 8524   3.439   3.470  11.169 -0.1177 -0.0212 -0.3614
  575TMC3    C3 8525   3.416   3.378  11.074 -0.0766  0.0598 -0.1811
  575TMC3    C4 8526   3.570   3.598  11.010  0.3634  0.1698  1.0048
  575TMC3    C5 8527   3.560   3.497  10.923  0.1096 -0.7546 -0.4175
  575TMC3    C6 8528   3.471   3.391  10.942 -0.8205 -0.1078  0.1852
  575TMC3     C 8529   3.527   3.679  11.239  0.1043  0.5353  0.5866
  575TMC3     O 8530   3.524   3.642  11.357 -0.2438  0.0751 -0.2617
  575TMC3     H 8531   3.377   3.483  11.256  2.6178  1.1300  1.4082
  575TMC3    H1 8532   3.652   3.668  11.004  2.7193 -2.5356  1.7515
  575TMC3    H2 8533   3.443   3.314  10.872 -2.3304  0.5847  0.0185
  575TMC3    C7 8534   3.621   3.514  10.791  0.0221  0.6151  0.1759
  575TMC3    C8 8535   3.335   3.261  11.101  0.4593 -0.6126  0.0564
  575TMC3    O1 8536   3.684   3.611  10.759  0.1448  0.3170  0.1320
  575TMC3    O2 8537   3.303   3.189  11.005  0.1639  0.2991 -0.0647
  576MPD2     C 8538   3.454   0.122  12.488 -0.3762 -0.3724 -0.4558
  576MPD2    C1 8539   3.454   0.243  12.425  0.7801  0.2010  0.3179
  576MPD2    C2 8540   3.377   0.341  12.480 -0.1977  0.5156 -0.0383
  576MPD2    C3 8541   3.310   0.316  12.604  0.1499  0.2659  0.1829
  576MPD2    C4 8542   3.319   0.190  12.665 -0.6077 -0.5589 -0.4104
  576MPD2    C5 8543   3.393   0.094  12.603 -0.3912  0.0044 -0.0731
  576MPD2     H 8544   3.377   0.442  12.441  0.9875  0.0067 -1.3432
  576MPD2    H1 8545   3.273   0.163  12.759  1.6582 -0.1592  0.8159
  576MPD2    H2 8546   3.521   0.043  12.456  1.2029  0.3581  1.0633
  576MPD2    H3 8547   3.399   4.723  12.652 -0.1089 -0.3155 -0.7362
  576MPD2     N 8548   3.236   0.424  12.672  0.1930 -0.8242  0.5560
  576MPD2    H5 8549   3.242   0.516  12.630 -0.8218  0.9469  4.3818
  576MPD2    N1 8550   3.528   0.280  12.305 -0.6633 -0.3503  0.4700
  576MPD2    H7 8551   3.512   0.374  12.270  4.3260  0.1699 -0.3490
  577TMC3    C1 8552   3.671   0.233  12.117 -0.8675 -0.3919 -0.3382
  577TMC3    C2 8553   3.709   0.141  12.024  0.3583 -0.1698 -0.0398
  577TMC3    C3 8554   3.784   0.169  11.914  0.1365 -0.3385  0.6254
  577TMC3    C4 8555   3.718   0.363  12.087  0.4858  0.5887 -0.1033
  577TMC3    C5 8556   3.797   0.384  11.976 -0.3804 -0.2166  0.1034
  577TMC3    C6 8557   3.832   0.293  11.892 -0.8238 -0.2051 -0.6691
  577TMC3     C 8558   3.593   0.184  12.231 -0.4713  0.0503 -0.3847
  577TMC3     O 8559   3.610   0.065  12.254 -0.2016  0.0119 -0.0363
  577TMC3     H 8560   3.673   0.039  12.032 -1.1131  0.4099  0.9191
  577TMC3    H1 8561   3.702   0.445  12.156 -2.8223 -1.8363  2.0349
  577TMC3    H2 8562   3.874   0.334  11.800  0.4382  0.1922  0.0972
  577TMC3    C7 8563   3.811   0.523  11.937 -0.3535 -0.2397 -0.6099
  577TMC3    C8 8564   3.822   0.060  11.824  0.4111 -0.0675  0.1215
  577TMC3    O1 8565   3.910   0.561  11.876  0.1879 -0.1011  0.6053
  577TMC3    O2 8566   3.757   4.684  11.840 -0.3861 -1.0315  0.2934
  578MPD2     C 8567   1.243   4.646   1.012  0.2411  0.6730 -0.3810
  578MPD2    C1 8568   1.355   4.698   0.943 -0.3268  0.6691 -0.3706
  578MPD2    C2 8569   1.479   4.689   1.001  0.3118  0.1041  0.8302
  578MPD2    C3 8570   1.493   4.624   1.121 -0.4781  0.0305  0.2628
  578MPD2    C4 8571   1.383   4.564   1.180 -0.4134 -0.1138  0.0736
  578MPD2    C5 8572   1.259   4.577   1.125  0.1620 -0.1278  0.1932
  578MPD2     H 8573   1.564   0.019   0.959  1.6850 -1.7016  1.2668
  578MPD2    H1 8574   1.386   4.523   1.280 -3.0492 -2.1726 -0.7031
  578MPD2    H2 8575   1.142   4.647   0.972  0.7573  1.9562 -1.6842
  578MPD2    H3 8576   1.169   4.538   1.170 -1.9328  2.3306 -1.9397
  578MPD2     N 8577   1.614   4.607   1.184  0.1795  0.1627 -0.0713
  578MPD2    H5 8578   1.613   4.553   1.269 -0.3143 -0.1646 -0.2838
  578MPD2    N1 8579   1.325   0.047   0.821  0.3843 -0.4149 -0.7772
  578MPD2    H7 8580   1.226   0.054   0.798 -0.0198 -1.4525  0.6165
  579TMC3    C1 8581   1.842   4.588   1.206 -0.5286 -0.3619 -0.5198
  579TMC3    C2 8582   1.948   4.668   1.247 -0.0935 -0.4316  0.0511
  579TMC3    C3 8583   2.045   4.610   1.312  0.5249 -0.4485  0.2777
  579TMC3    C4 8584   1.839   4.452   1.212  0.5559  0.4216  0.0270
  579TMC3    C5 8585   1.953   4.393   1.265  1.1872 -0.5733  0.9718
  579TMC3    C6 8586   2.055   4.470   1.318 -0.1154 -0.0674 -0.0612
  579TMC3     C 8587   1.736   4.652   1.140  0.1515 -0.4306 -0.1366
  579TMC3     O 8588   1.769   0.013   1.061 -0.4709  0.8500  0.2278
  579TMC3     H 8589   1.946   0.050   1.233  1.0730 -0.1857  1.7714
  579TMC3    H1 8590   1.753   4.400   1.171  0.0685 -0.4285  2.0849
  579TMC3    H2 8591   2.134   4.419   1.372 -0.5962 -0.7287  0.0138
  579TMC3    C7 8592   1.990   4.260   1.237  0.2394 -0.1531  1.2808
  579TMC3    C8 8593   2.124   4.697   1.395  0.2133  0.6610 -0.2329
  579TMC3    O1 8594   2.100   4.213   1.267  0.0490  0.6958  0.0726
  579TMC3    O2 8595   2.070   0.081   1.418  0.4639  0.3219 -0.4359
  580TMC3    C1 8596   1.948   0.078  11.968  0.5213  0.2456  0.2320
  580TMC3    C2 8597   2.004   0.070  11.844 -0.0838  0.3174 -0.0870
  580TMC3    C3 8598   2.037   4.674  11.791 -0.0146 -0.1210  0.1981
  580TMC3    C4 8599   1.921   4.690  12.033 -0.1147  0.0463 -0.2069
  580TMC3    C5 8600   1.945   4.569  11.971 -0.3353  0.6309  0.1237
  580TMC3    C6 8601   2.011   4.560  11.857  0.0865  0.2710 -0.4751
  580TMC3     C 8602   1.865   0.191  12.007 -0.2409  0.0869 -0.2007
  580TMC3     O 8603   1.801   0.186  12.109  0.8358  0.1255 -0.6709
  580TMC3     H 8604   1.988   0.151  11.774 -0.7401  0.8889  0.7160
  580TMC3    H1 8605   1.874   4.695  12.131  0.3183  0.5385 -0.0284
  580TMC3    H2 8606   2.040   4.464  11.815 -1.6297  0.1960 -1.4634
  580TMC3    C7 8607   1.847   4.469  12.000 -0.2623 -0.5787 -0.0439
  580TMC3    C8 8608   2.094   4.668  11.659 -0.4384  0.2733 -0.1629
  580TMC3    O1 8609   1.816   4.479  12.121 -0.2692 -0.4028 -0.2745
  580TMC3    O2 8610   2.105   4.564  11.595 -0.3306 -0.4515  0.1488
  581MPD2     C 8611   3.913   3.988  14.701 -0.3358 -0.4254 -0.1088
  581MPD2    C1 8612   3.902   4.058  14.811 -0.1632 -0.4181 -0.0483
  581MPD2    C2 8613   3.787   4.136  14.826 -0.2688 -0.2029 -0.4482
  581MPD2    C3 8614   3.703   4.153  14.721 -0.1865  0.1285  0.3515
  581MPD2    C4 8615   3.715   4.070  14.611 -0.6983 -0.2492 -0.5813
  581MPD2    C5 8616   3.817   3.979  14.608  0.1339  0.0306  0.1891
  581MPD2     H 8617   3.781   4.200  14.914 -0.2886 -0.4917 -0.2381
  581MPD2    H1 8618   3.652   4.069  14.524 -0.3710 -1.8802 -0.7890
  581MPD2    H2 8619   3.989   3.912  14.687  0.0043  0.0838 -1.0649
  581MPD2    H3 8620   3.824   3.907  14.528 -0.0588 -0.8423  0.9505
  581MPD2     N 8621   3.599   4.250  14.725  0.3248 -0.5392 -0.1525
  581MPD2    H5 8622   3.605   4.307  14.809 -1.0932  0.7995 -0.9727
  581MPD2    N1 8623   3.999   4.029  14.905  0.5063 -0.5507  0.3232
  581MPD2    H7 8624   4.079   3.972  14.879 -0.6740 -2.0239 -0.0602
  582TMC3    C1 8625   4.102   4.026  15.112 -0.4404  0.1883  0.2270
  582TMC3    C2 8626   4.149   4.116  15.201  0.2242 -0.1464  0.6942
  582TMC3    C3 8627   4.228   4.073  15.303  0.5500 -0.2572 -0.8108
  582TMC3    C4 8628   4.116   3.893  15.122 -0.1323 -0.7537  0.1739
  582TMC3    C5 8629   4.187   3.849  15.233  0.1796 -0.2087  0.0369
  582TMC3    C6 8630   4.261   3.939  15.308 -0.0034  0.4501 -0.2981
  582TMC3     C 8631   3.986   4.064  15.037  0.2526  0.1185 -0.3697
  582TMC3     O 8632   3.900   4.127  15.098 -0.0383  0.1301 -0.6039
  582TMC3     H 8633   4.107   4.215  15.203 -0.6833 -0.5402  1.0937
  582TMC3    H1 8634   4.058   3.827  15.058 -0.6900 -1.0600  0.9876
  582TMC3    H2 8635   4.315   3.897  15.393 -2.8637 -1.5098  0.5484
  582TMC3    C7 8636   4.188   3.711  15.272 -0.6946 -0.0421  0.4681
  582TMC3    C8 8637   4.206   4.144  15.426 -0.9158 -0.6289 -0.0999
  582TMC3    O1 8638   4.295   3.665  15.317 -0.9765 -0.1452  0.0841
  582TMC3    O2 8639   4.098   4.193  15.451 -0.6466 -0.4315  0.0997
  583MPD2     C 8640   3.916   1.045  16.631  0.0198 -0.1353 -0.0179
  583MPD2    C1 8641   3.862   1.159  16.581 -0.1010  0.2197  0.4459
  583MPD2    C2 8642   3.760   1.224  16.646  0.4704  0.1887 -0.9390
  583MPD2    C3 8643   3.703   1.172  16.761 -0.2234 -0.1415  0.2604
  583MPD2    C4 8644   3.738   1.044  16.798  0.7423  0.0960  0.2316
  583MPD2    C5 8645   3.846   0.987  16.741 -0.0832 -0.0425 -0.5046
  583MPD2     H 8646   3.739   1.324  16.610 -2.0728 -0.1178 -0.3287
  583MPD2    H1 8647   3.706   0.986  16.884 -1.7631  0.1689 -0.6504
  583MPD2    H2 8648   3.979   0.974  16.578  0.3320 -0.7427  1.1642
  583MPD2    H3 8649   3.857   0.882  16.765  0.0469  0.3209  1.0048
  583MPD2     N 8650   3.625   1.257  16.843  0.0018  0.3844 -0.1103
  583MPD2    H5 8651   3.605   1.348  16.803  0.9409  1.1007  1.0798
  583MPD2    N1 8652   3.921   1.211  16.465 -0.0349  0.3320  0.2288
  583MPD2    H7 8653   3.892   1.305  16.440 -0.1642  0.9364  2.6152
  584TMC3    C1 8654   3.496   1.337  17.028 -0.1968 -0.2554 -0.7171
  584TMC3    C2 8655   3.485   1.464  16.975 -0.0225 -0.3261  0.5497
  584TMC3    C3 8656   3.423   1.566  17.042  0.4198 -0.1095 -0.1686
  584TMC3    C4 8657   3.455   1.308  17.157  0.2490  0.3345  0.9124
  584TMC3    C5 8658   3.388   1.412  17.214  0.2094 -0.0668 -0.0542
  584TMC3    C6 8659   3.381   1.543  17.168  0.2473 -0.7040 -0.4826
  584TMC3     C 8660   3.570   1.227  16.967 -0.0368  0.5369 -0.1710
  584TMC3     O 8661   3.579   1.124  17.033  0.4284  0.5795  0.0152
  584TMC3     H 8662   3.521   1.486  16.875 -1.8211  1.8428  0.3989
  584TMC3    H1 8663   3.464   1.208  17.200  1.3116 -0.7640 -1.8676
  584TMC3    H2 8664   3.345   1.628  17.225  2.2181 -1.3872  1.8176
  584TMC3    C7 8665   3.312   1.386  17.334  0.2144 -0.1168 -0.1996
  584TMC3    C8 8666   3.454   1.698  16.998  0.0449 -0.0567 -0.1369
  584TMC3    O1 8667   3.356   1.302  17.414 -0.5766 -0.3584 -0.5287
  584TMC3    O2 8668   3.465   1.706  16.876 -0.0128 -0.1168 -0.1371
  585MPD2     C 8669   3.217   4.374   0.879  0.2078 -0.1161 -0.6967
  585MPD2    C1 8670   3.338   4.349   0.830 -0.0807 -0.3078 -0.4848
  585MPD2    C2 8671   3.372   4.413   0.711 -0.0635 -0.1621  0.6052
  585MPD2    C3 8672   3.281   4.495   0.645  0.4253  0.3185 -0.2911
  585MPD2    C4 8673   3.164   4.526   0.709 -0.2320 -0.2166 -0.6121
  585MPD2    C5 8674   3.138   4.468   0.824  0.0925 -0.5469  0.2918
  585MPD2     H 8675   3.473   4.408   0.673 -0.5911 -1.1398 -0.6946
  585MPD2    H1 8676   3.088   4.590   0.668  0.4103  1.5563  0.9268
  585MPD2    H2 8677   3.184   4.333   0.974 -0.7851  1.7739 -0.2400
  585MPD2    H3 8678   3.045   4.493   0.875 -0.9128  1.1159 -2.3453
  585MPD2     N 8679   3.309   4.547   0.518  0.1665 -0.0052 -0.0609
  585MPD2    H5 8680   3.229   4.598   0.481  1.2283  0.2804 -1.9307
  585MPD2    N1 8681   3.421   4.260   0.905  0.2130  0.0766 -1.0983
  585MPD2    H7 8682   3.383   4.216   0.988  0.1990  1.0230 -0.5940
  586TMC3    C1 8683   3.397   4.565   0.295 -0.0165  0.2080 -0.2870
  586TMC3    C2 8684   3.497   4.527   0.205 -0.4983 -0.4085  0.4046
  586TMC3    C3 8685   3.471   4.549   0.073  0.6100  0.3321 -0.5261
  586TMC3    C4 8686   3.284   4.632   0.255 -0.6168  0.5139  0.6176
  586TMC3    C5 8687   3.271   4.658   0.123  0.1380 -0.2415  0.1341
  586TMC3    C6 8688   3.358   4.618   0.033 -0.9857 -0.2364  0.2652
  586TMC3     C 8689   3.416   4.517   0.433 -0.1153 -1.4721  0.6435
  586TMC3     O 8690   3.520   4.457   0.462  0.0704  0.3595  0.7645
  586TMC3     H 8691   3.587   4.477   0.239  0.6970  0.1274 -1.9117
  586TMC3    H1 8692   3.201   4.645   0.324 -0.1171 -2.4953  1.8116
  586TMC3    H2 8693   3.332   4.616  17.629  2.4322 -0.5332 -0.5772
  586TMC3    C7 8694   3.138   4.692   0.086 -0.6077 -0.5708  0.2926
  586TMC3    C8 8695   3.533   4.454  17.683  0.5865 -0.9365 -0.2920
  586TMC3    O1 8696   3.098   4.619  17.697  0.4351 -0.5150  0.3451
  586TMC3    O2 8697   3.590   4.358   0.031 -0.3698  0.2293  0.1307
  587TMC3    C1 8698   1.125   3.503  16.667 -0.0180  0.1323 -0.4076
  587TMC3    C2 8699   1.116   3.624  16.611  0.5889  0.2787  0.1066
  587TMC3    C3 8700   1.228   3.686  16.561 -0.1264 -0.0532  0.4301
  587TMC3    C4 8701   1.241   3.447  16.686  0.3612 -0.1301 -0.7047
  587TMC3    C5 8702   1.359   3.516  16.657 -0.3389  0.1554  0.5056
  587TMC3    C6 8703   1.355   3.636  16.583 -0.6113 -0.2424 -0.0965
  587TMC3     C 8704   1.006   3.429  16.724  0.2125 -0.7955 -0.3766
  587TMC3     O 8705   1.026   3.308  16.737  0.1607 -0.3067 -0.0837
  587TMC3     H 8706   1.017   3.661  16.585  0.6347 -0.5395 -1.2686
  587TMC3    H1 8707   1.257   3.356  16.744  4.4120  0.0466 -1.5275
  587TMC3    H2 8708   1.437   3.698  16.549 -1.8830  2.1123  1.1980
  587TMC3    C7 8709   1.484   3.463  16.703 -0.2229  0.0043 -0.9748
  587TMC3    C8 8710   1.207   3.807  16.478 -0.0216  0.4373 -0.7265
  587TMC3    O1 8711   1.484   3.342  16.721 -0.2412  0.2935  0.1073
  587TMC3    O2 8712   1.299   3.854  16.411  0.3378  0.0250 -0.1145
  588TMC3    C1 8713   2.961   1.584  10.201  0.4474  0.4541 -0.8069
  588TMC3    C2 8714   2.983   1.572  10.068  0.5924 -0.1413  0.2897
  588TMC3    C3 8715   3.055   1.461  10.028 -0.3170  0.1881 -0.0062
  588TMC3    C4 8716   3.021   1.505  10.295  0.2330 -0.0493  0.2052
  588TMC3    C5 8717   3.127   1.430  10.255  0.6207 -0.1158  0.2481
  588TMC3    C6 8718   3.147   1.410  10.117  0.6466 -0.2251 -0.2149
  588TMC3     C 8719   2.966   1.715  10.255 -0.8613  0.4326 -0.3546
  588TMC3     O 8720   3.023   1.726  10.366 -0.1053  0.1124  0.0337
  588TMC3     H 8721   2.936   1.645  10.002 -0.6861 -0.7059  0.5822
  588TMC3    H1 8722   2.995   1.501  10.400 -2.6675 -0.3366 -0.5216
  588TMC3    H2 8723   3.228   1.340  10.101 -0.4464 -1.7594  0.9541
  588TMC3    C7 8724   3.257   1.438  10.329 -0.2564  0.2373 -0.4374
  588TMC3    C8 8725   2.981   1.379   9.935 -0.4055 -0.0656 -0.0630
  588TMC3    O1 8726   3.350   1.362  10.302 -0.1099  0.1116  0.6575
  588TMC3    O2 8727   2.885   1.434   9.886 -0.1770 -0.3033  0.0307
  589TMC3    C1 8728   1.792   2.778   1.142  0.4433 -0.0783 -0.1766
  589TMC3    C2 8729   1.907   2.779   1.224  0.7992 -0.0767  0.3872
  589TMC3    C3 8730   1.983   2.669   1.238 -0.1607 -0.1809  0.2862
  589TMC3    C4 8731   1.763   2.670   1.063  0.0780  0.6157  0.3936
  589TMC3    C5 8732   1.848   2.560   1.082  0.4482 -0.5806  0.0013
  589TMC3    C6 8733   1.957   2.557   1.172  0.2571 -0.2047  0.3726
  589TMC3     C 8734   1.703   2.896   1.143  0.1855 -0.4268  0.8142
  589TMC3     O 8735   1.607   2.882   1.072  0.6502  0.2090 -0.1530
  589TMC3     H 8736   1.936   2.867   1.280  0.8737 -0.9544  1.7370
  589TMC3    H1 8737   1.673   2.674   1.003 -0.0962  4.2783  0.8789
  589TMC3    H2 8738   2.026   2.474   1.180  3.0108  1.7616 -2.8317
  589TMC3    C7 8739   1.834   2.437   1.008 -0.8652 -0.0125  0.3115
  589TMC3    C8 8740   2.116   2.695   1.302 -0.6110  0.2857 -0.0327
  589TMC3    O1 8741   1.844   2.331   1.066 -0.2224  0.8172  0.5741
  589TMC3    O2 8742   2.125   2.793   1.380 -0.0076  0.0447  0.0083
  590MPD2     C 8743   1.509   1.664  16.515  0.5631  0.1908  0.1997
  590MPD2    C1 8744   1.451   1.746  16.423 -0.1963 -0.6257  0.3545
  590MPD2    C2 8745   1.536   1.832  16.355  0.0322 -0.3154 -0.2136
  590MPD2    C3 8746   1.670   1.830  16.366  0.1177 -0.6046  0.7147
  590MPD2    C4 8747   1.724   1.728  16.434  0.0078 -0.1056  0.3717
  590MPD2    C5 8748   1.641   1.647  16.513 -0.4347 -0.2341  0.4884
  590MPD2     H 8749   1.491   1.918  16.305 -0.3269 -0.0990  0.4925
  590MPD2    H1 8750   1.831   1.710  16.429  0.2215  1.0096  0.7214
  590MPD2    H2 8751   1.448   1.596  16.574  2.0796  0.8496  2.4896
  590MPD2    H3 8752   1.692   1.572  16.573 -1.0797 -0.4116  0.8166
  590MPD2     N 8753   1.739   1.932  16.292  0.3486  0.3693 -0.4252
  590MPD2    H5 8754   1.678   2.005  16.256 -0.0248  0.3889  0.2425
  590MPD2    N1 8755   1.317   1.747  16.409 -0.0270 -0.1331  0.1470
  590MPD2    H7 8756   1.271   1.678  16.468  0.2392 -0.7364 -0.3487
  591TMC3    C1 8757   1.910   2.045  16.180  0.3857 -0.5385  0.3775
  591TMC3    C2 8758   1.946   2.007  16.056  0.0347  0.3272 -0.0533
  591TMC3    C3 8759   1.941   2.105  15.957 -0.6898  0.2852  0.5568
  591TMC3    C4 8760   1.865   2.165  16.217 -0.2697 -0.2312  0.2969
  591TMC3    C5 8761   1.850   2.253  16.114  0.1375 -0.4378 -0.3361
  591TMC3    C6 8762   1.892   2.233  15.984 -0.3033  0.0742  0.7415
  591TMC3     C 8763   1.873   1.938  16.272  0.1567  0.1832 -0.4398
  591TMC3     O 8764   1.955   1.845  16.287 -0.2960 -0.0674 -0.3435
  591TMC3     H 8765   1.964   1.905  16.023  1.6228  0.8768 -0.8550
  591TMC3    H1 8766   1.823   2.189  16.314  1.3304  1.8380  0.4663
  591TMC3    H2 8767   1.858   2.294  15.901 -1.2528 -1.1681  0.2211
  591TMC3    C7 8768   1.837   2.392  16.153  0.0314  0.2144 -0.1392
  591TMC3    C8 8769   1.969   2.055  15.822 -0.0438  0.2363 -0.0896
  591TMC3    O1 8770   1.799   2.428  16.262 -0.2050 -0.1673  0.0285
  591TMC3    O2 8771   1.998   1.937  15.809  0.1309  0.3740  0.1565
  592MPD2     C 8772   2.258   4.103  11.254 -0.0919 -0.7987 -0.0845
  592MPD2    C1 8773   2.272   4.153  11.379  0.5181 -0.1137  0.3540
  592MPD2    C2 8774   2.219   4.091  11.493  0.3645  0.0310 -0.5581
  592MPD2    C3 8775   2.159   3.967  11.474  0.1331 -0.1308  0.4112
  592MPD2    C4 8776   2.153   3.912  11.342  0.3230 -0.4503 -0.1204
  592MPD2    C5 8777   2.202   3.978  11.237  0.2376  0.6377  0.1834
  592MPD2     H 8778   2.226   4.146  11.586  1.7916 -0.8116 -0.1624
  592MPD2    H1 8779   2.091   3.825  11.321 -0.2273 -0.5038  1.7454
  592MPD2    H2 8780   2.308   4.149  11.170 -0.5248  0.4787  0.3613
  592MPD2    H3 8781   2.204   3.943  11.134  1.8534 -0.1646  0.4952
  592MPD2     N 8782   2.100   3.918  11.592 -0.6517  0.2928  0.1914
  592MPD2    H5 8783   2.110   3.971  11.678  1.0777  2.3082 -1.2583
  592MPD2    N1 8784   2.351   4.269  11.382  0.3113  0.3121  0.2475
  592MPD2    H7 8785   2.373   4.310  11.292  1.0162  0.7323  0.6094
  593TMC3    C1 8786   2.476   4.458  11.453 -0.0966 -0.2466 -0.7929
  593TMC3    C2 8787   2.509   4.554  11.548 -0.5348  0.2408 -1.0030
  593TMC3    C3 8788   2.584   4.664  11.506  0.1472  0.3175 -0.1925
  593TMC3    C4 8789   2.528   4.462  11.326 -0.5765  0.1075 -0.2621
  593TMC3    C5 8790   2.590   4.576  11.290  0.6439 -0.7377  0.1389
  593TMC3    C6 8791   2.614   4.680  11.373  0.2999  0.4288  0.3855
  593TMC3     C 8792   2.390   4.342  11.485  1.0933 -0.3619 -1.1951
  593TMC3     O 8793   2.370   4.325  11.603 -0.4675  0.1011  0.2424
  593TMC3     H 8794   2.464   4.546  11.646 -1.1918 -0.4302 -1.3585
  593TMC3    H1 8795   2.511   4.384  11.253  1.4656 -2.3964  1.9537
  593TMC3    H2 8796   2.672   0.045  11.351 -1.6730  1.4609 -0.5470
  593TMC3    C7 8797   2.621   4.605  11.149  0.0951  0.2746  0.5840
  593TMC3    C8 8798   2.613   0.049  11.591  0.9800 -0.2599 -0.3500
  593TMC3    O1 8799   2.677   4.715  11.126 -1.0111 -0.2449 -0.3517
  593TMC3    O2 8800   2.633   0.157  11.540 -0.4272 -0.0039  0.2031
  594MPD2     C 8801   0.592   3.254  13.759  0.2616  0.1469 -0.1284
  594MPD2    C1 8802   0.607   3.230  13.893  0.4202  0.1555 -0.2418
  594MPD2    C2 8803   0.714   3.285  13.961  0.0602  0.1870  0.5713
  594MPD2    C3 8804   0.823   3.332  13.890  0.3566  0.0059 -0.7083
  594MPD2    C4 8805   0.823   3.330  13.754 -0.7739 -0.9872 -0.3554
  594MPD2    C5 8806   0.705   3.288  13.693  0.1755 -0.0557  0.0417
  594MPD2     H 8807   0.712   3.275  14.069 -1.7404 -1.0894  0.4187
  594MPD2    H1 8808   0.909   3.370  13.702 -2.0728  2.7409  0.3005
  594MPD2    H2 8809   0.505   3.220  13.704 -0.6020  0.3814  1.0841
  594MPD2    H3 8810   0.703   3.298  13.585 -0.0990 -2.6381 -0.2064
  594MPD2     N 8811   0.933   3.369  13.978 -1.2071  0.3454  0.3666
  594MPD2    H5 8812   0.913   3.378  14.077  2.6813 -1.2500  1.2767
  594MPD2    N1 8813   0.503   3.152  13.950  0.0340  0.1874  0.3394
  594MPD2    H7 8814   0.428   3.127  13.886 -1.0699  0.3978  1.5607
  595TMC3    C1 8815   1.364   3.429  14.132 -0.1357  0.3123 -0.3466
  595TMC3    C2 8816   1.291   3.416  14.014  0.4568  0.2400 -0.2844
  595TMC3    C3 8817   1.157   3.445  14.030 -0.1983 -0.0317 -0.1442
  595TMC3    C4 8818   1.314   3.487  14.251 -0.2784 -0.5953  0.1237
  595TMC3    C5 8819   1.184   3.520  14.252  0.2409 -0.4849 -0.0905
  595TMC3    C6 8820   1.101   3.503  14.145 -2.0824 -0.0774 -0.5408
  595TMC3     C 8821   1.505   3.388  14.146 -0.2301  0.3145  0.7314
  595TMC3     O 8822   1.544   3.376  14.260 -0.3149  0.2777 -0.0151
  595TMC3     H 8823   1.329   3.374  13.922 -2.4391 -2.9901  0.0078
  595TMC3    H1 8824   1.375   3.499  14.340 -2.2969 -2.0633  1.7115
  595TMC3    H2 8825   0.997   3.531  14.158 -1.8993 -0.7159  2.3709
  595TMC3    C7 8826   1.125   3.577  14.374 -0.2809  0.1089  0.3889
  595TMC3    C8 8827   1.062   3.383  13.935 -0.9045 -0.3074  0.5998
  595TMC3    O1 8828   1.016   3.523  14.410  0.1180 -0.4756  0.4659
  595TMC3    O2 8829   1.105   3.335  13.832 -0.2605 -0.4621  0.5896
  596MPD2     C 8830   4.699   0.837  16.722  0.2159 -0.3589 -0.1190
  596MPD2    C1 8831   4.719   0.974  16.695  0.0090 -1.0171 -0.0277
  596MPD2    C2 8832   0.021   1.002  16.560 -0.5319 -0.1669 -0.0434
  596MPD2    C3 8833   0.025   0.905  16.457  0.6709  0.1576  0.2342
  596MPD2    C4 8834   0.017   0.773  16.490  0.3637 -0.1439  0.5120
  596MPD2    C5 8835   4.714   0.738  16.620  0.3050  0.8803  0.6932
  596MPD2     H 8836   0.023   1.109  16.541  0.6130 -0.1616  0.1045
  596MPD2    H1 8837   0.021   0.697  16.413 -1.2661 -0.6398  0.9254
  596MPD2    H2 8838   4.673   0.801  16.821 -1.5901  0.1466 -0.4169
  596MPD2    H3 8839   4.699   0.635  16.650  2.0015  0.1634 -0.8991
  596MPD2     N 8840   0.036   0.932  16.321  0.1591 -0.0428  0.0865
  596MPD2    H5 8841   0.057   0.860  16.254  3.8426 -0.0239  1.2394
  596MPD2    N1 8842   4.712   1.075  16.796  0.4961 -0.1455  0.1620
  596MPD2    H7 8843   0.008   1.172  16.776 -1.6527  0.1306 -0.7111
  597TMC3    C1 8844   4.610   1.175  16.986  0.8263 -0.5811  0.0676
  597TMC3    C2 8845   4.704   1.270  16.980  0.2648 -1.0401  0.0929
  597TMC3    C3 8846   4.669   1.392  17.019  0.1849 -0.2851 -0.3200
  597TMC3    C4 8847   4.481   1.190  17.030  0.1452 -0.9676  0.3358
  597TMC3    C5 8848   4.446   1.318  17.052  0.0166  0.0098  1.0354
  597TMC3    C6 8849   4.535   1.420  17.054  0.1213  0.5972 -0.1104
  597TMC3     C 8850   4.636   1.049  16.915 -0.0235 -0.1294  0.6003
  597TMC3     O 8851   4.562   0.959  16.933 -0.6504  0.0951 -0.2642
  597TMC3     H 8852   0.082   1.262  16.946  0.6529  0.1654  0.9750
  597TMC3    H1 8853   4.414   1.105  17.031 -0.2669 -0.6269  1.7843
  597TMC3    H2 8854   4.509   1.514  17.101  1.3216  1.3321 -0.9321
  597TMC3    C7 8855   4.306   1.341  17.097  0.4194 -0.0085 -0.3836
  597TMC3    C8 8856   0.033   1.507  16.980  0.0541  0.0864 -0.3010
  597TMC3    O1 8857   4.247   1.252  17.161  0.2050 -0.0741 -0.2712
  597TMC3    O2 8858   4.712   1.622  16.975  0.2774  0.0609  0.3047
  598TMC3    C1 8859   3.066   2.328  15.229 -0.3519  0.9681  0.6681
  598TMC3    C2 8860   3.048   2.196  15.206  0.1181 -0.5412 -0.4079
  598TMC3    C3 8861   2.986   2.157  15.091 -0.6014  0.1199 -0.1080
  598TMC3    C4 8862   3.025   2.425  15.135 -0.3572  0.3076 -0.6892
  598TMC3    C5 8863   2.958   2.379  15.022  0.2027 -0.5442  0.4093
  598TMC3    C6 8864   2.935   2.245  15.006  0.1024  0.1040  0.1736
  598TMC3     C 8865   3.178   2.378  15.305 -0.7404 -0.4348 -0.4598
  598TMC3     O 8866   3.230   2.476  15.257 -1.0268  0.1460 -0.7135
  598TMC3     H 8867   3.089   2.123  15.275 -0.2156  0.2030  0.5741
  598TMC3    H1 8868   3.033   2.531  15.157 -2.3857 -0.0789  1.8749
  598TMC3    H2 8869   2.868   2.222  14.923  1.0792  0.7421 -0.7814
  598TMC3    C7 8870   2.921   2.468  14.913 -0.1100 -0.5316  0.9573
  598TMC3    C8 8871   2.930   2.020  15.086 -0.3950  0.0049 -0.1095
  598TMC3    O1 8872   2.835   2.424  14.837  0.0328  0.1052 -0.0017
  598TMC3    O2 8873   3.004   1.928  15.118 -0.4141 -0.2164  0.0286
  599MPD2     C 8874   2.847   0.017  15.565  0.3122 -0.0952 -0.0247
  599MPD2    C1 8875   2.868   4.627  15.634  0.3273  0.0143 -0.4549
  599MPD2    C2 8876   2.799   4.612  15.753  1.1010 -0.0452 -0.2497
  599MPD2    C3 8877   2.712   4.713  15.799  0.0209  0.0286  1.2697
  599MPD2    C4 8878   2.699   0.107  15.732  0.3250 -0.4570 -0.8668
  599MPD2    C5 8879   2.766   0.119  15.614 -0.5030 -0.1207  0.4745
  599MPD2     H 8880   2.809   4.525  15.816  3.4785  0.6569  0.3291
  599MPD2    H1 8881   2.627   0.182  15.762  1.2560  1.1566 -2.6578
  599MPD2    H2 8882   2.882   0.041  15.465  1.7943  1.0346  0.7564
  599MPD2    H3 8883   2.755   0.208  15.554 -0.0273 -1.4393 -1.5504
  599MPD2     N 8884   2.642   4.694  15.921  0.5299  0.0990  0.0578
  599MPD2    H5 8885   2.579   0.047  15.938 -0.2272 -0.1027 -1.8195
  599MPD2    N1 8886   2.952   4.531  15.576  0.3852 -0.2903 -0.4480
  599MPD2    H7 8887   2.989   4.541  15.482  0.0660 -1.0743 -0.6623
  600TMC3    C1 8888   2.536   4.605  16.110 -0.3620 -0.9462  0.6377
  600TMC3    C2 8889   2.437   4.510  16.136  0.0840  0.9048  0.1802
  600TMC3    C3 8890   2.337   4.551  16.223 -0.2567 -0.0770 -0.4988
  600TMC3    C4 8891   2.546   0.000  16.169 -0.5449 -0.5941 -0.4184
  600TMC3    C5 8892   2.451   0.037  16.256  0.5762 -1.0494 -0.2013
  600TMC3    C6 8893   2.352   4.676  16.282  0.4597  0.1800  0.5264
  600TMC3     C 8894   2.612   4.577  15.992 -0.0694  0.6196 -1.2329
  600TMC3     O 8895   2.636   4.458  15.964 -0.4683 -0.2603  0.2744
  600TMC3     H 8896   2.439   4.414  16.087  1.1886 -0.3478  2.6591
  600TMC3    H1 8897   2.640   0.055  16.171  0.0168 -1.5045 -1.5468
  600TMC3    H2 8898   2.283   4.687  16.365  0.7611 -1.2170  0.9636
  600TMC3    C7 8899   2.476   0.150  16.350 -0.0110 -0.1557  0.6003
  600TMC3    C8 8900   2.206   4.504  16.173  0.7460  0.7403 -0.0945
  600TMC3    O1 8901   2.420   0.144  16.458  0.2741  0.4035 -0.7440
  600TMC3    O2 8902   2.192   4.393  16.128  0.5096  0.3369 -0.3073
  601MPD2     C 8903   0.110   2.192  17.257 -0.0666 -0.1597 -0.2695
  601MPD2    C1 8904   4.716   2.219  17.315  0.7401 -0.4558 -0.0021
  601MPD2    C2 8905   4.657   2.120  17.390  0.5411  0.2762 -0.2526
  601MPD2    C3 8906   4.710   1.989  17.395 -0.0955 -0.0024  0.7427
  601MPD2    C4 8907   0.106   1.969  17.336 -0.4403 -0.0528 -0.4210
  601MPD2    C5 8908   0.165   2.067  17.266 -0.6724  0.2143  0.1279
  601MPD2     H 8909   4.563   2.141  17.440  0.3815 -0.9104 -0.0642
  601MPD2    H1 8910   0.166   1.879  17.345 -1.3545 -0.5159  1.1488
  601MPD2    H2 8911   0.163   2.265  17.196 -0.3260 -0.5971 -1.0181
  601MPD2    H3 8912   0.264   2.054  17.223  0.4067  1.1199  2.3333
  601MPD2     N 8913   4.657   1.874  17.461  0.4653  0.2438 -0.4471
  601MPD2    H5 8914   4.685   1.782  17.429  0.6972  0.5071 -1.0135
  601MPD2    N1 8915   4.645   2.336  17.304 -0.1722 -0.0324 -0.4333
  601MPD2    H7 8916   4.550   2.343  17.339 -0.0432  3.0784 -0.6828
  602TMC3    C1 8917   4.607   2.567  17.232  0.3116  0.3192  0.3844
  602TMC3    C2 8918   4.471   2.555  17.247 -0.3771 -0.1347  0.4366
  602TMC3    C3 8919   4.391   2.662  17.220 -0.1911 -0.8361 -0.3090
  602TMC3    C4 8920   4.662   2.688  17.208 -0.3810 -0.5960  0.0650
  602TMC3    C5 8921   4.575   2.797  17.194  0.4128 -0.7668  0.0990
  602TMC3    C6 8922   4.441   2.783  17.188 -0.0410 -0.6159 -0.1256
  602TMC3     C 8923   4.701   2.455  17.254 -0.5383  0.3075 -0.3785
  602TMC3     O 8924   0.094   2.483  17.226 -0.0174  0.0437 -0.0716
  602TMC3     H 8925   4.422   2.464  17.279  1.0675 -0.3284  2.1293
  602TMC3    H1 8926   0.041   2.698  17.177 -0.5505  0.7583 -0.0696
  602TMC3    H2 8927   4.383   2.856  17.134 -0.5834 -1.0278 -0.1011
  602TMC3    C7 8928   4.637   2.931  17.182  0.3323 -0.1733  0.4837
  602TMC3    C8 8929   4.249   2.650  17.268 -0.3713  0.4397  0.8426
  602TMC3    O1 8930   0.033   2.946  17.173 -0.3056  0.0652  0.1677
  602TMC3    O2 8931   4.189   2.543  17.252  0.3557 -0.3236 -0.2636
  603TMC3    C1 8932   3.247   3.506  10.636  0.0614  0.6383 -0.4489
  603TMC3    C2 8933   3.198   3.518  10.763 -0.8246 -0.2920  0.0405
  603TMC3    C3 8934   3.149   3.644  10.802  0.3479  0.1423 -0.9816
  603TMC3    C4 8935   3.237   3.605  10.549 -0.6915  0.0562 -0.0129
  603TMC3    C5 8936   3.192   3.726  10.591  0.0753  0.1123  0.1140
  603TMC3    C6 8937   3.159   3.749  10.723  0.5931  0.1903 -0.0415
  603TMC3     C 8938   3.254   3.383  10.575 -0.1748 -0.4399  0.3524
  603TMC3     O 8939   3.300   3.294  10.651  0.3843 -0.7729 -0.1356
  603TMC3     H 8940   3.212   3.438  10.835  1.1712  0.7792  0.8420
  603TMC3    H1 8941   3.277   3.592  10.449 -1.0797 -2.2738  0.1206
  603TMC3    H2 8942   3.100   3.838  10.741  0.8859  0.4376 -0.3323
  603TMC3    C7 8943   3.201   3.847  10.509 -0.1809 -0.0500  0.1617
  603TMC3    C8 8944   3.144   3.666  10.950  0.2517 -0.0111 -0.0233
  603TMC3    O1 8945   3.219   3.953  10.571 -0.0997 -0.3079 -0.2668
  603TMC3    O2 8946   3.175   3.568  11.022 -0.2954 -0.1149 -0.1328
  604MPD2     C 8947   3.752   1.891  16.304 -0.1151  0.4042  0.7755
  604MPD2    C1 8948   3.722   2.022  16.274 -0.2661 -0.7812  0.5138
  604MPD2    C2 8949   3.785   2.090  16.172  0.2929  0.2352  0.0690
  604MPD2    C3 8950   3.872   2.026  16.091  0.0556 -0.2916 -0.0483
  604MPD2    C4 8951   3.903   1.894  16.117 -0.1859  0.1851 -0.1811
  604MPD2    C5 8952   3.845   1.826  16.226  0.0858 -0.2271  0.1688
  604MPD2     H 8953   3.754   2.194  16.168  2.8178  1.1321  3.6602
  604MPD2    H1 8954   3.976   1.837  16.059  1.1408  1.0025  0.6978
  604MPD2    H2 8955   3.717   1.830  16.386  2.7698  0.2460  1.8742
  604MPD2    H3 8956   3.865   1.720  16.240 -1.2955 -0.4143  0.6718
  604MPD2     N 8957   3.943   2.114  16.000 -0.2774  0.5717 -0.4348
  604MPD2    H5 8958   3.900   2.206  15.997  1.1681  1.1901 -2.1379
  604MPD2    N1 8959   3.627   2.095  16.347  0.2280  0.4324 -0.2784
  604MPD2    H7 8960   3.607   2.189  16.314 -3.5704 -0.1611  0.3028
  605TMC3    C1 8961   3.464   2.171  16.474 -0.2692 -0.3453  0.1362
  605TMC3    C2 8962   3.469   2.218  16.602  0.9730 -0.4940  0.1805
  605TMC3    C3 8963   3.412   2.340  16.621 -0.1239 -0.3067  0.2694
  605TMC3    C4 8964   3.387   2.227  16.371 -0.5525 -0.3085  0.2721
  605TMC3    C5 8965   3.308   2.334  16.406  0.5046  0.7132 -0.4443
  605TMC3    C6 8966   3.327   2.393  16.526  0.3568  0.0776 -0.4755
  605TMC3     C 8967   3.549   2.060  16.451 -0.0825  0.2213  0.2939
  605TMC3     O 8968   3.567   1.983  16.548  0.3432  0.1464  0.5392
  605TMC3     H 8969   3.548   2.173  16.661  1.1657 -0.5120 -0.0928
  605TMC3    H1 8970   3.364   2.168  16.283  0.0309  0.1964 -0.2141
  605TMC3    H2 8971   3.288   2.494  16.531 -0.0522 -0.1432  0.7780
  605TMC3    C7 8972   3.208   2.394  16.318 -0.0931  0.4786  0.3748
  605TMC3    C8 8973   3.492   2.439  16.678  0.9581  0.1248 -0.1375
  605TMC3    O1 8974   3.122   2.463  16.372  0.9463 -0.3707 -0.0214
  605TMC3    O2 8975   3.493   2.545  16.617 -0.1614  0.2836 -0.1144
  606TMC3    C1 8976   0.333   0.568  17.365 -0.2062  0.3735 -0.1117
  606TMC3    C2 8977   0.470   0.565  17.343 -0.2887  0.1188  0.5110
  606TMC3    C3 8978   0.542   0.451  17.382  0.6985  0.1903 -0.3637
  606TMC3    C4 8979   0.260   0.461  17.426  0.4205 -0.1656 -0.1977
  606TMC3    C5 8980   0.332   0.345  17.430  0.6310  0.1539  0.5378
  606TMC3    C6 8981   0.471   0.340  17.419  0.3018 -0.3003  0.2368
  606TMC3     C 8982   0.275   0.698  17.364 -0.4023 -0.1158 -0.3552
  606TMC3     O 8983   0.334   0.806  17.378  0.0686 -0.1284  0.0505
  606TMC3     H 8984   0.513   0.656  17.303 -0.0456 -0.2465 -0.0657
  606TMC3    H1 8985   0.155   0.465  17.450  0.7713  2.9118  0.7394
  606TMC3    H2 8986   0.520   0.244  17.429 -1.4584 -1.1798  0.2890
  606TMC3    C7 8987   0.261   0.219  17.450 -0.3710  0.0865  0.0975
  606TMC3    C8 8988   0.684   0.459  17.394 -0.7923 -0.1520  0.9456
  606TMC3    O1 8989   0.324   0.129  17.497  0.8440 -0.3036 -0.5976
  606TMC3    O2 8990   0.747   0.356  17.387 -0.0747  0.1250  0.0842
  607MPD2     C 8991   2.706   3.364  11.412 -0.0062 -0.3558 -0.7675
  607MPD2    C1 8992   2.641   3.477  11.463 -0.4831 -0.4395  1.5761
  607MPD2    C2 8993   2.543   3.460  11.557  0.0527  0.1624 -0.1954
  607MPD2    C3 8994   2.516   3.341  11.620 -0.0004  0.0791 -0.2245
  607MPD2    C4 8995   2.580   3.235  11.565 -1.3739 -1.2454 -0.0150
  607MPD2    C5 8996   2.680   3.246  11.466 -0.0281 -0.3612  0.0696
  607MPD2     H 8997   2.486   3.540  11.602  2.3564  2.9379 -2.2388
  607MPD2    H1 8998   2.561   3.137  11.608  1.0728 -0.2517  3.3199
  607MPD2    H2 8999   2.790   3.373  11.345  1.2155  0.4163  0.8701
  607MPD2    H3 9000   2.758   3.180  11.428 -0.7211 -1.4497  0.5457
  607MPD2     N 9001   2.426   3.326  11.731 -0.4167 -0.2450  0.8517
  607MPD2    H5 9002   2.378   3.412  11.756  0.4442  1.4517 -3.4108
  607MPD2    N1 9003   2.653   3.610  11.416 -0.2638 -0.4456 -0.0601
  607MPD2    H7 9004   2.588   3.676  11.457 -0.1919 -0.0008 -0.6638
  608TMC3    C1 9005   2.755   3.810  11.348  0.9758  0.9691  0.0427
  608TMC3    C2 9006   2.690   3.856  11.461 -0.1091  0.3463 -0.1850
  608TMC3    C3 9007   2.669   3.991  11.461 -0.1788 -0.1483  0.1995
  608TMC3    C4 9008   2.792   3.882  11.244  0.6900  0.8211  0.9849
  608TMC3    C5 9009   2.771   4.017  11.245 -1.4218 -1.2102  0.0795
  608TMC3    C6 9010   2.708   4.073  11.351 -0.1118 -0.6110 -0.7181
  608TMC3     C 9011   2.756   3.663  11.343  0.1135  0.0378 -1.0204
  608TMC3     O 9012   2.848   3.618  11.275  0.1835  0.1019 -0.6472
  608TMC3     H 9013   2.678   3.796  11.551 -0.4677 -2.0046 -1.7917
  608TMC3    H1 9014   2.826   3.835  11.152  1.2379 -0.0827  1.6569
  608TMC3    H2 9015   2.683   4.179  11.345  1.4030 -0.0492  2.7751
  608TMC3    C7 9016   2.782   4.092  11.122  0.0961 -0.3040  0.2426
  608TMC3    C8 9017   2.604   4.047  11.583  0.6145 -0.1245  1.3045
  608TMC3    O1 9018   2.783   4.032  11.016 -0.3204  0.1837  0.1880
  608TMC3    O2 9019   2.645   4.145  11.638  0.3038 -0.3686 -0.6248
  609TMC3    C1 9020   0.326   3.174   9.098 -0.0278  0.1217  1.0863
  609TMC3    C2 9021   0.324   3.289   9.028 -0.6711  0.7197 -0.3404
  609TMC3    C3 9022   0.449   3.343   8.989 -0.0253  0.4842 -0.3790
  609TMC3    C4 9023   0.443   3.100   9.120 -0.8119 -0.4790 -0.4750
  609TMC3    C5 9024   0.562   3.158   9.076 -0.8086  0.8276  0.0382
  609TMC3    C6 9025   0.562   3.271   8.998  0.5100 -0.3617 -0.0213
  609TMC3     C 9026   0.209   3.098   9.127  0.3008  0.7109 -0.3739
  609TMC3     O 9027   0.219   2.977   9.147  0.0277 -0.1671 -0.0521
  609TMC3     H 9028   0.231   3.328   8.990 -0.1622  1.2163 -1.0852
  609TMC3    H1 9029   0.435   3.016   9.187 -1.4147  0.9651  1.2465
  609TMC3    H2 9030   0.657   3.322   8.985  1.4682 -2.4572 -1.2972
  609TMC3    C7 9031   0.685   3.085   9.099 -0.1173  0.0795 -0.0153
  609TMC3    C8 9032   0.447   3.471   8.924 -0.9518  0.1678 -0.3957
  609TMC3    O1 9033   0.683   3.018   9.201  0.7370  0.0018  0.0525
  609TMC3    O2 9034   0.338   3.525   8.908 -0.1484  0.0006 -0.3225
  610TMC3    C1 9035   2.797   3.511  12.371  0.4964 -0.0627  0.2617
  610TMC3    C2 9036   2.890   3.595  12.315  0.0388  0.1409 -0.0998
  610TMC3    C3 9037   3.020   3.544  12.316 -0.1041 -0.4358 -0.2292
  610TMC3    C4 9038   2.826   3.382  12.421  0.9286 -0.0796 -0.1096
  610TMC3    C5 9039   2.959   3.346  12.430  0.0662  0.2945 -0.2084
  610TMC3    C6 9040   3.051   3.427  12.370 -0.2380 -0.4413  0.5343
  610TMC3     C 9041   2.661   3.557  12.387  0.1008  0.2290  0.1467
  610TMC3     O 9042   2.597   3.478  12.456 -0.0777  0.2519 -0.3824
  610TMC3     H 9043   2.881   3.699  12.286  0.2636  0.3118  0.4442
  610TMC3    H1 9044   2.750   3.315  12.462  1.3011  1.1687  2.5920
  610TMC3    H2 9045   3.157   3.405  12.373 -0.5199 -1.9395 -0.6062
  610TMC3    C7 9046   3.013   3.235  12.502  0.0421  0.3903  0.0211
  610TMC3    C8 9047   3.136   3.627  12.288  0.7252 -0.9488  0.6851
  610TMC3    O1 9048   3.133   3.212  12.482 -0.2977  0.2861  0.2319
  610TMC3    O2 9049   3.245   3.595  12.338 -0.5593  0.3638 -0.0017
  611MPD2     C 9050   2.346   3.397  10.085  0.4008  0.3923 -0.6028
  611MPD2    C1 9051   2.264   3.499  10.040  0.3556 -0.0657  0.1985
  611MPD2    C2 9052   2.328   3.610   9.977  0.2316 -0.1132  0.5395
  611MPD2    C3 9053   2.468   3.614   9.965  0.4112  0.5079  1.0883
  611MPD2    C4 9054   2.542   3.496   9.997  0.0722  1.1049  0.1442
  611MPD2    C5 9055   2.480   3.392  10.064 -0.7131 -0.5386 -0.1278
  611MPD2     H 9056   2.263   3.688   9.938  0.4906  0.1545  0.6380
  611MPD2    H1 9057   2.646   3.482   9.968 -0.3457 -0.5105 -0.5418
  611MPD2    H2 9058   2.301   3.315  10.139 -2.3725  0.8549 -2.2066
  611MPD2    H3 9059   2.542   3.307  10.091  0.3853 -0.4733 -2.4604
  611MPD2     N 9060   2.538   3.715   9.903 -0.1273 -0.2995  0.0396
  611MPD2    H5 9061   2.639   3.710   9.890 -0.0695 -1.8668  1.1866
  611MPD2    N1 9062   2.127   3.497  10.076  0.0735 -1.4492  0.0452
  611MPD2    H7 9063   2.093   3.416  10.127 -1.4577 -0.5723  0.4061
  612TMC3    C1 9064   2.572   3.915   9.788  0.3806 -0.7688 -0.0817
  612TMC3    C2 9065   2.682   3.948   9.867 -0.1165  0.1560  0.4591
  612TMC3    C3 9066   2.761   4.045   9.822 -0.5043  0.0062 -0.5446
  612TMC3    C4 9067   2.536   3.993   9.683 -0.2974  0.3369  0.1307
  612TMC3    C5 9068   2.618   4.101   9.650  0.8294  0.6342  0.6345
  612TMC3    C6 9069   2.736   4.122   9.711  0.0412 -0.1589 -0.2250
  612TMC3     C 9070   2.476   3.817   9.831 -0.3807  0.5603  0.4742
  612TMC3     O 9071   2.365   3.828   9.781  0.0263  0.1361  0.4295
  612TMC3     H 9072   2.695   3.897   9.961  1.0352 -0.2691  0.0707
  612TMC3    H1 9073   2.437   3.987   9.638  0.6218  0.2563 -1.9100
  612TMC3    H2 9074   2.798   4.206   9.681  0.1736  0.2642  1.2102
  612TMC3    C7 9075   2.567   4.204   9.565  0.3397 -0.2876 -0.5039
  612TMC3    C8 9076   2.877   4.070   9.895 -0.6784  0.1226  0.2605
  612TMC3    O1 9077   2.447   4.204   9.534 -0.3690 -0.4309  0.2693
  612TMC3    O2 9078   2.936   4.172   9.858 -0.1226  0.5020  0.2211
  613MPD2     C 9079   1.453   1.334  16.322 -0.1990 -0.5322  0.3770
  613MPD2    C1 9080   1.378   1.356  16.203 -0.7611 -0.1015  0.2258
  613MPD2    C2 9081   1.265   1.278  16.179 -0.3404 -0.3532  0.1190
  613MPD2    C3 9082   1.233   1.180  16.275  0.1346  0.6756  0.5121
  613MPD2    C4 9083   1.303   1.169  16.395 -0.9834  0.2995  0.0975
  613MPD2    C5 9084   1.414   1.241  16.420 -0.2173 -0.4499  0.3574
  613MPD2     H 9085   1.211   1.298  16.087  0.7118 -0.2766 -0.4808
  613MPD2    H1 9086   1.279   1.099  16.474  1.7120 -1.1083 -0.3383
  613MPD2    H2 9087   1.552   1.380  16.327  0.3816 -1.6698 -0.7574
  613MPD2    H3 9088   1.464   1.230  16.516  1.5096  0.8711 -0.3880
  613MPD2     N 9089   1.127   1.089  16.254  0.0936  0.4905  0.6240
  613MPD2    H5 9090   1.122   1.007  16.313  1.1544 -0.0338 -0.0220
  613MPD2    N1 9091   1.433   1.452  16.115  0.6845  0.1224  0.0641
  613MPD2    H7 9092   1.527   1.486  16.131  0.7727  0.0013 -0.2035
  614TMC3    C1 9093   1.451   1.570  15.917  0.3431 -0.3344 -0.1719
  614TMC3    C2 9094   1.553   1.485  15.885  0.6507 -0.3770  0.6155
  614TMC3    C3 9095   1.551   1.410  15.768 -0.1709  0.1031 -0.1944
  614TMC3    C4 9096   1.376   1.601  15.810 -0.4288  0.0136 -0.2172
  614TMC3    C5 9097   1.382   1.539  15.689 -0.7115 -0.3320  0.3692
  614TMC3    C6 9098   1.472   1.441  15.665  0.2377 -0.5681  0.0067
  614TMC3     C 9099   1.364   1.503  16.010 -0.6270 -0.1909 -0.3126
  614TMC3     O 9100   1.246   1.494  15.983  0.7148 -0.2770 -0.1420
  614TMC3     H 9101   1.617   1.452  15.966  1.3595  0.1469  0.2693
  614TMC3    H1 9102   1.302   1.680  15.825 -0.0715  0.7715 -2.4781
  614TMC3    H2 9103   1.464   1.379  15.576  1.1935 -0.6986  0.0049
  614TMC3    C7 9104   1.302   1.603  15.586  0.1219  0.6565  0.5052
  614TMC3    C8 9105   1.561   1.266  15.792  0.5106  0.5634 -0.5752
  614TMC3    O1 9106   1.280   1.720  15.593 -0.1486  0.0137 -0.3059
  614TMC3    O2 9107   1.547   1.232  15.908 -0.3484 -0.2592 -0.2827
  615MPD2     C 9108   0.907   2.635  16.255 -0.9993 -0.4114  0.2360
  615MPD2    C1 9109   0.811   2.735  16.239 -0.5211  0.4810 -0.3803
  615MPD2    C2 9110   0.725   2.723  16.132  0.2391  0.4101 -0.0247
  615MPD2    C3 9111   0.724   2.604  16.063 -0.7369  0.6614  0.6947
  615MPD2    C4 9112   0.814   2.502  16.083 -0.6492 -0.2279 -0.7759
  615MPD2    C5 9113   0.905   2.519  16.185  0.1797 -0.3297 -0.4959
  615MPD2     H 9114   0.644   2.795  16.121  1.4640  1.3791 -2.7074
  615MPD2    H1 9115   0.823   2.406  16.032  0.0505 -0.9313  0.6568
  615MPD2    H2 9116   0.984   2.637  16.331 -0.1089 -0.1468 -0.6735
  615MPD2    H3 9117   0.978   2.439  16.194  0.6604 -0.0050 -1.4352
  615MPD2     N 9118   0.622   2.595  15.964 -0.4375 -0.5892  0.3055
  615MPD2    H5 9119   0.566   2.679  15.948 -0.4866 -0.6231  0.2988
  615MPD2    N1 9120   0.802   2.834  16.335 -0.6685  0.2279  0.1350
  615MPD2    H7 9121   0.872   2.836  16.409  1.6156  0.1973 -2.0158
  616TMC3    C1 9122   0.713   2.998  16.481  0.0862  0.4952  0.6407
  616TMC3    C2 9123   0.815   3.085  16.468 -0.2816 -0.5870 -0.1123
  616TMC3    C3 9124   0.790   3.213  16.520  0.2387  0.0058 -0.2348
  616TMC3    C4 9125   0.592   3.025  16.534  0.6912  0.8275 -0.1704
  616TMC3    C5 9126   0.565   3.146  16.583  0.2650  0.5377  0.0189
  616TMC3    C6 9127   0.667   3.240  16.581 -0.5620  0.1653  0.1914
  616TMC3     C 9128   0.696   2.917  16.357  0.5273 -0.0543  0.3631
  616TMC3     O 9129   0.607   2.950  16.282 -0.8525  0.2688  0.5372
  616TMC3     H 9130   0.895   3.065  16.398  1.2128 -0.3365  1.5084
  616TMC3    H1 9131   0.508   2.964  16.502 -2.1480  4.5414  0.2491
  616TMC3    H2 9132   0.646   3.345  16.597  1.2734  0.5424  0.1070
  616TMC3    C7 9133   0.462   3.216  16.510  0.1330 -1.0701 -0.2170
  616TMC3    C8 9134   0.842   3.322  16.436  0.7252  0.4104  0.0585
  616TMC3    O1 9135   0.412   3.313  16.565 -0.2917 -0.1610  0.3240
  616TMC3    O2 9136   0.768   3.415  16.400  0.4174 -0.0628 -0.1223
  617MPD2     C 9137   3.671   0.763  13.777  0.1945 -0.8363  0.0119
  617MPD2    C1 9138   3.687   0.746  13.913  0.4311 -0.4082  0.3792
  617MPD2    C2 9139   3.583   0.753  13.998 -0.1797  0.1782  0.2684
  617MPD2    C3 9140   3.461   0.769  13.944 -0.4496  0.5943 -0.1967
  617MPD2    C4 9141   3.446   0.781  13.807  0.1039 -0.1957  0.2335
  617MPD2    C5 9142   3.549   0.771  13.719 -0.5812  0.0599  0.0412
  617MPD2     H 9143   3.596   0.729  14.103  1.1310  0.9288  0.2829
  617MPD2    H1 9144   3.348   0.793  13.762  0.8035  1.4879 -0.8504
  617MPD2    H2 9145   3.754   0.720  13.721 -0.0809  1.8948 -2.4485
  617MPD2    H3 9146   3.539   0.771  13.611 -1.4565  0.1647  0.1274
  617MPD2     N 9147   3.343   0.777  14.012 -0.3922 -0.2535 -0.8816
  617MPD2    H5 9148   3.262   0.784  13.951 -2.6233 -0.3955  2.0612
  617MPD2    N1 9149   3.824   0.709  13.951  0.3251  0.4608 -0.1276
  617MPD2    H7 9150   3.891   0.710  13.875  1.1762 -0.4544  0.6125
  618TMC3    C1 9151   4.007   0.687  14.086 -0.3626 -0.0679  0.3296
  618TMC3    C2 9152   4.060   0.595  14.006 -0.2169 -0.0082 -0.5922
  618TMC3    C3 9153   4.200   0.593  13.998  0.7484  0.2812 -0.4108
  618TMC3    C4 9154   4.082   0.777  14.153  0.2060  0.5505 -0.2923
  618TMC3    C5 9155   4.218   0.784  14.127 -0.1451 -0.3301 -0.0262
  618TMC3    C6 9156   4.281   0.683  14.062 -0.3131 -0.4376 -0.4720
  618TMC3     C 9157   3.866   0.709  14.079  0.8731  0.3248  0.0977
  618TMC3     O 9158   3.810   0.766  14.177  0.1760  0.5319  0.3062
  618TMC3     H 9159   3.998   0.528  13.947 -0.0907  0.1479 -0.9039
  618TMC3    H1 9160   4.026   0.857  14.201 -0.1786 -1.1268  2.0584
  618TMC3    H2 9161   4.387   0.681  14.040 -0.1760  3.4029 -0.0752
  618TMC3    C7 9162   4.291   0.889  14.199  0.1992  0.8348  0.5339
  618TMC3    C8 9163   4.264   0.496  13.914 -0.8308  0.0006  0.1913
  618TMC3    O1 9164   4.264   0.913  14.317  0.4891  0.2208  0.0199
  618TMC3    O2 9165   4.189   0.417  13.855  0.0873  0.2988  0.0711
  619MPD2     C 9166   0.115   1.805  13.366 -0.0426  0.3622 -0.2587
  619MPD2    C1 9167   0.031   1.906  13.326  0.2843  0.0508 -0.3909
  619MPD2    C2 9168   4.666   1.952  13.417  0.3410 -0.0014 -0.2546
  619MPD2    C3 9169   4.652   1.891  13.537  0.2726 -0.3364  0.1615
  619MPD2    C4 9170   0.002   1.784  13.575  0.4619 -0.0563 -0.0424
  619MPD2    C5 9171   0.101   1.743  13.491  0.6997  0.1162 -0.3055
  619MPD2     H 9172   4.601   2.033  13.388 -2.9985 -0.2517  6.5493
  619MPD2    H1 9173   4.720   1.734  13.671 -0.7002  0.2672  0.0390
  619MPD2    H2 9174   0.200   1.771  13.309 -0.6472 -1.7213  0.0742
  619MPD2    H3 9175   0.180   1.674  13.521  1.5746  0.8580 -0.9040
  619MPD2     N 9176   4.556   1.925  13.632  0.3247  0.4813 -0.5355
  619MPD2    H5 9177   4.539   1.857  13.706  1.9621  1.2798  0.5587
  619MPD2    N1 9178   0.034   1.983  13.207  0.0667 -0.6852  0.6095
  619MPD2    H7 9179   4.680   2.044  13.189 -0.6817 -1.4390  1.3053
  620TMC3    C1 9180   0.099   2.038  12.986 -0.8617 -0.2700  0.6487
  620TMC3    C2 9181   4.706   2.097  12.959 -1.0056  0.7265 -0.4733
  620TMC3    C3 9182   4.706   2.212  12.882  0.4528  0.4560 -0.6987
  620TMC3    C4 9183   0.214   2.080  12.928 -0.1978  0.7331  0.0454
  620TMC3    C5 9184   0.211   2.194  12.852 -0.6071  0.3022  0.3506
  620TMC3    C6 9185   0.095   2.263  12.827 -0.4842 -0.0475  0.1462
  620TMC3     C 9186   0.114   1.949  13.096 -0.2053  0.3011 -0.3804
  620TMC3     O 9187   0.203   1.865  13.087 -0.1173  0.2820  0.1120
  620TMC3     H 9188   4.618   2.082  13.022 -1.3862  1.0937 -0.9159
  620TMC3    H1 9189   0.305   2.028  12.953  1.2987  3.3566  0.0201
  620TMC3    H2 9190   0.088   2.349  12.762  0.2837  0.9042  1.3086
  620TMC3    C7 9191   0.328   2.235  12.784  0.2546  0.4407 -0.0622
  620TMC3    C8 9192   4.596   2.299  12.931 -0.0475 -0.1554  0.2731
  620TMC3    O1 9193   0.341   2.356  12.760 -0.8461  0.5463  0.5643
  620TMC3    O2 9194   4.492   2.245  12.968 -0.1619  0.2507 -0.9174
  621MPD2     C 9195   0.043   2.207   9.938 -0.1563 -0.3390 -0.1037
  621MPD2    C1 9196   0.169   2.170   9.949 -0.4531  0.7508  0.3288
  621MPD2    C2 9197   0.272   2.258   9.923 -0.3616 -0.0898  0.0975
  621MPD2    C3 9198   0.241   2.386   9.874 -0.2492 -0.2067  0.6364
  621MPD2    C4 9199   0.103   2.418   9.858  0.2706  0.0355 -0.8140
  621MPD2    C5 9200   0.008   2.333   9.899  0.0520  0.9687  0.1147
  621MPD2     H 9201   0.375   2.227   9.931 -0.2531 -0.5394 -2.8172
  621MPD2    H1 9202   0.077   2.517   9.823 -2.4813  0.1470  1.5407
  621MPD2    H2 9203   4.685   2.143   9.965  1.5274 -2.2371  0.5817
  621MPD2    H3 9204   4.628   2.359   9.896  0.0283  1.1453  1.9826
  621MPD2     N 9205   0.344   2.473   9.834 -0.0130  0.7419  0.0044
  621MPD2    H5 9206   0.434   2.436   9.861 -0.3521  0.5593  0.8988
  621MPD2    N1 9207   0.209   2.040   9.997 -0.2280  0.0817  0.4725
  621MPD2    H7 9208   0.305   2.025  10.025 -0.4262  0.1622  1.1768
  622TMC3    C1 9209   0.193   1.807  10.037 -0.0098 -0.5475 -0.2185
  622TMC3    C2 9210   0.137   1.703  10.109 -0.6009  0.6206 -0.2805
  622TMC3    C3 9211   0.202   1.586  10.128 -0.0653  0.4747 -0.2935
  622TMC3    C4 9212   0.320   1.791   9.989 -0.4818  0.3465 -0.5621
  622TMC3    C5 9213   0.387   1.670  10.030 -0.6582 -0.1944 -0.3540
  622TMC3    C6 9214   0.335   1.567  10.099 -0.3041  0.4676 -0.4557
  622TMC3     C 9215   0.122   1.934  10.028  0.8522  0.2220  0.2772
  622TMC3     O 9216   4.724   1.927  10.038 -0.0493 -0.3702 -0.2424
  622TMC3     H 9217   0.032   1.715  10.134 -0.5164  0.8650 -0.0324
  622TMC3    H1 9218   0.372   1.864   9.927 -0.2013 -0.8059 -1.6965
  622TMC3    H2 9219   0.406   1.493  10.134  0.4534  1.4203  0.0386
  622TMC3    C7 9220   0.514   1.646   9.978  0.3680  0.1026  0.1708
  622TMC3    C8 9221   0.122   1.462  10.146  0.2967 -0.4015 -0.1049
  622TMC3    O1 9222   0.604   1.597  10.043 -0.5920 -0.2974  0.3312
  622TMC3    O2 9223   0.182   1.359  10.166 -0.0559 -0.9944  0.1490
  623MPD2     C 9224   3.747   3.076  15.861 -0.5697 -0.3521 -0.0024
  623MPD2    C1 9225   3.779   2.952  15.925  0.4006 -0.0211  0.5805
  623MPD2    C2 9226   3.823   2.954  16.056  0.0338 -0.1155 -0.0601
  623MPD2    C3 9227   3.849   3.076  16.117  0.3765  0.4041  0.1226
  623MPD2    C4 9228   3.826   3.193  16.047  0.6895  0.0686 -0.6434
  623MPD2    C5 9229   3.777   3.194  15.920 -0.4567 -0.3099  0.8662
  623MPD2     H 9230   3.835   2.862  16.111  2.4024  0.2428  0.0137
  623MPD2    H1 9231   3.841   3.280  16.110 -0.1000 -0.0472 -0.2963
  623MPD2    H2 9232   3.697   3.080  15.765 -0.1403  0.2696 -0.1973
  623MPD2    H3 9233   3.758   3.284  15.862  1.5482  0.5194  1.4783
  623MPD2     N 9234   3.883   3.063  16.254  0.1929 -0.0913 -0.6204
  623MPD2    H5 9235   3.865   2.973  16.298  1.3320 -0.2745 -0.5202
  623MPD2    N1 9236   3.735   2.831  15.867  0.0875  0.6206  0.0177
  623MPD2    H7 9237   3.658   2.839  15.802 -0.5493 -0.2139  0.6675
  624TMC3    C1 9238   4.158   2.963  16.535  0.1223  0.4557  0.3064
  624TMC3    C2 9239   4.075   2.893  16.612  0.7796  0.6944  0.0336
  624TMC3    C3 9240   3.941   2.928  16.614 -0.3799  0.1745  0.3932
  624TMC3    C4 9241   4.115   3.065  16.460  0.0362  0.0694  0.0727
  624TMC3    C5 9242   3.985   3.100  16.460 -0.2294  0.7544 -0.2221
  624TMC3    C6 9243   3.897   3.028  16.528  0.1425  0.0531  0.2579
  624TMC3     C 9244   4.298   2.951  16.564 -0.3757 -0.7928 -0.0202
  624TMC3     O 9245   4.336   2.839  16.611  0.2548 -0.6111  0.0839
  624TMC3     H 9246   4.116   2.812  16.671  1.9083 -0.5934 -2.5709
  624TMC3    H1 9247   4.181   3.117  16.391 -0.3148  0.7686  0.2639
  624TMC3    H2 9248   3.790   3.043  16.517  0.3808  1.5518  0.0004
  624TMC3    C7 9249   3.932   3.164  16.340  0.7645  0.8128  0.1109
  624TMC3    C8 9250   3.842   2.832  16.672 -0.3930 -0.2138  0.0535
  624TMC3    O1 9251   3.977   3.278  16.314 -0.4340 -0.0577 -0.0374
  624TMC3    O2 9252   3.739   2.816  16.607  0.1850 -0.3293  0.1914
  625MPD2     C 9253   4.280   2.886   0.242 -0.2758 -1.3192  0.5142
  625MPD2    C1 9254   4.335   2.997   0.302  0.0759  0.4936 -0.2594
  625MPD2    C2 9255   4.470   3.005   0.317  0.3832 -0.2973  0.7416
  625MPD2    C3 9256   4.552   2.903   0.272  0.4055 -0.6332  0.0137
  625MPD2    C4 9257   4.497   2.792   0.214  0.3191  0.2616  0.1680
  625MPD2    C5 9258   4.363   2.789   0.195 -0.6539  0.5131  1.1375
  625MPD2     H 9259   4.522   3.096   0.347 -2.6044  1.8175 -0.5175
  625MPD2    H1 9260   4.554   2.712   0.169  1.6071  1.2774 -0.0047
  625MPD2    H2 9261   4.177   2.888   0.210  0.8970 -2.7515 -3.3971
  625MPD2    H3 9262   4.321   2.712   0.132  1.5858  2.4886 -2.7352
  625MPD2     N 9263   4.692   2.919   0.284  0.0512 -0.6017 -0.7887
  625MPD2    H5 9264   4.716   2.997   0.343  1.3737 -1.9025  0.3956
  625MPD2    N1 9265   4.262   3.114   0.326  0.1867 -0.3447 -0.4503
  625MPD2    H7 9266   4.323   3.193   0.342 -0.2934  0.4397 -2.6327
  626TMC3    C1 9267   4.070   3.239   0.370  0.1251 -0.3069  0.6479
  626TMC3    C2 9268   4.111   3.344   0.302 -0.3708  0.3231 -0.8987
  626TMC3    C3 9269   4.049   3.464   0.308  0.2723 -0.4894 -0.4511
  626TMC3    C4 9270   3.971   3.246   0.469  0.5170 -0.3800  0.4515
  626TMC3    C5 9271   3.916   3.372   0.489 -0.4346 -1.0043 -0.0394
  626TMC3    C6 9272   3.955   3.477   0.405  0.4472 -0.5614  0.1573
  626TMC3     C 9273   4.122   3.112   0.339  0.1014 -0.2070 -0.2893
  626TMC3     O 9274   4.042   3.021   0.332  0.2316  0.2512  0.0037
  626TMC3     H 9275   4.180   3.328   0.220 -1.0616 -0.2721 -1.3672
  626TMC3    H1 9276   3.946   3.164   0.535 -1.3961 -1.5560 -1.7497
  626TMC3    H2 9277   3.919   3.576   0.431 -1.5111 -0.8973 -1.3239
  626TMC3    C7 9278   3.895   3.411   0.627  0.0262  0.5336 -0.1220
  626TMC3    C8 9279   4.064   3.566   0.210 -0.9076 -0.0981  0.5797
  626TMC3    O1 9280   3.946   3.335   0.709  0.4932  0.4191  0.3667
  626TMC3    O2 9281   4.152   3.644   0.222  0.4052  0.6662 -0.2665
  627MPD2     C 9282   2.814   4.309  14.453  0.0781  0.0045  0.6467
  627MPD2    C1 9283   2.900   4.229  14.523  0.4558 -0.1200 -0.2255
  627MPD2    C2 9284   2.865   4.099  14.549  0.4328 -0.3864 -0.3812
  627MPD2    C3 9285   2.741   4.052  14.502 -0.1594 -0.6084 -0.4272
  627MPD2    C4 9286   2.664   4.122  14.419  0.6696 -0.0781 -0.1936
  627MPD2    C5 9287   2.696   4.254  14.399 -0.6770  0.0094  0.3172
  627MPD2     H 9288   2.936   4.038  14.604  0.1621 -0.1097  0.2666
  627MPD2    H1 9289   2.577   4.084  14.366  0.0849  0.0845  0.6596
  627MPD2    H2 9290   2.825   4.415  14.435 -0.9693  0.1301  0.7461
  627MPD2    H3 9291   2.635   4.323  14.343 -0.5586 -0.0338  0.1336
  627MPD2     N 9292   2.706   3.923  14.536  0.2241  0.2710 -0.5610
  627MPD2    H5 9293   2.762   3.872  14.605 -0.3862 -1.6867 -1.5076
  627MPD2    N1 9294   3.017   4.278  14.594 -0.1956  0.0760  0.3277
  627MPD2    H7 9295   3.079   4.212  14.640  0.1696 -0.3301 -0.7287
  628TMC3    C1 9296   3.190   4.434  14.650  0.5281 -0.8025 -0.2196
  628TMC3    C2 9297   3.280   4.331  14.654 -0.9875  0.4581  1.0238
  628TMC3    C3 9298   3.403   4.353  14.703 -0.3022 -0.5968 -0.3988
  628TMC3    C4 9299   3.214   4.561  14.693  0.4607  0.5558 -0.3109
  628TMC3    C5 9300   3.343   4.585  14.732  0.1554 -0.6956  0.1004
  628TMC3    C6 9301   3.442   4.482  14.742 -0.5304  0.1072  0.0226
  628TMC3     C 9302   3.050   4.411  14.614 -0.0890  0.1302  0.2113
  628TMC3     O 9303   2.983   4.509  14.590  0.3556  0.2071  0.7136
  628TMC3     H 9304   3.262   4.234  14.610  0.2280 -0.0407  1.6502
  628TMC3    H1 9305   3.136   4.636  14.704 -1.7324 -2.0200  1.8740
  628TMC3    H2 9306   3.544   4.518  14.743 -0.1783 -0.8628 -0.1092
  628TMC3    C7 9307   3.389   4.720  14.750  0.7281  0.2462  0.1388
  628TMC3    C8 9308   3.501   4.265  14.641 -1.1001  0.5531 -0.4125
  628TMC3    O1 9309   3.493   0.006  14.812 -0.4078  0.0114 -0.1257
  628TMC3    O2 9310   3.473   4.231  14.531 -0.7590  0.2401 -0.0730
  629MPD2     C 9311   1.245   3.555  16.212  0.4649  0.4839 -0.3012
  629MPD2    C1 9312   1.288   3.447  16.292 -0.4074 -0.6706  0.2008
  629MPD2    C2 9313   1.194   3.366  16.354 -0.2236  0.4216  0.1547
  629MPD2    C3 9314   1.058   3.394  16.338  0.3413 -0.0047 -0.2170
  629MPD2    C4 9315   1.016   3.494  16.259  0.4291  0.3080  0.2307
  629MPD2    C5 9316   1.106   3.570  16.193  0.2258 -0.1454  0.1958
  629MPD2     H 9317   1.217   3.285  16.423  1.1301  0.8296  0.1821
  629MPD2    H1 9318   0.912   3.526  16.256 -0.1868 -1.7989 -0.8342
  629MPD2    H2 9319   1.315   3.623  16.165  1.5267  0.5016  1.2935
  629MPD2    H3 9320   1.066   3.645  16.126 -0.6531 -0.7176  0.0789
  629MPD2     N 9321   0.974   3.305  16.418 -0.4071  0.1924 -0.5310
  629MPD2    H5 9322   1.018   3.228  16.468 -0.5849  0.5028  0.1084
  629MPD2    N1 9323   1.424   3.427  16.300 -0.3643  0.5641 -1.1245
  629MPD2    H7 9324   1.487   3.474  16.235 -0.7104  1.0941 -1.0710
  630TMC3    C1 9325   1.618   3.282  16.333 -0.3703 -0.0955  1.2731
  630TMC3    C2 9326   1.680   3.369  16.255  0.1666  0.7620 -0.5132
  630TMC3    C3 9327   1.803   3.339  16.210  0.1200  0.6000  0.0327
  630TMC3    C4 9328   1.665   3.156  16.353 -0.3786  0.3119  0.5777
  630TMC3    C5 9329   1.791   3.135  16.310 -0.0675 -0.0149  0.0352
  630TMC3    C6 9330   1.860   3.221  16.232 -0.1645 -0.4494  1.1733
  630TMC3     C 9331   1.483   3.317  16.369  0.5332  0.0331  0.3104
  630TMC3     O 9332   1.431   3.226  16.431 -0.2164  0.3095  0.1314
  630TMC3     H 9333   1.663   3.476  16.253  0.1283  0.7769  0.5831
  630TMC3    H1 9334   1.618   3.106  16.437 -1.9784  2.0995  0.7257
  630TMC3    H2 9335   1.942   3.183  16.172  0.0280 -0.4891  1.4574
  630TMC3    C7 9336   1.877   3.085  16.410 -0.4339 -0.1601  0.2431
  630TMC3    C8 9337   1.898   3.439  16.208 -0.0125 -0.4498 -0.3246
  630TMC3    O1 9338   1.828   3.014  16.492 -0.0217  1.1235  0.4682
  630TMC3    O2 9339   2.003   3.392  16.250  0.4135  0.5150 -0.0063
  631MPD2     C 9340   4.466   2.754  15.852 -0.1411  0.3972  0.3011
  631MPD2    C1 9341   4.538   2.798  15.748 -0.4199  1.2986 -0.4391
  631MPD2    C2 9342   4.650   2.732  15.704  0.2418  0.0531  0.1355
  631MPD2    C3 9343   4.680   2.614  15.757 -0.5891  0.1007  0.0205
  631MPD2    C4 9344   4.596   2.562  15.855  0.0418  0.7741  0.6185
  631MPD2    C5 9345   4.483   2.628  15.898  0.1442 -0.1417  0.5385
  631MPD2     H 9346   4.721   2.775  15.634  0.5538 -0.8135 -0.0707
  631MPD2    H1 9347   4.610   2.461  15.890 -0.6385 -0.0469 -1.4703
  631MPD2    H2 9348   4.373   2.800  15.884 -1.0667 -0.8486 -0.5881
  631MPD2    H3 9349   4.412   2.578  15.963  1.3478  0.3826  2.2548
  631MPD2     N 9350   0.071   2.549  15.710 -0.0929  0.1244 -0.0894
  631MPD2    H5 9351   0.126   2.605  15.645 -2.1040 -1.0269 -2.7863
  631MPD2    N1 9352   4.489   2.916  15.695  0.2828 -0.1011  0.0531
  631MPD2    H7 9353   4.411   2.954  15.748  0.9571  0.8955  0.3258
  632TMC3    C1 9354   4.464   3.082  15.530  0.0993 -0.6426 -0.6418
  632TMC3    C2 9355   4.432   3.180  15.621  0.1783 -0.2084  0.0208
  632TMC3    C3 9356   4.388   3.292  15.571 -0.0529  0.6469 -0.3346
  632TMC3    C4 9357   4.451   3.103  15.395 -0.2727  0.0883  0.0728
  632TMC3    C5 9358   4.401   3.219  15.352  0.2410 -0.7230  0.2540
  632TMC3    C6 9359   4.373   3.321  15.434  0.0468  1.2455  0.0903
  632TMC3     C 9360   4.538   2.967  15.575  0.1980 -0.3906 -0.0309
  632TMC3     O 9361   4.604   2.916  15.483 -0.5231 -0.3787  0.0292
  632TMC3     H 9362   4.444   3.169  15.728 -1.9634  0.9663  0.3948
  632TMC3    H1 9363   4.471   3.024  15.325 -0.6830  0.3024 -0.2914
  632TMC3    H2 9364   4.321   3.411  15.404  0.7106  1.5849 -0.0406
  632TMC3    C7 9365   4.357   3.221  15.211  0.3123  0.0527 -0.3117
  632TMC3    C8 9366   4.379   3.393  15.671  0.2024  0.2534 -0.4096
  632TMC3    O1 9367   4.427   3.163  15.126  0.0480 -0.3060 -0.1568
  632TMC3    O2 9368   4.340   3.364  15.784 -0.3560 -0.4042  0.7679
  633MPD2     C 9369   4.039   0.767  17.228  0.0094  0.1647 -0.2258
  633MPD2    C1 9370   4.050   0.721  17.100  0.3163 -0.6567  0.3458
  633MPD2    C2 9371   4.047   0.585  17.070  0.3681  0.6329  0.0154
  633MPD2    C3 9372   4.037   0.490  17.170  0.3242 -0.0042  0.3367
  633MPD2    C4 9373   4.026   0.535  17.298  0.7231 -0.6556 -0.4282
  633MPD2    C5 9374   4.032   0.668  17.325 -0.2888 -0.5345 -0.3161
  633MPD2     H 9375   4.061   0.552  16.968  1.9657 -1.7410  1.0115
  633MPD2    H1 9376   4.007   0.472  17.385 -1.1892  0.6364  0.0897
  633MPD2    H2 9377   4.036   0.872  17.254 -0.4995 -0.5709  2.6711
  633MPD2    H3 9378   4.028   0.696  17.430 -0.6569  2.0563 -1.0365
  633MPD2     N 9379   4.054   0.353  17.149  0.0487 -0.1572  0.6628
  633MPD2    H5 9380   4.070   0.302  17.236  2.7854  1.5302  1.1159
  633MPD2    N1 9381   4.060   0.814  16.992  0.4116 -0.4751  0.2854
  633MPD2    H7 9382   4.075   0.777  16.898  0.3222  1.2833 -0.4239
  634TMC3    C1 9383   4.129   1.016  16.892  1.1960  0.7574  0.5270
  634TMC3    C2 9384   4.232   0.950  16.830  0.9500 -0.0807 -0.2556
  634TMC3    C3 9385   4.309   1.013  16.733 -0.4623 -0.6578 -0.3682
  634TMC3    C4 9386   4.104   1.146  16.861 -0.6033  0.4752  0.7923
  634TMC3    C5 9387   4.183   1.202  16.764 -1.3353  0.1433  0.1498
  634TMC3    C6 9388   4.289   1.145  16.710  0.9286 -0.7904 -0.2466
  634TMC3     C 9389   4.059   0.948  17.009  0.0629  0.3127  0.2209
  634TMC3     O 9390   4.000   1.019  17.091 -0.0661 -0.2797  0.8070
  634TMC3     H 9391   4.252   0.847  16.857 -0.7926 -0.8720 -2.0626
  634TMC3    H1 9392   4.022   1.188  16.920 -0.9300  1.3066 -0.2593
  634TMC3    H2 9393   4.346   1.203  16.638  1.3591  1.3573  1.8340
  634TMC3    C7 9394   4.150   1.335  16.710  0.1283 -0.4235 -0.1232
  634TMC3    C8 9395   4.376   0.931  16.630 -0.1789 -0.4099 -0.4589
  634TMC3    O1 9396   4.225   1.379  16.628 -0.8949  0.5231 -0.0846
  634TMC3    O2 9397   4.371   0.811  16.647 -0.1595  0.1193 -0.9748
  635TMC3    C1 9398   3.818   1.208   0.282 -0.2807 -0.6371 -0.0172
  635TMC3    C2 9399   3.874   1.089   0.234  0.0702 -0.7503  0.2764
  635TMC3    C3 9400   3.804   0.975   0.276 -0.3324  0.3771 -0.0299
  635TMC3    C4 9401   3.711   1.218   0.360  0.7318 -0.2345 -0.0030
  635TMC3    C5 9402   3.651   1.098   0.403 -0.3384 -0.8564 -0.8625
  635TMC3    C6 9403   3.694   0.972   0.363 -0.3963 -0.0618 -0.2292
  635TMC3     C 9404   3.889   1.326   0.243 -0.1527 -0.0531  0.5714
  635TMC3     O 9405   3.995   1.304   0.192 -0.3200  0.2029  0.1316
  635TMC3     H 9406   3.970   1.089   0.184 -1.3048  0.7152 -2.3308
  635TMC3    H1 9407   3.682   1.308   0.414  1.5553  0.4008 -0.6178
  635TMC3    H2 9408   3.638   0.883   0.388 -0.4111  0.0026 -0.0323
  635TMC3    C7 9409   3.595   1.104   0.536  0.3057  0.0275  0.6789
  635TMC3    C8 9410   3.863   0.845   0.233  0.2235 -0.2361  0.1407
  635TMC3    O1 9411   3.529   1.197   0.568  0.1982 -0.0038  0.4997
  635TMC3    O2 9412   3.937   0.844   0.136  0.1163 -0.4512  0.2977
  636MPD2     C 9413   0.830   1.359  15.461 -0.2192  0.9636  0.1363
  636MPD2    C1 9414   0.776   1.374  15.587 -0.3747  0.5217 -0.6402
  636MPD2    C2 9415   0.803   1.273  15.676  1.4223 -0.3483  0.8383
  636MPD2    C3 9416   0.867   1.153  15.639 -0.6325  0.0837 -0.1323
  636MPD2    C4 9417   0.916   1.139  15.507 -0.6631  0.6211  0.7614
  636MPD2    C5 9418   0.894   1.244  15.423 -0.0776  0.2574  0.4151
  636MPD2     H 9419   0.766   1.285  15.778  0.7698  0.1094  0.5526
  636MPD2    H1 9420   0.967   1.051  15.470 -1.8431 -0.2634  1.2377
  636MPD2    H2 9421   0.818   1.432  15.383  0.1481  0.4991 -0.3588
  636MPD2    H3 9422   0.937   1.224  15.326  0.4762  3.6293 -0.0442
  636MPD2     N 9423   0.894   1.053  15.741  0.9308 -0.2452 -0.1220
  636MPD2    H5 9424   0.857   1.064  15.835  1.4448 -0.8101  0.1462
  636MPD2    N1 9425   0.717   1.489  15.639  0.2240  0.5345  0.2861
  636MPD2    H7 9426   0.686   1.479  15.735  0.8520  0.2383  0.4547
  637TMC3    C1 9427   0.982   0.870  15.861  0.1950 -0.0069  0.6281
  637TMC3    C2 9428   0.947   0.939  15.981  0.4170 -0.8056  0.2065
  637TMC3    C3 9429   1.023   0.947  16.096 -0.6548 -0.3131  0.4885
  637TMC3    C4 9430   1.088   0.795  15.871  0.6981  0.2043 -0.5462
  637TMC3    C5 9431   1.165   0.794  15.989 -0.2492 -0.7507  0.3595
  637TMC3    C6 9432   1.130   0.861  16.104 -0.0505 -0.0818  1.0255
  637TMC3     C 9433   0.968   0.942  15.730 -0.8388  0.0826 -0.6423
  637TMC3     O 9434   1.020   0.890  15.631  0.8201 -0.3163 -0.6801
  637TMC3     H 9435   0.865   1.009  15.986  1.7318  0.7858 -0.5429
  637TMC3    H1 9436   1.121   0.747  15.780  1.0436  0.6079 -0.6351
  637TMC3    H2 9437   1.186   0.846  16.196  0.5911 -0.3878  0.5791
  637TMC3    C7 9438   1.306   0.818  15.956 -0.1685 -0.0750 -0.3741
  637TMC3    C8 9439   1.049   1.085  16.137  0.2912  0.8836 -0.6367
  637TMC3    O1 9440   1.364   0.893  16.033  0.1269  0.4209 -0.1762
  637TMC3    O2 9441   1.016   1.167  16.056  0.7226 -0.4564  0.0765
  638MPD2     C 9442   0.718   0.176  15.204 -0.6539  0.1242  0.0262
  638MPD2    C1 9443   0.728   0.063  15.129 -0.5849 -0.7869  0.4221
  638MPD2    C2 9444   0.677   4.669  15.180  1.0780  0.7181  0.4236
  638MPD2    C3 9445   0.611   4.671  15.300 -0.2094  0.7647  0.3642
  638MPD2    C4 9446   0.610   0.065  15.373 -0.3116 -0.1487 -0.3930
  638MPD2    C5 9447   0.674   0.175  15.332 -0.0820  0.5419 -0.0542
  638MPD2     H 9448   0.683   4.582  15.115 -0.2142  1.4044 -0.6136
  638MPD2    H1 9449   0.563   0.073  15.471 -1.1303 -1.5133 -0.6614
  638MPD2    H2 9450   0.762   0.264  15.159  3.1497  0.0352  3.4986
  638MPD2    H3 9451   0.672   0.269  15.387 -1.7461 -0.3200  1.3539
  638MPD2     N 9452   0.555   4.549  15.343 -0.4046 -0.5215 -0.2184
  638MPD2    H5 9453   0.562   4.477  15.272 -0.6792  0.1536 -0.9297
  638MPD2    N1 9454   0.765   0.058  14.994 -0.3358  0.5050 -0.7529
  638MPD2    H7 9455   0.768   4.690  14.954 -0.6875  0.8705 -1.6326
  639TMC3    C1 9456   0.482   4.378  15.466  0.6258 -0.2024 -0.4054
  639TMC3    C2 9457   0.379   4.316  15.393 -0.3712 -0.4130 -0.2161
  639TMC3    C3 9458   0.408   4.194  15.337 -0.1685 -0.1414 -0.4918
  639TMC3    C4 9459   0.604   4.332  15.464  0.6572 -0.9293  0.1104
  639TMC3    C5 9460   0.629   4.210  15.408  0.3473  0.7197  0.0085
  639TMC3    C6 9461   0.529   4.132  15.359 -0.0055 -0.6994 -0.9773
  639TMC3     C 9462   0.476   4.519  15.454  0.2389 -0.4132  0.0255
  639TMC3     O 9463   0.453   4.588  15.550 -0.2030  0.2012 -0.5602
  639TMC3     H 9464   0.294   4.375  15.364 -0.3874  0.2700  1.1974
  639TMC3    H1 9465   0.680   4.388  15.517  0.0913  0.4376 -0.4911
  639TMC3    H2 9466   0.554   4.034  15.320  0.4040 -0.3725 -1.5413
  639TMC3    C7 9467   0.764   4.176  15.362 -0.1737  0.1241  0.6912
  639TMC3    C8 9468   0.332   4.144  15.224  1.0789 -0.2514 -0.2479
  639TMC3    O1 9469   0.792   4.061  15.337 -0.0980 -0.7884  0.1108
  639TMC3    O2 9470   0.390   4.092  15.129 -0.0292 -0.1230  0.4785
  640MPD2     C 9471   1.107   3.508   9.499 -0.0683 -0.2707 -0.0782
  640MPD2    C1 9472   1.154   3.617   9.429  0.0928 -0.1306  0.3547
  640MPD2    C2 9473   1.082   3.738   9.402 -0.9362  0.4668  1.1641
  640MPD2    C3 9474   0.952   3.747   9.461  0.7028 -0.0436  0.1573
  640MPD2    C4 9475   0.910   3.639   9.537 -0.3177  0.5423 -0.2935
  640MPD2    C5 9476   0.978   3.522   9.548 -0.2153  0.6598  0.3054
  640MPD2     H 9477   1.132   3.815   9.344 -0.4376 -0.0213  0.9472
  640MPD2    H1 9478   0.812   3.641   9.583 -0.4240 -0.3776 -0.4757
  640MPD2    H2 9479   1.151   3.410   9.511 -2.5623 -1.3465  0.3954
  640MPD2    H3 9480   0.927   3.440   9.596 -0.8385  0.5715 -0.5004
  640MPD2     N 9481   0.864   3.853   9.449  0.1703 -0.1229  0.4677
  640MPD2    H5 9482   0.781   3.849   9.508  0.2881  1.8205  0.7787
  640MPD2    N1 9483   1.286   3.592   9.377 -0.4392 -0.5464  0.3156
  640MPD2    H7 9484   1.331   3.512   9.418 -1.2496 -0.8614  0.6018
  641TMC3    C1 9485   1.487   3.603   9.262 -0.2319 -0.0912 -0.1244
  641TMC3    C2 9486   1.496   3.478   9.290 -0.6014  0.2188 -0.2763
  641TMC3    C3 9487   1.619   3.431   9.298 -0.1450 -0.0719 -0.4384
  641TMC3    C4 9488   1.593   3.686   9.246 -0.4192  0.7046  0.0991
  641TMC3    C5 9489   1.720   3.631   9.263  0.3382  0.0908  0.3951
  641TMC3    C6 9490   1.735   3.501   9.297 -0.1632  0.6533  0.1222
  641TMC3     C 9491   1.366   3.668   9.293  0.5675 -0.0189 -0.4298
  641TMC3     O 9492   1.346   3.784   9.257  0.0933 -0.0585  0.5960
  641TMC3     H 9493   1.411   3.411   9.295 -0.0459 -0.3069  2.0800
  641TMC3    H1 9494   1.577   3.792   9.236 -1.8897  0.5046  0.3408
  641TMC3    H2 9495   1.831   3.452   9.315 -0.1445  0.6501  0.0136
  641TMC3    C7 9496   1.834   3.702   9.204  0.5431  0.5438 -0.1967
  641TMC3    C8 9497   1.618   3.286   9.316  0.0663  0.1221 -0.5303
  641TMC3    O1 9498   1.806   3.809   9.153  0.1119 -0.1245  0.2617
  641TMC3    O2 9499   1.532   3.220   9.259 -0.1342 -0.4496 -0.4649
  642TMC3    C1 9500   2.394   0.030  12.086 -0.4739 -0.6278 -0.0401
  642TMC3    C2 9501   2.501   0.031  12.171  0.4389  0.3068  0.0351
  642TMC3    C3 9502   2.524   4.639  12.250  0.2586  0.2041 -0.1559
  642TMC3    C4 9503   2.309   4.651  12.093  0.3920 -0.1148 -0.4104
  642TMC3    C5 9504   2.320   4.550  12.180  0.1639 -0.3252  0.0227
  642TMC3    C6 9505   2.437   4.536  12.256  0.6748  0.1380  1.2459
  642TMC3     C 9506   2.325   0.159  12.090  0.2127  0.4364  0.0085
  642TMC3     O 9507   2.389   0.246  12.028  0.2238  0.2150  0.3693
  642TMC3     H 9508   2.568   0.115  12.161 -1.3127  1.8184  0.9437
  642TMC3    H1 9509   2.228   4.636  12.022  0.7274  0.1803 -0.8603
  642TMC3    H2 9510   2.455   4.445  12.311 -0.5017 -0.7205  0.2171
  642TMC3    C7 9511   2.248   4.427  12.154 -0.1400 -0.0730  0.7914
  642TMC3    C8 9512   2.643   4.627  12.333 -0.2573 -0.0472 -0.4489
  642TMC3    O1 9513   2.216   4.405  12.040  0.2095  0.2825 -0.0290
  642TMC3    O2 9514   2.682   4.518  12.377 -0.1815 -0.3266 -0.2060
  643TMC3    C1 9515   1.250   3.559   0.452  0.0421 -0.4823  0.1355
  643TMC3    C2 9516   1.134   3.624   0.417  0.7442 -0.4641 -0.3809
  643TMC3    C3 9517   1.126   3.687   0.298  0.4569  0.0781 -0.4561
  643TMC3    C4 9518   1.360   3.558   0.370 -0.8390  0.3899  0.2771
  643TMC3    C5 9519   1.337   3.615   0.249 -1.2449  0.4166  0.0549
  643TMC3    C6 9520   1.231   3.682   0.207  0.3490  0.5806 -0.0758
  643TMC3     C 9521   1.243   3.497   0.583  0.2173 -0.2847 -0.5985
  643TMC3     O 9522   1.143   3.509   0.651 -0.5501  0.6776  0.5414
  643TMC3     H 9523   1.062   3.648   0.494  1.5842 -1.6220  0.7715
  643TMC3    H1 9524   1.451   3.505   0.394 -0.1259  1.6889  0.4243
  643TMC3    H2 9525   1.223   3.732   0.111 -0.7358  4.2204  1.9248
  643TMC3    C7 9526   1.462   3.650   0.163 -0.0378  0.1720 -0.3123
  643TMC3    C8 9527   1.017   3.784   0.272 -0.3636 -0.8650  0.6018
  643TMC3    O1 9528   1.445   3.716   0.061 -0.0842  0.0575  0.1860
  643TMC3    O2 9529   0.908   3.749   0.314 -0.1524  0.6030  0.0956
  644MPD2     C 9530   1.642   3.762   9.579 -0.3361  0.3202 -0.5228
  644MPD2    C1 9531   1.760   3.823   9.558  0.6984 -0.4225 -0.4666
  644MPD2    C2 9532   1.756   3.961   9.544  0.5035  0.2228  0.8872
  644MPD2    C3 9533   1.638   4.024   9.514  0.6600 -0.8309 -0.2507
  644MPD2    C4 9534   1.515   3.957   9.520 -0.4129  0.1242  0.0254
  644MPD2    C5 9535   1.523   3.830   9.559 -0.3197 -0.3853 -0.5385
  644MPD2     H 9536   1.853   4.009   9.557 -0.0685  1.6734 -0.1544
  644MPD2    H1 9537   1.417   3.999   9.498 -0.0955  0.1313 -1.3720
  644MPD2    H2 9538   1.650   3.658   9.609  0.4972  0.5983  0.2271
  644MPD2    H3 9539   1.431   3.775   9.578 -0.7735  1.3858  2.4013
  644MPD2     N 9540   1.641   4.164   9.484  0.0578  0.5387  0.0074
  644MPD2    H5 9541   1.733   4.205   9.502  1.2841 -2.2133 -0.0031
  644MPD2    N1 9542   1.880   3.745   9.560 -0.2126 -0.6704  0.0960
  644MPD2    H7 9543   1.886   3.645   9.580 -0.9136 -0.3604  1.9107
  645TMC3    C1 9544   1.566   4.383   9.458 -0.4460 -0.1777 -0.3227
  645TMC3    C2 9545   1.640   4.437   9.560  0.6413  0.5173 -0.4910
  645TMC3    C3 9546   1.650   4.572   9.570 -0.1262 -0.1509 -0.1916
  645TMC3    C4 9547   1.474   4.455   9.389 -0.1654 -0.0680 -0.3090
  645TMC3    C5 9548   1.486   4.589   9.411  0.4057  0.6338 -0.0134
  645TMC3    C6 9549   1.575   4.656   9.495  0.2312 -0.3357 -0.3463
  645TMC3     C 9550   1.533   4.243   9.463  0.0317 -0.0573 -0.3644
  645TMC3     O 9551   1.421   4.220   9.420  0.4902 -0.3761 -0.7944
  645TMC3     H 9552   1.716   4.376   9.607 -1.9471 -2.6203 -0.3673
  645TMC3    H1 9553   1.408   4.421   9.310 -1.0286  0.4936  0.1739
  645TMC3    H2 9554   1.569   0.036   9.522  0.7133  0.1488 -2.1464
  645TMC3    C7 9555   1.385   4.663   9.342  0.4638  0.0254  0.0627
  645TMC3    C8 9556   1.771   4.631   9.626 -0.1357 -0.3515 -0.6093
  645TMC3    O1 9557   1.290   4.601   9.290  0.1079  0.0644 -0.0073
  645TMC3    O2 9558   1.797   0.013   9.577  0.2492  0.1538  0.2375
  646MPD2     C 9559   0.725   3.520  14.675  0.1738 -0.7229  0.1102
  646MPD2    C1 9560   0.625   3.476  14.765 -0.1370 -0.4556  0.1266
  646MPD2    C2 9561   0.492   3.518  14.746 -0.6454  0.3348 -0.2528
  646MPD2    C3 9562   0.460   3.595  14.632  0.1597 -0.2535  0.4565
  646MPD2    C4 9563   0.566   3.630  14.549  0.4705 -0.0459  0.5345
  646MPD2    C5 9564   0.693   3.598  14.571  0.6498  0.1648 -0.2969
  646MPD2     H 9565   0.412   3.499  14.816 -0.8100  1.0085 -0.2534
  646MPD2    H1 9566   0.549   3.697  14.466 -0.5794  0.5421  1.2239
  646MPD2    H2 9567   0.825   3.484  14.694  1.0100  0.4045 -2.2093
  646MPD2    H3 9568   0.770   3.622  14.499  1.4260  1.8794  1.0916
  646MPD2     N 9569   0.334   3.657  14.618 -0.6972 -0.0404 -0.0786
  646MPD2    H5 9570   0.263   3.637  14.688 -2.9757  0.0086 -2.3871
  646MPD2    N1 9571   0.663   3.420  14.890  0.1483  0.0774  0.1915
  646MPD2    H7 9572   0.751   3.371  14.884 -0.3130 -0.8189  0.6512
  647TMC3    C1 9573   0.674   3.362  15.109 -0.0556 -0.1435 -0.0645
  647TMC3    C2 9574   0.616   3.290  15.210 -0.3398  0.1143  0.7002
  647TMC3    C3 9575   0.694   3.258  15.322 -0.7918  1.0523 -0.0346
  647TMC3    C4 9576   0.795   3.425  15.114 -0.4313  0.2623  0.1829
  647TMC3    C5 9577   0.870   3.393  15.222  0.0426  0.4279 -0.2703
  647TMC3    C6 9578   0.827   3.304  15.322 -0.1680  0.7435 -0.4832
  647TMC3     C 9579   0.585   3.394  14.999 -0.2675  0.3591  0.0387
  647TMC3     O 9580   0.461   3.391  15.007  0.0212 -0.2386 -0.1141
  647TMC3     H 9581   0.521   3.242  15.189 -0.3337  1.1750 -1.7567
  647TMC3    H1 9582   0.820   3.508  15.049 -1.6560 -0.3837 -1.1345
  647TMC3    H2 9583   0.899   3.270  15.396  2.3190  0.3500 -3.1103
  647TMC3    C7 9584   1.008   3.429  15.224  0.4486 -0.5602  0.2839
  647TMC3    C8 9585   0.676   3.125  15.375 -0.6801 -0.4293 -0.3417
  647TMC3    O1 9586   1.067   3.433  15.331  0.3431  0.3782 -0.0568
  647TMC3    O2 9587   0.643   3.036  15.297  0.0635 -0.0884  0.3781
  648TMC3    C1 9588   0.073   1.064  16.121 -0.8718  0.0110  0.5172
  648TMC3    C2 9589   0.172   0.990  16.068 -0.1411  0.2262 -0.7930
  648TMC3    C3 9590   0.195   0.989  15.934  0.2371 -0.0056  1.6406
  648TMC3    C4 9591   0.002   1.150  16.046  0.0160  0.5402  0.4025
  648TMC3    C5 9592   0.030   1.153  15.913  0.4860  0.4068 -0.3688
  648TMC3    C6 9593   0.122   1.075  15.856 -0.4771  0.3793 -0.0841
  648TMC3     C 9594   0.042   1.059  16.267 -0.4976 -0.3754 -0.5274
  648TMC3     O 9595   0.003   1.159  16.325  0.1778 -0.0327 -0.1699
  648TMC3     H 9596   0.216   0.920  16.138 -1.4215 -0.8851 -1.0862
  648TMC3    H1 9597   4.647   1.207  16.091  0.2880  1.5703 -0.4124
  648TMC3    H2 9598   0.145   1.091  15.751 -0.2184  3.0567  0.3709
  648TMC3    C7 9599   4.718   1.269  15.840  0.9167  0.3730 -0.8108
  648TMC3    C8 9600   0.283   0.879  15.879 -0.0708 -0.3014 -0.1287
  648TMC3    O1 9601   0.027   1.264  15.721 -0.1428  0.2734 -0.0427
  648TMC3    O2 9602   0.264   0.855  15.762  0.3132  0.7261 -0.4367
  649TMC3    C1 9603   4.016   1.950  13.088 -0.3213 -0.9067 -0.0829
  649TMC3    C2 9604   4.117   1.885  13.150  0.2485 -0.1046 -0.1399
  649TMC3    C3 9605   4.094   1.831  13.278 -0.4619 -0.0131  0.2987
  649TMC3    C4 9606   3.887   1.946  13.141  0.5308  0.5195 -0.0119
  649TMC3    C5 9607   3.870   1.873  13.258 -0.0539 -0.3841  0.1059
  649TMC3    C6 9608   3.976   1.830  13.339  0.9135  0.7609 -0.2314
  649TMC3     C 9609   4.028   2.019  12.963 -0.5877  0.5205  0.5353
  649TMC3     O 9610   3.932   2.090  12.947  0.7940  0.0471 -0.4447
  649TMC3     H 9611   4.201   1.851  13.090 -1.4276 -2.1687 -1.3292
  649TMC3    H1 9612   3.800   1.981  13.086 -0.3252  0.7212  1.4935
  649TMC3    H2 9613   3.954   1.793  13.438 -2.8189  2.0808 -0.5716
  649TMC3    C7 9614   3.732   1.848  13.304  0.3116  0.4882 -0.4622
  649TMC3    C8 9615   4.195   1.751  13.338  0.0068 -0.1064  0.3856
  649TMC3    O1 9616   3.651   1.939  13.307 -0.1356 -0.3919 -0.1307
  649TMC3    O2 9617   4.159   1.673  13.426 -0.3922 -0.1983 -0.7058
  650TMC3    C1 9618   1.581   3.834  12.622  0.5773 -0.3109 -0.2324
  650TMC3    C2 9619   1.606   3.952  12.692 -0.6681  1.2494  0.1142
  650TMC3    C3 9620   1.656   4.063  12.624  0.2045  0.7148  0.3026
  650TMC3    C4 9621   1.575   3.831  12.487  0.4712 -0.4249  0.2300
  650TMC3    C5 9622   1.614   3.944  12.419 -0.2278  0.0024 -0.3236
  650TMC3    C6 9623   1.663   4.059  12.485  0.0513 -0.4071  0.4121
  650TMC3     C 9624   1.554   3.720  12.695 -0.2597  0.2032  0.0911
  650TMC3     O 9625   1.516   3.738  12.809  0.0288 -0.3332 -0.0703
  650TMC3     H 9626   1.600   3.948  12.800  1.6785 -2.9807  0.0729
  650TMC3    H1 9627   1.543   3.741  12.436  0.4402  0.1241 -0.7080
  650TMC3    H2 9628   1.672   4.157  12.440 -1.0335  0.2432  1.6137
  650TMC3    C7 9629   1.574   3.968  12.282  0.1226 -0.2046  0.5513
  650TMC3    C8 9630   1.652   4.195  12.678 -0.5481 -0.3076  0.3643
  650TMC3    O1 9631   1.487   3.893  12.235  0.2683 -0.2048 -0.8126
  650TMC3    O2 9632   1.724   4.285  12.627  0.6906  0.6174 -0.0502
  651MPD2     C 9633   0.769   0.669  10.868  0.5938 -0.0363 -0.2853
  651MPD2    C1 9634   0.736   0.801  10.848  0.0300 -0.2388 -0.1709
  651MPD2    C2 9635   0.837   0.901  10.815  0.8649  0.0096 -0.3327
  651MPD2    C3 9636   0.969   0.861  10.830 -0.5074  0.8632  0.0388
  651MPD2    C4 9637   1.000   0.732  10.861 -0.7905 -0.5295  0.2734
  651MPD2    C5 9638   0.897   0.637  10.868  0.0429 -0.2204  0.0402
  651MPD2     H 9639   0.820   1.006  10.792 -1.9037 -0.5262 -0.8134
  651MPD2    H1 9640   1.101   0.695  10.876  0.2185  2.6930  1.3754
  651MPD2    H2 9641   0.698   0.589  10.882  0.7366 -0.3755 -1.4866
  651MPD2    H3 9642   0.914   0.532  10.890 -2.0359 -0.5962 -0.1271
  651MPD2     N 9643   1.072   0.963  10.801 -0.4599 -0.1547 -0.3966
  651MPD2    H5 9644   1.040   1.049  10.758  0.9501  0.0208 -1.0934
  651MPD2    N1 9645   0.602   0.842  10.832  0.0723  0.2114 -0.1362
  651MPD2    H7 9646   0.530   0.774  10.856 -0.8222  0.7949 -1.1550
  652TMC3    C1 9647   1.465   1.186  10.736 -0.1662 -0.1308 -0.1465
  652TMC3    C2 9648   1.398   1.072  10.761 -0.3011 -0.4994  0.4488
  652TMC3    C3 9649   1.262   1.073  10.764 -0.4552  0.4755  0.3685
  652TMC3    C4 9650   1.397   1.310  10.720 -0.5065 -0.0194  0.5870
  652TMC3    C5 9651   1.253   1.309  10.737  0.1266 -0.0156 -0.2090
  652TMC3    C6 9652   1.192   1.188  10.761  0.4045 -0.7060  0.4567
  652TMC3     C 9653   1.611   1.178  10.727 -0.2596  1.2865 -0.5376
  652TMC3     O 9654   1.664   1.067  10.744  0.0767 -0.1894 -0.0614
  652TMC3     H 9655   1.443   0.974  10.768 -1.0178 -0.8358  0.3376
  652TMC3    H1 9656   1.450   1.402  10.698 -0.7612 -0.4757 -1.8638
  652TMC3    H2 9657   1.084   1.189  10.759  0.3966 -0.7234  0.8148
  652TMC3    C7 9658   1.163   1.419  10.711  0.0546  0.0707  0.1654
  652TMC3    C8 9659   1.207   0.946  10.811  0.8886  0.1865  0.0405
  652TMC3    O1 9660   1.056   1.417  10.766 -0.0543 -0.2144 -0.5895
  652TMC3    O2 9661   1.272   0.855  10.856  0.0606  0.0355 -0.1168
  653MPD2     C 9662   3.663   0.768  17.628  0.3479  0.0248 -1.1516
  653MPD2    C1 9663   3.691   0.852  17.522 -0.2982  1.1967  0.1208
  653MPD2    C2 9664   3.708   0.796  17.401  0.0709  1.2433  0.0081
  653MPD2    C3 9665   3.691   0.660  17.389 -0.4643 -0.8283 -0.5888
  653MPD2    C4 9666   3.661   0.576  17.497 -0.2242 -0.8047  0.3069
  653MPD2    C5 9667   3.657   0.635  17.612 -0.5769  0.0176  0.3640
  653MPD2     H 9668   3.738   0.852  17.313 -0.9725  1.1826 -0.3867
  653MPD2    H1 9669   3.654   0.468  17.499 -1.2242 -0.7450 -0.1049
  653MPD2    H2 9670   3.674   0.803   0.029  1.9048  0.6817 -1.5412
  653MPD2    H3 9671   3.635   0.570  17.696 -2.6437 -0.6055 -0.6610
  653MPD2     N 9672   3.687   0.612  17.258 -0.1228 -1.2203 -0.5208
  653MPD2    H5 9673   3.703   0.681  17.186 -1.8404 -0.6919 -0.3916
  653MPD2    N1 9674   3.704   0.992  17.528 -0.5921 -0.0036 -0.3598
  653MPD2    H7 9675   3.735   1.029  17.438 -0.6698 -1.3097 -0.9184
  654TMC3    C1 9676   3.710   0.438  17.097 -0.1031 -0.7684 -0.9809
  654TMC3    C2 9677   3.703   0.538  17.005 -0.3445  0.3090  0.1972
  654TMC3    C3 9678   3.691   0.506  16.874 -0.1646 -0.4189 -0.1915
  654TMC3    C4 9679   3.704   0.307  17.060  0.3385  0.6818 -0.0573
  654TMC3    C5 9680   3.686   0.284  16.924 -0.4738  0.7666  0.1858
  654TMC3    C6 9681   3.678   0.382  16.831 -0.4735  0.2882  0.7502
  654TMC3     C 9682   3.694   0.476  17.231 -0.5750 -0.1704 -0.1594
  654TMC3     O 9683   3.704   0.380  17.304 -0.1400  0.4661 -0.1937
  654TMC3     H 9684   3.696   0.644  17.028  0.3620  0.4887 -0.4409
  654TMC3    H1 9685   3.695   0.231  17.137  0.5707 -0.6644 -1.3549
  654TMC3    H2 9686   3.667   0.374  16.723 -0.4024 -1.5797  0.8818
  654TMC3    C7 9687   3.682   0.146  16.873  0.5848 -0.4112 -0.9445
  654TMC3    C8 9688   3.637   0.609  16.795  0.4585 -0.5396  0.5196
  654TMC3    O1 9689   3.662   0.140  16.750 -0.2455 -0.0642 -0.3668
  654TMC3    O2 9690   3.555   0.687  16.848 -0.1946 -0.1433 -0.4890
  655MPD2     C 9691   0.517   1.089  15.706  0.0529  0.6569  0.9980
  655MPD2    C1 9692   0.461   1.201  15.660 -0.4715 -0.0442 -0.2062
  655MPD2    C2 9693   0.460   1.231  15.522 -0.7783  0.2191 -0.3403
  655MPD2    C3 9694   0.518   1.150  15.437 -0.0297  0.5733 -0.2953
  655MPD2    C4 9695   0.571   1.032  15.473 -0.8769 -0.0102  0.1563
  655MPD2    C5 9696   0.568   1.003  15.610 -0.1552  0.0416 -0.5438
  655MPD2     H 9697   0.435   1.333  15.496 -0.9331  0.6333  1.4361
  655MPD2    H1 9698   0.622   0.970  15.401  1.0204 -0.5201  1.9412
  655MPD2    H2 9699   0.499   1.055  15.807 -1.7360  0.2742  0.5475
  655MPD2    H3 9700   0.610   0.908  15.640 -1.8229  0.5378  3.3753
  655MPD2     N 9701   0.522   1.189  15.304 -0.6274 -0.1790  0.4018
  655MPD2    H5 9702   0.565   1.132  15.233 -0.8580 -0.7779  0.7482
  655MPD2    N1 9703   0.397   1.300  15.742 -0.2912  0.8157 -0.2789
  655MPD2    H7 9704   0.338   1.360  15.685 -0.2920  0.5347 -0.5757
  656TMC3    C1 9705   0.349   1.441  15.922 -0.4784 -0.1419  0.1946
  656TMC3    C2 9706   0.321   1.451  16.054 -0.7045 -0.4055  0.7124
  656TMC3    C3 9707   0.260   1.563  16.094 -0.1690 -0.7577  0.2632
  656TMC3    C4 9708   0.328   1.538  15.831  0.0570 -0.5488  0.0158
  656TMC3    C5 9709   0.272   1.654  15.880  0.1598 -0.3703 -0.2049
  656TMC3    C6 9710   0.239   1.671  16.013  0.2239 -0.3847 -0.4102
  656TMC3     C 9711   0.414   1.314  15.883 -0.0660 -0.6290 -0.3796
  656TMC3     O 9712   0.462   1.240  15.969  0.5357 -0.4815  0.1941
  656TMC3     H 9713   0.334   1.369  16.124 -0.1851 -1.1454 -0.2408
  656TMC3    H1 9714   0.341   1.523  15.725  0.0056  2.7827 -0.4685
  656TMC3    H2 9715   0.202   1.767  16.046  1.3945 -0.2258  0.4068
  656TMC3    C7 9716   0.246   1.763  15.791  0.3113  1.0585 -0.2842
  656TMC3    C8 9717   0.153   1.532  16.189 -0.1465  0.0698 -0.3681
  656TMC3    O1 9718   0.296   1.763  15.681 -0.0385 -0.3517 -0.2670
  656TMC3    O2 9719   0.122   1.413  16.199 -0.1951  0.3527 -0.2001
  657TMC3    C1 9720   4.186   0.154  15.141  0.0207  0.2283 -0.1725
  657TMC3    C2 9721   4.282   0.115  15.238 -0.5087  0.9652  0.8863
  657TMC3    C3 9722   4.246   0.144  15.370 -0.4471 -0.2475 -0.0162
  657TMC3    C4 9723   4.076   0.227  15.171 -0.2820 -0.3100 -0.0947
  657TMC3    C5 9724   4.043   0.254  15.304 -0.5017  0.1589 -0.6499
  657TMC3    C6 9725   4.124   0.206  15.403 -0.2793 -0.4385 -0.1311
  657TMC3     C 9726   4.203   0.100  15.002  0.3701  0.5877  0.2056
  657TMC3     O 9727   4.114   0.106  14.920  0.2679 -0.5840 -0.6228
  657TMC3     H 9728   4.371   0.062  15.207 -0.1213  1.6006  0.8945
  657TMC3    H1 9729   4.002   0.246  15.094  0.4911  0.5771 -0.6252
  657TMC3    H2 9730   4.103   0.221  15.508  1.5726  0.4361  0.1098
  657TMC3    C7 9731   3.901   0.286  15.333  0.3371 -0.4006  0.5840
  657TMC3    C8 9732   4.350   0.134  15.475  0.3913  0.2466  0.7556
  657TMC3    O1 9733   3.820   0.278  15.243 -0.3488 -0.1087 -0.5443
  657TMC3    O2 9734   4.298   0.147  15.587  0.0219 -0.0739  0.4594
  658MPD2     C 9735   0.850   0.927  14.912 -0.5672 -0.0908 -1.2830
  658MPD2    C1 9736   0.795   1.030  14.845  0.0434  0.3262 -0.4406
  658MPD2    C2 9737   0.787   1.023  14.709 -0.7503  0.2817  0.2396
  658MPD2    C3 9738   0.829   0.912  14.637 -0.2043  0.6747  0.1603
  658MPD2    C4 9739   0.889   0.810  14.704 -0.2648 -0.0051  0.2947
  658MPD2    C5 9740   0.900   0.815  14.842  0.3238  0.2736 -0.1127
  658MPD2     H 9741   0.753   1.106  14.649 -0.1137 -0.5697 -1.2931
  658MPD2    H1 9742   0.943   0.732  14.650 -0.3476 -0.6412  1.1348
  658MPD2    H2 9743   0.868   0.929  15.019 -0.9374  0.9429 -1.2434
  658MPD2    H3 9744   0.935   0.729  14.898  1.7294  1.1310  0.3217
  658MPD2     N 9745   0.809   0.912  14.502 -0.3981 -0.4775  0.0578
  658MPD2    H5 9746   0.748   0.983  14.463  0.3614  0.5565  0.7482
  658MPD2    N1 9747   0.747   1.148  14.907  0.3485  1.1734  0.3843
  658MPD2    H7 9748   0.732   1.146  15.008 -1.6282 -0.5672  0.0583
  659TMC3    C1 9749   0.619   1.348  14.926  0.1545  0.0710 -0.5344
  659TMC3    C2 9750   0.594   1.299  15.052 -0.1556  0.4008 -0.5423
  659TMC3    C3 9751   0.469   1.314  15.106 -0.7045 -0.3682  0.2892
  659TMC3    C4 9752   0.526   1.422  14.857 -0.1481  0.4064  0.3291
  659TMC3    C5 9753   0.404   1.449  14.919 -0.4007  0.8984  0.2165
  659TMC3    C6 9754   0.379   1.382  15.034 -0.3549  0.1127  0.4765
  659TMC3     C 9755   0.704   1.260  14.841  0.5377  0.2250 -0.0803
  659TMC3     O 9756   0.714   1.298  14.725 -0.1507  0.5069 -0.2395
  659TMC3     H 9757   0.680   1.272  15.112  1.1986  2.6347 -1.4819
  659TMC3    H1 9758   0.544   1.464  14.758  0.4618  0.7216  0.5801
  659TMC3    H2 9759   0.280   1.385  15.078 -1.2816 -0.3017 -1.6172
  659TMC3    C7 9760   0.295   1.497  14.833  1.1861  0.7997 -0.2132
  659TMC3    C8 9761   0.436   1.288  15.247 -0.6787  0.8331 -0.2448
  659TMC3    O1 9762   0.309   1.573  14.739 -0.4395  0.5094 -0.0761
  659TMC3    O2 9763   0.340   1.345  15.299  0.5476 -0.5915  0.8490
  660MPD2     C 9764   3.565   4.496  12.505  0.0365  0.2897  0.2964
  660MPD2    C1 9765   3.432   4.479  12.461 -0.3278 -0.9796  0.0087
  660MPD2    C2 9766   3.357   4.381  12.523 -0.6000 -0.5511  0.0336
  660MPD2    C3 9767   3.393   4.326  12.644 -0.1433 -0.0620  0.3030
  660MPD2    C4 9768   3.514   4.363  12.694  0.5543  0.3250  0.4185
  660MPD2    C5 9769   3.599   4.433  12.622  0.3247  0.7517 -0.3876
  660MPD2     H 9770   3.260   4.355  12.484 -0.1842 -0.1864 -1.2704
  660MPD2    H1 9771   3.545   4.326  12.791  0.0881 -2.1457 -0.3878
  660MPD2    H2 9772   3.638   4.563  12.461 -0.4112 -1.1820 -2.6617
  660MPD2    H3 9773   3.699   4.452  12.660 -0.1598 -1.6956  2.0956
  660MPD2     N 9774   3.308   4.255  12.728  0.5899 -0.7461  0.3233
  660MPD2    H5 9775   3.326   4.273  12.826  0.5465 -1.3033  0.4336
  660MPD2    N1 9776   3.385   4.563  12.356  0.2907  0.0125 -0.2668
  660MPD2    H7 9777   3.455   4.612  12.301 -1.0208  1.0918 -1.0072
  661TMC3    C1 9778   3.220   4.652  12.218  0.2517  0.2607  0.3714
  661TMC3    C2 9779   3.313   4.688  12.124 -0.0272 -0.3426  0.1915
  661TMC3    C3 9780   3.288   0.070  12.044  0.2127  0.5455 -0.2293
  661TMC3    C4 9781   3.100   4.723  12.219  0.3758 -0.2037 -1.0355
  661TMC3    C5 9782   3.085   0.112  12.147 -0.0626  0.2731  0.5705
  661TMC3    C6 9783   3.175   0.146  12.053  0.2207 -0.1482  0.0677
  661TMC3     C 9784   3.247   4.569  12.327 -0.5420 -0.0541  0.5284
  661TMC3     O 9785   3.153   4.535  12.396 -0.0948 -0.0830 -0.1675
  661TMC3     H 9786   3.404   4.631  12.109  0.8551  1.8730 -2.7730
  661TMC3    H1 9787   3.031   4.707  12.301 -0.3888  0.7133 -1.5107
  661TMC3    H2 9788   3.157   0.227  11.983 -2.0291  2.1674  3.3237
  661TMC3    C7 9789   2.970   0.199  12.147 -0.2814  0.4230 -0.1658
  661TMC3    C8 9790   3.380   0.108  11.936 -0.0734  0.4516 -0.8727
  661TMC3    O1 9791   2.992   0.319  12.124  0.0214 -0.5578 -0.1816
  661TMC3    O2 9792   3.467   0.032  11.903 -0.0071 -0.0690  0.2184
  662MPD2     C 9793   3.562   4.259  17.198 -0.0613 -0.6766 -1.1109
  662MPD2    C1 9794   3.567   4.208  17.326  0.1889 -0.7413  0.2736
  662MPD2    C2 9795   3.561   4.281  17.440  0.3457 -0.5687 -0.3367
  662MPD2    C3 9796   3.546   4.419  17.431 -0.1882  0.5816  0.1543
  662MPD2    C4 9797   3.547   4.469  17.303 -0.0269  0.2742  0.4253
  662MPD2    C5 9798   3.572   4.395  17.188  0.3253  0.8513 -0.0867
  662MPD2     H 9799   3.574   4.233  17.536  0.7376 -0.4894 -0.3512
  662MPD2    H1 9800   3.544   4.574  17.278  0.6608  0.0298 -0.6561
  662MPD2    H2 9801   3.568   4.202  17.106 -1.8111 -1.8114 -0.5132
  662MPD2    H3 9802   3.580   4.450  17.095  1.7426  1.6414  0.5036
  662MPD2     N 9803   3.523   4.497  17.547 -0.4091  0.2121  1.0082
  662MPD2    H5 9804   3.499   4.594  17.530 -0.0531 -0.3430 -2.7167
  662MPD2    N1 9805   3.545   4.067  17.348 -0.2086  0.4093  0.3843
  662MPD2    H7 9806   3.529   4.040  17.444 -3.2631  0.1981 -0.1890
  663TMC3    C1 9807   3.491   3.840  17.295  0.4089  0.2862 -0.7201
  663TMC3    C2 9808   3.435   3.832  17.419 -0.4602  0.1506 -0.0514
  663TMC3    C3 9809   3.369   3.719  17.443  0.1673  1.1162 -0.7920
  663TMC3    C4 9810   3.528   3.736  17.213 -0.7050 -0.4745 -0.3369
  663TMC3    C5 9811   3.472   3.619  17.248  0.0517 -0.4511 -0.1340
  663TMC3    C6 9812   3.392   3.612  17.361  0.1634 -0.3368 -0.1779
  663TMC3     C 9813   3.534   3.974  17.246  0.5214 -0.1416  0.6798
  663TMC3     O 9814   3.548   3.986  17.128 -0.0740  0.5999  0.4724
  663TMC3     H 9815   3.379   3.915  17.460 -0.9315  0.3920 -1.1986
  663TMC3    H1 9816   3.585   3.748  17.121 -1.2383 -2.2141 -0.8875
  663TMC3    H2 9817   3.320   3.534  17.384 -0.6636  0.7994  1.0853
  663TMC3    C7 9818   3.472   3.513  17.148  0.0075 -0.3782  0.8493
  663TMC3    C8 9819   3.218   3.727  17.465 -0.1139  0.8541 -0.7833
  663TMC3    O1 9820   3.541   3.532  17.047 -0.5556 -0.1672  0.0607
  663TMC3    O2 9821   3.178   3.843  17.441  0.2252 -0.3320  0.0631
  664MPD2     C 9822   1.647   2.376  17.232 -0.1536  0.8463 -0.1964
  664MPD2    C1 9823   1.734   2.440  17.324 -0.7375 -0.9497 -0.1788
  664MPD2    C2 9824   1.734   2.392  17.455 -1.2234  0.3479  0.6073
  664MPD2    C3 9825   1.646   2.291  17.491  0.7804 -0.6794  0.8055
  664MPD2    C4 9826   1.551   2.234  17.397  0.2681 -0.3963  0.7248
  664MPD2    C5 9827   1.559   2.277  17.271  0.0950 -0.1581 -0.7663
  664MPD2     H 9828   1.800   2.444  17.523  0.3164  0.7411 -1.1664
  664MPD2    H1 9829   1.491   2.154  17.437 -1.3604  0.2805 -0.3878
  664MPD2    H2 9830   1.642   2.406  17.128 -3.0592 -2.7441 -1.1069
  664MPD2    H3 9831   1.492   2.235  17.197 -1.7070 -2.3038  2.1053
  664MPD2     N 9832   1.644   2.255  17.625  0.2296  0.0561  0.0485
  664MPD2    H5 9833   1.716   2.305  17.677 -0.0443 -0.3488  0.8128
  664MPD2    N1 9834   1.826   2.546  17.294 -0.1022 -0.0362  0.1052
  664MPD2    H7 9835   1.885   2.578  17.369  1.3403 -0.5682 -0.8056
  665TMC3    C1 9836   1.544   2.176   0.121 -0.3205 -0.1808  0.6598
  665TMC3    C2 9837   1.453   2.090   0.175 -0.2504 -0.7464  0.0453
  665TMC3    C3 9838   1.409   2.118   0.305 -0.3405  0.2151  0.2288
  665TMC3    C4 9839   1.562   2.305   0.185 -0.6987 -0.2185 -0.3065
  665TMC3    C5 9840   1.488   2.337   0.296 -0.2641  0.2925 -0.0164
  665TMC3    C6 9841   1.418   2.240   0.364 -0.3917  0.8993 -0.2082
  665TMC3     C 9842   1.564   2.160  17.685 -0.4334  0.5044 -0.2142
  665TMC3     O 9843   1.527   2.052  17.640  0.2550 -0.1623  0.1073
  665TMC3     H 9844   1.459   1.989   0.137 -2.6930 -0.9118  0.1387
  665TMC3    H1 9845   1.612   2.384   0.129  3.8261 -0.2694  3.6694
  665TMC3    H2 9846   1.346   2.277   0.435 -0.9281  2.4754 -1.5911
  665TMC3    C7 9847   1.517   2.462   0.362 -1.5217 -0.2007  0.3380
  665TMC3    C8 9848   1.330   2.015   0.370  0.0633 -0.5815 -0.2178
  665TMC3    O1 9849   1.599   2.528   0.299 -0.3774 -0.4144  0.2107
  665TMC3    O2 9850   1.301   1.920   0.299 -0.5653  0.5462  0.5997
  666TMC3    C1 9851   0.450   2.638   9.709 -0.5077 -0.5109  0.1236
  666TMC3    C2 9852   0.562   2.555   9.690 -0.3840 -0.6993 -0.4889
  666TMC3    C3 9853   0.675   2.606   9.621  1.0620  0.3732 -0.3623
  666TMC3    C4 9854   0.445   2.764   9.654 -0.1875  0.0998 -0.3657
  666TMC3    C5 9855   0.559   2.803   9.598 -0.3286 -0.5003  0.5478
  666TMC3    C6 9856   0.668   2.730   9.579 -0.1337  0.4225 -0.2389
  666TMC3     C 9857   0.325   2.597   9.772  0.7601 -0.2207 -0.1306
  666TMC3     O 9858   0.224   2.657   9.742 -0.0243  0.3627 -0.1434
  666TMC3     H 9859   0.556   2.449   9.710 -0.9095 -0.2503  1.7677
  666TMC3    H1 9860   0.350   2.815   9.666  0.1852  0.9267 -0.9212
  666TMC3    H2 9861   0.745   2.777   9.518 -0.4940  1.2872 -0.0204
  666TMC3    C7 9862   0.588   2.941   9.604  0.1949 -0.1425 -0.1560
  666TMC3    C8 9863   0.802   2.556   9.660  0.2148 -0.5791  0.0101
  666TMC3    O1 9864   0.705   2.978   9.612 -0.9769  0.5582  0.3576
  666TMC3    O2 9865   0.792   2.440   9.696  0.0014 -0.7969 -0.3277
  667MPD2     C 9866   1.940   2.627  15.090  0.2599 -0.3355 -0.2122
  667MPD2    C1 9867   1.998   2.500  15.054  0.1032  0.3949 -0.0470
  667MPD2    C2 9868   1.916   2.384  15.073  0.2481  0.1736  0.3340
  667MPD2    C3 9869   1.796   2.399  15.136 -0.4431 -0.3774  0.5021
  667MPD2    C4 9870   1.744   2.525  15.167  0.2057  0.9332  0.4573
  667MPD2    C5 9871   1.809   2.643  15.137  0.2778  0.0093 -0.2454
  667MPD2     H 9872   1.960   2.287  15.051  0.1809  0.2558 -0.1750
  667MPD2    H1 9873   1.644   2.541  15.206 -0.7382  0.9685 -1.9682
  667MPD2    H2 9874   1.999   2.718  15.092  1.6812 -1.2532 -0.4321
  667MPD2    H3 9875   1.764   2.737  15.167  0.8433  0.3079 -0.3307
  667MPD2     N 9876   1.708   2.292  15.160  0.1956  0.1382  0.1407
  667MPD2    H5 9877   1.623   2.306  15.214  0.5960 -2.3077  1.3923
  667MPD2    N1 9878   2.133   2.472  15.032  0.2773 -0.1671 -0.1179
  667MPD2    H7 9879   2.162   2.375  15.029  2.8725  0.5555  1.3187
  668TMC3    C1 9880   2.357   2.520  15.020  0.6779  0.6321  0.1544
  668TMC3    C2 9881   2.460   2.605  14.987  0.1760 -0.2946  0.2294
  668TMC3    C3 9882   2.586   2.576  15.028 -0.3343 -0.0641 -0.2823
  668TMC3    C4 9883   2.380   2.400  15.089  0.6344  0.4601 -1.0639
  668TMC3    C5 9884   2.509   2.382  15.129 -0.8495 -0.2403  0.5438
  668TMC3    C6 9885   2.610   2.471  15.103  0.6104  0.3890  0.3953
  668TMC3     C 9886   2.225   2.568  15.004 -1.3460 -0.3094  0.6978
  668TMC3     O 9887   2.212   2.676  14.953 -0.1750 -0.0026 -0.4277
  668TMC3     H 9888   2.435   2.701  14.944 -0.0387 -0.5695 -0.2603
  668TMC3    H1 9889   2.301   2.340  15.133  1.7346  0.0904  0.4108
  668TMC3    H2 9890   2.702   2.463  15.160 -0.0026  0.1658  1.3584
  668TMC3    C7 9891   2.559   2.262  15.193  0.1636 -0.3460 -0.0913
  668TMC3    C8 9892   2.660   2.691  15.071 -0.2595  0.3924 -0.1933
  668TMC3    O1 9893   2.677   2.237  15.167  0.7920  0.1372  0.0006
  668TMC3    O2 9894   2.672   2.719  15.192  0.1582 -0.6240 -0.2512
  669TMC3    C1 9895   0.243   2.943  14.269  1.2209  0.2725  1.0895
  669TMC3    C2 9896   0.134   2.970  14.202 -0.2368  0.3139  0.5186
  669TMC3    C3 9897   0.137   3.060  14.100  0.8883 -0.2772 -0.2623
  669TMC3    C4 9898   0.365   2.991  14.239  0.8746 -0.3826  0.3244
  669TMC3    C5 9899   0.370   3.074  14.127 -0.5767 -0.0545  0.9240
  669TMC3    C6 9900   0.259   3.098  14.051  0.9934 -0.1335  0.8340
  669TMC3     C 9901   0.238   2.837  14.372  0.2026  0.1507  0.1511
  669TMC3     O 9902   0.133   2.813  14.433  0.1012  0.3082  0.2823
  669TMC3     H 9903   0.039   2.948  14.251 -0.5293  1.3009  0.3909
  669TMC3    H1 9904   0.441   3.002  14.315  1.0386  1.6626 -0.1496
  669TMC3    H2 9905   0.272   3.177  13.977 -1.0624 -0.2485  0.3366
  669TMC3    C7 9906   0.501   3.114  14.079  0.1060  0.5095  0.5835
  669TMC3    C8 9907   0.024   3.128  14.040  0.0080  0.6629  0.8489
  669TMC3    O1 9908   0.586   3.117  14.167 -0.4363  0.0141 -0.3984
  669TMC3    O2 9909   0.040   3.224  13.965 -0.2208  0.2278  0.0557
  670MPD2     C 9910   3.594   0.520  13.428  0.0160  0.6167 -0.2194
  670MPD2    C1 9911   3.700   0.525  13.518 -0.0564  0.0861  0.1917
  670MPD2    C2 9912   3.689   0.468  13.646 -0.1575 -0.2998 -0.1870
  670MPD2    C3 9913   3.566   0.431  13.695  0.5633  0.0772 -0.3907
  670MPD2    C4 9914   3.455   0.429  13.607 -0.1112 -0.2977  0.1793
  670MPD2    C5 9915   3.475   0.474  13.477 -0.6953 -0.1023 -1.0141
  670MPD2     H 9916   3.770   0.479  13.717  0.7068 -0.9609 -1.0609
  670MPD2    H1 9917   3.355   0.409  13.643 -0.6871  1.3119 -0.5598
  670MPD2    H2 9918   3.608   0.574  13.335 -0.7872 -1.2003 -1.4024
  670MPD2    H3 9919   3.384   0.485  13.419 -1.4049  0.7018  0.2483
  670MPD2     N 9920   3.553   0.412  13.837  0.2368  0.1659 -0.1700
  670MPD2    H5 9921   3.638   0.420  13.892 -0.3332  2.1224  0.4292
  670MPD2    N1 9922   3.827   0.584  13.485  0.1179  0.0519  0.5336
  670MPD2    H7 9923   3.904   0.573  13.550  0.9403 -2.4011 -0.8666
  671TMC3    C1 9924   3.455   0.390  14.056  0.1027  0.9654  0.6325
  671TMC3    C2 9925   3.576   0.362  14.106 -0.3247 -0.0724  0.4033
  671TMC3    C3 9926   3.580   0.324  14.239 -0.2982 -0.3075  0.6021
  671TMC3    C4 9927   3.345   0.397  14.124  0.6732 -0.6638  0.0115
  671TMC3    C5 9928   3.345   0.364  14.252 -0.8709 -0.2667 -0.0875
  671TMC3    C6 9929   3.463   0.336  14.313 -0.0092  0.5865  0.0886
  671TMC3     C 9930   3.435   0.400  13.905  0.3996 -0.0309  0.0700
  671TMC3     O 9931   3.321   0.382  13.863 -0.2408  0.5306  0.0640
  671TMC3     H 9932   3.650   0.320  14.038  2.8820  3.1400  1.9569
  671TMC3    H1 9933   3.252   0.415  14.072  0.2638 -1.2951  0.5201
  671TMC3    H2 9934   3.466   0.305  14.417 -1.2244  0.4639  0.0773
  671TMC3    C7 9935   3.257   0.247  14.264 -0.5075  0.1777  1.1237
  671TMC3    C8 9936   3.661   0.208  14.273  0.9748  0.3293 -0.3511
  671TMC3    O1 9937   3.172   0.233  14.179 -0.8100  0.6736 -0.7061
  671TMC3    O2 9938   3.676   0.125  14.180 -0.8984  0.6156 -0.2953
  672MPD2     C 9939   3.252   0.714   1.298 -0.2152  0.2469 -0.1315
  672MPD2    C1 9940   3.339   0.624   1.238 -0.5893  0.7568 -0.2103
  672MPD2    C2 9941   3.474   0.661   1.231  0.1218 -0.1381  0.6882
  672MPD2    C3 9942   3.511   0.796   1.265  0.6137 -0.3125 -0.4539
  672MPD2    C4 9943   3.424   0.880   1.326  0.2503 -0.3101 -0.2585
  672MPD2    C5 9944   3.299   0.833   1.346  0.9932  0.5085 -0.7627
  672MPD2     H 9945   3.541   0.582   1.199 -0.6019 -0.0338 -1.0634
  672MPD2    H1 9946   3.452   0.976   1.367  0.8948 -0.8543  0.5727
  672MPD2    H2 9947   3.146   0.695   1.313 -0.5085 -0.7157 -3.4073
  672MPD2    H3 9948   3.232   0.900   1.397 -0.6608 -0.1986 -2.0091
  672MPD2     N 9949   3.643   0.842   1.231 -1.3102 -0.4980  0.2166
  672MPD2    H5 9950   3.668   0.938   1.252 -0.9412 -0.9530  1.8459
  672MPD2    N1 9951   3.302   0.510   1.170 -0.4197  0.5611  0.2807
  672MPD2    H7 9952   3.373   0.453   1.124 -1.0895 -0.8172  0.9300
  673TMC3    C1 9953   3.186   0.383   1.021 -0.3344 -0.4838 -0.2724
  673TMC3    C2 9954   3.175   0.254   1.045  0.9598  0.5190  0.9826
  673TMC3    C3 9955   3.229   0.165   0.954 -0.1758 -0.1361  0.4208
  673TMC3    C4 9956   3.255   0.436   0.911  0.1312 -0.2251  0.6400
  673TMC3    C5 9957   3.299   0.344   0.824 -0.1781 -0.0613 -0.0331
  673TMC3    C6 9958   3.288   0.206   0.837 -0.3954 -0.6057 -0.0099
  673TMC3     C 9959   3.177   0.468   1.139 -0.0149  0.4536  0.0513
  673TMC3     O 9960   3.071   0.496   1.194  0.0307  0.0874  0.6502
  673TMC3     H 9961   3.132   0.222   1.139 -2.0524 -1.3268 -1.0349
  673TMC3    H1 9962   3.262   0.545   0.908  1.2644 -0.2854  1.1991
  673TMC3    H2 9963   3.328   0.138   0.762 -0.7066 -0.7367 -0.0588
  673TMC3    C7 9964   3.370   0.388   0.709 -0.5880 -0.7927 -0.3754
  673TMC3    C8 9965   3.257   0.027   0.999  0.3285  0.5015 -0.0802
  673TMC3    O1 9966   3.438   0.302   0.651  0.3405 -0.1528  0.0939
  673TMC3    O2 9967   3.195   4.711   1.098  0.7644 -0.0593  0.1214
  674MPD2     C 9968   4.188   3.829   0.544 -0.7570  0.0791 -0.1863
  674MPD2    C1 9969   4.063   3.884   0.508 -0.0127  0.8309  0.0316
  674MPD2    C2 9970   3.986   3.925   0.608 -0.0463 -0.0418 -0.5853
  674MPD2    C3 9971   4.009   3.906   0.743 -0.9899 -0.4596  0.2963
  674MPD2    C4 9972   4.132   3.859   0.773 -0.2039  0.5080  0.3873
  674MPD2    C5 9973   4.219   3.817   0.675 -0.1948 -0.3012 -0.4192
  674MPD2     H 9974   3.901   3.986   0.579  0.0173 -0.3628 -1.4525
  674MPD2    H1 9975   4.153   3.835   0.877 -0.6115  2.1520  0.8527
  674MPD2    H2 9976   4.271   3.810   0.477 -0.9003  1.1497 -0.6649
  674MPD2    H3 9977   4.310   3.773   0.714 -0.3068 -1.8532 -1.9639
  674MPD2     N 9978   3.904   3.924   0.836  0.3105 -0.0521  0.2577
  674MPD2    H5 9979   3.808   3.936   0.807  0.5862 -0.2887 -0.7666
  674MPD2    N1 9980   4.028   3.900   0.374  1.1057  0.9291  0.0837
  674MPD2    H7 9981   4.099   3.892   0.302  2.8369  2.3011  1.6414
  675TMC3    C1 9982   3.883   3.928   0.189  0.0497 -0.3365  0.1100
  675TMC3    C2 9983   3.759   3.900   0.141  0.1811 -0.3985  0.4926
  675TMC3    C3 9984   3.702   3.976   0.046  0.1465  0.2566 -0.7048
  675TMC3    C4 9985   3.951   4.034   0.134  0.2538 -0.3237 -0.3889
  675TMC3    C5 9986   3.899   4.108   0.032 -0.0249 -0.6836 -0.1410
  675TMC3    C6 9987   3.773   4.077  17.684 -0.4063 -1.0841 -0.2743
  675TMC3     C 9988   3.896   3.913   0.329  1.1079  0.2403 -1.1148
  675TMC3     O 9989   3.789   3.921   0.385  0.1130 -0.6582 -0.3203
  675TMC3     H 9990   3.714   3.808   0.177  0.1449 -0.9524 -0.9746
  675TMC3    H1 9991   4.046   4.061   0.178  0.4599  0.5805 -1.3983
  675TMC3    H2 9992   3.721   4.142  17.616 -2.5910 -1.7502  0.7502
  675TMC3    C7 9993   3.965   4.218  17.679 -0.2764 -0.2192  0.1722
  675TMC3    C8 9994   3.551   3.977   0.043  0.0145  0.0767 -0.5973
  675TMC3    O1 9995   3.924   4.252  17.568 -0.1980 -0.7459  0.3013
  675TMC3    O2 9996   3.503   4.021  17.641  0.3922  0.0650  0.4722
  676MPD2     C 9997   1.325   3.677  10.797 -0.6280 -0.0087  0.3343
  676MPD2    C1 9998   1.314   3.653  10.931  0.5606  0.0625  0.5993
  676MPD2    C2 9999   1.359   3.528  10.980 -0.2061 -0.0409 -0.2333
  676MPD2    C310000   1.407   3.432  10.891 -0.2355 -0.2418  0.1907
  676MPD2    C410001   1.430   3.471  10.760  0.1647  0.0115 -0.9117
  676MPD2    C510002   1.377   3.590  10.709 -0.3440  0.2401  0.3932
  676MPD2     H10003   1.347   3.515  11.087  0.5665 -2.6863 -0.4776
  676MPD2    H110004   1.473   3.406  10.685 -0.2487 -0.0405 -1.1066
  676MPD2    H210005   1.294   3.768  10.747 -1.0443 -0.7023 -0.6885
  676MPD2    H310006   1.391   3.613  10.604  0.5180 -0.7829  0.2888
  676MPD2     N10007   1.428   3.296  10.922  0.2581  0.0823 -0.5482
  676MPD2    H510008   1.462   3.234  10.849 -0.9132 -0.2590 -0.8009
  676MPD2    N110009   1.273   3.753  11.021  0.1112 -0.2712  0.1243
  676MPD2    H710010   1.269   3.729  11.120  0.2929 -2.5744 -0.4456
  677TMC3    C110011   1.213   3.961  11.106  0.3809 -0.1044  0.1291
  677TMC3    C210012   1.153   3.906  11.218 -0.0974 -0.1529 -0.5888
  677TMC3    C310013   1.141   3.978  11.332  0.1591 -0.0416 -0.3765
  677TMC3    C410014   1.241   4.094  11.105  0.6225 -0.1247  0.1608
  677TMC3    C510015   1.227   4.165  11.214 -0.2455  0.5827  0.5576
  677TMC3    C610016   1.171   4.112  11.328 -0.0897  0.4056 -0.1415
  677TMC3     C10017   1.228   3.881  10.987 -0.6606  0.4133  0.2229
  677TMC3     O10018   1.217   3.939  10.880  0.5373 -0.0893 -0.0281
  677TMC3     H10019   1.140   3.799  11.229 -1.5282  0.2536  1.6147
  677TMC3    H110020   1.278   4.135  11.012 -0.9621 -1.3118 -0.9733
  677TMC3    H210021   1.174   4.170  11.420 -2.3744 -0.5387  0.5214
  677TMC3    C710022   1.278   4.295  11.227 -0.2168 -0.3760 -0.2437
  677TMC3    C810023   1.208   3.921  11.440 -0.5485  0.3786 -0.1794
  677TMC3    O110024   1.241   4.362  11.321  0.1950  0.2732  0.7910
  677TMC3    O210025   1.329   3.938  11.429  0.4208 -0.2432  0.0364
  678MPD2     C10026   2.628   2.633   1.344  0.4534 -0.1473  0.0390
  678MPD2    C110027   2.582   2.557   1.234  0.0280 -0.0005 -0.5621
  678MPD2    C210028   2.446   2.553   1.199  0.4653  0.0418 -0.3319
  678MPD2    C310029   2.355   2.627   1.280 -0.5665  0.1607  0.1579
  678MPD2    C410030   2.407   2.705   1.388 -0.3159  0.3032  0.1116
  678MPD2    C510031   2.537   2.699   1.425 -0.1371 -0.1014  0.3861
  678MPD2     H10032   2.408   2.496   1.115 -0.9731 -0.2900  0.5337
  678MPD2    H110033   2.342   2.755   1.458  1.6916  1.2226  1.3098
  678MPD2    H210034   2.730   2.629   1.381 -0.0893  1.8709  1.7339
  678MPD2    H310035   2.559   2.749   1.519 -1.8696 -0.1210  0.8015
  678MPD2     N10036   2.220   2.621   1.244 -0.0655  0.1950  0.2397
  678MPD2    H510037   2.195   2.566   1.163  0.2743 -1.8349  1.5188
  678MPD2    N110038   2.673   2.478   1.162  0.4146 -0.9621  0.4340
  678MPD2    H710039   2.654   2.445   1.068 -0.9348  2.0293 -0.3547
  679TMC3    C110040   3.108   2.371   1.032  0.0730 -0.2918  0.4175
  679TMC3    C210041   2.994   2.346   1.110  0.4099  0.0546  0.1720
  679TMC3    C310042   2.886   2.421   1.086  0.6864 -0.4495  0.9775
  679TMC3    C410043   3.110   2.468   0.939 -0.0753  0.4754 -0.1935
  679TMC3    C510044   2.994   2.531   0.915  0.1814  0.0309 -0.7104
  679TMC3    C610045   2.881   2.503   0.979  0.3347 -0.0972 -0.1485
  679TMC3     C10046   3.237   2.308   1.062  0.9767  0.0331 -0.0547
  679TMC3     O10047   3.322   2.313   0.971 -0.1623 -0.2408 -0.7038
  679TMC3     H10048   2.995   2.261   1.178  2.7071  0.8280  1.1113
  679TMC3    H110049   3.203   2.484   0.885  0.2754 -0.0515  0.2537
  679TMC3    H210050   2.793   2.565   0.962  0.2810  0.8787  3.6263
  679TMC3    C710051   3.005   2.668   0.855  0.6372 -0.1042  0.1897
  679TMC3    C810052   2.798   2.455   1.202  1.1285  0.3491  0.7903
  679TMC3    O110053   2.897   2.719   0.829 -0.4144 -0.0946 -0.1466
  679TMC3    O210054   2.855   2.452   1.314  0.0048  0.0010 -0.0401
  680MPD2     C10055   3.137   2.484  13.624  0.0234  0.5296  0.6568
  680MPD2    C110056   3.217   2.419  13.713 -0.1093 -0.3974  0.3149
  680MPD2    C210057   3.309   2.489  13.784  0.3543  0.7057  0.3593
  680MPD2    C310058   3.316   2.633  13.777  0.0125  0.1654 -0.3882
  680MPD2    C410059   3.234   2.693  13.681  0.5202 -0.6056 -0.1384
  680MPD2    C510060   3.147   2.619  13.610  0.3251  0.4481  0.4968
  680MPD2     H10061   3.378   2.433  13.847  0.6930  1.3239  0.5284
  680MPD2    H110062   3.239   2.801  13.669 -1.2552 -0.7737 -2.2672
  680MPD2    H210063   3.068   2.435  13.556  1.9566  0.4006 -1.1779
  680MPD2    H310064   3.081   2.663  13.536  0.0784  0.3243  0.6423
  680MPD2     N10065   3.406   2.720  13.838 -0.5735 -0.1342  0.0225
  680MPD2    H510066   3.401   2.819  13.815  2.6455 -0.0267 -0.1873
  680MPD2    N110067   3.207   2.275  13.727  0.5083 -0.0515  0.1705
  680MPD2    H710068   3.264   2.232  13.800  0.5354  0.7398  0.6214
  681TMC3    C110069   3.131   2.065  13.732  0.6658  0.9687  0.2241
  681TMC3    C210070   3.114   2.051  13.866  0.1733  0.3665 -0.1225
  681TMC3    C310071   3.103   1.922  13.920 -0.3301  0.1992  0.2671
  681TMC3    C410072   3.149   1.952  13.654  0.3820  0.1448 -0.0070
  681TMC3    C510073   3.157   1.827  13.711  0.0648  0.1558  0.8868
  681TMC3    C610074   3.124   1.809  13.844  0.4784 -0.3539  0.1340
  681TMC3     C10075   3.129   2.185  13.662 -0.1846  0.3026  0.5670
  681TMC3     O10076   3.055   2.196  13.564  0.2114  0.0796  0.1041
  681TMC3     H10077   3.096   2.141  13.924 -2.3987  0.5761 -1.2618
  681TMC3    H110078   3.156   1.963  13.546 -1.4042  0.7711 -0.0571
  681TMC3    H210079   3.101   1.708  13.873 -0.6606 -0.1195  0.0382
  681TMC3    C710080   3.198   1.714  13.643 -0.6406 -0.2005  0.1865
  681TMC3    C810081   3.120   1.905  14.060 -0.2361  0.2201  0.5559
  681TMC3    O110082   3.170   1.603  13.687 -0.0581  0.6736  0.8245
  681TMC3    O210083   3.059   1.815  14.112 -0.1506  0.3118  0.5705
  682MPD2     C10084   0.628   3.850  10.490 -0.3473 -0.4852  0.2063
  682MPD2    C110085   0.647   3.714  10.509  0.7662 -0.1476 -0.0789
  682MPD2    C210086   0.614   3.662  10.626 -0.5649 -0.9381 -0.2650
  682MPD2    C310087   0.554   3.735  10.726  0.1984 -1.0853  0.6871
  682MPD2    C410088   0.530   3.870  10.706  0.1948  0.1199  0.0940
  682MPD2    C510089   0.567   3.920  10.585 -0.5769  0.4445 -1.1994
  682MPD2     H10090   0.641   3.558  10.642 -0.1331 -1.2336 -2.8430
  682MPD2    H110091   0.480   3.938  10.774 -0.4517  1.1018 -1.3727
  682MPD2    H210092   0.661   3.913  10.408 -1.0950  0.6879  0.8237
  682MPD2    H310093   0.543   4.024  10.563 -2.1827  0.4079  0.3750
  682MPD2     N10094   0.493   3.682  10.848  0.5896  0.5069 -0.0442
  682MPD2    H510095   0.428   3.746  10.892  1.3729  1.1913  0.1021
  682MPD2    N110096   0.703   3.629  10.404  0.2020 -0.6844  0.4431
  682MPD2    H710097   0.716   3.532  10.431  1.7145  0.1402  2.6766
  683TMC3    C110098   0.470   3.609  11.241  0.6096 -1.0451 -0.3378
  683TMC3    C210099   0.433   3.493  11.291  0.0839 -0.1447 -0.6944
  683TMC3    C310100   0.407   3.390  11.201 -0.4312  0.2715  0.4727
  683TMC3    C410101   0.473   3.642  11.108 -0.1667 -0.1545 -0.0034
  683TMC3    C510102   0.438   3.535  11.025  0.1361 -0.4026 -0.5426
  683TMC3    C610103   0.412   3.410  11.066  0.1703  0.5359  0.4414
  683TMC3     C10104   0.527   3.700  11.332 -0.5720 -0.5035  0.1628
  683TMC3     O10105   0.501   3.686  11.450  0.3534 -0.3053  0.6172
  683TMC3     H10106   0.423   3.476  11.398 -1.6131  0.0118 -0.8219
  683TMC3    H110107   0.482   3.745  11.074  2.0744 -0.3583 -0.0395
  683TMC3    H210108   0.392   3.331  10.995  1.5721 -0.3364  1.0131
  683TMC3    C710109   0.491   3.549  10.891  0.0847 -0.9237 -0.2756
  683TMC3    C810110   0.484   3.286  11.259  0.4584 -0.1477  0.5181
  683TMC3    O110111   0.531   3.451  10.832 -0.6083 -0.3911 -0.3304
  683TMC3    O210112   0.536   3.299  11.369 -0.2479 -0.2778  0.6163
  684MPD2     C10113   3.350   2.766  16.455  0.2925  0.4521  0.1269
  684MPD2    C110114   3.309   2.816  16.329 -0.2851 -0.5618  0.0224
  684MPD2    C210115   3.237   2.940  16.328  0.1375  0.7516  0.3454
  684MPD2    C310116   3.216   3.012  16.446 -0.0028  0.3137  0.5790
  684MPD2    C410117   3.246   2.949  16.563 -0.7468 -0.3601  0.3271
  684MPD2    C510118   3.306   2.827  16.569 -0.0041 -0.1828 -0.2190
  684MPD2     H10119   3.204   2.970  16.229 -1.5137 -2.1566  0.0106
  684MPD2    H110120   3.227   2.993  16.660  1.4385 -0.3038  0.7232
  684MPD2    H210121   3.386   2.664  16.456  1.3632  0.8396  1.0174
  684MPD2    H310122   3.324   2.786  16.668  1.2082  1.3986  0.2175
  684MPD2     N10123   3.173   3.150  16.452  0.2445  0.0741  0.3261
  684MPD2    H510124   3.154   3.196  16.540 -2.6981  0.7591 -0.6617
  684MPD2    N110125   3.344   2.745  16.211  0.2798 -0.8631 -0.4449
  684MPD2    H710126   3.301   2.776  16.125 -1.1752 -0.8610  0.2766
  685TMC3    C110127   3.447   2.615  16.056 -0.3819 -0.8899 -0.4871
  685TMC3    C210128   3.354   2.639  15.959 -0.0408  0.2795 -0.2231
  685TMC3    C310129   3.410   2.658  15.834 -0.0179  0.0621  0.4147
  685TMC3    C410130   3.579   2.587  16.029 -0.3153  0.4123  0.1770
  685TMC3    C510131   3.635   2.628  15.911  0.6656  0.3126  0.3105
  685TMC3    C610132   3.542   2.652  15.803 -0.5465  0.4694 -0.6248
  685TMC3     C10133   3.424   2.641  16.196  0.4654 -0.3768  0.4259
  685TMC3     O10134   3.490   2.574  16.275 -0.2831 -0.1883 -0.5569
  685TMC3     H10135   3.248   2.640  15.980  0.0592  3.5817  0.1820
  685TMC3    H110136   3.645   2.581  16.115  0.5197 -0.0056 -0.4932
  685TMC3    H210137   3.577   2.675  15.703 -2.2673  0.2081 -1.2876
  685TMC3    C710138   3.757   2.711  15.923 -0.0828  0.6419 -0.1252
  685TMC3    C810139   3.320   2.692  15.721  0.5670 -0.5065  0.1115
  685TMC3    O110140   3.841   2.674  16.002  0.0468 -0.1437 -0.6151
  685TMC3    O210141   3.371   2.726  15.618  0.0848  0.4649  0.1734
  686MPD2     C10142   0.084   3.098  15.655 -0.6822  0.6400 -0.6195
  686MPD2    C110143   0.114   3.028  15.768  0.1393 -0.1388  0.5823
  686MPD2    C210144   0.204   2.920  15.764  0.3241 -0.4311  0.2587
  686MPD2    C310145   0.256   2.883  15.646 -0.4984  0.0829  0.2157
  686MPD2    C410146   0.220   2.956  15.527  0.5647 -0.7248  0.3465
  686MPD2    C510147   0.140   3.069  15.537 -0.3785 -0.0962  0.7190
  686MPD2     H10148   0.226   2.861  15.852  1.6770 -1.3379 -0.6884
  686MPD2    H110149   0.264   2.935  15.430  1.0661  0.8655  0.2346
  686MPD2    H210150   0.003   3.170  15.655  0.4175  1.8860 -1.3815
  686MPD2    H310151   0.123   3.132  15.451  1.0635 -2.9801 -1.6781
  686MPD2     N10152   0.344   2.776  15.652 -0.0402 -0.4643  0.1522
  686MPD2    H510153   0.372   2.744  15.744 -2.2357 -1.5880  0.4288
  686MPD2    N110154   0.034   3.058  15.881  0.2247 -0.2568 -0.3233
  686MPD2    H710155   4.712   3.148  15.885 -1.9622 -1.3578 -1.1835
  687TMC3    C110156   0.401   2.572  15.605  0.4104 -0.7209  0.0170
  687TMC3    C210157   0.286   2.502  15.612 -0.7629 -0.1656 -0.1835
  687TMC3    C310158   0.268   2.427  15.726  0.4780 -0.8574 -0.1584
  687TMC3    C410159   0.484   2.581  15.710  0.1392  0.0502  0.5366
  687TMC3    C510160   0.464   2.504  15.818  0.1185  0.5790 -0.4789
  687TMC3    C610161   0.354   2.420  15.831 -0.1507 -0.3845 -1.1011
  687TMC3     C10162   0.378   2.700  15.545  0.1253  0.1234 -0.3170
  687TMC3     O10163   0.332   2.715  15.435 -0.4212 -0.0130 -0.2489
  687TMC3     H10164   0.216   2.508  15.530  0.0494 -2.2085 -1.0291
  687TMC3    H110165   0.573   2.643  15.704 -0.4592  0.8977  0.3369
  687TMC3    H210166   0.323   2.353  15.910 -1.8051  0.7392 -0.7839
  687TMC3    C710167   0.573   2.481  15.905  0.2813 -0.4428 -0.3308
  687TMC3    C810168   0.127   2.442  15.774  1.1528  0.1518  0.2000
  687TMC3    O110169   0.596   2.365  15.935  0.3420  0.4812 -0.5926
  687TMC3    O210170   0.097   2.390  15.886 -0.2080  0.2039  0.8046
  688MPD2     C10171   3.869   1.592  17.114 -0.3066  0.4317 -0.0242
  688MPD2    C110172   3.909   1.484  17.182  0.1546  0.4998  0.5269
  688MPD2    C210173   4.037   1.440  17.161  0.5692  0.0232 -0.1371
  688MPD2    C310174   4.129   1.503  17.075 -0.2763 -0.5296 -0.6730
  688MPD2    C410175   4.088   1.627  17.024 -0.0508 -0.0238 -0.5918
  688MPD2    C510176   3.958   1.666  17.039 -0.2172  0.0217 -0.2113
  688MPD2     H10177   4.066   1.353  17.219  0.2614  1.3436  2.0327
  688MPD2    H110178   4.148   1.692  16.963  0.6111 -0.5065 -0.4479
  688MPD2    H210179   3.772   1.639  17.119 -1.0037 -0.9020 -1.1710
  688MPD2    H310180   3.928   1.760  16.994  1.5109  0.8434  0.3571
  688MPD2     N10181   4.257   1.457  17.042 -0.6347  0.5975  0.3837
  688MPD2    H510182   4.319   1.516  16.988  1.6837 -2.2473 -0.0847
  688MPD2    N110183   3.839   1.417  17.279 -0.0074 -0.4783 -0.4564
  688MPD2    H710184   3.880   1.333  17.319  3.9826  0.5946 -2.3143
  689TMC3    C110185   3.669   1.402  17.455 -0.4628  0.3240  0.7661
  689TMC3    C210186   3.593   1.473  17.544  0.2884 -0.1023  0.0788
  689TMC3    C310187   3.541   1.407  17.656 -0.1549 -0.3994 -0.3481
  689TMC3    C410188   3.704   1.269  17.488 -0.0817 -0.5548 -0.0373
  689TMC3    C510189   3.659   1.217  17.600 -0.4402 -0.1431 -0.0291
  689TMC3    C610190   3.583   1.281  17.689 -0.2496 -0.2942 -0.0790
  689TMC3     C10191   3.724   1.467  17.335  0.4608  0.2256  0.2643
  689TMC3     O10192   3.669   1.574  17.310 -0.2275 -0.3094 -0.2773
  689TMC3     H10193   3.572   1.579  17.536 -0.7274 -0.2561  0.5934
  689TMC3    H110194   3.771   1.220  17.419  1.0955  0.2614  0.5336
  689TMC3    H210195   3.536   1.236   0.075 -1.2280  1.1620  0.1419
  689TMC3    C710196   3.673   1.073  17.635  0.1018  0.8167 -0.4325
  689TMC3    C810197   3.487   1.478   0.069  0.5770  0.1855 -0.5154
  689TMC3    O110198   3.628   1.034   0.041 -0.5639 -0.1631 -0.3600
  689TMC3    O210199   3.526   1.445   0.182 -0.7164  0.6800 -0.3341
  690MPD2     C10200   1.545   3.808  15.742  1.0804 -0.8347  0.2518
  690MPD2    C110201   1.586   3.681  15.695 -0.9406 -0.6992  0.0437
  690MPD2    C210202   1.708   3.661  15.648 -0.0844 -0.1673  0.2960
  690MPD2    C310203   1.790   3.773  15.637 -0.6429 -0.4888 -0.3874
  690MPD2    C410204   1.745   3.899  15.661  0.1039  1.0529  0.5293
  690MPD2    C510205   1.617   3.915  15.710 -0.0341 -0.3574  0.0487
  690MPD2     H10206   1.733   3.563  15.607  1.3437 -0.3521  1.6468
  690MPD2    H110207   1.809   3.986  15.651  0.9773  0.3753  0.2158
  690MPD2    H210208   1.442   3.822  15.772  0.7604 -0.2362 -1.1023
  690MPD2    H310209   1.574   4.012  15.732 -0.6506 -0.5391 -0.3603
  690MPD2     N10210   1.920   3.748  15.576 -0.3399  0.0448 -0.1011
  690MPD2    H510211   1.939   3.652  15.550  0.7333  0.2770 -0.1751
  690MPD2    N110212   1.495   3.569  15.695 -0.4016 -0.2474  0.1036
  690MPD2    H710213   1.537   3.480  15.670 -1.6113 -0.8520  0.2181
  691TMC3    C110214   1.324   3.428  15.746  0.4219 -0.3394 -0.0456
  691TMC3    C210215   1.235   3.401  15.844  0.1989  0.4080 -0.2137
  691TMC3    C310216   1.174   3.283  15.833  1.1299 -0.2372  0.0945
  691TMC3    C410217   1.346   3.351  15.635  0.0720  0.0135 -0.4706
  691TMC3    C510218   1.287   3.231  15.630  0.2484 -0.3189  0.6132
  691TMC3    C610219   1.203   3.195  15.731  0.4794 -1.0090 -0.1260
  691TMC3     C10220   1.377   3.563  15.758  0.0134  0.2610 -0.1107
  691TMC3     O10221   1.335   3.641  15.845  0.1241  0.1758  0.0447
  691TMC3     H10222   1.209   3.479  15.915 -0.9791  1.4988 -1.8365
  691TMC3    H110223   1.402   3.373  15.545 -2.2742  0.5947 -1.7928
  691TMC3    H210224   1.133   3.115  15.710  0.4637 -0.5330 -1.8787
  691TMC3    C710225   1.291   3.151  15.508  0.9106 -0.2617 -0.0022
  691TMC3    C810226   1.051   3.259  15.909  0.5987  0.6512  0.0938
  691TMC3    O110227   1.323   3.208  15.407  0.4627  0.1883  0.0808
  691TMC3    O210228   1.027   3.143  15.939  0.0583  0.2292  0.1242
  692TMC3    C110229   3.096   4.336  15.566 -1.1832  0.5782  0.3909
  692TMC3    C210230   3.190   4.411  15.505 -1.8461 -0.3260 -0.1242
  692TMC3    C310231   3.326   4.385  15.509  0.0907  0.4386 -0.2173
  692TMC3    C410232   3.129   4.218  15.611  0.4596  0.2172  0.6606
  692TMC3    C510233   3.259   4.186  15.622  0.0797 -0.1495 -0.0014
  692TMC3    C610234   3.360   4.270  15.572 -0.3645 -0.0498 -0.1560
  692TMC3     C10235   2.991   4.410  15.636 -0.4433  0.3801 -0.2193
  692TMC3     O10236   2.956   4.358  15.743 -0.8519 -0.0658 -0.4126
  692TMC3     H10237   3.174   4.517  15.489  0.1495 -0.1056 -0.6963
  692TMC3    H110238   3.050   4.158  15.655  0.4522 -1.3828 -1.5369
  692TMC3    H210239   3.465   4.248  15.577 -0.4541 -0.0003  1.6640
  692TMC3    C710240   3.296   4.047  15.622 -0.3803  0.4381  0.6747
  692TMC3    C810241   3.398   4.499  15.560  0.6745  0.1181 -0.0912
  692TMC3    O110242   3.401   4.015  15.559  0.0956 -0.1781  0.1123
  692TMC3    O210243   3.392   4.595  15.483  0.1779  0.2730 -0.4733
  693MPD2     C10244   3.008   2.766  10.698 -0.3797 -0.4919 -0.3265
  693MPD2    C110245   2.946   2.688  10.800 -0.0541 -0.2886 -0.4204
  693MPD2    C210246   3.027   2.658  10.909 -0.4277 -0.2142  0.7859
  693MPD2    C310247   3.155   2.719  10.929 -1.0739 -0.1354 -0.4160
  693MPD2    C410248   3.204   2.798  10.828  0.1473  0.6694 -0.3037
  693MPD2    C510249   3.131   2.822  10.715  1.5075  0.6185  0.0048
  693MPD2     H10250   2.989   2.593  10.987  2.0798 -2.3810  0.2405
  693MPD2    H110251   3.307   2.829  10.846 -0.2164  0.4107  2.2674
  693MPD2    H210252   2.950   2.791  10.609 -1.6727  1.0308  0.9257
  693MPD2    H310253   3.168   2.893  10.641  2.1201 -1.9728 -2.1970
  693MPD2     N10254   3.236   2.703  11.037  0.2763  0.2371 -0.0095
  693MPD2    H510255   3.320   2.760  11.040 -0.3996  1.1672  1.4832
  693MPD2    N110256   2.818   2.633  10.802 -0.5142 -0.5646  0.0136
  693MPD2    H710257   2.789   2.598  10.892 -0.6276  0.5438  0.4097
  694TMC3    C110258   2.604   2.586  10.747  0.5703  0.0651  0.3365
  694TMC3    C210259   2.554   2.471  10.687  0.6227 -0.5309 -0.2016
  694TMC3    C310260   2.450   2.407  10.748 -0.7303 -0.3057  0.2513
  694TMC3    C410261   2.574   2.626  10.875 -0.1662 -0.1717  0.3396
  694TMC3    C510262   2.480   2.556  10.941 -0.2980 -0.1993  0.4445
  694TMC3    C610263   2.412   2.451  10.875  0.3596 -0.0996 -0.2316
  694TMC3     C10264   2.725   2.637  10.701  0.4840  0.2241 -0.2016
  694TMC3     O10265   2.739   2.653  10.580  0.2735 -0.1885  0.1088
  694TMC3     H10266   2.609   2.440  10.599 -1.5119 -2.3631 -0.9071
  694TMC3    H110267   2.605   2.721  10.917 -0.8481  0.0306  0.3833
  694TMC3    H210268   2.340   2.381  10.917  0.8477 -0.7152 -0.4135
  694TMC3    C710269   2.479   2.568  11.085 -0.0995 -0.5520 -0.1230
  694TMC3    C810270   2.366   2.296  10.688  0.6888 -1.5167 -0.0364
  694TMC3    O110271   2.528   2.669  11.133 -0.6418  0.5606 -0.3551
  694TMC3    O210272   2.318   2.211  10.760 -0.5021 -0.0841  0.2184
  695MPD2     C10273   3.391   4.015  13.822 -0.6835  0.6735 -0.3878
  695MPD2    C110274   3.370   4.073  13.944 -0.4178  0.0316  0.8097
  695MPD2    C210275   3.242   4.127  13.969  0.8073  0.3575 -0.2630
  695MPD2    C310276   3.145   4.135  13.872 -0.4363 -0.1527 -0.0269
  695MPD2    C410277   3.169   4.076  13.755  0.0478 -0.5379  0.1389
  695MPD2    C510278   3.291   4.021  13.725  0.3977  0.5912  0.7755
  695MPD2     H10279   3.218   4.162  14.069  0.3455 -0.6338 -0.0247
  695MPD2    H110280   3.097   4.069  13.674 -0.3911 -0.0109  0.4812
  695MPD2    H210281   3.485   3.971  13.790 -1.0511  0.3338 -0.9980
  695MPD2    H310282   3.311   3.973  13.630  0.7830 -0.2555  1.2829
  695MPD2     N10283   3.027   4.207  13.906  0.9458  0.5083 -0.1456
  695MPD2    H510284   3.013   4.227  14.004  1.2589  2.1967 -0.4593
  695MPD2    N110285   3.468   4.076  14.047 -0.3105 -0.9179 -0.4757
  695MPD2    H710286   3.442   4.118  14.136  0.7594  1.2205 -1.1929
  696TMC3    C110287   2.837   4.340  13.875 -0.5939  0.9152 -0.2370
  696TMC3    C210288   2.857   4.373  14.008 -0.3052 -0.2158  0.4544
  696TMC3    C310289   2.829   4.500  14.053  0.4252 -0.0897 -0.4726
  696TMC3    C410290   2.793   4.439  13.789 -0.1709 -0.0083  0.1569
  696TMC3    C510291   2.752   4.562  13.838  0.0296  0.7088 -0.5363
  696TMC3    C610292   2.765   4.592  13.970 -0.5195  0.3513  0.2672
  696TMC3     C10293   2.934   4.251  13.818  0.0350  0.8197 -0.0142
  696TMC3     O10294   2.932   4.235  13.697 -0.3052  0.5170  0.4315
  696TMC3     H10295   2.885   4.302  14.085  1.3496 -1.5831 -1.4227
  696TMC3    H110296   2.765   4.421  13.687  1.3979  0.2218 -0.3185
  696TMC3    H210297   2.721   4.681  14.014 -0.9244  1.6598 -2.8228
  696TMC3    C710298   2.779   4.674  13.748  0.2210  0.0739 -0.9974
  696TMC3    C810299   2.934   4.572  14.121  0.5031  0.5167  0.5378
  696TMC3    O110300   2.779   4.670  13.627 -0.5153  0.1853 -0.6680
  696TMC3    O210301   2.932   4.692  14.107  0.0636 -0.7143  0.2363
  697MPD2     C10302   3.239   1.486  15.777  0.0960 -0.3271  0.0584
  697MPD2    C110303   3.184   1.466  15.654  0.1166 -0.4366 -0.4891
  697MPD2    C210304   3.202   1.558  15.555  0.2607 -0.0077  0.4309
  697MPD2    C310305   3.270   1.678  15.571  0.2085  0.0744  0.3507
  697MPD2    C410306   3.311   1.702  15.699  0.7295  0.2174  0.7474
  697MPD2    C510307   3.307   1.605  15.793 -0.6385  0.5332 -0.2512
  697MPD2     H10308   3.160   1.539  15.457 -2.2814 -0.1562  1.5317
  697MPD2    H110309   3.359   1.792  15.733  1.8736  0.4907 -1.6155
  697MPD2    H210310   3.245   1.413  15.857 -0.3880 -0.1351  0.2697
  697MPD2    H310311   3.360   1.621  15.886 -2.1164 -0.4471  0.7542
  697MPD2     N10312   3.290   1.762  15.458  0.1089  0.2278  1.0030
  697MPD2    H510313   3.245   1.739  15.370 -0.3702  1.8511  0.8238
  697MPD2    N110314   3.106   1.351  15.632 -0.3911  0.0508  0.8263
  697MPD2    H710315   3.058   1.338  15.543 -1.1723  0.0423  1.2441
  698TMC3    C110316   3.378   1.943  15.333  0.2099 -0.2977 -0.0518
  698TMC3    C210317   3.436   2.066  15.332  0.1712 -0.2045  0.2404
  698TMC3    C310318   3.442   2.140  15.218 -0.0250  0.0756 -0.9316
  698TMC3    C410319   3.327   1.889  15.217  0.2586 -0.3358 -0.0851
  698TMC3    C510320   3.319   1.974  15.109 -0.1370 -0.2537  0.6978
  698TMC3    C610321   3.390   2.089  15.099 -0.7731  0.1995 -0.0294
  698TMC3     C10322   3.384   1.865  15.453  0.5808 -0.3883  1.7204
  698TMC3     O10323   3.456   1.905  15.543  0.5004 -0.0238  0.1094
  698TMC3     H10324   3.477   2.122  15.415 -1.1213  0.0783  0.6826
  698TMC3    H110325   3.272   1.796  15.218  2.1435 -1.4598  0.3068
  698TMC3    H210326   3.389   2.149  15.009  1.2325 -1.0035 -0.8645
  698TMC3    C710327   3.277   1.910  14.985 -0.3176 -0.5121  0.5712
  698TMC3    C810328   3.552   2.240  15.209 -0.0874 -0.8140  0.2846
  698TMC3    O110329   3.245   1.984  14.889 -0.1750 -0.1007 -0.8354
  698TMC3    O210330   3.549   2.324  15.122 -0.4898  0.3608  0.0588
  699TMC3    C110331   3.097   4.179  12.787 -0.0119 -0.1695  0.3694
  699TMC3    C210332   3.028   4.064  12.785 -0.6725  0.5917 -0.7376
  699TMC3    C310333   2.905   4.064  12.851 -0.5222  0.6131 -0.4740
  699TMC3    C410334   3.035   4.299  12.823  0.0976  0.5167 -0.0717
  699TMC3    C510335   2.906   4.297  12.871  0.5302  0.7259  0.5792
  699TMC3    C610336   2.842   4.174  12.892 -0.2963 -0.1336  0.1839
  699TMC3     C10337   3.195   4.183  12.685  0.4901 -0.3530  0.1848
  699TMC3     O10338   3.167   4.137  12.576  0.5858 -0.5355 -0.1936
  699TMC3     H10339   3.079   3.977  12.745 -2.9601 -0.8958 -0.4226
  699TMC3    H110340   3.081   4.396  12.808 -0.5462  0.9256  0.6109
  699TMC3    H210341   2.754   4.165  12.955  0.4242  0.4949  1.2749
  699TMC3    C710342   2.856   4.401  12.963 -0.5840 -0.1738  0.0490
  699TMC3    C810343   2.874   3.941  12.930 -0.2552 -0.2237  0.3196
  699TMC3    O110344   2.789   4.355  13.058 -0.0449  0.0674  0.5582
  699TMC3    O210345   2.756   3.923  12.950  0.2060  0.4837  0.1626
  700TMC3    C110346   2.250   1.801  16.670 -0.1953 -1.1382 -0.5667
  700TMC3    C210347   2.350   1.703  16.645 -0.0540 -0.3737  0.3124
  700TMC3    C310348   2.394   1.626  16.754 -0.2077 -0.0578 -0.1223
  700TMC3    C410349   2.202   1.820  16.800  0.0976 -0.1468  0.0486
  700TMC3    C510350   2.244   1.741  16.905  0.3447  0.4044 -0.1195
  700TMC3    C610351   2.343   1.649  16.887 -0.2916 -0.0161 -0.4268
  700TMC3     C10352   2.206   1.904  16.567  0.4600 -0.1523  0.3714
  700TMC3     O10353   2.156   2.008  16.611  0.3027 -0.5323  0.2234
  700TMC3     H10354   2.395   1.683  16.549  0.3701  0.0546  0.4220
  700TMC3    H110355   2.145   1.910  16.820  1.4752  0.8260 -0.3796
  700TMC3    H210356   2.365   1.588  16.974  1.4931  0.0279 -0.8430
  700TMC3    C710357   2.197   1.791  17.036 -0.4310 -0.6978 -0.2906
  700TMC3    C810358   2.520   1.550  16.733 -1.1443 -0.3570  0.1910
  700TMC3    O110359   2.277   1.792  17.129 -0.1937 -0.9063 -0.2844
  700TMC3    O210360   2.587   1.581  16.637  0.4567 -0.2221 -0.0520
  701TMC3    C110361   2.161   0.531  15.639 -0.8340 -0.2329  0.3803
  701TMC3    C210362   2.166   0.423  15.568 -0.2211 -0.5491 -0.1994
  701TMC3    C310363   2.227   0.424  15.448 -0.5112 -0.2042  0.2916
  701TMC3    C410364   2.223   0.647  15.603  0.2142  0.6528  0.1541
  701TMC3    C510365   2.275   0.650  15.480  0.2660  0.4023 -0.3431
  701TMC3    C610366   2.278   0.540  15.398 -0.5713 -0.4858  0.3782
  701TMC3     C10367   2.080   0.525  15.767  0.3708  0.1627 -0.3722
  701TMC3     O10368   2.021   0.418  15.797 -0.4450  0.1809 -0.3504
  701TMC3     H10369   2.120   0.333  15.606 -2.8467  0.0581 -1.9585
  701TMC3    H110370   2.212   0.741  15.657 -1.8034 -0.3361  1.4963
  701TMC3    H210371   2.353   0.546  15.320 -0.7549  0.4275  0.2643
  701TMC3    C710372   2.339   0.776  15.437  0.7499 -0.0096  1.0294
  701TMC3    C810373   2.263   0.295  15.394 -0.3628 -0.1197 -0.0273
  701TMC3    O110374   2.344   0.798  15.318 -0.2787 -0.5622 -0.5219
  701TMC3    O210375   2.250   0.191  15.462 -0.1381 -0.5191  0.1079
  702MPD2     C10376   1.931   2.926  10.633  0.0411 -0.8968 -0.1896
  702MPD2    C110377   1.836   3.020  10.658  0.4214  0.1747 -0.2959
  702MPD2    C210378   1.812   3.119  10.564 -0.1689  0.8103 -0.0650
  702MPD2    C310379   1.889   3.134  10.449 -0.2243  0.1777  0.5223
  702MPD2    C410380   1.986   3.035  10.425 -0.1420 -0.4018  0.3403
  702MPD2    C510381   2.007   2.937  10.521 -0.4569  0.4472 -0.1216
  702MPD2     H10382   1.727   3.181  10.589 -1.2793 -1.8853  2.8727
  702MPD2    H110383   2.046   3.042  10.334  0.3925 -2.1334  0.5591
  702MPD2    H210384   1.950   2.842  10.699  1.3711  0.7252  1.4917
  702MPD2    H310385   2.092   2.872  10.505 -0.3405  0.4058  0.6682
  702MPD2     N10386   1.864   3.230  10.345  0.2901 -0.0357 -0.0773
  702MPD2    H510387   1.938   3.227  10.275  1.3551  1.2632  1.0059
  702MPD2    N110388   1.739   3.020  10.763 -0.1051 -1.0623  0.4130
  702MPD2    H710389   1.675   3.099  10.755 -0.6647 -1.5165  0.3403
  703TMC3    C110390   1.766   3.401  10.219 -0.1743 -0.1119  0.0466
  703TMC3    C210391   1.654   3.475  10.188 -0.0256  0.0304 -0.4406
  703TMC3    C310392   1.671   3.590  10.111 -0.3123 -0.3121 -0.8492
  703TMC3    C410393   1.892   3.443  10.181 -0.1674 -0.6656  0.3229
  703TMC3    C510394   1.899   3.553  10.095 -0.3670  0.4574  0.5984
  703TMC3    C610395   1.787   3.621  10.054 -0.3521  0.2237  0.5083
  703TMC3     C10396   1.760   3.318  10.338 -0.3675  0.7592 -0.8236
  703TMC3     O10397   1.663   3.312  10.412  0.1051 -0.2572  0.2756
  703TMC3     H10398   1.554   3.448  10.221  0.3716  0.4595  1.1003
  703TMC3    H110399   1.983   3.410  10.229 -0.2980 -0.7074  0.5378
  703TMC3    H210400   1.795   3.692   9.972  3.2701  0.2731  0.8891
  703TMC3    C710401   2.032   3.597  10.051 -0.1653  0.2017  0.2101
  703TMC3    C810402   1.547   3.651  10.063 -0.8921  0.1321  0.5099
  703TMC3    O110403   2.042   3.713  10.007 -0.6051 -0.8091  0.0611
  703TMC3    O210404   1.537   3.669   9.941  0.4085  0.0784 -0.0124
  704TMC3    C110405   4.393   1.081  12.788  0.3357 -0.1071  0.4219
  704TMC3    C210406   4.501   1.102  12.708 -0.2682 -0.1697 -0.1289
  704TMC3    C310407   4.593   0.999  12.697 -0.7281 -0.3146 -0.0857
  704TMC3    C410408   4.373   0.959  12.853 -0.0974 -0.1592 -0.8075
  704TMC3    C510409   4.464   0.851  12.831 -0.5766  0.0709  0.4707
  704TMC3    C610410   4.580   0.880  12.760  0.4444 -0.2018  0.0408
  704TMC3     C10411   4.274   1.131  12.736  0.2479  0.6211  0.0086
  704TMC3     O10412   4.177   1.139  12.813  0.1152  0.3514  0.1592
  704TMC3     H10413   4.516   1.187  12.643  1.1045 -1.6107 -1.6899
  704TMC3    H110414   4.279   0.948  12.907  2.0123 -2.5699  2.3299
  704TMC3    H210415   4.646   0.797  12.735 -0.6875 -1.4315  1.1137
  704TMC3    C710416   4.399   0.741  12.764 -0.8702 -0.2409  0.2723
  704TMC3    C810417   4.653   1.007  12.568  0.4133 -0.3363 -0.2796
  704TMC3    O110418   4.447   0.702  12.656 -0.0609 -0.2862  0.2089
  704TMC3    O210419   4.603   1.063  12.472 -0.0276  0.3345 -0.5732
  705MPD2     C10420   3.472   4.169  16.257  0.1911 -0.5114 -0.5150
  705MPD2    C110421   3.532   4.278  16.312 -0.7787  0.6568  0.2823
  705MPD2    C210422   3.502   4.305  16.443  0.5708 -0.3850 -0.1839
  705MPD2    C310423   3.418   4.221  16.516 -0.1394  0.7939  0.1776
  705MPD2    C410424   3.360   4.111  16.454 -0.5823 -0.7374 -0.0241
  705MPD2    C510425   3.394   4.082  16.325 -0.4592 -0.5229  0.0978
  705MPD2     H10426   3.538   4.397  16.488 -0.4947  0.1819 -0.4863
  705MPD2    H110427   3.291   4.043  16.503 -0.7222  0.4070  1.3638
  705MPD2    H210428   3.502   4.150  16.155  0.1069 -1.1449 -0.4230
  705MPD2    H310429   3.357   3.990  16.281 -1.3957 -0.2828  0.3801
  705MPD2     N10430   3.387   4.250  16.653 -0.3483  0.0449  0.3820
  705MPD2    H510431   3.319   4.187  16.694 -1.1345 -0.2889 -1.4075
  705MPD2    N110432   3.616   4.363  16.245  0.7108  0.2038 -0.4804
  705MPD2    H710433   3.654   4.439  16.300  0.7637 -1.1141  1.3241
  706TMC3    C110434   3.998   4.469  16.052 -0.5903 -0.2133  0.1250
  706TMC3    C210435   3.979   4.606  16.071 -0.0814 -0.3245 -0.5117
  706TMC3    C310436   3.854   4.653  16.110  0.1639  0.3097  1.1777
  706TMC3    C410437   3.892   4.383  16.060 -0.4727  0.0646  0.8918
  706TMC3    C510438   3.771   4.441  16.094 -0.3239 -0.1260  0.1910
  706TMC3    C610439   3.751   4.574  16.112 -0.4113  0.0197  0.2903
  706TMC3     C10440   4.126   4.417  16.006 -0.9048 -0.7772 -0.8466
  706TMC3     O10441   4.223   4.467  16.058 -0.3728 -0.1191 -0.0629
  706TMC3     H10442   4.059   4.675  16.047 -1.1283  0.4031 -1.9027
  706TMC3    H110443   3.913   4.278  16.044 -1.7854 -0.2873  1.4218
  706TMC3    H210444   3.658   4.623  16.142 -1.1226 -1.5868  0.6769
  706TMC3    C710445   3.666   4.342  16.116 -0.2805  0.5571  0.1741
  706TMC3    C810446   3.836   0.072  16.114 -0.0976  0.9101  0.6517
  706TMC3    O110447   3.655   4.242  16.044  0.0911  0.2224  0.0701
  706TMC3    O210448   3.729   0.113  16.152 -0.0003 -0.3265  0.4046
  707TMC3    C110449   4.718   2.293   0.434 -0.4490 -0.2352 -0.6947
  707TMC3    C210450   4.722   2.166   0.483  0.3823 -0.4510 -0.2676
  707TMC3    C310451   4.605   2.088   0.496 -0.2224 -0.1401  0.0921
  707TMC3    C410452   4.597   2.360   0.427  0.3088 -0.1550  0.2348
  707TMC3    C510453   4.482   2.291   0.455  0.4481  0.2832  0.5761
  707TMC3    C610454   4.486   2.157   0.478  0.0411 -0.6631  0.0563
  707TMC3     C10455   0.106   2.377   0.459 -0.0679  0.5263 -0.3325
  707TMC3     O10456   0.215   2.330   0.443 -0.3604 -0.1937 -0.4132
  707TMC3     H10457   0.095   2.122   0.502  1.0243  0.5526 -1.2589
  707TMC3    H110458   4.586   2.460   0.389  0.6510 -0.8138 -1.5884
  707TMC3    H210459   4.394   2.100   0.480 -1.5924  2.0188  1.7279
  707TMC3    C710460   4.357   2.342   0.400  0.9442  0.6859  0.0155
  707TMC3    C810461   4.601   1.953   0.557  0.3863  0.7935  0.0593
  707TMC3    O110462   4.361   2.430   0.315 -0.1894 -0.1796 -0.0330
  707TMC3    O210463   4.497   1.913   0.609 -0.3455  0.0414  0.3217
  708MPD2     C10464   2.482   2.640  13.500 -0.6226  0.2933 -0.5833
  708MPD2    C110465   2.352   2.655  13.537  0.5795  0.3559  0.4137
  708MPD2    C210466   2.306   2.590  13.644  0.1990 -0.5220 -0.1837
  708MPD2    C310467   2.383   2.504  13.715 -0.1940 -0.0252 -0.3443
  708MPD2    C410468   2.522   2.502  13.693  0.0666  0.5573  0.1847
  708MPD2    C510469   2.563   2.582  13.584  0.4420 -0.6894  0.3122
  708MPD2     H10470   2.205   2.613  13.675  0.9563  2.8094 -0.1601
  708MPD2    H110471   2.588   2.440  13.753  1.2915  1.4691 -0.2113
  708MPD2    H210472   2.530   2.708  13.430  0.6503  1.1381  1.0875
  708MPD2    H310473   2.667   2.573  13.556  0.7867 -0.8425  1.6595
  708MPD2     N10474   2.323   2.439  13.825 -0.2090 -0.6057 -0.8007
  708MPD2    H510475   2.222   2.446  13.833  0.1360  0.3523  2.9950
  708MPD2    N110476   2.268   2.740  13.470  0.7898  0.3283 -0.2102
  708MPD2    H710477   2.175   2.756  13.507  0.9533  0.9646 -0.0645
  709TMC3    C110478   2.170   2.885  13.321 -0.3194  0.8101 -1.2318
  709TMC3    C210479   2.107   2.833  13.214  0.2799  0.1306  1.2212
  709TMC3    C310480   1.970   2.812  13.232 -0.4561  0.1442 -0.2443
  709TMC3    C410481   2.103   2.932  13.436  0.4081 -0.0469  0.0737
  709TMC3    C510482   1.974   2.895  13.451 -0.5647 -0.2449 -0.1029
  709TMC3    C610483   1.904   2.838  13.351 -0.3235 -0.4321 -0.1849
  709TMC3     C10484   2.289   2.816  13.355  0.0059 -0.8169  0.3903
  709TMC3     O10485   2.375   2.807  13.268  0.3912 -0.0765  0.1760
  709TMC3     H10486   2.161   2.797  13.127 -2.6296  0.2562 -0.6344
  709TMC3    H110487   2.152   2.966  13.526  1.1565 -0.1171 -0.3128
  709TMC3    H210488   1.798   2.817  13.365 -0.8837  1.6627 -1.0994
  709TMC3    C710489   1.950   2.835  13.581  0.2848 -0.4595  0.0076
  709TMC3    C810490   1.900   2.728  13.145  0.6452  1.2603 -0.1093
  709TMC3    O110491   2.047   2.792  13.640 -0.2204  0.0293 -0.0397
  709TMC3    O210492   1.802   2.672  13.198  0.2788 -0.9221  0.1309
  710TMC3    C110493   2.677   3.315   0.420  0.1525  0.0671 -0.4879
  710TMC3    C210494   2.724   3.347   0.299  1.2154 -0.1558  0.1518
  710TMC3    C310495   2.804   3.255   0.238 -0.3453 -0.1018 -0.9885
  710TMC3    C410496   2.710   3.201   0.484 -0.3248 -0.2611  0.0082
  710TMC3    C510497   2.812   3.131   0.424  0.7108  0.1722 -0.6471
  710TMC3    C610498   2.866   3.151   0.300 -0.1643 -0.4353 -0.5247
  710TMC3     C10499   2.617   3.426   0.496 -0.0841 -0.0629  0.3597
  710TMC3     O10500   2.658   3.538   0.467  0.0243 -0.8123  0.5901
  710TMC3     H10501   2.712   3.445   0.253  0.8309  0.0990  0.8012
  710TMC3    H110502   2.673   3.180   0.584  3.6933 -1.3660  1.2521
  710TMC3    H210503   2.931   3.076   0.257  1.4564  0.4490  0.4031
  710TMC3    C710504   2.879   3.039   0.505 -0.0167 -0.4954 -0.3010
  710TMC3    C810505   2.879   3.299   0.124  0.5482 -0.5212  0.2906
  710TMC3    O110506   2.812   2.992   0.594 -0.1662  0.5329 -0.3022
  710TMC3    O210507   3.001   3.285   0.119 -0.4621 -0.3178  0.0588
  711TMC3    C110508   2.923   0.445  14.957 -0.8948 -0.1579  0.0272
  711TMC3    C210509   2.931   0.515  15.075  0.1875  0.2479 -0.7612
  711TMC3    C310510   3.032   0.494  15.163 -0.3719  0.3455  0.4962
  711TMC3    C410511   3.024   0.352  14.925  0.2466  0.2977 -0.1730
  711TMC3    C510512   3.120   0.328  15.017  0.1259 -0.1937 -0.3207
  711TMC3    C610513   3.132   0.402  15.132 -0.3960 -0.1092 -1.2300
  711TMC3     C10514   2.811   0.356  14.959  0.1075  0.0855 -0.9798
  711TMC3     O10515   2.809   0.276  14.865 -0.3631  0.2372 -0.2300
  711TMC3     H10516   2.856   0.592  15.093 -1.7439 -1.8317  0.1491
  711TMC3    H110517   3.017   0.302  14.829  0.1790 -0.9283  0.4697
  711TMC3    H210518   3.215   0.396  15.202  0.1937 -1.0242 -2.0066
  711TMC3    C710519   3.173   0.198  15.038 -0.7716 -0.2125  0.4413
  711TMC3    C810520   2.979   0.493  15.303  0.4549 -0.0376 -0.4006
  711TMC3    O110521   3.257   0.187  15.130  0.2810 -0.0236  0.0332
  711TMC3    O210522   2.860   0.484  15.316  0.1631  0.4254  0.0636
  712MPD2     C10523   4.188   1.230  13.903 -0.0336  0.2044 -0.3725
  712MPD2    C110524   4.078   1.290  13.843 -0.3280  1.1045 -0.5364
  712MPD2    C210525   4.081   1.418  13.794 -0.0232 -0.3553  0.2702
  712MPD2    C310526   4.202   1.487  13.792  0.1504 -0.1941  0.3591
  712MPD2    C410527   4.313   1.425  13.834  0.1224  0.0473 -0.4142
  712MPD2    C510528   4.303   1.303  13.887  0.0958 -0.0457  0.7147
  712MPD2     H10529   3.999   1.476  13.753  1.7530  2.3728  0.5608
  712MPD2    H110530   4.410   1.474  13.838  0.9215 -1.4881 -1.0776
  712MPD2    H210531   4.187   1.133  13.949  2.2479  1.7808  2.9928
  712MPD2    H310532   4.392   1.254  13.925 -0.5636 -2.2939 -0.6440
  712MPD2     N10533   4.218   1.620  13.760 -0.4048  0.0194  0.2024
  712MPD2    H510534   4.312   1.656  13.753 -0.8921  1.3886  0.6865
  712MPD2    N110535   3.950   1.227  13.839 -0.2459 -0.4000 -0.1794
  712MPD2    H710536   3.880   1.279  13.786 -0.1268  0.7726  0.8107
  713TMC3    C110537   4.171   1.834  13.703 -0.5485 -0.1633 -0.1848
  713TMC3    C210538   4.300   1.852  13.657  0.6322  0.2107  0.4733
  713TMC3    C310539   4.338   1.988  13.660 -0.0560  0.4038  0.2374
  713TMC3    C410540   4.085   1.932  13.731  0.1151  0.2380  0.5465
  713TMC3    C510541   4.131   2.060  13.737 -0.1408 -0.0924 -0.1221
  713TMC3    C610542   4.258   2.093  13.696  0.4523  0.7288 -0.0906
  713TMC3     C10543   4.119   1.706  13.738  0.3782 -0.2966 -0.0464
  713TMC3     O10544   3.999   1.698  13.752 -0.4040  0.4711  0.2816
  713TMC3     H10545   4.361   1.783  13.600  0.3603  0.8785 -0.6187
  713TMC3    H110546   3.983   1.912  13.760  0.0540 -0.5564 -0.2135
  713TMC3    H210547   4.286   2.192  13.664 -0.7696  0.6152 -1.5214
  713TMC3    C710548   4.031   2.158  13.694  0.3196  1.5696 -0.0221
  713TMC3    C810549   4.464   2.023  13.600  0.4986 -0.3645  0.4225
  713TMC3    O110550   3.930   2.118  13.639 -0.0607 -0.0187  0.3017
  713TMC3    O210551   4.472   2.125  13.534 -0.1155 -0.0690 -0.3203
  714MPD2     C10552   1.298   3.969   1.428  0.0960  0.2631 -0.0159
  714MPD2    C110553   1.400   4.042   1.377 -0.7908 -0.6467  0.5978
  714MPD2    C210554   1.377   4.103   1.256 -0.1499  0.1123  0.1340
  714MPD2    C310555   1.251   4.123   1.202 -0.7564 -0.9057 -0.3706
  714MPD2    C410556   1.146   4.082   1.278 -0.2154 -0.2756  0.0914
  714MPD2    C510557   1.173   3.993   1.383  0.2141 -0.5665 -0.0727
  714MPD2     H10558   1.463   4.140   1.202 -1.0381  0.8148 -0.8092
  714MPD2    H110559   1.047   4.105   1.241 -0.6441 -0.8675  0.8748
  714MPD2    H210560   1.327   3.903   1.509  1.7322  2.1329  0.9156
  714MPD2    H310561   1.095   3.968   1.454 -0.8106 -0.8186 -1.2918
  714MPD2     N10562   1.243   4.198   1.082 -0.3010  0.8102 -0.4191
  714MPD2    H510563   1.327   4.231   1.036 -1.6841  2.5502 -1.7674
  714MPD2    N110564   1.533   4.017   1.434  0.3729 -0.3047 -0.0561
  714MPD2    H710565   1.557   3.951   1.506  1.8484 -0.1717 -0.4298
  715TMC3    C110566   1.769   4.046   1.454 -0.1507 -0.0161  0.2849
  715TMC3    C210567   1.805   3.922   1.417 -0.4455  0.9035 -0.9215
  715TMC3    C310568   1.936   3.879   1.430 -0.4139  1.3845  0.5737
  715TMC3    C410569   1.848   4.140   1.505 -0.9815  0.0832  0.7825
  715TMC3    C510570   1.975   4.093   1.522  0.2114  0.5125  0.7077
  715TMC3    C610571   2.023   3.971   1.481 -0.4260 -0.1766  0.1567
  715TMC3     C10572   1.644   4.091   1.392  0.1735  0.3774  0.1102
  715TMC3     O10573   1.654   4.195   1.329 -0.6066 -0.0230  0.2380
  715TMC3     H10574   1.732   3.858   1.368 -0.7694 -0.2827  1.1119
  715TMC3    H110575   1.819   4.242   1.525  1.6563  0.7125  1.3624
  715TMC3    H210576   2.126   3.944   1.502  0.3754  1.7084 -1.3591
  715TMC3    C710577   2.065   4.171   1.602  0.3168 -0.1269 -0.0941
  715TMC3    C810578   1.974   3.754   1.371 -0.6802  0.7741 -0.4749
  715TMC3    O110579   2.186   4.157   1.582 -0.2749  0.2539  0.0350
  715TMC3    O210580   1.878   3.678   1.343 -0.0775 -0.0788 -0.5978
  716MPD2     C10581   1.808   3.110   9.576  0.2622 -0.5928  0.9446
  716MPD2    C110582   1.724   3.121   9.471 -0.4251 -0.1461 -0.1696
  716MPD2    C210583   1.650   3.015   9.424 -0.0439 -0.4043 -0.1018
  716MPD2    C310584   1.644   2.896   9.497  0.6422 -0.2005  1.1477
  716MPD2    C410585   1.722   2.896   9.614  0.4253  0.0651 -0.3385
  716MPD2    C510586   1.806   2.994   9.649 -0.0355  0.7250  0.2591
  716MPD2     H10587   1.596   3.022   9.330  2.7363 -0.3136 -1.6897
  716MPD2    H110588   1.728   2.811   9.680  0.5113 -0.2412 -0.7381
  716MPD2    H210589   1.867   3.193   9.612 -0.3062  0.8985 -1.5683
  716MPD2    H310590   1.872   2.981   9.734  0.2000 -0.8438 -0.1701
  716MPD2     N10591   1.540   2.805   9.464 -0.3095 -0.1064 -0.0602
  716MPD2    H510592   1.491   2.822   9.377 -0.7328 -2.2090 -0.2270
  716MPD2    N110593   1.706   3.249   9.419 -0.6148  1.3364 -0.2216
  716MPD2    H710594   1.762   3.326   9.455 -0.1468  0.5591  0.7115
  717TMC3    C110595   1.387   2.635   9.473 -0.2848 -0.0582 -0.7105
  717TMC3    C210596   1.296   2.732   9.423  0.2920 -0.6135  0.1707
  717TMC3    C310597   1.165   2.693   9.416 -0.5355  0.0316 -0.4283
  717TMC3    C410598   1.355   2.508   9.504 -0.8582 -0.2820  0.1658
  717TMC3    C510599   1.223   2.482   9.498 -0.0242  0.5099 -0.3883
  717TMC3    C610600   1.124   2.571   9.455  0.3049  0.0092  0.1220
  717TMC3     C10601   1.509   2.692   9.532 -0.7578  0.0520  0.1227
  717TMC3     O10602   1.560   2.637   9.627  0.0707 -0.3515  0.7234
  717TMC3     H10603   1.323   2.835   9.403  0.8110 -1.3237 -2.7988
  717TMC3    H110604   1.429   2.433   9.531 -2.1446 -1.1856  1.2071
  717TMC3    H210605   1.018   2.550   9.465  0.2922  0.1922  0.3726
  717TMC3    C710606   1.175   2.346   9.518  0.2175  0.5332 -0.0867
  717TMC3    C810607   1.075   2.779   9.342  0.3496 -0.2663 -0.2798
  717TMC3    O110608   1.060   2.330   9.485  0.0581 -0.1502 -0.0778
  717TMC3    O210609   0.952   2.772   9.361 -0.1783 -0.4654  0.1365
  718MPD2     C10610   1.308   0.810  12.999  0.2409 -0.5804  0.5936
  718MPD2    C110611   1.285   0.925  12.934  0.6454 -0.6241  0.1130
  718MPD2    C210612   1.158   0.968  12.906  0.3983  0.7854  0.6824
  718MPD2    C310613   1.052   0.902  12.971  0.0905 -0.8653 -0.0450
  718MPD2    C410614   1.080   0.799  13.053 -0.1266  0.5767 -0.4269
  718MPD2    C510615   1.204   0.752  13.071 -0.3455 -0.4276  0.2833
  718MPD2     H10616   1.138   1.046  12.834 -1.4591  1.0709  1.4871
  718MPD2    H110617   0.998   0.750  13.104 -0.1559  2.1424  1.0393
  718MPD2    H210618   1.412   0.781  13.013  0.8215 -0.4459 -3.4150
  718MPD2    H310619   1.219   0.652  13.111 -2.3760 -1.7586 -2.2127
  718MPD2     N10620   0.921   0.933  12.927 -0.4833  0.2812  0.7776
  718MPD2    H510621   0.898   0.999  12.853  0.8357  0.0084  0.1386
  718MPD2    N110622   1.397   0.989  12.871 -0.1563 -0.6140 -0.2828
  718MPD2    H710623   1.484   0.938  12.860 -0.4930 -1.3403  0.3634
  719TMC3    C110624   1.490   1.139  12.708 -0.2864 -0.2862 -0.3049
  719TMC3    C210625   1.480   1.046  12.610  0.2835  0.2673 -0.1361
  719TMC3    C310626   1.462   1.084  12.481 -0.3888  0.6791 -0.2050
  719TMC3    C410627   1.514   1.271  12.674 -0.0871 -0.5503 -0.2628
  719TMC3    C510628   1.525   1.303  12.540 -0.5509  0.0346  0.0300
  719TMC3    C610629   1.506   1.209  12.442  0.0156  0.1815  0.0605
  719TMC3     C10630   1.383   1.110  12.804 -0.0641  0.6026 -0.0104
  719TMC3     O10631   1.306   1.202  12.823 -0.2284 -0.6527  0.6646
  719TMC3     H10632   1.463   0.943  12.638  0.1332  0.2436 -0.3169
  719TMC3    H110633   1.511   1.343  12.755  0.3166 -1.3201  0.4285
  719TMC3    H210634   1.494   1.234  12.337  1.0347  1.0221  0.1575
  719TMC3    C710635   1.597   1.424  12.504 -0.7190 -0.3281 -0.1476
  719TMC3    C810636   1.324   1.060  12.457  0.3243  0.9052  0.6393
  719TMC3    O110637   1.619   1.450  12.388  0.3065 -0.5720  0.3381
  719TMC3    O210638   1.274   0.968  12.516  0.4021  0.3249 -0.3362
  720MPD2     C10639   3.896   3.518  13.817  0.3571  0.2649 -0.0934
  720MPD2    C110640   4.025   3.494  13.775  0.0059  0.6918  0.1172
  720MPD2    C210641   4.113   3.422  13.858  0.0221 -0.1866 -0.0448
  720MPD2    C310642   4.065   3.384  13.987 -1.0379 -0.3482 -0.5467
  720MPD2    C410643   3.935   3.407  14.019 -0.7446  0.0714 -0.0325
  720MPD2    C510644   3.846   3.476  13.940  0.3653  0.2498  0.6739
  720MPD2     H10645   4.215   3.399  13.829 -0.0875 -0.6116 -0.0944
  720MPD2    H110646   3.888   3.361  14.105 -1.1632 -0.4951 -0.5597
  720MPD2    H210647   3.815   3.545  13.750  0.6312 -1.3159 -1.0664
  720MPD2    H310648   3.739   3.482  13.957  0.5116  2.0254  0.9671
  720MPD2     N10649   4.155   3.335  14.084 -0.0967  0.1923  0.2795
  720MPD2    H510650   4.250   3.310  14.061 -0.9470 -0.0018 -2.9392
  720MPD2    N110651   4.050   3.540  13.639  0.0756  0.4537 -0.3245
  720MPD2    H710652   3.982   3.599  13.593  0.8648 -1.2456 -3.6621
  721TMC3    C110653   4.236   3.265  14.291  0.7914 -0.1015  0.4771
  721TMC3    C210654   4.205   3.243  14.425  0.6951  0.5204  0.3655
  721TMC3    C310655   4.310   3.231  14.511  1.1671  0.1946 -0.1520
  721TMC3    C410656   4.367   3.301  14.257  0.0652  0.3539 -0.1046
  721TMC3    C510657   4.468   3.305  14.348  0.3247  0.2122 -0.3093
  721TMC3    C610658   4.437   3.278  14.477  0.3944  0.2215 -0.2003
  721TMC3     C10659   4.127   3.304  14.214  0.3640 -0.3946  0.0411
  721TMC3     O10660   4.026   3.324  14.277 -0.2768 -0.1577 -0.7146
  721TMC3     H10661   4.110   3.207  14.464  0.6172  0.8267  0.4594
  721TMC3    H110662   4.399   3.333  14.159 -0.4030  2.3954  0.3947
  721TMC3    H210663   4.518   3.271  14.549 -1.3352 -0.8091  1.6377
  721TMC3    C710664   4.603   3.332  14.311  0.2316 -0.1572 -0.6058
  721TMC3    C810665   4.296   3.229  14.661  0.2125  0.8587 -0.2068
  721TMC3    O110666   4.624   3.424  14.233  0.0997  0.3378 -0.3454
  721TMC3    O210667   4.396   3.221  14.724  0.0071 -0.1400  0.1345
  722MPD2     C10668   3.258   1.977  13.269  0.9123 -0.7834 -0.3883
  722MPD2    C110669   3.188   2.097  13.264  0.1680 -0.2744  0.4006
  722MPD2    C210670   3.060   2.093  13.215 -0.1341 -0.2781  1.0166
  722MPD2    C310671   2.992   1.978  13.183 -0.7420 -0.7323 -0.0596
  722MPD2    C410672   3.065   1.861  13.182  0.2230  0.1042  0.2838
  722MPD2    C510673   3.197   1.858  13.223 -0.0624 -0.4098 -0.3473
  722MPD2     H10674   3.002   2.185  13.213 -0.2023 -0.3436  0.0191
  722MPD2    H110675   3.018   1.766  13.156  1.0402 -0.3782  0.5640
  722MPD2    H210676   3.360   1.976  13.307  0.6320 -2.5072  0.3195
  722MPD2    H310677   3.248   1.762  13.223  0.1498 -0.2890  1.1095
  722MPD2     N10678   2.854   1.992  13.145  0.8818 -0.0250  0.4899
  722MPD2    H510679   2.810   2.083  13.138  0.7903 -0.1092 -0.0494
  722MPD2    N110680   3.236   2.218  13.312  0.3823  0.4714 -0.3140
  722MPD2    H710681   3.174   2.297  13.297  1.9434  1.5956 -0.8184
  723TMC3    C110682   2.618   1.939  13.112  0.2300  0.1094  0.0816
  723TMC3    C210683   2.522   1.858  13.152 -0.4345 -0.2200 -0.1150
  723TMC3    C310684   2.390   1.902  13.145 -0.3743 -0.0779 -0.5879
  723TMC3    C410685   2.595   2.062  13.058  0.9069 -0.0641  0.1015
  723TMC3    C510686   2.461   2.094  13.044 -0.4964 -0.2992  0.3608
  723TMC3    C610687   2.361   2.020  13.092  0.3901  0.3941 -0.1267
  723TMC3     C10688   2.763   1.891  13.123 -0.7674  0.5929 -0.3061
  723TMC3     O10689   2.767   1.769  13.134  0.1792  0.3754  0.1690
  723TMC3     H10690   2.542   1.762  13.198 -1.7707 -0.2183  0.4462
  723TMC3    H110691   2.667   2.121  13.002 -1.4926  0.7015 -2.1647
  723TMC3    H210692   2.258   2.054  13.079  0.5117  1.0129  0.5579
  723TMC3    C710693   2.437   2.196  12.944 -0.1672  0.0031 -0.0718
  723TMC3    C810694   2.284   1.801  13.153  0.0426  0.3780  0.1264
  723TMC3    O110695   2.526   2.272  12.899  0.1902  0.0694  0.2422
  723TMC3    O210696   2.176   1.832  13.194 -0.3682 -0.1615  0.6688
  724TMC3    C110697   3.864   0.938   9.718  0.6069 -0.7407 -0.3932
  724TMC3    C210698   3.943   0.832   9.700  0.0127 -0.4233 -0.2104
  724TMC3    C310699   3.889   0.719   9.641  0.1221  0.5295  0.6216
  724TMC3    C410700   3.727   0.936   9.689  0.4135  0.3590  0.5161
  724TMC3    C510701   3.675   0.821   9.640  0.7475 -0.0328  0.6589
  724TMC3    C610702   3.755   0.712   9.614  0.4062  0.2546 -0.5949
  724TMC3     C10703   3.912   1.046   9.801  0.3023 -0.4035 -0.4025
  724TMC3     O10704   3.987   1.022   9.894 -0.2901  0.3493 -0.6234
  724TMC3     H10705   4.050   0.844   9.714  0.1178  0.1678 -1.4624
  724TMC3    H110706   3.670   1.026   9.707  0.5972  0.7897 -1.0324
  724TMC3    H210707   3.717   0.620   9.569 -1.4171  0.8977 -0.3514
  724TMC3    C710708   3.552   0.827   9.566  0.1940  0.0036 -0.1122
  724TMC3    C810709   3.973   0.644   9.548 -0.0463 -0.0023 -0.2070
  724TMC3    O110710   3.498   0.723   9.543 -0.3668  0.3229  0.2389
  724TMC3    O210711   3.912   0.597   9.450 -0.3949  0.0078  0.2875
  725TMC3    C110712   4.297   3.514  12.145  0.3102  0.2776  0.4110
  725TMC3    C210713   4.307   3.556  12.016 -0.1798 -0.3038 -0.7719
  725TMC3    C310714   4.329   3.467  11.914 -0.3800  0.0711 -1.0997
  725TMC3    C410715   4.302   3.385  12.179  0.2283 -0.1452 -0.4024
  725TMC3    C510716   4.322   3.291  12.068  0.2602  0.1639 -0.5137
  725TMC3    C610717   4.334   3.336  11.938  0.1955  0.3418 -0.2790
  725TMC3     C10718   4.311   3.613  12.249 -0.2816  0.2476  0.4166
  725TMC3     O10719   4.346   3.724  12.211 -0.0677 -0.4549  0.0935
  725TMC3     H10720   4.302   3.661  11.993 -0.4289 -0.1041  0.1850
  725TMC3    H110721   4.295   3.342  12.278  2.1524  0.8521  0.1559
  725TMC3    H210722   4.355   3.259  11.865  0.1380 -0.4558  0.5333
  725TMC3    C710723   4.378   3.157  12.090 -0.3159 -0.0444 -0.1348
  725TMC3    C810724   4.383   3.516  11.792  0.2949 -0.2890 -0.6603
  725TMC3    O110725   4.439   3.112  11.996  0.2438  0.6957 -0.2594
  725TMC3    O210726   4.390   3.430  11.705  0.8102  0.0786  0.2695
  726MPD2     C10727   2.558   0.966   9.485 -0.2460 -0.5067 -0.3649
  726MPD2    C110728   2.546   0.949   9.619 -0.4734 -0.5143  0.2459
  726MPD2    C210729   2.550   0.821   9.676 -0.2770  0.0725 -0.1528
  726MPD2    C310730   2.563   0.706   9.598 -0.5205  0.2987 -0.3120
  726MPD2    C410731   2.573   0.726   9.462  0.5607 -0.9074 -0.2542
  726MPD2    C510732   2.560   0.855   9.408 -0.2051 -1.5303 -0.7543
  726MPD2     H10733   2.546   0.821   9.784 -2.0838 -0.7315 -0.2058
  726MPD2    H110734   2.575   0.636   9.400 -0.4935 -1.8225  1.0390
  726MPD2    H210735   2.563   1.068   9.449  1.5751 -0.3988  0.1952
  726MPD2    H310736   2.573   0.868   9.301 -0.1699  1.3126 -0.3869
  726MPD2     N10737   2.570   0.576   9.656 -0.5846  0.2307 -0.1377
  726MPD2    H510738   2.601   0.503   9.592  1.2876  0.6594  0.2813
  726MPD2    N110739   2.538   1.057   9.715  0.3708 -0.2979  0.3365
  726MPD2    H710740   2.537   1.046   9.816  0.1073  2.0280  0.5762
  727TMC3    C110741   2.544   1.272   9.795  0.0913  0.7280 -0.4884
  727TMC3    C210742   2.603   1.219   9.903 -0.1569 -0.6828  0.3319
  727TMC3    C310743   2.612   1.291  10.020 -0.5731 -0.0236 -0.4707
  727TMC3    C410744   2.470   1.389   9.805 -0.0183  0.4417 -0.5920
  727TMC3    C510745   2.464   1.456   9.923 -0.3643 -0.1104 -0.9876
  727TMC3    C610746   2.540   1.412  10.030 -0.1057  0.4651  0.1874
  727TMC3     C10747   2.547   1.193   9.677 -0.4549 -0.5239  0.3462
  727TMC3     O10748   2.536   1.254   9.569  0.7977  0.4044  0.1895
  727TMC3     H10749   2.664   1.130   9.900  0.5940 -0.1516 -0.2703
  727TMC3    H110750   2.415   1.414   9.715 -0.3760 -3.7139 -1.5471
  727TMC3    H210751   2.529   1.455  10.129 -4.1372 -0.1911  0.0365
  727TMC3    C710752   2.348   1.552   9.944  0.4162  0.8192 -0.3436
  727TMC3    C810753   2.693   1.232  10.127  0.5283 -0.3816  0.3232
  727TMC3    O110754   2.314   1.566  10.059 -0.5781 -0.3841 -0.8304
  727TMC3    O210755   2.763   1.135  10.102  0.2883 -0.3877 -0.3331
  728TMC3    C110756   2.097   3.770  15.433  0.3752 -0.1960 -0.4183
  728TMC3    C210757   2.149   3.652  15.475  0.3448 -0.4839 -0.6081
  728TMC3    C310758   2.244   3.594  15.394 -0.1478  0.6061 -0.4786
  728TMC3    C410759   2.128   3.823  15.312 -0.5146  0.5056  0.0517
  728TMC3    C510760   2.214   3.755  15.226 -0.0550 -0.2323  0.1792
  728TMC3    C610761   2.277   3.642  15.270  0.3224 -0.0303  0.4071
  728TMC3     C10762   2.003   3.840  15.519 -0.0703  0.4666  0.0177
  728TMC3     O10763   1.999   3.963  15.514 -0.1724  0.0452 -0.5187
  728TMC3     H10764   2.138   3.625  15.579  2.4039  0.0201 -0.2576
  728TMC3    H110765   2.074   3.911  15.280 -3.4607 -1.8102 -1.3381
  728TMC3    H210766   2.361   3.601  15.215 -0.0442 -0.0720 -0.1279
  728TMC3    C710767   2.226   3.805  15.091  0.0060 -0.5479  0.7506
  728TMC3    C810768   2.326   3.496  15.463  0.3179  0.0597  0.0034
  728TMC3    O110769   2.206   3.926  15.080  0.4675  0.0558  0.9661
  728TMC3    O210770   2.299   3.473  15.581  0.4994  0.1493 -0.1690
  729MPD2     C10771   4.581   4.516  16.460 -0.3627 -0.0484  0.5468
  729MPD2    C110772   4.495   4.626  16.458  0.3366  0.1939  0.5768
  729MPD2    C210773   4.394   4.635  16.553  0.4270 -0.2070  0.0345
  729MPD2    C310774   4.372   4.541  16.652 -0.1036  0.6336  0.0983
  729MPD2    C410775   4.458   4.431  16.648 -0.6908 -0.9082 -0.7580
  729MPD2    C510776   4.556   4.420  16.554  0.5341  0.2724  0.1413
  729MPD2     H10777   4.330   4.723  16.558  2.4171  1.2077  0.3183
  729MPD2    H110778   4.447   4.348  16.717  0.5832  0.1139  0.6863
  729MPD2    H210779   4.669   4.507  16.398  0.5871  1.1226  1.7342
  729MPD2    H310780   4.617   4.331  16.559  1.0792  0.5749 -1.1411
  729MPD2     N10781   4.280   4.553  16.754  0.1510  0.3627  0.3974
  729MPD2    H510782   4.279   4.480  16.825 -0.3244  1.9443  2.0172
  729MPD2    N110783   4.526   0.003  16.362  0.1669  0.3031  0.6234
  729MPD2    H710784   4.587   4.703  16.285 -0.5328 -1.8517  0.7562
  730TMC3    C110785   4.168   4.694  16.908 -0.0049  0.0280 -0.0058
  730TMC3    C210786   4.254   4.646  17.006 -0.1258 -0.3097 -0.1813
  730TMC3    C310787   4.241   4.712  17.132  0.7759 -0.5395  0.9893
  730TMC3    C410788   4.082   0.068  16.933  0.4907  0.1212  0.2257
  730TMC3    C510789   4.091   0.141  17.047 -0.3947  0.1703 -0.8276
  730TMC3    C610790   4.163   0.094  17.156  0.5253 -0.0464  0.2211
  730TMC3     C10791   4.187   4.654  16.770 -0.4070 -0.2551  0.2565
  730TMC3     O10792   4.135   0.005  16.687  0.0953  0.4927 -0.5473
  730TMC3     H10793   4.313   4.555  16.991 -0.2001 -0.6418  1.6158
  730TMC3    H110794   4.011   0.101  16.858 -1.5974 -1.7204  1.3767
  730TMC3    H210795   4.151   0.130  17.258 -1.7384  0.7618 -0.3362
  730TMC3    C710796   4.057   0.287  17.032 -0.2810  0.5420  1.1304
  730TMC3    C810797   4.333   4.673  17.234  0.4519 -0.1974  0.4165
  730TMC3    O110798   4.053   0.331  16.918 -0.1417 -0.5335 -0.8839
  730TMC3    O210799   4.362   4.551  17.238 -0.3211  0.3640  0.3920
  731MPD2     C10800   4.201   2.301  11.655  0.3838 -0.3431  0.2667
  731MPD2    C110801   4.334   2.302  11.632 -0.0175  0.3244 -0.1524
  731MPD2    C210802   4.429   2.278  11.735  0.4084 -0.2865 -0.0984
  731MPD2    C310803   4.385   2.258  11.862 -0.2002  0.1999  0.1419
  731MPD2    C410804   4.248   2.259  11.888  0.3506  0.2304  0.9018
  731MPD2    C510805   4.162   2.284  11.783 -0.5495 -0.4467 -0.2383
  731MPD2     H10806   4.536   2.287  11.721  0.3786  2.5766  1.5603
  731MPD2    H110807   4.203   2.249  11.986 -1.8072  1.4493  0.0340
  731MPD2    H210808   4.116   2.306  11.587 -0.3558  1.9276  1.3589
  731MPD2    H310809   4.055   2.269  11.792 -0.5729  0.6249  1.3522
  731MPD2     N10810   4.481   2.228  11.964 -0.4189 -0.8171 -0.1595
  731MPD2    H510811   4.579   2.239  11.940 -0.5790  0.6998 -0.1578
  731MPD2    N110812   4.373   2.345  11.504 -0.9532  0.1320  0.6258
  731MPD2    H710813   4.306   2.356  11.428  1.4779  0.1276 -1.5564
  732TMC3    C110814   4.505   2.434  11.336 -0.2660  0.9263 -0.1266
  732TMC3    C210815   4.413   2.524  11.295  0.4480 -0.8472  0.3235
  732TMC3    C310816   4.436   2.592  11.181 -0.5827 -0.0837 -0.8611
  732TMC3    C410817   4.625   2.433  11.277 -0.4027  0.4316  0.8415
  732TMC3    C510818   4.659   2.510  11.169  0.3549 -0.0757 -0.0145
  732TMC3    C610819   4.556   2.585  11.115  0.0387  0.1682 -1.0386
  732TMC3     C10820   4.495   2.390  11.473  0.5404  0.1501 -0.3662
  732TMC3     O10821   4.597   2.422  11.537  0.5731  0.2397 -0.4600
  732TMC3     H10822   4.313   2.521  11.337 -0.0632 -2.1561 -0.9666
  732TMC3    H110823   4.698   2.366  11.322  2.8048  4.1823  1.1560
  732TMC3    H210824   4.582   2.672  11.056 -1.0028  2.0670  1.2924
  732TMC3    C710825   0.055   2.588  11.181  0.2184 -0.3069 -0.5640
  732TMC3    C810826   4.353   2.692  11.150  0.0377  0.4179  0.0836
  732TMC3    O110827   0.076   2.679  11.103  0.3290 -0.3858 -0.4730
  732TMC3    O210828   4.365   2.752  11.043 -0.0583  0.1964  0.1658
  733TMC3    C110829   0.490   0.945  12.827 -0.6850 -0.4948  0.0123
  733TMC3    C210830   0.580   0.890  12.910  0.5413  0.4277  0.0359
  733TMC3    C310831   0.709   0.884  12.871 -0.3073 -0.2914 -0.3050
  733TMC3    C410832   0.518   0.986  12.706 -0.8238  0.4957  0.0668
  733TMC3    C510833   0.655   0.982  12.667 -0.0546 -0.2855 -0.2240
  733TMC3    C610834   0.746   0.922  12.745  0.0906  0.3811  0.0184
  733TMC3     C10835   0.346   0.970  12.865 -0.3784 -0.2552  0.9649
  733TMC3     O10836   0.288   1.067  12.821 -0.5070  0.1350  0.5271
  733TMC3     H10837   0.546   0.844  13.003  0.1806  0.1083 -0.2568
  733TMC3    H110838   0.440   1.030  12.645 -0.7042 -0.5263 -0.8136
  733TMC3    H210839   0.838   0.888  12.700 -0.2684 -0.0925 -0.3604
  733TMC3    C710840   0.692   1.038  12.542  0.1250  0.8802 -0.3274
  733TMC3    C810841   0.808   0.864  12.970 -0.4532  0.3803  1.0296
  733TMC3    O110842   0.608   1.071  12.463 -0.7811 -0.5337 -0.0701
  733TMC3    O210843   0.783   0.800  13.077 -0.0165  0.4596  0.1824
  734MPD2     C10844   2.355   3.947  12.010  0.0223 -0.5331  0.1287
  734MPD2    C110845   2.342   3.836  11.931  0.2307  0.4014 -0.0667
  734MPD2    C210846   2.386   3.844  11.797  0.5684 -0.6415  0.0991
  734MPD2    C310847   2.445   3.961  11.754  0.3962  0.7201 -0.6555
  734MPD2    C410848   2.440   4.077  11.835  0.0178 -0.6536 -0.4092
  734MPD2    C510849   2.394   4.067  11.966  0.3061  0.3590  0.9830
  734MPD2     H10850   2.380   3.766  11.722 -0.0801  0.4987 -1.0336
  734MPD2    H110851   2.487   4.169  11.802 -0.9436  0.6110  1.7444
  734MPD2    H210852   2.340   3.929  12.116 -3.4534 -0.4974 -0.3734
  734MPD2    H310853   2.401   4.145  12.041 -2.4222 -0.4683  2.1012
  734MPD2     N10854   2.508   3.957  11.626  0.5474 -0.2476 -0.0253
  734MPD2    H510855   2.483   3.889  11.555  0.8941 -0.2706 -0.1266
  734MPD2    N110856   2.297   3.713  11.982  0.1618  0.2920  0.0859
  734MPD2    H710857   2.282   3.700  12.082  0.8967 -0.4734  0.0963
  735TMC3    C110858   2.295   3.478  11.990  0.1256 -0.1145  0.4806
  735TMC3    C210859   2.255   3.367  11.915  0.1216 -0.8666  0.5085
  735TMC3    C310860   2.331   3.254  11.924  0.1773  0.2427 -0.3349
  735TMC3    C410861   2.404   3.467  12.073  0.2378  0.0385  0.3839
  735TMC3    C510862   2.474   3.351  12.081  0.1233  0.2592  0.0273
  735TMC3    C610863   2.427   3.240  12.022  0.6481 -0.6292 -0.6640
  735TMC3     C10864   2.292   3.599  11.909 -0.1541  0.2475  1.0376
  735TMC3     O10865   2.336   3.573  11.799 -0.3379 -0.8696 -0.0338
  735TMC3     H10866   2.178   3.372  11.839 -1.2816  0.1694  1.9854
  735TMC3    H110867   2.445   3.559  12.112 -0.6795  0.6196 -0.0122
  735TMC3    H210868   2.486   3.152  12.001  1.7934 -0.4673  1.9536
  735TMC3    C710869   2.620   3.363  12.089 -0.3512 -0.5156  0.1717
  735TMC3    C810870   2.396   3.216  11.803  0.2293 -0.8207 -0.1860
  735TMC3    O110871   2.669   3.471  12.054  0.3650  0.2390  0.4584
  735TMC3    O210872   2.434   3.103  11.790 -0.3308  0.3374  0.1039
  736MPD2     C10873   2.867   3.110  12.183  0.0467  0.4672  0.2966
  736MPD2    C110874   2.827   3.223  12.121  0.1279 -0.1556  0.5868
  736MPD2    C210875   2.919   3.305  12.069  0.4340  0.3292  0.7857
  736MPD2    C310876   3.053   3.272  12.079 -0.2819  0.0538  0.7359
  736MPD2    C410877   3.093   3.150  12.139 -0.1073  0.7311 -0.4371
  736MPD2    C510878   3.005   3.073  12.203 -0.6531 -0.9255 -0.6507
  736MPD2     H10879   2.878   3.389  12.014  0.6747 -0.6461 -0.8659
  736MPD2    H110880   3.194   3.111  12.132 -1.3617 -2.6660  0.3748
  736MPD2    H210881   2.791   3.043  12.219  0.4668 -1.0779 -1.6531
  736MPD2    H310882   3.038   2.980  12.248 -0.4741 -0.7295 -0.3805
  736MPD2     N10883   3.147   3.352  12.011 -0.4282  0.5896  0.0962
  736MPD2    H510884   3.237   3.304  12.003 -0.1052  1.2879 -0.4307
  736MPD2    N110885   2.685   3.250  12.127  0.4215 -0.9536 -0.0282
  736MPD2    H710886   2.617   3.183  12.162 -0.6004 -0.7857 -1.7120
  737TMC3    C110887   3.240   3.523  11.864 -0.6917  0.2856 -0.2009
  737TMC3    C210888   3.212   3.645  11.807 -0.2414  0.2856 -0.3731
  737TMC3    C310889   3.254   3.658  11.679  0.0969 -0.3106 -0.2449
  737TMC3    C410890   3.324   3.426  11.812 -0.9387 -0.1269  0.5618
  737TMC3    C510891   3.378   3.452  11.692 -0.0016  0.5016  0.4955
  737TMC3    C610892   3.337   3.565  11.613  0.6046 -0.0727  0.5910
  737TMC3     C10893   3.133   3.480  11.959 -0.0797  0.1919 -0.3861
  737TMC3     O10894   3.034   3.551  11.964 -0.1231 -0.0576 -0.1301
  737TMC3     H10895   3.148   3.723  11.846  1.2285  0.8383  0.9129
  737TMC3    H110896   3.349   3.342  11.875 -0.5478 -1.2328 -1.0672
  737TMC3    H210897   3.351   3.575  11.506  0.9450  1.2706  0.7576
  737TMC3    C710898   3.451   3.340  11.633  0.4692 -0.5019 -0.1853
  737TMC3    C810899   3.214   3.777  11.601 -0.0920 -0.4966  0.3114
  737TMC3    O110900   3.455   3.235  11.699 -0.1698  1.0253 -0.0165
  737TMC3    O210901   3.187   3.885  11.660 -0.4202 -0.6739 -0.2548
  738MPD2     C10902   3.880   2.209  15.386  0.8225  0.1386 -0.7791
  738MPD2    C110903   3.790   2.266  15.297 -0.1456 -0.1451  0.0134
  738MPD2    C210904   3.824   2.380  15.222 -0.1970 -0.0042  0.6941
  738MPD2    C310905   3.946   2.442  15.251  0.1839 -0.1431  0.0768
  738MPD2    C410906   4.031   2.386  15.343  0.1457 -0.0207 -0.5091
  738MPD2    C510907   4.005   2.270  15.405 -0.1184  0.1478 -0.5472
  738MPD2     H10908   3.744   2.417  15.158  0.2542 -0.5752 -0.1954
  738MPD2    H110909   4.132   2.425  15.342  0.5572 -1.1166 -0.7847
  738MPD2    H210910   3.848   2.117  15.435 -0.3755  1.0675  0.1885
  738MPD2    H310911   4.084   2.220  15.460  0.6861  2.8149  0.7183
  738MPD2     N10912   3.997   2.552  15.179  0.2107  0.0013  0.3989
  738MPD2    H510913   4.091   2.576  15.208  0.9313 -3.4906  0.9558
  738MPD2    N110914   3.660   2.204  15.289  0.0896 -0.1117 -0.4092
  738MPD2    H710915   3.653   2.113  15.332 -0.9431  0.1250 -0.0880
  739TMC3    C110916   3.989   2.754  15.050 -0.4213  0.2169 -0.0284
  739TMC3    C210917   3.978   2.783  14.917 -0.1745 -0.1812  0.2318
  739TMC3    C310918   4.079   2.843  14.847 -0.6588  0.9439 -0.4233
  739TMC3    C410919   4.106   2.795  15.110 -0.1852 -0.6959  0.3063
  739TMC3    C510920   4.202   2.852  15.035  1.4698 -0.3040 -0.4830
  739TMC3    C610921   4.199   2.879  14.904 -0.3129  0.1480  0.5091
  739TMC3     C10922   3.917   2.639  15.096  0.1588  0.8110  0.0599
  739TMC3     O10923   3.814   2.616  15.038  0.2939  0.7203  0.0149
  739TMC3     H10924   3.884   2.759  14.867  0.3484 -2.0108  0.1124
  739TMC3    H110925   4.117   2.775  15.216  1.5705 -1.8128 -0.0878
  739TMC3    H210926   4.278   2.934  14.854  0.6011 -0.8867  0.7969
  739TMC3    C710927   4.330   2.860  15.101 -0.0374  0.0934 -0.8532
  739TMC3    C810928   4.049   2.846  14.704 -0.3209  1.4850  0.5143
  739TMC3    O110929   4.337   2.854  15.226  0.3026  0.2402 -0.5621
  739TMC3    O210930   3.934   2.826  14.667  0.6722  0.0977 -0.7725
  740TMC3    C110931   4.058   3.689  14.220 -0.7532 -0.6631  0.7292
  740TMC3    C210932   4.117   3.662  14.343  0.4301 -0.2588 -0.9352
  740TMC3    C310933   4.252   3.651  14.343 -0.7200 -0.5303 -0.4998
  740TMC3    C410934   4.131   3.683  14.100 -0.4044 -0.6909  0.0005
  740TMC3    C510935   4.262   3.660  14.109 -0.1215 -1.1033  0.0627
  740TMC3    C610936   4.330   3.635  14.227 -0.2861 -0.3887 -0.1951
  740TMC3     C10937   3.917   3.730  14.212 -0.0774  0.7432 -0.2788
  740TMC3     O10938   3.883   3.761  14.097 -0.0997  0.5306 -0.8591
  740TMC3     H10939   4.061   3.671  14.435  1.0635 -0.3702 -0.5347
  740TMC3    H110940   4.077   3.676  14.006 -0.3092  2.3064 -0.2764
  740TMC3    H210941   4.437   3.616  14.226 -0.2771 -0.3345 -0.3118
  740TMC3    C710942   4.332   3.635  13.989  0.8480  0.0665 -0.4950
  740TMC3    C810943   4.325   3.642  14.468 -0.9939  0.2793 -0.2796
  740TMC3    O110944   4.418   3.548  13.992 -0.3836  0.3372 -0.2753
  740TMC3    O210945   4.450   3.644  14.464 -0.2188 -0.6512 -0.2261
  741TMC3    C110946   3.677   2.988  14.646 -0.4416  0.0124 -0.5484
  741TMC3    C210947   3.623   2.874  14.601  0.3891  0.0212 -0.6637
  741TMC3    C310948   3.547   2.798  14.688  0.5932 -0.0171 -0.3515
  741TMC3    C410949   3.678   3.022  14.779  0.4731 -1.0256  0.6375
  741TMC3    C510950   3.610   2.942  14.866 -0.1283  0.7371 -0.3009
  741TMC3    C610951   3.536   2.833  14.822 -0.3193 -0.3631  0.0778
  741TMC3     C10952   3.669   3.094  14.546  0.8070  1.0305 -0.0841
  741TMC3     O10953   3.710   3.204  14.581 -0.1257 -0.2237 -0.5780
  741TMC3     H10954   3.626   2.836  14.500  0.3641  1.2353 -1.1134
  741TMC3    H110955   3.756   3.086  14.817  1.0973 -1.6791  0.4736
  741TMC3    H210956   3.472   2.776  14.888  0.2708  2.2148  2.9182
  741TMC3    C710957   3.612   2.958  15.009  0.2549  0.3037  0.2712
  741TMC3    C810958   3.443   2.718  14.627  0.3291 -0.2004  0.8149
  741TMC3    O110959   3.560   2.868  15.072 -0.3256 -0.3195 -0.0851
  741TMC3    O210960   3.435   2.738  14.506  0.5795  0.3666  0.6520
  742TMC3    C110961   3.438   1.392  15.330 -0.3416 -0.1679 -0.2425
  742TMC3    C210962   3.314   1.341  15.291  0.1245  0.4563 -0.6044
  742TMC3    C310963   3.301   1.207  15.275 -0.6697 -0.1322 -0.5157
  742TMC3    C410964   3.537   1.298  15.360 -0.1970 -0.8454 -0.0514
  742TMC3    C510965   3.516   1.167  15.347  0.3085  0.4207 -0.2655
  742TMC3    C610966   3.398   1.116  15.308  0.3125  0.0516  0.5453
  742TMC3     C10967   3.476   1.525  15.291 -0.0653 -0.4189 -0.2232
  742TMC3     O10968   3.427   1.550  15.183 -0.7740  0.1122 -0.4536
  742TMC3     H10969   3.237   1.403  15.248 -2.1678  0.5396  3.6024
  742TMC3    H110970   3.636   1.338  15.379 -0.7584  1.3777 -1.7366
  742TMC3    H210971   3.389   1.013  15.277 -0.2133  0.1647  0.3239
  742TMC3    C710972   3.633   1.099  15.295  0.0830  0.0633  0.2994
  742TMC3    C810973   3.258   1.181  15.138  0.6607 -0.3689  0.0493
  742TMC3    O110974   3.715   1.168  15.235  0.4151  0.1840 -0.4296
  742TMC3    O210975   3.315   1.089  15.076 -0.2966 -0.0373 -0.0018
  743MPD2     C10976   0.543   1.002   0.712  0.5668  0.1366 -0.1156
  743MPD2    C110977   0.653   1.080   0.739  0.7015 -0.6209  0.5898
  743MPD2    C210978   0.749   1.026   0.815  0.2376  0.7024 -0.6539
  743MPD2    C310979   0.741   0.900   0.862 -0.1431 -0.1566  0.4672
  743MPD2    C410980   0.634   0.819   0.832  0.2527 -0.2383 -0.2064
  743MPD2    C510981   0.537   0.877   0.757 -0.0680 -0.3931 -0.5429
  743MPD2     H10982   0.840   1.077   0.843  1.0806 -1.4887  0.5758
  743MPD2    H110983   0.620   0.717   0.866 -0.5236 -0.2218 -0.4755
  743MPD2    H210984   0.468   1.037   0.643  1.0571  0.7272 -0.3557
  743MPD2    H310985   0.454   0.817   0.722 -0.6670 -1.5523  2.8858
  743MPD2     N10986   0.852   0.843   0.923  0.1594  0.2140  0.1903
  743MPD2    H510987   0.933   0.904   0.928  0.3912 -0.1811  1.1897
  743MPD2    N110988   0.651   1.213   0.693 -0.1330 -0.2251  0.1088
  743MPD2    H710989   0.574   1.241   0.632 -0.4036  1.2624  1.1259
  744TMC3    C110990   0.722   1.432   0.654 -0.0406 -1.0018  0.1853
  744TMC3    C210991   0.591   1.472   0.633 -0.7105 -0.1612  0.7274
  744TMC3    C310992   0.566   1.578   0.551 -0.5818  0.3772 -0.6485
  744TMC3    C410993   0.824   1.499   0.591  0.2498 -0.4664  0.2561
  744TMC3    C510994   0.797   1.612   0.512  1.1552 -0.1455  0.0794
  744TMC3    C610995   0.668   1.649   0.492 -0.2914  0.1791  0.2540
  744TMC3     C10996   0.752   1.302   0.712 -0.3150  0.2441 -0.1805
  744TMC3     O10997   0.865   1.287   0.757 -0.0267 -0.0226  0.3616
  744TMC3     H10998   0.519   1.423   0.698 -0.7361  0.1780  0.9529
  744TMC3    H110999   0.928   1.468   0.591  0.0362 -1.2294 -2.5396
  744TMC3    H211000   0.657   1.754   0.469  0.6163  0.0305 -0.8483
  744TMC3    C711001   0.894   1.719   0.518 -0.1025  0.4544 -0.4567
  744TMC3    C811002   0.438   1.643   0.551 -0.2858 -0.4130  0.5740
  744TMC3    O111003   0.904   1.787   0.417  0.7071 -0.0561  0.1773
  744TMC3    O211004   0.422   1.746   0.487 -0.9374 -0.1081  0.3077
  745TMC3    C111005   3.780   1.074  13.854 -0.1815  0.2099  0.1649
  745TMC3    C211006   3.679   1.128  13.930  0.0362 -0.4361  0.2288
  745TMC3    C311007   3.562   1.172  13.872 -0.3049  0.4424  0.0187
  745TMC3    C411008   3.764   1.069  13.720  0.0141 -0.2056 -0.2545
  745TMC3    C511009   3.635   1.091  13.663  0.8897  0.4248 -0.1293
  745TMC3    C611010   3.537   1.147  13.735  0.2690  1.1195  0.1198
  745TMC3     C11011   3.916   1.107  13.893 -0.8607  0.5282  0.3731
  745TMC3     O11012   3.963   1.050  13.991  0.8307  0.0989  0.4443
  745TMC3     H11013   3.688   1.149  14.036  1.8107  1.4331 -0.2945
  745TMC3    H111014   3.835   1.012  13.662  2.5740  2.1539  0.5505
  745TMC3    H211015   3.440   1.175  13.696 -1.1930 -3.0323  0.7441
  745TMC3    C711016   3.626   1.102  13.517  0.1056  0.6917 -0.2172
  745TMC3    C811017   3.514   1.301  13.924  0.6810  0.3891 -0.2678
  745TMC3    O111018   3.516   1.100  13.466 -0.4512 -0.0122 -0.6847
  745TMC3    O211019   3.397   1.326  13.901  0.7707 -0.6807  0.5904
  746TMC3    C111020   1.461   3.101  11.036 -0.5222  0.4410 -0.1485
  746TMC3    C211021   1.580   3.086  10.972  0.3025 -0.4640  0.4652
  746TMC3    C311022   1.617   2.960  10.951 -1.0946 -0.3904  0.1237
  746TMC3    C411023   1.372   3.002  11.068  0.1404  0.4049  0.5404
  746TMC3    C511024   1.419   2.868  11.052 -0.1765 -0.9961 -0.4085
  746TMC3    C611025   1.542   2.847  10.990  0.3014 -0.5831  0.2272
  746TMC3     C11026   1.414   3.241  11.046  0.1803 -0.7886  0.2296
  746TMC3     O11027   1.354   3.273  11.151 -0.0972  0.3965 -0.4608
  746TMC3     H11028   1.653   3.165  10.961  2.1292 -1.7975  2.8971
  746TMC3    H111029   1.278   3.043  11.105  0.7051  0.8712  1.4622
  746TMC3    H211030   1.567   2.747  10.957  0.8033 -0.3029 -0.2510
  746TMC3    C711031   1.319   2.765  11.038 -0.0221  0.5013  0.3297
  746TMC3    C811032   1.724   2.930  10.863 -0.1651  0.1495 -0.1790
  746TMC3    O111033   1.361   2.653  11.007 -0.7459 -0.1229 -0.0581
  746TMC3    O211034   1.801   2.836  10.890 -0.1202 -0.3135 -0.2211
  747TMC3    C111035   4.008   3.477  10.740 -0.1697 -0.6878  0.7452
  747TMC3    C211036   3.942   3.393  10.821 -0.4888 -0.1190  0.1511
  747TMC3    C311037   3.946   3.409  10.961  0.6477  0.0921  0.0193
  747TMC3    C411038   4.067   3.588  10.793 -0.1924  0.1945 -0.0893
  747TMC3    C511039   4.069   3.606  10.930 -0.2271  0.2013  0.2392
  747TMC3    C611040   4.005   3.518  11.016  0.4326  0.3034  0.4443
  747TMC3     C11041   4.046   3.445  10.603 -0.1356 -0.2251  0.8337
  747TMC3     O11042   4.098   3.531  10.533 -0.9382  0.3584 -0.3686
  747TMC3     H11043   3.894   3.309  10.773 -1.2724  0.7665 -0.5983
  747TMC3    H111044   4.140   3.640  10.733  1.3502 -1.0834  0.6608
  747TMC3    H211045   4.015   3.532  11.123  1.7398  1.3318  0.1917
  747TMC3    C711046   4.142   3.716  10.984 -0.2192  0.4965 -0.4123
  747TMC3    C811047   3.868   3.316  11.037 -0.7738 -0.1424 -0.6239
  747TMC3    O111048   4.165   3.711  11.104 -0.1645 -0.0176 -0.0794
  747TMC3    O211049   3.831   3.216  10.977 -0.0354 -0.3764  0.3272
  748MPD2     C11050   4.277   3.347   0.701  0.1222  0.2013 -0.7193
  748MPD2    C111051   4.346   3.234   0.724  0.4457 -0.4082  0.2026
  748MPD2    C211052   4.469   3.249   0.777  0.6349 -0.0974  1.3618
  748MPD2    C311053   4.534   3.368   0.802  0.2793 -0.9012 -1.0634
  748MPD2    C411054   4.469   3.484   0.764  0.3910  0.1367 -0.3005
  748MPD2    C511055   4.343   3.467   0.718  0.0710 -0.4562 -0.5050
  748MPD2     H11056   4.516   3.155   0.802  2.4529  0.0415 -1.5338
  748MPD2    H111057   4.510   3.584   0.757  0.7308  0.0667  0.5918
  748MPD2    H211058   4.178   3.351   0.657  0.1137  2.7232 -0.4719
  748MPD2    H311059   4.297   3.553   0.671 -1.6260 -0.7631  0.5926
  748MPD2     N11060   4.663   3.368   0.862 -0.7129  0.4068  0.4430
  748MPD2    H511061   4.713   3.279   0.870  0.4585  1.2265  2.2621
  748MPD2    N111062   4.293   3.109   0.686 -0.2448 -0.1680 -0.4414
  748MPD2    H711063   4.193   3.105   0.670 -0.3259  1.2045 -0.3421
  749TMC3    C111064   0.153   3.440   0.920  0.2632  0.1166  0.1351
  749TMC3    C211065   0.166   3.321   0.984 -0.0544 -0.2532 -0.3095
  749TMC3    C311066   0.297   3.275   1.003  0.7337 -0.7857  0.1282
  749TMC3    C411067   0.260   3.509   0.868 -0.1774  0.2017  0.5295
  749TMC3    C511068   0.384   3.461   0.888  0.2167  0.0104 -0.3287
  749TMC3    C611069   0.402   3.338   0.948  0.0161 -0.2040 -0.6220
  749TMC3     C11070   0.018   3.473   0.875 -0.2290  0.7965  0.1563
  749TMC3     O11071   4.717   3.592   0.854 -0.5816 -0.0307 -0.5358
  749TMC3     H11072   0.076   3.280   1.028 -0.2736  0.0809 -0.4408
  749TMC3    H111073   0.242   3.611   0.838 -0.4605 -0.6182 -2.1406
  749TMC3    H211074   0.502   3.296   0.957  0.0165 -0.1918 -0.5674
  749TMC3    C711075   0.505   3.538   0.851 -0.0520  0.1638  0.0880
  749TMC3    C811076   0.307   3.128   1.014 -0.0608  0.1508  0.1965
  749TMC3    O111077   0.608   3.507   0.903  0.7062  0.3090  0.4313
  749TMC3    O211078   0.214   3.065   0.964  0.3235 -0.5947  0.1611
  750MPD2     C11079   2.081   0.412  10.917 -0.6558  0.4486  0.9287
  750MPD2    C111080   1.947   0.433  10.949  0.2820  0.9974 -0.2760
  750MPD2    C211081   1.854   0.338  10.903 -0.2407 -0.0576 -0.7592
  750MPD2    C311082   1.899   0.230  10.827 -0.3267 -0.3662 -0.4201
  750MPD2    C411083   2.031   0.219  10.792  0.1334 -0.4654  0.0305
  750MPD2    C511084   2.123   0.307  10.839 -0.2535  0.1773  0.8514
  750MPD2     H11085   1.752   0.351  10.936 -0.2337 -1.9327 -0.0416
  750MPD2    H111086   2.063   0.141  10.724 -1.6075  0.1807 -1.5193
  750MPD2    H211087   2.154   0.491  10.930  2.8758 -2.4402 -1.2631
  750MPD2    H311088   2.226   0.304  10.805 -0.9628  1.3361 -1.4028
  750MPD2     N11089   1.819   0.124  10.777  0.7675 -0.2025 -0.2154
  750MPD2    H511090   1.870   0.063  10.714  0.3420 -0.2168 -0.5418
  750MPD2    N111091   1.923   0.542  11.033 -0.1471  0.0069  0.1295
  750MPD2    H711092   2.004   0.594  11.065 -0.8857  0.7364  0.7869
  751TMC3    C111093   1.614   0.000  10.744 -0.4231  0.3718 -0.1053
  751TMC3    C211094   1.487   4.707  10.791  0.2620 -0.1178  0.3000
  751TMC3    C311095   1.428   4.585  10.756  0.2011  0.6354  0.2131
  751TMC3    C411096   1.682   4.630  10.664  0.4542  0.3407  0.0384
  751TMC3    C511097   1.616   4.511  10.623  0.0263  0.2971  0.8168
  751TMC3    C611098   1.490   4.494  10.673 -0.8568 -0.2453  0.2592
  751TMC3     C11099   1.689   0.100  10.817  0.2423 -0.1574  0.0990
  751TMC3     O11100   1.621   0.156  10.902 -0.1169  0.1931 -0.3252
  751TMC3     H11101   1.429   0.063  10.834  0.5188  0.7631 -0.9999
  751TMC3    H111102   1.780   4.660  10.628  0.2398  0.5753 -0.3440
  751TMC3    H211103   1.437   4.402  10.651  1.4711 -1.7785  0.9321
  751TMC3    C711104   1.668   4.430  10.511  0.2392  0.1813  0.1671
  751TMC3    C811105   1.288   4.554  10.765 -0.2600  0.2909  0.0111
  751TMC3    O111106   1.782   4.449  10.472  0.4676 -0.1822  0.1184
  751TMC3    O211107   1.229   4.522  10.662  0.0446  0.1857 -0.4983
  752TMC3    C111108   0.758   0.309  16.635  0.3738 -0.1887 -0.2726
  752TMC3    C211109   0.676   0.397  16.703 -0.1495 -0.6067 -0.5362
  752TMC3    C311110   0.701   0.414  16.834  0.3948 -0.2390 -0.2161
  752TMC3    C411111   0.860   0.242  16.691 -0.7969 -0.2917  0.8275
  752TMC3    C511112   0.868   0.251  16.828 -0.0258  0.0244  0.0505
  752TMC3    C611113   0.794   0.343  16.898 -0.6986 -0.2521  0.3840
  752TMC3     C11114   0.736   0.292  16.489 -0.2584 -0.1831 -0.3226
  752TMC3     O11115   0.817   0.232  16.420  0.1015 -0.6383 -0.3919
  752TMC3     H11116   0.602   0.456  16.651 -0.4245 -1.2460 -0.8669
  752TMC3    H111117   0.917   0.174  16.629 -0.5193  1.2421 -0.5883
  752TMC3    H211118   0.809   0.351  17.005 -1.5534 -0.2227  0.5011
  752TMC3    C711119   0.958   0.149  16.890  0.0070 -0.0824 -0.5822
  752TMC3    C811120   0.613   0.495  16.917 -0.1206  0.3901 -0.1731
  752TMC3    O111121   1.054   0.113  16.826  0.3884 -0.0392 -0.0464
  752TMC3    O211122   0.653   0.548  17.019  0.0354  0.2901  0.4989
  753TMC3    C111123   2.298   1.556  13.517  0.7141  0.7718 -0.3508
  753TMC3    C211124   2.257   1.499  13.635  0.5812  0.5655 -0.1831
  753TMC3    C311125   2.261   1.362  13.643  0.4761  0.3285 -0.2259
  753TMC3    C411126   2.342   1.486  13.406 -0.1866  0.4988  0.2855
  753TMC3    C511127   2.353   1.351  13.424 -0.1871 -0.2585 -0.3286
  753TMC3    C611128   2.310   1.285  13.537 -0.1978  0.5363 -0.0543
  753TMC3     C11129   2.363   1.684  13.529 -0.0383 -1.0926  0.5548
  753TMC3     O11130   2.289   1.773  13.571 -0.1137 -0.6057 -0.2097
  753TMC3     H11131   2.229   1.563  13.718 -0.4662  0.9640 -0.8366
  753TMC3    H111132   2.385   1.536  13.320 -0.0179  0.4736  0.3545
  753TMC3    H211133   2.332   1.183  13.567  2.0682  0.5099 -1.8228
  753TMC3    C711134   2.423   1.277  13.322 -0.0867  0.3448 -0.2133
  753TMC3    C811135   2.269   1.296  13.765  0.4089  0.1971 -0.1044
  753TMC3    O111136   2.516   1.335  13.268  0.0939 -0.0784 -0.1478
  753TMC3    O211137   2.249   1.173  13.766  0.1331 -0.3909  0.4263
  754MPD2     C11138   0.884   4.116  12.614 -0.0668 -0.0354 -0.2101
  754MPD2    C111139   0.812   4.013  12.665 -0.0977 -0.2290 -0.0911
  754MPD2    C211140   0.677   4.003  12.622 -0.0090  0.2775  0.4554
  754MPD2    C311141   0.621   4.104  12.545  0.4100 -0.7509 -0.3443
  754MPD2    C411142   0.698   4.203  12.493  0.5694  0.2245 -0.6645
  754MPD2    C511143   0.826   4.207  12.524 -0.0958  0.3305 -0.6519
  754MPD2     H11144   0.610   3.926  12.657 -0.0094  2.2441  4.7121
  754MPD2    H111145   0.663   4.260  12.407  3.1970  0.6163 -1.4783
  754MPD2    H211146   0.982   4.146  12.648 -0.7485 -0.8822  2.4513
  754MPD2    H311147   0.881   4.290  12.481  0.7093 -0.3738 -0.9718
  754MPD2     N11148   0.484   4.116  12.524  0.0386 -0.1961  0.1242
  754MPD2    H511149   0.443   4.208  12.509 -0.5668 -0.0519  2.7078
  754MPD2    N111150   0.874   3.927  12.762 -1.0005 -0.2950 -0.2206
  754MPD2    H711151   0.964   3.952  12.801 -1.2044  3.4157 -2.1424
  755MPD2     C11152   0.111   0.014  12.950 -0.4690  0.2065  0.0766
  755MPD2    C111153   0.013   4.644  12.970  0.0431 -0.3241 -0.3094
  755MPD2    C211154   0.034   4.514  12.928 -0.1568  0.2479 -0.5943
  755MPD2    C311155   0.148   4.490  12.851  0.1209  0.2196  0.0377
  755MPD2    C411156   0.243   4.587  12.835 -0.0489  0.0471 -0.2506
  755MPD2    C511157   0.225   4.714  12.889 -0.0097  0.5550 -0.3310
  755MPD2     H11158   4.684   4.437  12.947 -1.1568  1.7510  1.5395
  755MPD2    H111159   0.342   4.569  12.795  1.4727 -0.4350  3.6734
  755MPD2    H211160   0.113   0.117  12.983  0.5771  0.4684 -0.8141
  755MPD2    H311161   0.302   0.063  12.876  0.7591 -0.3874 -1.1433
  755MPD2     N11162   0.181   4.368  12.795  0.0207  0.0640  0.4093
  755MPD2    H511163   0.254   4.360  12.724  1.2359  1.1305  1.5497
  755MPD2    N111164   4.622   4.683  13.037 -0.2550 -0.0589 -0.2368
  755MPD2    H711165   4.562   4.606  13.061  0.5208 -0.7839 -0.6185
  756MPD2     C11166   1.334   1.019   9.349 -0.0531 -0.0688  0.8110
  756MPD2    C111167   1.303   0.962   9.469  0.3988 -0.3032 -0.4164
  756MPD2    C211168   1.237   0.842   9.468  0.1728  0.0645  0.1767
  756MPD2    C311169   1.211   0.770   9.349  0.5962 -0.2656 -0.4525
  756MPD2    C411170   1.240   0.829   9.228 -0.5016  0.2129  0.0645
  756MPD2    C511171   1.295   0.955   9.234 -0.4860  0.6156  0.4491
  756MPD2     H11172   1.211   0.794   9.562 -0.3760 -0.4966 -0.2577
  756MPD2    H111173   1.225   0.783   9.131 -0.5885  1.1832 -0.3847
  756MPD2    H211174   1.380   1.117   9.345  2.0898 -1.0761  0.5376
  756MPD2    H311175   1.306   1.011   9.142  1.6817 -0.3242  0.1517
  756MPD2     N11176   1.145   0.645   9.357  0.0477  0.4424  0.2990
  756MPD2    H511177   1.143   0.604   9.450 -1.0669 -0.6515 -0.2131
  756MPD2    N111178   1.323   1.026   9.594 -0.4575 -0.6943  0.6980
  756MPD2    H711179   1.279   0.981   9.674 -1.3489 -0.7801  0.1545
  757MPD2     C11180   0.516   4.630   8.853  0.0742 -1.0810 -0.0157
  757MPD2    C111181   0.614   4.551   8.891  0.0088 -0.0006 -0.0785
  757MPD2    C211182   0.723   4.617   8.953  0.4649 -0.7809 -0.1480
  757MPD2    C311183   0.734   0.029   8.969  0.4649 -0.0012  0.7374
  757MPD2    C411184   0.626   0.105   8.928 -0.3197  0.0354 -0.1178
  757MPD2    C511185   0.525   0.038   8.864  0.1446  0.2510  0.1282
  757MPD2     H11186   0.802   4.551   8.987  1.5241 -0.2312 -1.5902
  757MPD2    H111187   0.614   0.212   8.944  0.8642  0.1576 -0.0288
  757MPD2    H211188   0.422   4.598   8.809 -1.2095  1.4350  0.8868
  757MPD2    H311189   0.442   0.104   8.839  2.0764  2.5252 -0.3246
  757MPD2     N11190   0.828   0.076   9.062 -0.5757 -0.0361  0.1402
  757MPD2    H511191   0.891   0.017   9.115  0.5663 -1.0482 -2.3108
  757MPD2    N111192   0.592   4.409   8.867  0.5908 -0.0593  0.3131
  757MPD2    H711193   0.501   4.395   8.824  1.0100  0.6853 -0.8150
  758MPD2     C11194   1.426   4.407  15.912  0.3933  0.3336 -1.0363
  758MPD2    C111195   1.475   4.322  16.002 -0.3839  0.4314 -0.1665
  758MPD2    C211196   1.436   4.328  16.135  0.1861 -0.4881  0.0235
  758MPD2    C311197   1.353   4.436  16.176 -0.5872  0.3233 -0.4281
  758MPD2    C411198   1.299   4.518  16.075 -0.2582 -0.5940 -0.0866
  758MPD2    C511199   1.339   4.503  15.945 -0.2190 -0.0310  0.7079
  758MPD2     H11200   1.480   4.266  16.212 -0.5704 -0.5694  0.3866
  758MPD2    H111201   1.228   4.594  16.106 -0.3323 -0.8972  0.4890
  758MPD2    H211202   1.463   4.408  15.810 -1.4557 -1.0706 -1.7178
  758MPD2    H311203   1.296   4.569  15.871 -0.6401 -1.0937 -0.0069
  758MPD2     N11204   1.312   4.461  16.311  0.9098 -0.0241 -0.0660
  758MPD2    H511205   1.241   4.531  16.329  0.5186 -0.5197  0.3460
  758MPD2    N111206   1.574   4.235  15.957  0.7041  0.1467 -0.2122
  758MPD2    H711207   1.612   4.243  15.864  1.8601 -1.1630  0.1523
  759MPD2     C11208   3.906   1.924   9.487 -0.4043 -0.5777  0.2816
  759MPD2    C111209   4.036   1.887   9.466 -0.5240  0.5494  0.2370
  759MPD2    C211210   4.132   1.978   9.425 -0.4091 -0.1404  0.5189
  759MPD2    C311211   4.091   2.112   9.407  0.1699  0.8712 -0.2005
  759MPD2    C411212   3.955   2.143   9.431  0.3374  0.1159 -0.2409
  759MPD2    C511213   3.865   2.052   9.467 -0.6790 -0.0519  0.0813
  759MPD2     H11214   4.232   1.946   9.398  0.5459  0.0778  3.8012
  759MPD2    H111215   3.902   2.237   9.417  0.2607  0.2632  1.0020
  759MPD2    H211216   3.827   1.849   9.494 -0.6214 -0.3656  0.1059
  759MPD2    H311217   3.758   2.067   9.481 -0.5136  1.2640 -0.0840
  759MPD2     N11218   4.195   2.200   9.361  0.3280 -0.2699 -0.0620
  759MPD2    H511219   4.284   2.154   9.341  0.3093  0.0282 -0.8356
  759MPD2    N111220   4.086   1.753   9.494 -0.6354  0.4856  0.3725
  759MPD2    H711221   4.186   1.741   9.508 -0.3649  0.0296 -1.7991
  760MPD2     C11222   4.379   4.639  11.744 -0.8201  0.1417  0.1253
  760MPD2    C111223   4.504   4.697  11.768  0.0348  0.0294  0.8414
  760MPD2    C211224   4.598   4.610  11.818 -0.0927  0.0805  0.2267
  760MPD2    C311225   4.580   4.473  11.827  0.3594  0.6221  0.9871
  760MPD2    C411226   4.461   4.425  11.788  0.6795 -0.4049  0.3009
  760MPD2    C511227   4.356   4.507  11.755 -0.2140  0.1381  0.3713
  760MPD2     H11228   4.694   4.658  11.831  0.0175 -0.2431  0.6108
  760MPD2    H111229   4.449   4.318  11.791 -1.9307 -0.0876  1.0304
  760MPD2    H211230   4.298   4.700  11.704 -0.6167  1.5602  1.9174
  760MPD2    H311231   4.256   4.475  11.728 -0.0253  0.4417 -0.6832
  760MPD2     N11232   4.683   4.381  11.884  0.3236  0.0433 -0.2628
  760MPD2    H511233   4.656   4.283  11.891  1.0691 -0.0943  0.6034
  760MPD2    N111234   4.539   0.105  11.757  0.0333 -0.0363 -0.0454
  760MPD2    H711235   4.632   0.129  11.790 -1.4115  1.6850  2.7670
  761MPD2     C11236   0.908   4.382  11.057 -0.1593 -0.0825  0.2726
  761MPD2    C111237   0.956   4.337  10.940  0.1344  0.1808  0.1120
  761MPD2    C211238   1.074   4.394  10.889 -0.0548  0.6746 -0.1792
  761MPD2    C311239   1.132   4.500  10.951 -0.6771 -0.2253  0.5534
  761MPD2    C411240   1.083   4.548  11.070 -0.0397  0.2644  0.2817
  761MPD2    C511241   0.967   4.488  11.115  0.4051 -0.5186 -0.4771
  761MPD2     H11242   1.123   4.353  10.801 -0.6547  1.7633 -1.0274
  761MPD2    H111243   1.122   4.633  11.125  2.2670  0.2334 -1.2803
  761MPD2    H211244   0.817   4.349  11.106  0.3771  1.0109  2.0088
  761MPD2    H311245   0.923   4.526  11.207 -0.0984  2.3660 -1.9240
  761MPD2     N11246   1.245   4.560  10.894 -0.3505  0.7046  0.2904
  761MPD2    H511247   1.302   4.605  10.964 -0.8817  0.2279  1.0277
  761MPD2    N111248   0.901   4.213  10.879  0.1934 -0.4554 -0.0605
  761MPD2    H711249   0.819   4.169  10.920 -0.3610 -0.7275 -1.4672
  762MPD2     C11250   1.108   3.884  10.159 -0.3651  0.1432  0.5729
  762MPD2    C111251   1.146   3.826  10.278 -0.0081 -0.5461 -0.6682
  762MPD2    C211252   1.258   3.751  10.278  0.6268 -0.2439  0.5692
  762MPD2    C311253   1.338   3.737  10.159 -0.2668 -0.3222 -0.7610
  762MPD2    C411254   1.300   3.802  10.042  0.0318 -0.7302 -0.1093
  762MPD2    C511255   1.181   3.876  10.045 -0.0400  0.7444 -0.6592
  762MPD2     H11256   1.286   3.706  10.373  0.4799 -0.7711  0.3605
  762MPD2    H111257   1.362   3.798   9.953 -1.5866 -1.4415 -1.1975
  762MPD2    H211258   1.019   3.944  10.149 -2.2489 -2.2918  2.7001
  762MPD2    H311259   1.153   3.934   9.957  1.2670 -0.0654 -1.6176
  762MPD2     N11260   1.467   3.676  10.167 -0.1061 -0.2175  0.0072
  762MPD2    H511261   1.497   3.645  10.259 -1.9934  1.5570  1.2276
  762MPD2    N111262   1.054   3.843  10.390 -0.3360 -0.4527  0.5643
  762MPD2    H711263   0.987   3.919  10.380 -1.1070 -1.1153  0.7332
  763MPD2     C11264   2.847   3.880  16.309 -1.2869  0.0991  0.5265
  763MPD2    C111265   2.905   3.955  16.211 -0.5440  0.8404  0.0271
  763MPD2    C211266   2.952   4.083  16.240 -0.1106  0.2048  0.1025
  763MPD2    C311267   2.949   4.130  16.373  0.0012  0.1701 -0.3479
  763MPD2    C411268   2.883   4.060  16.470 -0.2356  0.0237  0.7889
  763MPD2    C511269   2.831   3.932  16.439  0.1720  0.0428  0.4138
  763MPD2     H11270   3.007   4.136  16.162 -0.5662 -1.5310 -1.4017
  763MPD2    H111271   2.866   4.090  16.572 -0.5764 -0.5327  0.8891
  763MPD2    H211272   2.806   3.781  16.289 -0.8436  0.1159 -0.4406
  763MPD2    H311273   2.781   3.862  16.505  0.2506 -0.8112 -0.4388
  763MPD2     N11274   3.007   4.255  16.387  0.7010  0.3863  0.3609
  763MPD2    H511275   3.052   4.310  16.314 -1.3143 -0.4657 -1.5084
  763MPD2    N111276   2.929   3.907  16.076 -0.9845 -0.4522 -0.1664
  763MPD2    H711277   2.982   3.965  16.012 -0.9256  0.5893  0.8259
  764MPD2     C11278   1.970   0.842  17.430 -0.1478 -0.1017  0.6419
  764MPD2    C111279   1.841   0.857  17.401 -0.2813 -0.1919  0.7433
  764MPD2    C211280   1.745   0.757  17.420  0.6208 -0.3941  0.4895
  764MPD2    C311281   1.778   0.638  17.479 -0.1967 -0.4029  0.0789
  764MPD2    C411282   1.913   0.620  17.507  0.0316 -0.8206  0.1735
  764MPD2    C511283   2.005   0.723  17.481 -0.3788 -0.1234  0.1708
  764MPD2     H11284   1.640   0.770  17.396  0.7664  1.5122  0.8647
  764MPD2    H111285   1.951   0.528  17.548  3.2338  0.4767  0.0697
  764MPD2    H211286   2.041   0.923  17.438  0.3494 -0.5261  0.4796
  764MPD2    H311287   2.109   0.704  17.507 -1.3369 -0.2508  3.9029
  764MPD2     N11288   1.675   0.545  17.509 -0.2112  0.0020 -0.8777
  764MPD2    H511289   1.578   0.573  17.504  0.2037  1.4335 -1.0256
  764MPD2    N111290   1.778   0.983  17.374 -0.2844 -0.4196  0.1732
  764MPD2    H711291   1.677   0.986  17.366 -0.1113  1.5250 -1.4264
  765MPD2     C11292   0.622   3.442  16.120 -1.0559 -0.0492 -0.8595
  765MPD2    C111293   0.690   3.547  16.050 -0.0507  0.0082 -0.0106
  765MPD2    C211294   0.802   3.514  15.979  0.8344  0.2113  0.6858
  765MPD2    C311295   0.850   3.389  15.981  0.2463 -0.1715 -0.0104
  765MPD2    C411296   0.786   3.285  16.043 -0.3947  0.1319  0.4312
  765MPD2    C511297   0.672   3.309  16.103  0.9389 -0.1277  0.4374
  765MPD2     H11298   0.857   3.584  15.917  0.0779  0.0897 -0.1280
  765MPD2    H111299   0.816   3.181  16.036 -2.6003 -0.3096 -2.2945
  765MPD2    H211300   0.536   3.456  16.185 -0.1682 -0.2161  0.3653
  765MPD2    H311301   0.625   3.224  16.151  0.6487  0.5921  1.4265
  765MPD2     N11302   0.979   3.372  15.927 -0.3078 -0.0646 -0.4876
  765MPD2    H511303   1.013   3.457  15.883  0.2104 -0.0026  0.0344
  765MPD2    N111304   0.631   3.674  16.046  0.7718  0.1380  0.1098
  765MPD2    H711305   0.550   3.695  16.104  1.6760  1.4285  0.9131
  766MPD2     C11306   0.130   3.858  15.568  0.7647  0.4119  0.0014
  766MPD2    C111307   0.268   3.875  15.565 -1.0450  0.1633  0.2090
  766MPD2    C211308   0.335   3.846  15.449 -0.2875 -0.4224 -0.1364
  766MPD2    C311309   0.264   3.803  15.330 -0.5815  0.0631 -0.0562
  766MPD2    C411310   0.124   3.784  15.340 -0.2170  0.1474  0.1585
  766MPD2    C511311   0.065   3.817  15.456 -0.0346 -0.0598  0.3080
  766MPD2     H11312   0.441   3.868  15.446 -0.7932  1.7710 -1.3836
  766MPD2    H111313   0.060   3.774  15.252  1.6394  0.0767 -1.1732
  766MPD2    H211314   0.075   3.902  15.650 -1.4974  0.3817 -1.5070
  766MPD2    H311315   4.681   3.819  15.461  0.0755  0.8236  2.3856
  766MPD2     N11316   0.338   3.776  15.206  0.7706  0.4949 -0.0747
  766MPD2    H511317   0.282   3.767  15.122  3.3452 -0.2849 -1.6939
  766MPD2    N111318   0.350   3.924  15.674  0.0576 -0.2011 -1.1172
  766MPD2    H711319   0.449   3.935  15.653  0.2860  0.3922  0.2570
  767MPD2     C11320   4.699   4.204  15.165  0.0219 -0.8478  0.3240
  767MPD2    C111321   0.097   4.157  15.135  0.0854 -0.0492  0.3039
  767MPD2    C211322   0.111   4.109  15.007  0.0104 -0.4700 -0.2673
  767MPD2    C311323   4.723   4.084  14.929 -0.3534  0.5150 -0.8116
  767MPD2    C411324   4.601   4.115  14.977  0.0236 -0.2993  0.5835
  767MPD2    C511325   4.593   4.197  15.085  0.2572 -0.0892 -0.1410
  767MPD2     H11326   0.209   4.078  14.974 -0.2720 -2.4869  0.7291
  767MPD2    H111327   4.508   4.085  14.929 -0.1241  2.4814 -0.8630
  767MPD2    H211328   4.688   4.273  15.247  0.5399 -1.5819  1.0100
  767MPD2    H311329   4.498   4.236  15.119 -1.2866 -1.5433 -2.8027
  767MPD2     N11330   0.021   4.005  14.814  0.3149 -0.0961 -0.2487
  767MPD2    H511331   0.116   3.971  14.796 -0.3933 -1.8788 -0.6668
  767MPD2    N111332   0.198   4.165  15.236  0.7649  0.0438  0.0717
  767MPD2    H711333   0.164   4.188  15.329 -0.6844 -0.4589 -0.3391
  768MPD2     C11334   1.609   2.542  10.495 -0.6183  1.1257  0.6585
  768MPD2    C111335   1.528   2.478  10.579 -0.3191 -0.4706 -0.1430
  768MPD2    C211336   1.563   2.462  10.714  0.2397 -0.1832 -0.2775
  768MPD2    C311337   1.674   2.527  10.764  0.5549 -0.3886 -0.5044
  768MPD2    C411338   1.760   2.595  10.675 -0.0966 -0.2361 -0.6430
  768MPD2    C511339   1.731   2.600  10.542  0.1951  0.0667 -0.2174
  768MPD2     H11340   1.498   2.416  10.787  1.0628  1.4088  1.4816
  768MPD2    H111341   1.837   2.657  10.717  1.5052 -2.3852 -0.4208
  768MPD2    H211342   1.596   2.555  10.388  1.0590 -3.5233 -0.1391
  768MPD2    H311343   1.788   2.673  10.485 -0.0315  0.5564  0.1902
  768MPD2     N11344   1.719   2.521  10.899 -0.0445  0.1527 -0.3647
  768MPD2    H511345   1.802   2.576  10.918 -0.3316  0.7649 -0.8729
  768MPD2    N111346   1.399   2.436  10.536  0.3656  0.1517  0.6155
  768MPD2    H711347   1.340   2.407  10.614 -1.3447 -1.2074 -1.2145
  769MPD2     C11348   2.220   4.722  14.987 -1.3615 -0.2619  0.5505
  769MPD2    C111349   2.210   0.129  14.936  0.4185 -0.0885 -0.4154
  769MPD2    C211350   2.226   0.226  15.033  0.3371  0.1387  0.0659
  769MPD2    C311351   2.268   0.194  15.165  0.1014 -0.0116  0.4045
  769MPD2    C411352   2.280   0.064  15.203  0.5561  0.2286  0.0476
  769MPD2    C511353   2.254   4.692  15.113  0.7714  0.3214  0.6417
  769MPD2     H11354   2.202   0.330  15.014  0.4476  0.2036  0.2798
  769MPD2    H111355   2.310   0.033  15.302 -1.2018  0.7627  0.7459
  769MPD2    H211356   2.183   4.642  14.924  0.6298 -1.3876  0.8262
  769MPD2    H311357   2.252   4.589  15.146  1.9028 -0.6439 -2.2806
  769MPD2     N11358   2.265   0.303  15.255  0.0371  0.2386 -0.3872
  769MPD2    H511359   2.258   0.394  15.212  0.8277  0.2004 -0.5935
  769MPD2    N111360   2.161   0.153  14.805  0.7404 -0.0454 -0.0110
  769MPD2    H711361   2.113   0.079  14.755 -1.0302  1.4150 -0.4846
  770MPD2     C11362   1.550   0.567  15.162  0.2291  0.0366 -0.1520
  770MPD2    C111363   1.562   0.433  15.146  0.9945  0.2057  0.1468
  770MPD2    C211364   1.624   0.380  15.036 -0.0715 -0.1353  0.0212
  770MPD2    C311365   1.670   0.460  14.933  0.6857 -0.0812  0.3210
  770MPD2    C411366   1.637   0.591  14.944 -0.4593 -0.1004  0.7519
  770MPD2    C511367   1.571   0.647  15.051 -0.8971  0.9272 -0.0989
  770MPD2     H11368   1.643   0.273  15.032  0.9618  0.1126 -1.8530
  770MPD2    H111369   1.659   0.663  14.866 -1.2845 -1.1626 -0.4738
  770MPD2    H211370   1.512   0.615  15.251 -1.4144 -1.9114  0.2031
  770MPD2    H311371   1.552   0.754  15.044 -0.5761  0.9888 -0.0396
  770MPD2     N11372   1.739   0.407  14.817  0.5049 -0.0953 -0.0956
  770MPD2    H511373   1.755   0.307  14.808  1.1861  0.0541 -0.6018
  770MPD2    N111374   1.510   0.350  15.242  0.2623  0.3601  0.1441
  770MPD2    H711375   1.464   0.400  15.317  1.1589 -0.5057  1.2653
  771MPD2     C11376   2.121   3.276  13.282 -0.4514 -0.0748 -0.2920
  771MPD2    C111377   2.252   3.297  13.251  0.0981 -0.2691 -0.5409
  771MPD2    C211378   2.299   3.244  13.126 -0.1363 -0.9430  0.6885
  771MPD2    C311379   2.218   3.172  13.043 -0.4620 -0.2739 -0.2584
  771MPD2    C411380   2.091   3.156  13.078 -0.4670  0.0587  0.3894
  771MPD2    C511381   2.043   3.208  13.198  0.3275  0.2380  0.6367
  771MPD2     H11382   2.399   3.253  13.087 -0.4467  0.2458  0.1334
  771MPD2    H111383   2.027   3.096  13.015 -0.5588  0.2969  0.2526
  771MPD2    H211384   2.081   3.301  13.379 -2.2569 -0.9174 -0.8047
  771MPD2    H311385   1.946   3.190  13.244  0.6704 -0.9042  0.8872
  771MPD2     N11386   2.270   3.121  12.916  0.0455  0.2029  0.2169
  771MPD2    H511387   2.356   3.151  12.872 -0.8316  2.3931  0.0069
  771MPD2    N111388   2.355   3.361  13.325 -0.4259 -0.0799  0.0186
  771MPD2    H711389   2.448   3.365  13.283 -0.0447  1.2297  0.9730
  772MPD2     C11390   2.389   3.729  14.116  0.1455  0.2092 -0.2155
  772MPD2    C111391   2.319   3.655  14.015  0.1620  0.5249  0.0389
  772MPD2    C211392   2.188   3.625  14.036 -0.4677  0.0336  0.1035
  772MPD2    C311393   2.123   3.672  14.149 -0.0271  0.2160 -0.2096
  772MPD2    C411394   2.186   3.752  14.235 -0.0899  0.3172  0.5657
  772MPD2    C511395   2.318   3.782  14.219  0.3068  0.8421 -0.0097
  772MPD2     H11396   2.128   3.574  13.961 -0.9771 -0.4399  0.8351
  772MPD2    H111397   2.139   3.821  14.305  0.1661 -0.5086  1.5535
  772MPD2    H211398   2.493   3.758  14.103  0.1792 -0.8922 -2.3804
  772MPD2    H311399   2.365   3.858  14.280 -0.3857  1.9660 -0.8794
  772MPD2     N11400   1.988   3.668  14.179  0.9837  0.3355  0.9106
  772MPD2    H511401   1.954   3.722  14.258  0.9376 -0.8760  1.7107
  772MPD2    N111402   2.381   3.605  13.897  0.0590  0.2627  0.0784
  772MPD2    H711403   2.321   3.555  13.832 -2.6050  2.2428  1.0817
  773MPD2     C11404   1.111   4.295   0.436 -0.1750 -0.2015  0.0448
  773MPD2    C111405   1.239   4.311   0.379 -0.0723  0.3514 -0.1540
  773MPD2    C211406   1.339   4.217   0.390 -0.4288 -0.2588 -0.0717
  773MPD2    C311407   1.321   4.113   0.476 -0.9304  0.4708  0.1124
  773MPD2    C411408   1.195   4.095   0.535  0.0735  0.3896  0.5719
  773MPD2    C511409   1.092   4.191   0.517 -0.2344  0.6005  0.2423
  773MPD2     H11410   1.437   4.240   0.352  0.1454 -1.5003  0.6681
  773MPD2    H111411   1.178   4.009   0.599  0.2541  0.3086  0.5106
  773MPD2    H211412   1.022   4.353   0.412  0.4479  0.7025 -0.0971
  773MPD2    H311413   0.992   4.173   0.555 -0.6623 -1.4349 -1.8392
  773MPD2     N11414   1.436   4.027   0.495 -0.3875 -0.0713  0.7369
  773MPD2    H511415   1.527   4.052   0.457 -1.0609  2.2345  0.6552
  773MPD2    N111416   1.265   4.424   0.301  0.0483 -0.2264 -0.1044
  773MPD2    H711417   1.338   4.410   0.231  1.3695 -1.5608  1.5253
  774MPD2     C11418   0.413   3.449  13.582 -0.2320  0.1094 -0.2169
  774MPD2    C111419   0.491   3.552  13.618 -0.1064 -0.1930 -0.1202
  774MPD2    C211420   0.585   3.594  13.521  0.2555  0.0284  0.8934
  774MPD2    C311421   0.608   3.542  13.396  0.0235 -0.2880 -0.0496
  774MPD2    C411422   0.518   3.442  13.362  0.6170 -0.5452 -0.1073
  774MPD2    C511423   0.430   3.397  13.458 -0.0191 -0.8350 -0.1869
  774MPD2     H11424   0.640   3.685  13.539  2.7594 -0.9624 -1.8412
  774MPD2    H111425   0.518   3.392  13.266 -1.0224 -1.9303  0.6190
  774MPD2    H211426   0.335   3.407  13.644 -0.0809 -2.2021 -1.5784
  774MPD2    H311427   0.367   3.312  13.432  1.7183 -2.3658  0.5846
  774MPD2     N11428   0.705   3.592  13.307  0.4236  0.0528 -0.2284
  774MPD2    H511429   0.765   3.664  13.347 -0.6137  0.6278  0.2733
  774MPD2    N111430   0.469   3.607  13.745 -0.0659  0.1584  0.4454
  774MPD2    H711431   0.393   3.561  13.794 -1.5474  0.2777 -1.7477
  775MPD2     C11432   2.455   0.473  15.802 -0.0888 -0.2513 -0.2129
  775MPD2    C111433   2.477   0.580  15.893 -0.6078  0.1554 -0.2602
  775MPD2    C211434   2.559   0.685  15.853 -0.4800 -0.6366  0.0239
  775MPD2    C311435   2.628   0.686  15.730  0.1627  0.1513  0.5642
  775MPD2    C411436   2.590   0.589  15.638  0.1595 -0.4201 -0.0679
  775MPD2    C511437   2.514   0.487  15.677 -0.3577  0.0943  0.1856
  775MPD2     H11438   2.572   0.772  15.916  0.0914 -0.3081 -0.5449
  775MPD2    H111439   2.630   0.595  15.538  0.2018 -0.7543 -0.0709
  775MPD2    H211440   2.396   0.385  15.825 -0.5831 -0.3590 -1.8808
  775MPD2    H311441   2.488   0.413  15.602  4.2488 -2.1065  0.7516
  775MPD2     N11442   2.721   0.786  15.679  1.0339  0.4711 -0.3152
  775MPD2    H511443   2.758   0.766  15.587 -0.2350 -1.1443 -0.4655
  775MPD2    N111444   2.400   0.576  16.013  0.0320  0.1287  0.5814
  775MPD2    H711445   2.333   0.501  16.026  1.0061 -0.6978  0.7979
  776MPD2     C11446   1.760   1.217  11.087  0.1731 -0.6079  0.5498
  776MPD2    C111447   1.853   1.178  11.188 -0.4884  0.2342  0.2185
  776MPD2    C211448   1.920   1.282  11.257 -0.1618  0.3870 -0.9837
  776MPD2    C311449   1.915   1.412  11.214  0.3212  0.4379  0.2523
  776MPD2    C411450   1.824   1.442  11.114 -0.1895  0.3364  0.3689
  776MPD2    C511451   1.744   1.351  11.050 -0.6964  0.0245 -0.4302
  776MPD2     H11452   1.984   1.262  11.343  1.1537  1.6502 -1.6809
  776MPD2    H111453   1.804   1.545  11.087  0.6066  0.6664  1.0136
  776MPD2    H211454   1.689   1.147  11.044 -2.5179  1.2446  1.9566
  776MPD2    H311455   1.671   1.366  10.971 -0.5147  0.9334 -0.4195
  776MPD2     N11456   2.003   1.514  11.258 -0.0338  0.4905  0.2214
  776MPD2    H511457   2.004   1.602  11.207 -2.8332  0.3182 -0.1077
  776MPD2    N111458   1.873   1.041  11.206  0.1182  0.2305  0.1565
  776MPD2    H711459   1.817   0.980  11.147 -1.7195  0.6343  1.4762
  777MPD2     C11460   1.539   2.775   0.762  0.4541 -0.4540  0.3466
  777MPD2    C111461   1.449   2.681   0.793 -1.0346 -1.2134  0.3216
  777MPD2    C211462   1.421   2.575   0.704  0.3100  0.2394  0.3414
  777MPD2    C311463   1.482   2.574   0.577 -0.4082  0.0951  0.3312
  777MPD2    C411464   1.579   2.665   0.549 -0.1076 -0.2343  0.0763
  777MPD2    C511465   1.602   2.761   0.644  0.0319 -0.2656  0.2049
  777MPD2     H11466   1.352   2.502   0.743 -0.0972 -0.4563 -1.6617
  777MPD2    H111467   1.634   2.664   0.456  0.1979 -1.8619  0.2700
  777MPD2    H211468   1.574   2.847   0.835 -0.5417  0.0984  0.2663
  777MPD2    H311469   1.663   2.845   0.613 -0.8714  0.4660  0.4131
  777MPD2     N11470   1.458   2.474   0.482 -0.3780 -0.0057  0.5886
  777MPD2    H511471   1.388   2.404   0.506 -1.4785  0.5439 -1.0653
  777MPD2    N111472   1.391   2.699   0.920 -0.2205 -0.2518 -0.1979
  777MPD2    H711473   1.426   2.780   0.971 -2.1448 -0.6452  1.7403
  778MPD2     C11474   2.859   2.909  15.099  0.4853 -0.5324  0.6615
  778MPD2    C111475   2.780   2.888  14.993 -0.0842  0.1157 -0.6229
  778MPD2    C211476   2.797   2.985  14.896  0.3138 -0.6702  0.2831
  778MPD2    C311477   2.883   3.092  14.896 -0.5371  0.1475  0.2556
  778MPD2    C411478   2.961   3.109  15.007 -0.4694  0.7872  0.0526
  778MPD2    C511479   2.946   3.018  15.108 -0.2269 -0.5274 -0.5070
  778MPD2     H11480   2.736   2.986  14.806 -0.0746 -2.1186  0.5215
  778MPD2    H111481   3.021   3.196  15.031  0.1193 -0.5064  3.2777
  778MPD2    H211482   2.868   2.842  15.184 -1.7603 -1.2191  0.3666
  778MPD2    H311483   3.004   3.026  15.200 -1.9937  0.8740  0.4848
  778MPD2     N11484   2.879   3.185  14.789  0.1071 -0.2107 -0.0133
  778MPD2    H511485   2.818   3.150  14.715  0.3442 -0.8433  0.0963
  778MPD2    N111486   2.702   2.778  14.969  0.3889 -0.2015 -0.4876
  778MPD2    H711487   2.681   2.758  14.871 -1.1690  3.4298 -0.9121
  779MPD2     C11488   2.696   1.926  13.971  0.2309  0.7301  0.7267
  779MPD2    C111489   2.712   1.994  14.094 -0.2862 -0.4232  0.1216
  779MPD2    C211490   2.746   2.126  14.092 -0.2898 -0.0692 -0.4078
  779MPD2    C311491   2.783   2.191  13.975 -0.1806 -0.2227  0.3244
  779MPD2    C411492   2.757   2.132  13.857  0.2275  0.1056 -0.5867
  779MPD2    C511493   2.730   1.997  13.855 -0.5935  0.4210  0.3444
  779MPD2     H11494   2.755   2.187  14.182  1.7322 -0.1392 -0.5566
  779MPD2    H111495   2.789   2.179  13.765 -2.1708  1.4872 -0.7336
  779MPD2    H211496   2.667   1.822  13.960  0.2844  0.9865 -1.8951
  779MPD2    H311497   2.735   1.947  13.759 -1.2117 -1.7528  1.4356
  779MPD2     N11498   2.833   2.321  13.991 -0.3205 -0.3327  0.2797
  779MPD2    H511499   2.841   2.350  14.088  1.5305 -0.2939  0.0989
  779MPD2    N111500   2.695   1.928  14.218 -0.0732 -0.6031  0.0468
  779MPD2    H711501   2.668   1.830  14.216 -0.7003 -0.3801 -2.8561
  780MPD2     C11502   2.048   1.688   0.974 -0.5476 -0.1493  0.3234
  780MPD2    C111503   1.982   1.613   0.873 -0.5284 -0.1516  0.1584
  780MPD2    C211504   1.966   1.665   0.743  0.1798  0.5675 -0.4786
  780MPD2    C311505   2.037   1.788   0.716  0.3414 -0.5835 -0.3300
  780MPD2    C411506   2.116   1.848   0.813 -0.6915 -0.9738 -0.0805
  780MPD2    C511507   2.121   1.801   0.938 -0.2883 -0.1186 -0.5418
  780MPD2     H11508   1.918   1.617   0.658  1.3903 -0.1345 -0.7609
  780MPD2    H111509   2.178   1.931   0.781  0.5636 -1.9751 -0.2394
  780MPD2    H211510   2.055   1.652   1.076 -2.3458 -1.4992 -0.0281
  780MPD2    H311511   2.191   1.831   1.015 -0.1786 -0.0690 -0.6633
  780MPD2     N11512   2.018   1.845   0.586  0.0689  0.9738 -0.0832
  780MPD2    H511513   1.966   1.794   0.515 -1.1739 -0.6072  1.9705
  780MPD2    N111514   1.938   1.487   0.910 -0.2059 -0.8045 -0.4205
  780MPD2    H711515   1.952   1.453   1.005 -0.4804 -1.5981 -0.6611
  781MPD2     C11516   4.122   3.789  11.796  0.9664 -1.1108  0.4575
  781MPD2    C111517   4.187   3.884  11.868 -0.5581 -0.4037  0.8226
  781MPD2    C211518   4.294   3.950  11.808  0.8922  0.1657 -0.0243
  781MPD2    C311519   4.321   3.927  11.673 -0.5360  0.0470 -0.8441
  781MPD2    C411520   4.250   3.829  11.607 -0.0210 -0.1249 -0.1407
  781MPD2    C511521   4.151   3.769  11.670 -0.3978 -0.3700 -0.2341
  781MPD2     H11522   4.354   4.023  11.861  2.2476 -1.1986  0.3451
  781MPD2    H111523   4.274   3.802  11.505  2.3826  1.7142 -0.0553
  781MPD2    H211524   4.035   3.730  11.825 -1.0085  2.1702  1.2189
  781MPD2    H311525   4.094   3.698  11.611  0.3747 -0.8876 -0.3510
  781MPD2     N11526   4.418   4.000  11.593  0.3265 -0.0390 -0.2598
  781MPD2    H511527   4.431   3.966  11.498 -2.5072 -0.0479 -0.6532
  781MPD2    N111528   4.136   3.932  11.995 -0.5847 -0.1318  0.2934
  781MPD2    H711529   4.180   4.013  12.036 -0.6302  0.0547 -0.0242
  782MPD2     C11530   2.098   4.504   9.456 -0.1188  0.4496 -0.2487
  782MPD2    C111531   2.174   4.456   9.561 -0.2062 -0.1425  0.1810
  782MPD2    C211532   2.290   4.524   9.593 -0.3681 -0.7206 -0.3400
  782MPD2    C311533   2.328   4.647   9.545  0.4214 -0.5971 -1.0020
  782MPD2    C411534   2.246   4.696   9.447 -0.0505  0.4116  0.4390
  782MPD2    C511535   2.140   4.618   9.402 -0.2923 -0.1991 -0.0446
  782MPD2     H11536   2.348   4.494   9.679 -2.1318 -0.9655  0.7655
  782MPD2    H111537   2.266   0.064   9.395  0.4761  0.5248  0.8488
  782MPD2    H211538   2.006   4.461   9.417  1.4270 -3.4072  0.3699
  782MPD2    H311539   2.087   4.657   9.315  2.8006 -0.8758 -2.2424
  782MPD2     N11540   2.434   4.711   9.612 -0.5466 -0.0912  0.2646
  782MPD2    H511541   2.482   4.654   9.681 -1.3001  0.7713  1.4810
  782MPD2    N111542   2.143   4.344   9.640 -0.1275  0.2549 -0.3765
  782MPD2    H711543   2.210   4.324   9.713 -0.9219 -0.9992 -0.0034
  783MPD2     C11544   1.475   4.148  10.365 -0.5826  0.3160  0.5355
  783MPD2    C111545   1.586   4.230  10.377 -0.4821  0.6674 -0.2843
  783MPD2    C211546   1.695   4.218  10.293 -0.5104  0.0912 -0.3162
  783MPD2    C311547   1.681   4.125  10.191 -0.3711  0.1406  0.5045
  783MPD2    C411548   1.575   4.037  10.187 -0.3515  0.3674 -0.6492
  783MPD2    C511549   1.469   4.049  10.268 -0.2273 -0.2011 -0.3294
  783MPD2     H11550   1.773   4.293  10.289  0.3763 -0.9237 -1.8036
  783MPD2    H111551   1.565   3.958  10.113  1.0911 -0.8808  0.4847
  783MPD2    H211552   1.385   4.166  10.422 -1.2762  2.3765 -1.2097
  783MPD2    H311553   1.383   3.984  10.263  0.8596 -1.6383 -0.5767
  783MPD2     N11554   1.783   4.118  10.093  0.6210  0.2245  0.1253
  783MPD2    H511555   1.873   4.154  10.121  0.9027 -1.3317  1.2361
  783MPD2    N111556   1.574   4.332  10.474 -0.3567 -0.7509  0.2732
  783MPD2    H711557   1.484   4.342  10.520 -0.6441  1.4188 -0.7435
  784MPD2     C11558   3.664   4.487   1.160 -0.6504 -0.5428  0.4099
  784MPD2    C111559   3.707   4.555   1.048 -0.5658  0.4263 -0.5664
  784MPD2    C211560   3.607   4.632   0.982  0.1987  0.3312 -0.0486
  784MPD2    C311561   3.472   4.630   1.021 -0.0487 -0.0336  0.6498
  784MPD2    C411562   3.438   4.545   1.126  0.4527  0.6944 -0.0496
  784MPD2    C511563   3.534   4.486   1.199  0.3181  0.2907  0.2105
  784MPD2     H11564   3.630   4.682   0.889  0.4702 -0.0700 -0.1971
  784MPD2    H111565   3.337   4.536   1.162  0.7300 -0.9904  0.3399
  784MPD2    H211566   3.738   4.433   1.219 -0.2247 -1.4334 -0.9399
  784MPD2    H311567   3.504   4.425   1.284  0.7981 -2.2442 -1.4342
  784MPD2     N11568   3.378   4.714   0.954  0.4191  0.7886 -0.3608
  784MPD2    H511569   3.420   0.046   0.881  0.5697  1.4880  0.2820
  784MPD2    N111570   3.832   4.563   1.002  0.4276 -0.3127  0.1477
  784MPD2    H711571   3.852   4.600   0.910 -1.6707  1.1833  0.2836
  785MPD2     C11572   0.413   3.740  10.147 -0.0954  0.4856 -0.5173
  785MPD2    C111573   0.378   3.679  10.267 -0.5524 -0.2742  0.7577
  785MPD2    C211574   0.384   3.544  10.270  0.0317 -0.0888  0.6778
  785MPD2    C311575   0.427   3.473  10.158  0.4688  0.1252 -0.4028
  785MPD2    C411576   0.459   3.533  10.036 -0.1492 -0.1297  0.1597
  785MPD2    C511577   0.453   3.669  10.038  0.1017 -0.1512  0.2128
  785MPD2     H11578   0.361   3.485  10.358  0.7511 -0.6067  0.5148
  785MPD2    H111579   0.488   3.482   9.945  0.8832 -0.8851  0.9271
  785MPD2    H211580   0.400   3.847  10.136 -0.0383  0.3634 -1.8191
  785MPD2    H311581   0.480   3.733   9.955 -0.3014  0.1578  0.3137
  785MPD2     N11582   0.408   3.336  10.179 -0.0088  0.4505  0.2929
  785MPD2    H511583   0.370   3.307  10.269 -1.9935  2.6070  0.1563
  785MPD2    N111584   0.346   3.752  10.380  0.6136 -0.0937  0.1151
  785MPD2    H711585   0.353   3.853  10.367  0.0569  0.2567  2.6632
  786MPD2     C11586   2.914   1.202  14.771  0.0203  0.5015  0.3086
  786MPD2    C111587   3.044   1.169  14.766  0.3251  0.8687  1.0218
  786MPD2    C211588   3.117   1.167  14.885  0.3003  0.2303 -0.0939
  786MPD2    C311589   3.057   1.204  14.995  0.5661 -0.8217 -0.1194
  786MPD2    C411590   2.922   1.224  15.004  0.0480 -0.1663 -0.9716
  786MPD2    C511591   2.847   1.236  14.890  0.6186 -0.1850 -0.1789
  786MPD2     H11592   3.223   1.151  14.868  0.5260  2.3846 -0.7892
  786MPD2    H111593   2.882   1.248  15.101 -2.4304  1.4532 -2.3839
  786MPD2    H211594   2.848   1.207  14.686 -0.3466 -1.5555  0.4749
  786MPD2    H311595   2.744   1.270  14.893 -0.0508 -2.1297 -1.1596
  786MPD2     N11596   3.131   1.226  15.118 -0.4392  0.6675 -0.2138
  786MPD2    H511597   3.088   1.272  15.198  0.6445 -0.3631  0.9653
  786MPD2    N111598   3.118   1.142  14.647  0.3126 -0.1437 -0.7523
  786MPD2    H711599   3.217   1.133  14.663 -0.1571  1.2703  3.0062
  787MPD2     C11600   3.387   1.598  14.419  0.3048 -0.1484  0.1315
  787MPD2    C111601   3.456   1.494  14.358 -0.1193  0.3330  0.0508
  787MPD2    C211602   3.594   1.497  14.376  0.4398  0.1516  0.2997
  787MPD2    C311603   3.669   1.601  14.430  0.2841 -0.8699 -0.3233
  787MPD2    C411604   3.593   1.702  14.483 -0.6025  0.2301 -0.4678
  787MPD2    C511605   3.451   1.700  14.477  0.3739  0.2833  0.1996
  787MPD2     H11606   3.648   1.413  14.332  0.9806  0.7450 -0.1629
  787MPD2    H111607   3.640   1.782  14.540 -0.4204  0.3779 -0.8273
  787MPD2    H211608   3.278   1.604  14.424  0.2913 -0.5436  0.3449
  787MPD2    H311609   3.396   1.787  14.512  1.4513  0.6574  0.9739
  787MPD2     N11610   3.812   1.589  14.441 -0.3628 -0.3532 -0.1884
  787MPD2    H511611   3.864   1.521  14.387  0.3452 -0.2192  0.3292
  787MPD2    N111612   3.375   1.385  14.314  0.2770  0.4516  0.3779
  787MPD2    H711613   3.275   1.403  14.320 -0.1064 -1.5031 -0.2322
  788MPD2     C11614   0.680   3.272   0.578 -0.0364 -0.3528 -0.0208
  788MPD2    C111615   0.564   3.294   0.499 -0.1233 -0.5476 -0.7082
  788MPD2    C211616   0.545   3.408   0.430  0.4611  0.7978 -0.4499
  788MPD2    C311617   0.649   3.503   0.428 -0.3783  0.0008 -0.9670
  788MPD2    C411618   0.765   3.480   0.500 -0.1571 -0.2714  0.2955
  788MPD2    C511619   0.781   3.360   0.572 -0.0172  0.0657  0.2176
  788MPD2     H11620   0.459   3.429   0.368  0.1500  2.3775  0.5139
  788MPD2    H111621   0.830   3.562   0.526  0.1087 -0.6254  0.7559
  788MPD2    H211622   0.706   3.183   0.633  1.7138 -1.0129 -1.9018
  788MPD2    H311623   0.867   3.345   0.637 -0.8284  0.6868  1.4397
  788MPD2     N11624   0.638   3.626   0.356 -0.8379 -0.2082  0.7158
  788MPD2    H511625   0.719   3.686   0.366 -1.4637  1.0294 -1.4512
  788MPD2    N111626   0.488   3.171   0.484 -0.6971  0.3814 -0.2883
  788MPD2    H711627   0.523   3.086   0.527 -0.6720 -0.6621 -2.3939
  789MPD2     C11628   1.095   4.045  16.331 -0.0461 -0.5412 -0.1930
  789MPD2    C111629   1.043   3.990  16.451 -0.0566 -0.1584 -0.0277
  789MPD2    C211630   0.943   4.061  16.523 -0.1846  0.0627  0.7906
  789MPD2    C311631   0.886   4.175  16.471 -0.0913 -0.8855  0.1690
  789MPD2    C411632   0.928   4.223  16.350  0.2835 -0.4246  0.1558
  789MPD2    C511633   1.036   4.166  16.286  0.0175 -0.5687  0.1597
  789MPD2     H11634   0.908   4.014  16.614 -2.2181 -0.1329 -0.0792
  789MPD2    H111635   0.880   4.307  16.302 -0.5927 -0.7949  0.3844
  789MPD2    H211636   1.179   4.008  16.274 -0.2475  2.0342 -2.1732
  789MPD2    H311637   1.074   4.194  16.189  0.3480 -1.3605  0.0599
  789MPD2     N11638   0.769   4.234  16.523  0.0018  0.1304 -0.0628
  789MPD2    H511639   0.728   4.311  16.471 -1.4987 -1.1449 -0.7950
  789MPD2    N111640   1.087   3.866  16.501  0.1760  0.3403 -0.1470
  789MPD2    H711641   1.023   3.821  16.566  0.1833  1.9264  0.9389
  790MPD2     C11642   1.553   0.356  13.754 -0.6319 -0.0654  0.4472
  790MPD2    C111643   1.604   0.471  13.702  0.8241 -0.2738  0.0922
  790MPD2    C211644   1.591   0.495  13.567  0.5072  0.1816 -0.2259
  790MPD2    C311645   1.530   0.411  13.480  0.7869  0.0373  0.2312
  790MPD2    C411646   1.491   0.291  13.525 -0.0362 -0.3277  0.7633
  790MPD2    C511647   1.498   0.265  13.664 -0.5185 -0.1487 -0.0125
  790MPD2     H11648   1.618   0.594  13.532  0.1996 -0.0926 -1.2519
  790MPD2    H111649   1.461   0.219  13.449 -0.5989 -0.5787  1.2301
  790MPD2    H211650   1.533   0.344  13.859  0.3367  1.2101  0.7785
  790MPD2    H311651   1.447   0.181  13.711 -0.9109  0.7164  1.0898
  790MPD2     N11652   1.537   0.447  13.339 -0.1498  0.4329  0.4939
  790MPD2    H511653   1.589   0.529  13.310 -1.6074  0.3402 -2.4601
  790MPD2    N111654   1.656   0.561  13.801 -0.4969 -0.0147 -0.4863
  790MPD2    H711655   1.640   0.531  13.897  0.5942  1.9069  0.3098
  791MPD2     C11656   1.054   0.713  12.613 -0.9399 -0.0399 -0.4992
  791MPD2    C111657   1.058   0.606  12.702 -0.3931 -0.4745  0.9479
  791MPD2    C211658   0.945   0.531  12.714 -0.3524  0.3004  0.0110
  791MPD2    C311659   0.833   0.564  12.639  0.0975  0.0409  0.3052
  791MPD2    C411660   0.831   0.670  12.550 -0.1542 -0.2214  0.2493
  791MPD2    C511661   0.945   0.745  12.534 -0.1522 -0.4512  0.0211
  791MPD2     H11662   0.933   0.435  12.764  1.8327 -0.0832 -0.1917
  791MPD2    H111663   0.748   0.686  12.482  0.5365 -1.8394 -0.9699
  791MPD2    H211664   1.139   0.774  12.583  1.4256 -1.5176  3.2631
  791MPD2    H311665   0.951   0.831  12.468 -2.9741 -1.5756 -1.7034
  791MPD2     N11666   0.727   0.473  12.635  0.1945 -0.0351 -0.0081
  791MPD2    H511667   0.737   0.381  12.677 -2.0981  0.0935  0.8400
  791MPD2    N111668   1.187   0.569  12.759  0.0698  0.4350  0.3515
  791MPD2    H711669   1.258   0.641  12.750 -1.8336  2.3222  0.4313
  792MPD2     C11670   2.401   0.731  10.710  0.1569  0.1664 -0.0268
  792MPD2    C111671   2.308   0.732  10.812 -0.2746 -0.3110  0.1051
  792MPD2    C211672   2.177   0.681  10.786  0.3444  0.0312 -0.3400
  792MPD2    C311673   2.144   0.631  10.664  0.3728 -0.1019 -0.3637
  792MPD2    C411674   2.242   0.623  10.567  0.6235 -0.2861 -0.2392
  792MPD2    C511675   2.370   0.673  10.593  0.1550 -0.1106  0.3961
  792MPD2     H11676   2.099   0.691  10.861  0.6904 -1.0658  0.1713
  792MPD2    H111677   2.221   0.582  10.469  0.6854  1.7013 -1.0833
  792MPD2    H211678   2.504   0.765  10.723 -0.1978  1.0002  0.5909
  792MPD2    H311679   2.440   0.672  10.511 -1.5315 -0.0401 -1.0606
  792MPD2     N11680   2.013   0.589  10.616  0.0767 -0.0035 -0.8362
  792MPD2    H511681   2.009   0.534  10.531 -1.1572 -0.8385 -0.2318
  792MPD2    N111682   2.337   0.815  10.918  0.3271 -0.1006 -0.4333
  792MPD2    H711683   2.427   0.861  10.912 -0.0155  1.0601  3.4425
  793MPD2     C11684   1.181   1.001  10.334  0.2976 -0.1352 -0.1418
  793MPD2    C111685   1.316   1.007  10.300 -0.1055  0.2734 -0.5475
  793MPD2    C211686   1.407   0.927  10.369 -0.0537 -0.8057 -0.3689
  793MPD2    C311687   1.359   0.841  10.469  0.2071 -0.7852 -0.1280
  793MPD2    C411688   1.225   0.836  10.501 -0.5859 -0.9761  0.7185
  793MPD2    C511689   1.139   0.915  10.427  0.9335  0.0868 -0.1963
  793MPD2     H11690   1.512   0.924  10.342  0.5381  0.1634  1.7926
  793MPD2    H111691   1.188   0.767  10.576 -0.2962 -0.6881  1.1278
  793MPD2    H211692   1.117   1.072  10.283  0.4968  0.8700  0.9959
  793MPD2    H311693   1.040   0.915  10.471  0.3189 -1.6848 -1.5631
  793MPD2     N11694   1.450   0.762  10.535 -0.5101  0.4311  0.0162
  793MPD2    H511695   1.549   0.774  10.518 -0.0357 -0.8863  1.9432
  793MPD2    N111696   1.364   1.087  10.193  0.5883  0.1300 -0.4170
  793MPD2    H711697   1.465   1.097  10.184  0.5547  0.0771 -0.8807
  794MPD2     C11698   1.493   0.051  17.337 -0.7527  0.2744  0.4261
  794MPD2    C111699   1.356   0.060  17.377 -0.2991  0.0978  0.2314
  794MPD2    C211700   1.275   0.156  17.310 -0.4406  0.2480  0.0482
  794MPD2    C311701   1.327   0.234  17.208  0.6308 -0.4183 -0.5974
  794MPD2    C411702   1.462   0.222  17.176 -0.5705 -0.2392 -0.6972
  794MPD2    C511703   1.538   0.119  17.232 -0.5456  0.2871  0.1444
  794MPD2     H11704   1.170   0.172  17.332 -0.2630 -2.6295  2.9630
  794MPD2    H111705   1.502   0.281  17.094 -0.3950 -0.8392 -1.0364
  794MPD2    H211706   1.555   4.704  17.389 -0.5750 -0.2270 -0.4614
  794MPD2    H311707   1.642   0.116  17.201 -0.7196  0.8086 -0.4803
  794MPD2     N11708   1.238   0.333  17.148 -0.2128 -0.2756  0.3931
  794MPD2    H511709   1.149   0.346  17.195 -0.5289  3.1144 -1.1469
  794MPD2    N111710   1.294   4.705  17.478 -0.7156 -0.5320  0.5879
  794MPD2    H711711   1.193   4.707  17.487 -0.9777  0.8356 -2.6670
  795MPD2     C11712   3.796   2.603  13.755 -0.2287 -0.3930  0.2154
  795MPD2    C111713   3.784   2.513  13.655 -0.1846 -0.8116  0.1099
  795MPD2    C211714   3.863   2.404  13.653 -0.6647  0.5737 -0.1304
  795MPD2    C311715   3.961   2.383  13.752 -0.0464 -0.3892  0.4971
  795MPD2    C411716   3.976   2.481  13.855  0.8164  0.7532 -0.4758
  795MPD2    C511717   3.906   2.594  13.845 -0.0447  0.3779 -0.1491
  795MPD2     H11718   3.844   2.320  13.587 -1.6289  2.2835 -2.0344
  795MPD2    H111719   4.053   2.478  13.931  0.3530  2.1635  0.0638
  795MPD2    H211720   3.729   2.688  13.750  1.2238  0.8111  0.8798
  795MPD2    H311721   3.932   2.671  13.917 -1.6165  0.7926 -0.0384
  795MPD2     N11722   4.046   2.275  13.766  0.8876 -0.3256  0.3582
  795MPD2    H511723   4.121   2.287  13.834 -0.5042 -1.1122  2.0241
  795MPD2    N111724   3.680   2.505  13.558  0.6064 -0.8540 -0.7090
  795MPD2    H711725   3.677   2.430  13.490 -1.7357  0.2559 -1.8492
  796MPD2     C11726   3.342   3.560  15.786  0.1315 -0.1341  0.4923
  796MPD2    C111727   3.303   3.641  15.893  0.2048  0.2989 -0.1252
  796MPD2    C211728   3.276   3.778  15.868  1.2069 -0.2273  0.1552
  796MPD2    C311729   3.289   3.839  15.743  0.1472  0.4359  0.2386
  796MPD2    C411730   3.326   3.755  15.637 -0.6121 -0.0414  0.6690
  796MPD2    C511731   3.347   3.624  15.658 -0.9029 -0.0556 -0.1025
  796MPD2     H11732   3.253   3.845  15.951  1.6726  2.2142 -1.6786
  796MPD2    H111733   3.344   3.801  15.540  1.4556 -0.6614  0.7596
  796MPD2    H211734   3.355   3.452  15.787  2.2161  0.1207  0.7974
  796MPD2    H311735   3.372   3.558  15.576 -0.1075  1.4787 -1.0922
  796MPD2     N11736   3.240   3.972  15.721 -0.6538 -0.2868 -0.2775
  796MPD2    H511737   3.188   4.017  15.795  0.5863  2.1367 -0.8874
  796MPD2    N111738   3.288   3.586  16.022  0.3779  0.7772 -0.5230
  796MPD2    H711739   3.306   3.488  16.038  0.2725  1.2184  2.3076
  797MPD2     C11740   4.674   3.223  17.176  0.6818 -0.1340  0.3957
  797MPD2    C111741   4.553   3.161  17.191 -0.0693  0.1088 -0.4784
  797MPD2    C211742   4.438   3.237  17.215 -0.3599 -0.1629 -0.3523
  797MPD2    C311743   4.441   3.376  17.225  0.3164  0.3042  0.4630
  797MPD2    C411744   4.562   3.432  17.218 -0.2098 -0.6029  0.9449
  797MPD2    C511745   4.673   3.357  17.194  0.3475 -0.3242  0.2295
  797MPD2     H11746   4.348   3.176  17.220 -0.7093  0.2623 -1.4528
  797MPD2    H111747   4.564   3.540  17.223 -0.2055 -0.4597 -1.9072
  797MPD2    H211748   0.044   3.170  17.168  0.4180 -0.5001 -0.3367
  797MPD2    H311749   0.044   3.407  17.195  1.0534 -1.8121  4.0717
  797MPD2     N11750   4.324   3.451  17.250  0.0955  0.1781 -0.8314
  797MPD2    H511751   4.338   3.552  17.250  1.9314 -0.0778 -2.7256
  797MPD2    N111752   4.537   3.020  17.193 -0.4967 -0.0463  0.5035
  797MPD2    H711753   4.447   2.984  17.223 -0.4438 -0.6686 -0.0860
  798MPD2     C11754   3.839   2.957  17.282 -1.1549  0.1343  0.5693
  798MPD2    C111755   3.955   3.028  17.306  0.5316  0.0642  0.6800
  798MPD2    C211756   4.077   2.967  17.321 -0.9306 -0.0941  0.2324
  798MPD2    C311757   4.084   2.831  17.300  0.5683  0.2568  0.5595
  798MPD2    C411758   3.970   2.754  17.271  0.0532  0.0343  0.6842
  798MPD2    C511759   3.850   2.821  17.267 -0.6791  0.1677 -0.5597
  798MPD2     H11760   4.167   3.025  17.337 -1.0846  0.5174 -1.1194
  798MPD2    H111761   3.975   2.649  17.244 -0.9123  0.2963 -0.5522
  798MPD2    H211762   3.743   3.006  17.276 -1.3338 -0.3738 -0.7451
  798MPD2    H311763   3.765   2.759  17.240  0.1152 -1.4267  0.5849
  798MPD2     N11764   4.212   2.777  17.306  0.2472  0.2535  0.1759
  798MPD2    H511765   4.277   2.844  17.347 -0.1457  0.5782  0.2673
  798MPD2    N111766   3.952   3.170  17.307  0.5012  0.4747  0.0750
  798MPD2    H711767   4.042   3.207  17.338  1.1159 -1.5576  0.7042
  799MPD2     C11768   3.462   0.286  14.769  0.5400 -0.0165  0.1498
  799MPD2    C111769   3.352   0.236  14.702  0.3628 -0.7562  0.2847
  799MPD2    C211770   3.274   0.331  14.637 -0.4633 -0.2304 -0.3837
  799MPD2    C311771   3.294   0.469  14.631 -0.2448  0.4057  0.1331
  799MPD2    C411772   3.402   0.516  14.697  0.5342  0.3284 -0.3625
  799MPD2    C511773   3.484   0.422  14.772 -0.0708  0.5427  0.0147
  799MPD2     H11774   3.184   0.297  14.588 -0.1788 -0.1786 -0.9502
  799MPD2    H111775   3.433   0.620  14.700  1.5304  0.0240  0.0419
  799MPD2    H211776   3.537   0.230  14.824 -0.4788 -0.5398  1.0045
  799MPD2    H311777   3.572   0.462  14.822 -0.7735  3.3641 -1.0109
  799MPD2     N11778   3.225   0.554  14.541 -0.5368  0.5376 -0.1255
  799MPD2    H511779   3.263   0.648  14.537  0.4775  0.1180 -0.5125
  799MPD2    N111780   3.317   0.096  14.694  0.0588 -0.6400 -0.0837
  799MPD2    H711781   3.237   0.067  14.639  0.4219 -0.9928 -0.4357
  800MPD2     C11782   3.643   1.760  14.082 -0.1092 -0.3631  0.2173
  800MPD2    C111783   3.755   1.692  14.056  0.3300  0.2438  0.7022
  800MPD2    C211784   3.743   1.566  14.011  0.3834  0.0492 -0.3753
  800MPD2    C311785   3.621   1.509  13.993 -0.3544  0.3235 -0.1704
  800MPD2    C411786   3.503   1.583  14.017 -0.3318  0.0740  0.7160
  800MPD2    C511787   3.516   1.710  14.058 -0.2175  0.3582  0.6150
  800MPD2     H11788   3.824   1.498  13.987 -2.6737 -3.1180 -1.6968
  800MPD2    H111789   3.415   1.527  13.990 -1.4300  2.4671 -0.6271
  800MPD2    H211790   3.644   1.862  14.118  0.4019 -0.3774  0.2481
  800MPD2    H311791   3.422   1.763  14.068  0.1537  1.0176  0.5996
  800MPD2     N11792   3.625   1.374  13.958 -0.0126 -0.3399 -0.2401
  800MPD2    H511793   3.711   1.321  13.960 -0.8019 -1.5932  0.8966
  800MPD2    N111794   3.878   1.754  14.080 -0.3560 -0.3487  0.2023
  800MPD2    H711795   3.871   1.854  14.067 -1.0509 -0.5189 -0.7269
  801MPD2     C11796   4.260   2.377  14.213 -0.3022 -0.1343  0.0097
  801MPD2    C111797   4.143   2.304  14.190 -0.9245 -0.7299  0.4236
  801MPD2    C211798   4.025   2.377  14.218  0.1988 -0.1922 -0.2458
  801MPD2    C311799   4.027   2.514  14.259  0.2163  0.3617 -0.5136
  801MPD2    C411800   4.145   2.580  14.259  0.3870  0.2611  0.0406
  801MPD2    C511801   4.257   2.512  14.233 -0.6872 -0.7584 -0.1804
  801MPD2     H11802   3.935   2.317  14.218  0.0175  0.0690 -1.6284
  801MPD2    H111803   4.155   2.682  14.292 -1.4319  0.2483  0.6514
  801MPD2    H211804   4.354   2.326  14.196 -0.6342 -0.7196 -0.0599
  801MPD2    H311805   4.351   2.567  14.232 -1.7657  1.0569 -1.1685
  801MPD2     N11806   3.909   2.578  14.307  0.0044 -0.1279 -1.1463
  801MPD2    H511807   3.919   2.663  14.361 -2.2084 -1.2664  1.0495
  801MPD2    N111808   4.142   2.168  14.153  0.0669  0.1134 -0.0843
  801MPD2    H711809   4.052   2.138  14.114 -1.7528  2.3726  2.4160
  802MPD2     C11810   2.517   2.737  17.348  1.2752  0.0632 -0.1358
  802MPD2    C111811   2.562   2.659  17.454 -0.1530  0.2854  0.1105
  802MPD2    C211812   2.560   2.517  17.443 -0.1159 -0.2894  0.1714
  802MPD2    C311813   2.509   2.459  17.330  0.6487  0.5950 -0.5441
  802MPD2    C411814   2.458   2.536  17.225  0.3048  0.1735  0.0782
  802MPD2    C511815   2.467   2.671  17.237  0.1547  0.1642 -0.1869
  802MPD2     H11816   2.609   2.451  17.513  2.3280  0.1402 -1.1316
  802MPD2    H111817   2.429   2.497  17.128  0.3091  0.3260  0.0155
  802MPD2    H211818   2.517   2.845  17.354  1.1412  0.0370  0.3444
  802MPD2    H311819   2.425   2.728  17.155  0.5792  0.5368 -0.1464
  802MPD2     N11820   2.514   2.320  17.326  0.4962 -0.1246  0.3039
  802MPD2    H511821   2.580   2.281  17.393  0.7827 -3.4888 -1.9492
  802MPD2    N111822   2.601   2.708  17.584  0.4060 -0.1226 -0.4979
  802MPD2    H711823   2.633   2.638  17.650  0.9689 -0.2714 -0.9232
  803MPD2     C11824   4.336   0.807  11.626 -0.3407 -0.5388  0.0746
  803MPD2    C111825   4.417   0.776  11.733  0.5727 -0.9895  0.1283
  803MPD2    C211826   4.383   0.685  11.819 -0.4245  0.1111 -0.2952
  803MPD2    C311827   4.255   0.629  11.817  0.1357 -0.5092  0.7396
  803MPD2    C411828   4.172   0.658  11.706 -0.2139 -0.5913  0.2170
  803MPD2    C511829   4.214   0.748  11.614 -0.3093 -0.2315 -0.8451
  803MPD2     H11830   4.462   0.653  11.887  0.8434 -1.0206 -2.3126
  803MPD2    H111831   4.091   0.585  11.705 -1.0038  0.2514  3.2901
  803MPD2    H211832   4.361   0.882  11.552  1.4150 -0.1769  1.0384
  803MPD2    H311833   4.161   0.766  11.522 -0.5001 -1.3398 -0.9504
  803MPD2     N11834   4.206   0.542  11.914  0.1260 -0.0042  0.5491
  803MPD2    H511835   4.108   0.515  11.913  0.1060  0.0900 -0.3230
  803MPD2    N111836   4.549   0.831  11.742 -0.7844  0.0047  0.6138
  803MPD2    H711837   4.605   0.788  11.814 -2.2041 -2.2782  0.3237
  804MPD2     C11838   3.587   1.953  16.957 -0.1586 -0.3688 -0.0526
  804MPD2    C111839   3.603   1.884  17.076 -0.3969  0.4484 -0.1076
  804MPD2    C211840   3.707   1.912  17.155  0.3080 -0.1294  0.9027
  804MPD2    C311841   3.801   2.011  17.127  0.5631  0.4062  1.3682
  804MPD2    C411842   3.789   2.078  17.003  0.2735 -0.5272  0.0619
  804MPD2    C511843   3.680   2.049  16.922 -0.2558 -0.2746  0.3085
  804MPD2     H11844   3.719   1.851  17.244  0.5098 -1.6699 -0.1808
  804MPD2    H111845   3.863   2.147  16.965 -1.5399  1.1607 -0.4015
  804MPD2    H211846   3.510   1.934  16.883  1.1251  1.4220 -1.8607
  804MPD2    H311847   3.675   2.111  16.833 -2.1747 -0.3183  0.3907
  804MPD2     N11848   3.926   2.012  17.191  0.1024  0.2177 -0.0504
  804MPD2    H511849   3.938   1.933  17.253  3.0533 -1.0620 -2.1983
  804MPD2    N111850   3.522   1.770  17.101 -0.0171  0.2110  0.6032
  804MPD2    H711851   3.533   1.732  17.195  0.8503  1.0851  0.8571
  805MPD2     C11852   2.958   0.523  15.595 -0.0584  0.3470 -0.3135
  805MPD2    C111853   3.067   0.553  15.520 -0.6426 -0.1240 -0.0848
  805MPD2    C211854   3.176   0.608  15.576  0.3695  0.2737 -0.1362
  805MPD2    C311855   3.186   0.631  15.712  0.3919  0.9628 -0.2085
  805MPD2    C411856   3.071   0.606  15.793  0.7110 -0.3341  0.4560
  805MPD2    C511857   2.962   0.554  15.731  0.0771  0.2340  0.8301
  805MPD2     H11858   3.266   0.617  15.516  0.9110  0.8575  0.7601
  805MPD2    H111859   3.065   0.618  15.901  5.2166  0.9647  0.5764
  805MPD2    H211860   2.871   0.477  15.551  1.1942 -1.0761 -1.3038
  805MPD2    H311861   2.873   0.542  15.793 -1.0479 -1.9304 -1.2026
  805MPD2     N11862   3.306   0.698  15.755 -0.2291  0.2485  0.6711
  805MPD2    H511863   3.383   0.717  15.691 -0.4073  2.3365  1.0876
  805MPD2    N111864   3.076   0.534  15.385  0.2329 -0.4637  0.6593
  805MPD2    H711865   3.168   0.545  15.344  1.1914  1.5795  3.3719
  806MPD2     C11866   3.091   3.941   0.275  0.0549 -0.3549 -0.7794
  806MPD2    C111867   3.195   3.931   0.366 -0.0187 -0.2980 -0.1387
  806MPD2    C211868   3.330   3.932   0.330 -0.2550 -0.5995 -0.2369
  806MPD2    C311869   3.359   3.935   0.197  0.2005  0.3023 -0.6744
  806MPD2    C411870   3.260   3.943   0.106 -0.0512 -0.1056  0.4288
  806MPD2    C511871   3.129   3.954   0.151  0.5551 -0.1703  0.1214
  806MPD2     H11872   3.411   3.931   0.402 -0.2536 -1.7730 -0.2456
  806MPD2    H111873   3.285   3.962   0.002  1.8437 -0.7896  0.7775
  806MPD2    H211874   2.988   3.926   0.306  0.2321  0.4034  0.1838
  806MPD2    H311875   3.046   3.943   0.081  0.1889  1.7632  0.2636
  806MPD2     N11876   3.496   3.939   0.164  0.5307 -0.0743 -0.4630
  806MPD2    H511877   3.560   3.920   0.240  0.1229  4.1106  0.9537
  806MPD2    N111878   3.161   3.943   0.503  0.7650  0.3930  0.1848
  806MPD2    H711879   3.062   3.932   0.522  0.5280 -0.3557 -1.4337
  807MPD2     C11880   2.781   3.512   0.966  0.0368  0.0378  0.7441
  807MPD2    C111881   2.857   3.587   1.053 -0.0658 -0.5220 -0.7317
  807MPD2    C211882   2.850   3.554   1.186 -0.3053  0.5827 -0.1256
  807MPD2    C311883   2.778   3.446   1.225  0.1644 -0.5592  0.6072
  807MPD2    C411884   2.708   3.371   1.141  0.2489  0.1357 -0.0592
  807MPD2    C511885   2.705   3.402   1.004  0.7377  0.0991 -0.0423
  807MPD2     H11886   2.897   3.611   1.266 -1.2549 -1.6277  2.0113
  807MPD2    H111887   2.646   3.287   1.170 -0.5981  0.4839 -0.8508
  807MPD2    H211888   2.777   3.539   0.861  0.5804 -0.9569  0.4617
  807MPD2    H311889   2.641   3.348   0.935  0.8219 -1.0045  0.7496
  807MPD2     N11890   2.783   3.421   1.366  0.6500  0.1024  0.1167
  807MPD2    H511891   2.834   3.484   1.426  1.2522  0.6850 -1.0012
  807MPD2    N111892   2.935   3.696   1.010  0.6894  0.3230  0.1853
  807MPD2    H711893   2.973   3.751   1.086 -0.1876  0.6427  0.3941
  808MPD2     C11894   0.452   0.722   9.242  0.2964  0.8880  0.1531
  808MPD2    C111895   0.317   0.684   9.254  1.1549  0.4617 -0.5879
  808MPD2    C211896   0.233   0.705   9.147  0.0039  0.0445 -0.0251
  808MPD2    C311897   0.279   0.762   9.030  0.3863 -0.1865 -0.5057
  808MPD2    C411898   0.411   0.803   9.026  0.4589 -0.0024 -0.3148
  808MPD2    C511899   0.497   0.781   9.132 -0.4848  0.8368  0.8720
  808MPD2     H11900   0.134   0.663   9.162 -0.9050  2.3444  0.2981
  808MPD2    H111901   0.455   0.834   8.932  0.2553  2.0797  0.2983
  808MPD2    H211902   0.531   0.695   9.311 -0.4432 -1.0198  0.2384
  808MPD2    H311903   0.596   0.823   9.121 -0.7652  1.6234  1.3371
  808MPD2     N11904   0.197   0.795   8.926  0.3677  0.2473 -0.0233
  808MPD2    H511905   0.247   0.820   8.842 -0.1813 -1.9230 -0.9917
  808MPD2    N111906   0.259   0.635   9.370  0.4517 -0.2032  0.0588
  808MPD2    H711907   0.167   0.594   9.357 -0.5871  1.8941  0.8948
  809MPD2     C11908   0.532   1.479   8.745 -0.1847 -0.3996 -0.1938
  809MPD2    C111909   0.439   1.489   8.847 -0.5275  0.0711  1.0289
  809MPD2    C211910   0.313   1.419   8.833 -0.7049 -0.1669 -0.1164
  809MPD2    C311911   0.296   1.326   8.729 -0.2548 -0.1024  0.5370
  809MPD2    C411912   0.401   1.304   8.644 -0.4984 -0.4480 -0.4650
  809MPD2    C511913   0.516   1.384   8.648  0.1214 -1.2148  0.4104
  809MPD2     H11914   0.237   1.449   8.904 -1.5727 -0.8764 -0.7485
  809MPD2    H111915   0.396   1.233   8.562 -0.9788  2.3306 -2.8403
  809MPD2    H211916   0.614   1.549   8.734 -1.4115  0.9006 -1.0053
  809MPD2    H311917   0.591   1.365   8.572 -1.8131  2.6640 -2.4758
  809MPD2     N11918   0.187   1.240   8.716  0.1186 -0.5521  0.0305
  809MPD2    H511919   0.205   1.165   8.650  2.9402  1.1542 -1.1360
  809MPD2    N111920   0.444   1.593   8.948  0.9381  0.1675  0.1587
  809MPD2    H711921   0.356   1.614   8.995  0.5011 -0.5044 -0.3552
  810MPD2     C11922   3.725   0.572  10.000  0.2250 -0.0645  0.3352
  810MPD2    C111923   3.602   0.631   9.984  0.4152 -0.7341 -0.0975
  810MPD2    C211924   3.565   0.737  10.062  0.1322 -0.1687 -0.1042
  810MPD2    C311925   3.651   0.777  10.165  0.6383 -0.2841 -1.5366
  810MPD2    C411926   3.775   0.727  10.175 -0.2039  0.5579 -0.4248
  810MPD2    C511927   3.810   0.625  10.095 -0.0115 -0.6891  0.5400
  810MPD2     H11928   3.471   0.785  10.036  0.1692  0.1902  0.4148
  810MPD2    H111929   3.842   0.751  10.257 -1.7283 -0.7466  1.1933
  810MPD2    H211930   3.758   0.486   9.943  1.7159  0.1821  0.8164
  810MPD2    H311931   3.914   0.596  10.107  0.3398 -0.6581 -2.5399
  810MPD2     N11932   3.614   0.881  10.248 -0.1293  0.2993  0.4160
  810MPD2    H511933   3.680   0.914  10.318  0.4831 -0.3235  0.1260
  810MPD2    N111934   3.526   0.574   9.884 -0.0618 -0.0832 -0.2692
  810MPD2    H711935   3.553   0.484   9.844  1.8747 -0.4621  1.8999
  811MPD2     C11936   2.915   0.978   9.620 -0.2589 -0.2164 -0.0444
  811MPD2    C111937   3.015   0.946   9.710 -0.3791  0.1154 -0.1247
  811MPD2    C211938   3.056   1.036   9.802 -0.4395 -0.8872 -0.3127
  811MPD2    C311939   3.001   1.165   9.804 -0.3577  0.7428 -0.0994
  811MPD2    C411940   2.916   1.203   9.699  0.2056 -0.4407  0.4417
  811MPD2    C511941   2.877   1.111   9.607 -0.2321 -0.2174  1.0802
  811MPD2     H11942   3.126   0.996   9.875  2.7532  1.1022 -2.2366
  811MPD2    H111943   2.874   1.301   9.680  0.1440 -0.4240  0.6627
  811MPD2    H211944   2.884   0.906   9.544  1.2058 -1.1310  0.2193
  811MPD2    H311945   2.819   1.138   9.520  0.2049 -0.4353  0.7173
  811MPD2     N11946   3.040   1.257   9.909 -0.3105  0.9433 -1.0139
  811MPD2    H511947   3.101   1.219   9.981 -2.1403 -0.2013 -0.0633
  811MPD2    N111948   3.069   0.812   9.706 -0.0055 -0.5845 -0.2295
  811MPD2    H711949   3.163   0.795   9.740  1.3913  2.7287 -2.3337
  812MPD2     C11950   2.759   0.744  12.190  0.5032  0.0970 -0.5496
  812MPD2    C111951   2.661   0.797  12.275 -0.5218 -0.1653 -0.2306
  812MPD2    C211952   2.584   0.710  12.353  0.5877  0.1985 -0.4320
  812MPD2    C311953   2.596   0.571  12.343  0.5105 -0.7311 -0.2734
  812MPD2    C411954   2.688   0.524  12.245 -0.0770 -0.1060 -0.1816
  812MPD2    C511955   2.756   0.610  12.165 -0.4087  0.2855  0.0647
  812MPD2     H11956   2.507   0.748  12.419  1.3068  0.7183  0.1103
  812MPD2    H111957   2.702   0.417  12.232  0.2393 -0.0521 -0.2764
  812MPD2    H211958   2.830   0.806  12.136  1.1810  0.0459  0.3016
  812MPD2    H311959   2.831   0.570  12.097 -1.9734  1.4098 -2.3205
  812MPD2     N11960   2.515   0.492  12.423 -0.7419  0.2423  0.4009
  812MPD2    H511961   2.445   0.535  12.483 -0.7787 -1.8379  1.8813
  812MPD2    N111962   2.636   0.937  12.262  0.2039 -0.3945  0.4329
  812MPD2    H711963   2.710   0.995  12.225  0.0327 -0.0953  0.5622
  813MPD2     C11964   1.604   2.391  12.541  0.1271  0.4192  0.3203
  813MPD2    C111965   1.550   2.518  12.519  0.6388 -0.4830 -0.1027
  813MPD2    C211966   1.454   2.562  12.601  0.2003 -0.0209 -0.2753
  813MPD2    C311967   1.406   2.487  12.707  0.3242  0.1554  0.3108
  813MPD2    C411968   1.454   2.355  12.715  0.0190 -0.0389 -0.5751
  813MPD2    C511969   1.550   2.308  12.632  0.3198  0.0155  0.1730
  813MPD2     H11970   1.404   2.654  12.572  0.9888 -0.6349 -3.5009
  813MPD2    H111971   1.407   2.290  12.788 -0.3926  0.7306 -0.1496
  813MPD2    H211972   1.684   2.351  12.479 -1.6474 -1.2059 -0.9230
  813MPD2    H311973   1.578   2.203  12.642  1.3793  0.3986  1.2627
  813MPD2     N11974   1.318   2.546  12.793  0.1027  0.3616  0.4962
  813MPD2    H511975   1.296   2.644  12.780 -0.9128  0.0483 -0.0809
  813MPD2    N111976   1.613   2.604  12.427  0.2562 -0.2900 -0.1014
  813MPD2    H711977   1.704   2.575  12.393 -0.3304 -0.3710 -1.6196
  814MPD2     C11978   1.994   4.012  12.311 -0.3976 -0.0567  0.0965
  814MPD2    C111979   2.029   4.050  12.185 -0.0504  0.0583 -0.0468
  814MPD2    C211980   2.102   4.165  12.167  0.1153 -0.2918  0.9638
  814MPD2    C311981   2.130   4.253  12.276  0.5491 -0.1947 -0.1639
  814MPD2    C411982   2.083   4.219  12.401  0.0354 -0.2417 -0.5313
  814MPD2    C511983   2.014   4.102  12.416  0.0566 -0.2458  0.0610
  814MPD2     H11984   2.129   4.190  12.065 -1.0321  1.0165  0.9758
  814MPD2    H111985   2.087   4.287  12.485 -0.9954  1.4700 -1.8769
  814MPD2    H211986   1.933   3.925  12.334 -0.0248  0.0298  1.4184
  814MPD2    H311987   1.992   4.084  12.520 -0.4360  1.8982  0.3389
  814MPD2     N11988   2.221   4.361  12.268  0.2382 -0.1853  0.3595
  814MPD2    H511989   2.244   4.410  12.353 -3.0472 -0.6397  1.5439
  814MPD2    N111990   1.996   3.977  12.068 -0.0358 -0.2814 -0.5031
  814MPD2    H711991   2.020   4.015  11.977 -1.4450  0.3578 -0.6078
  815MPD2     C11992   2.739   2.129  12.406 -0.3752 -0.3953  0.7823
  815MPD2    C111993   2.710   2.110  12.276 -1.0373  0.0308  0.1396
  815MPD2    C211994   2.582   2.112  12.228  0.3241 -0.0738 -0.2633
  815MPD2    C311995   2.474   2.103  12.322 -0.0814 -0.0309 -0.3725
  815MPD2    C411996   2.506   2.120  12.457 -0.9320  0.1558 -0.6066
  815MPD2    C511997   2.636   2.137  12.499  0.2246  0.4715  0.1599
  815MPD2     H11998   2.568   2.115  12.120  2.4651 -0.5396 -0.5443
  815MPD2    H111999   2.434   2.117  12.538 -1.7303  1.5782 -1.2667
  815MPD2    H212000   2.839   2.129  12.447 -0.3581 -0.1826  0.7389
  815MPD2    H312001   2.667   2.147  12.603  2.0222 -3.2139 -0.0199
  815MPD2     N12002   2.340   2.096  12.287  0.3224  0.4308  0.1468
  815MPD2    H512003   2.280   2.077  12.366  0.4599 -0.8858 -0.0629
  815MPD2    N112004   2.813   2.082  12.187  0.4231 -0.5258 -0.4438
  815MPD2    H712005   2.906   2.067  12.227  0.1883  0.5056  0.4830
  816MPD2     C12006   2.651   1.286  16.949 -0.2711  0.5818 -0.1425
  816MPD2    C112007   2.645   1.367  16.838  0.0720  0.1455  0.4850
  816MPD2    C212008   2.745   1.355  16.742  0.3182 -0.1945 -0.8057
  816MPD2    C312009   2.846   1.260  16.765 -0.4004 -0.0793 -0.5515
  816MPD2    C412010   2.853   1.192  16.883  0.4105 -0.2242  0.4923
  816MPD2    C512011   2.757   1.204  16.981  0.0952 -0.1544  0.0516
  816MPD2     H12012   2.748   1.419  16.654  0.9106 -0.4168 -0.9505
  816MPD2    H112013   2.942   1.135  16.907  0.7608 -0.3462 -1.1223
  816MPD2    H212014   2.566   1.280  17.015  1.1457 -0.9021  1.5309
  816MPD2    H312015   2.777   1.153  17.075  1.3635 -1.5668 -0.9711
  816MPD2     N12016   2.941   1.248  16.668 -0.3967  0.1157 -0.6515
  816MPD2    H512017   2.922   1.307  16.587 -0.7403  1.1082  0.1519
  816MPD2    N112018   2.533   1.454  16.831 -0.1784 -0.6589  0.9301
  816MPD2    H712019   2.452   1.438  16.891 -1.6240 -0.3049 -0.9359
  817MPD2     C12020   2.262   2.891   9.881 -0.6669 -0.6398  0.1271
  817MPD2    C112021   2.376   2.966   9.864  0.1813 -0.4678 -0.3073
  817MPD2    C212022   2.370   3.096   9.814  0.5769 -0.3047  0.3571
  817MPD2    C312023   2.248   3.156   9.781 -0.5112 -0.5223  0.0205
  817MPD2    C412024   2.131   3.084   9.797  0.1101 -0.2865 -0.0961
  817MPD2    C512025   2.144   2.955   9.852  0.8555 -0.3542 -0.0158
  817MPD2     H12026   2.456   3.158   9.794 -1.2302  1.9937 -0.2692
  817MPD2    H112027   2.030   3.121   9.785  0.4409  1.0736  1.2944
  817MPD2    H212028   2.248   2.791   9.921  1.2210 -0.0704  2.2576
  817MPD2    H312029   2.066   2.883   9.877  0.7300  0.8015  2.8795
  817MPD2     N12030   2.249   3.295   9.752  0.3552 -0.5094 -0.1765
  817MPD2    H512031   2.342   3.336   9.753 -1.1733  2.9832  0.6043
  817MPD2    N112032   2.507   2.908   9.886 -0.4884  0.7380  0.2287
  817MPD2    H712033   2.587   2.966   9.863  1.8576 -0.8889  4.3668
  818MPD2     C12034   0.496   3.446   9.671  0.0578  0.3592 -0.3433
  818MPD2    C112035   0.606   3.363   9.696 -0.7832 -0.0334 -0.0563
  818MPD2    C212036   0.601   3.233   9.667  0.1270  0.3333 -0.2594
  818MPD2    C312037   0.491   3.179   9.608 -0.4625 -0.1721 -0.1681
  818MPD2    C412038   0.378   3.259   9.578  0.0041 -0.1725  0.1563
  818MPD2    C512039   0.388   3.393   9.609  0.2827  0.2751 -0.3052
  818MPD2     H12040   0.682   3.171   9.705 -1.3996 -0.0682  2.3427
  818MPD2    H112041   0.287   3.228   9.528  0.0782  2.8218 -1.8049
  818MPD2    H212042   0.485   3.554   9.674 -3.2784  0.0307 -1.4884
  818MPD2    H312043   0.311   3.466   9.585  0.9860  2.4207  3.8942
  818MPD2     N12044   0.482   3.037   9.591  0.5766 -0.2190 -0.5861
  818MPD2    H512045   0.390   3.013   9.554 -0.0512  0.3125  0.6332
  818MPD2    N112046   0.723   3.410   9.763  0.2724 -0.1993 -0.1446
  818MPD2    H712047   0.782   3.332   9.792 -0.4059 -0.1873  1.2476
  819MPD2     C12048   3.800   0.018  15.662 -0.0024 -0.4504  0.5680
  819MPD2    C112049   3.836   4.618  15.625  0.2681  1.2685  0.0807
  819MPD2    C212050   3.966   4.580  15.662 -0.4738  0.1958 -0.0850
  819MPD2    C312051   4.046   4.664  15.730 -0.1409 -0.4917 -0.1111
  819MPD2    C412052   4.007   0.070  15.763  0.3657 -0.3387  0.6303
  819MPD2    C512053   3.877   0.102  15.730  0.6030 -0.1648 -0.4397
  819MPD2     H12054   4.014   4.486  15.637  1.4692  1.2000 -0.1247
  819MPD2    H112055   4.067   0.149  15.808  0.6202  0.1277 -0.5173
  819MPD2    H212056   3.704   0.053  15.624  1.3684  0.8276 -1.7065
  819MPD2    H312057   3.840   0.204  15.733 -1.3045 -0.9124  1.4500
  819MPD2     N12058   4.178   4.627  15.756  0.5474 -0.2551  0.4209
  819MPD2    H512059   4.216   4.545  15.710 -0.4779 -1.0939  1.0749
  819MPD2    N112060   3.755   4.541  15.537  0.0775  0.1344  0.5002
  819MPD2    H712061   3.672   4.587  15.501 -1.4552 -1.6051  1.8059
  820MPD2     C12062   2.995   4.616  14.949 -0.3036 -0.1119  0.4446
  820MPD2    C112063   3.096   4.690  14.999  0.1869  0.4054 -0.1792
  820MPD2    C212064   3.206   4.622  15.054  0.4497 -0.9402  0.0412
  820MPD2    C312065   3.211   4.482  15.054  0.0099  0.0839  0.5741
  820MPD2    C412066   3.102   4.420  14.991  0.4421 -0.3033  0.5305
  820MPD2    C512067   2.994   4.478  14.939  0.7511 -0.1738  0.1893
  820MPD2     H12068   3.292   4.678  15.089 -1.1598  1.8544 -0.4261
  820MPD2    H112069   3.099   4.313  14.974 -2.0594 -0.2749  0.8531
  820MPD2    H212070   2.919   4.672  14.895  2.8715  0.5242 -3.3367
  820MPD2    H312071   2.919   4.413  14.896 -0.4889  1.7474 -0.5215
  820MPD2     N12072   3.310   4.405  15.115  0.3410  0.7806  0.1369
  820MPD2    H512073   3.284   4.309  15.134  0.9970  0.5977  0.1209
  820MPD2    N112074   3.087   0.104  14.987  0.3289 -0.4029 -0.1441
  820MPD2    H712075   3.005   0.144  14.942  0.4593  0.6116  0.5157
  821MPD2     C12076   3.694   1.115  13.234 -0.0519  0.1221 -0.6803
  821MPD2    C112077   3.782   1.142  13.334 -0.2352 -0.1541 -0.6675
  821MPD2    C212078   3.910   1.184  13.314  0.4106  0.0882  0.0142
  821MPD2    C312079   3.947   1.216  13.188 -0.2684  0.2073  0.5958
  821MPD2    C412080   3.857   1.200  13.084  0.0366  0.4184  0.4857
  821MPD2    C512081   3.738   1.135  13.105 -0.4672 -0.0420  0.5652
  821MPD2     H12082   3.983   1.184  13.394  0.5525  4.3660 -0.0687
  821MPD2    H112083   3.875   1.209  12.978  0.2556  1.8504  0.6513
  821MPD2    H212084   3.597   1.072  13.258  0.1235 -1.0935 -2.1529
  821MPD2    H312085   3.669   1.107  13.026  3.3750 -2.5424 -1.8975
  821MPD2     N12086   4.076   1.261  13.157 -0.2526 -0.1875 -0.9980
  821MPD2    H512087   4.086   1.290  13.060  2.3497  1.6166 -0.2097
  821MPD2    N112088   3.752   1.108  13.465 -0.2445  0.6475  0.0959
  821MPD2    H712089   3.821   1.129  13.536 -1.6967  0.7812  1.4575
  822MPD2     C12090   4.661   1.547  15.757 -0.4768  0.2683  0.1322
  822MPD2    C112091   4.647   1.501  15.888 -0.1970  0.5774 -0.6105
  822MPD2    C212092   4.580   1.583  15.980 -1.0012  0.2812  0.4004
  822MPD2    C312093   4.527   1.702  15.952  0.0878 -0.2507  0.3173
  822MPD2    C412094   4.552   1.750  15.822  0.4772 -0.5529 -0.3883
  822MPD2    C512095   4.607   1.671  15.726 -0.8287  0.6580 -0.2300
  822MPD2     H12096   4.577   1.547  16.083 -0.8023  1.2528  0.7402
  822MPD2    H112097   4.519   1.848  15.788  0.8972 -0.2281  0.1448
  822MPD2    H212098   4.690   1.485  15.673 -0.3162 -0.0093  0.3929
  822MPD2    H312099   4.615   1.698  15.621 -0.9804  0.3738 -0.3151
  822MPD2     N12100   4.451   1.771  16.050 -0.4597 -0.0686  0.0198
  822MPD2    H512101   4.435   1.720  16.136  3.2789 -0.0034  0.7486
  822MPD2    N112102   4.675   1.367  15.925  0.1595  1.0751 -0.3585
  822MPD2    H712103   4.652   1.347  16.022  0.2423  2.7718  0.0113
  823MPD2     C12104   3.861   1.752  16.644  0.4526  0.2786  0.0739
  823MPD2    C112105   3.981   1.717  16.593  0.4075  1.0764 -0.2699
  823MPD2    C212106   4.040   1.594  16.625  0.2647  0.0739  0.0485
  823MPD2    C312107   3.980   1.506  16.714  0.0774  0.0778 -0.8993
  823MPD2    C412108   3.852   1.538  16.753 -0.3056 -0.2786 -0.5930
  823MPD2    C512109   3.794   1.655  16.721  1.0007 -0.4297  0.7197
  823MPD2     H12110   4.139   1.577  16.583 -0.6814 -0.5948 -1.9052
  823MPD2    H112111   3.792   1.463  16.802 -0.8817 -0.9239 -2.2756
  823MPD2    H212112   3.809   1.838  16.605 -1.2335 -0.2031  1.2513
  823MPD2    H312113   3.693   1.676  16.754  1.3143 -0.9410  1.9927
  823MPD2     N12114   4.037   1.389  16.760 -0.1750 -0.6713  0.7464
  823MPD2    H512115   3.980   1.320  16.807  0.6040 -0.6175  1.7763
  823MPD2    N112116   4.032   1.814  16.505  0.1977  0.0710  0.2381
  823MPD2    H712117   4.015   1.911  16.525  0.5618  0.5404 -1.6927
  824MPD2     C12118   0.590   0.788  16.071  0.4860  0.3147 -0.1069
  824MPD2    C112119   0.503   0.772  15.966  0.1234  0.3564 -0.0185
  824MPD2    C212120   0.535   0.696  15.855 -0.1895 -0.4467 -0.0859
  824MPD2    C312121   0.651   0.621  15.859 -0.4298 -0.9714  0.2104
  824MPD2    C412122   0.740   0.636  15.969 -0.2588  0.2954  0.3936
  824MPD2    C512123   0.716   0.736  16.059  0.6564  0.0989 -0.0114
  824MPD2     H12124   0.466   0.698  15.771 -0.4262  0.5464  0.1317
  824MPD2    H112125   0.836   0.586  15.964 -0.2557  0.4190 -0.8603
  824MPD2    H212126   0.563   0.846  16.159  0.4373  0.1117  0.0122
  824MPD2    H312127   0.784   0.756  16.141  2.4023  1.8598 -1.8844
  824MPD2     N12128   0.689   0.535  15.754  0.2672 -0.5939 -0.1771
  824MPD2    H512129   0.637   0.546  15.668  2.0838  1.6997 -1.0132
  824MPD2    N112130   0.382   0.853  15.974 -0.2902  0.1081 -0.7057
  824MPD2    H712131   0.368   0.880  16.071 -0.2351  0.5877 -0.8306
  825MPD2     C12132   1.168   0.302  15.059 -0.6355  0.0614 -0.1202
  825MPD2    C112133   1.102   0.399  15.126 -0.0039  0.7892  0.7603
  825MPD2    C212134   1.125   0.534  15.088  0.1160  0.4244  0.7457
  825MPD2    C312135   1.204   0.568  14.982  1.6261  0.6966 -0.3048
  825MPD2    C412136   1.275   0.464  14.918 -0.1362 -0.1427 -0.1126
  825MPD2    C512137   1.252   0.332  14.955 -0.6082 -0.4397 -0.3569
  825MPD2     H12138   1.073   0.608  15.147  1.2693  1.9881 -0.1934
  825MPD2    H112139   1.330   0.474  14.826 -0.4447  1.5869 -0.1013
  825MPD2    H212140   1.152   0.198  15.085 -1.2009  0.3025  0.4926
  825MPD2    H312141   1.293   0.251  14.896  0.5684  0.2227 -0.4607
  825MPD2     N12142   1.233   0.699  14.937 -0.0193  0.0843 -0.2581
  825MPD2    H512143   1.288   0.713  14.853 -0.9456  0.0579 -0.8593
  825MPD2    N112144   1.020   0.360  15.236  0.3148 -0.2169 -0.1043
  825MPD2    H712145   1.035   0.261  15.253 -1.2211 -0.5841 -0.8978
  826MPD2     C12146   0.462   4.720  13.365 -0.6582 -0.5989  0.2908
  826MPD2    C112147   0.554   0.097  13.372  0.2962  0.5507 -0.0567
  826MPD2    C212148   0.513   0.228  13.355 -0.2982  0.2116  0.6601
  826MPD2    C312149   0.381   0.257  13.325 -0.2286  0.2880 -0.2732
  826MPD2    C412150   0.289   0.154  13.323  0.2048  0.2256 -0.6274
  826MPD2    C512151   0.325   0.020  13.338 -0.0089 -0.9174 -0.2018
  826MPD2     H12152   0.588   0.304  13.339 -1.2331  0.7683 -1.0936
  826MPD2    H112153   0.183   0.179  13.319 -0.1299 -0.6255  2.7848
  826MPD2    H212154   0.506   4.622  13.378 -0.9310 -0.9111 -1.1394
  826MPD2    H312155   0.250   4.668  13.338  2.1096 -2.9830 -0.2689
  826MPD2     N12156   0.329   0.390  13.306 -0.6750  0.8922 -0.0188
  826MPD2    H512157   0.230   0.390  13.284 -0.9617  1.0412  1.2383
  826MPD2    N112158   0.684   0.055  13.390  0.0486 -0.0044 -0.1075
  826MPD2    H712159   0.705   4.680  13.394 -1.0437 -0.2150  0.5089
  827MPD2     C12160   1.702   1.670  10.012 -0.3217  0.4796 -0.3026
  827MPD2    C112161   1.616   1.688  10.116 -0.0826  0.7922 -0.1575
  827MPD2    C212162   1.489   1.629  10.100 -0.7279  0.0189  0.2438
  827MPD2    C312163   1.444   1.575   9.986 -0.4097  0.4291 -0.0113
  827MPD2    C412164   1.525   1.566   9.879 -0.4213 -0.3921  0.2444
  827MPD2    C512165   1.654   1.607   9.893 -0.0127  0.1440 -0.3391
  827MPD2     H12166   1.413   1.632  10.177  1.1474 -0.4471  2.1177
  827MPD2    H112167   1.501   1.527   9.781  0.4346 -1.7711  0.5779
  827MPD2    H212168   1.808   1.688  10.016 -0.2464 -0.3308  1.6667
  827MPD2    H312169   1.719   1.567   9.816 -1.7511 -0.8586 -1.2746
  827MPD2     N12170   1.309   1.520   9.980  0.3298  0.3477  0.5148
  827MPD2    H512171   1.253   1.530  10.064 -0.2911 -0.7953  0.2378
  827MPD2    N112172   1.672   1.736  10.244 -0.1856 -0.3216 -0.3686
  827MPD2    H712173   1.769   1.720  10.270  0.2251  0.9157 -1.1260
  828MPD2     C12174   0.002   1.358  12.621 -0.4664 -0.1961 -0.8850
  828MPD2    C112175   4.696   1.415  12.501  0.6106 -0.7388  0.0905
  828MPD2    C212176   0.064   1.404  12.393  0.0218 -0.5353 -0.2119
  828MPD2    C312177   0.187   1.342  12.415  0.5160 -0.2904  0.4118
  828MPD2    C412178   0.207   1.283  12.536 -0.5255  0.4232  0.1613
  828MPD2    C512179   0.117   1.298  12.639 -0.0180 -0.6683  0.5272
  828MPD2     H12180   0.038   1.442  12.295 -1.4187 -1.3244 -0.1272
  828MPD2    H112181   0.303   1.238  12.556 -0.4815  0.2275 -0.4716
  828MPD2    H212182   4.671   1.366  12.714  0.7725 -0.1158 -0.1558
  828MPD2    H312183   0.129   1.255  12.738  1.0351  0.0817  0.7229
  828MPD2     N12184   0.287   1.333  12.321  0.1857  0.1595  0.0967
  828MPD2    H512185   0.377   1.310  12.361 -0.7152 -0.0142  2.0218
  828MPD2    N112186   4.571   1.476  12.470  0.4011 -0.0538 -0.2505
  828MPD2    H712187   4.567   1.505  12.372  0.4455 -0.1350 -0.2766
  829MPD2     C12188   4.254   1.551  11.673  0.1868  0.3758  0.9701
  829MPD2    C112189   4.137   1.555  11.740 -0.5721  0.0357 -0.2616
  829MPD2    C212190   4.133   1.555  11.881 -0.0931 -0.0097 -0.4507
  829MPD2    C312191   4.254   1.560  11.951 -0.6509  0.7642 -0.6106
  829MPD2    C412192   4.375   1.568  11.882 -0.6234  0.8734  0.3229
  829MPD2    C512193   4.372   1.560  11.746  0.6828 -0.4279  0.7210
  829MPD2     H12194   4.041   1.553  11.939  0.6912 -0.8285  0.7548
  829MPD2    H112195   4.464   1.584  11.943 -2.7721  0.1229  3.6713
  829MPD2    H212196   4.267   1.550  11.566 -0.7797 -1.5657  0.8756
  829MPD2    H312197   4.462   1.565  11.685 -0.0339 -3.0899 -0.5580
  829MPD2     N12198   4.251   1.549  12.093  0.0089  0.6784 -0.0713
  829MPD2    H512199   4.342   1.541  12.137 -0.4978  0.5295  0.9517
  829MPD2    N112200   4.018   1.560  11.658  0.1582 -0.1606  0.3678
  829MPD2    H712201   4.026   1.545  11.558  0.7012  0.3292  0.3406
  830MPD2     C12202   4.451   4.467  15.244  0.5199 -0.0331 -0.2883
  830MPD2    C112203   4.557   4.496  15.326  0.1530  0.0015  0.5186
  830MPD2    C212204   4.675   4.542  15.267  0.4440  0.3897 -0.3723
  830MPD2    C312205   4.687   4.558  15.131  0.1521 -0.2708 -0.0245
  830MPD2    C412206   4.578   4.535  15.057  0.3930 -0.7041  0.2936
  830MPD2    C512207   4.456   4.505  15.115 -0.5047 -0.3276  0.3150
  830MPD2     H12208   0.034   4.566  15.331  0.6124 -1.8381  0.2278
  830MPD2    H112209   4.571   4.553  14.951  0.6327  0.3617  0.4532
  830MPD2    H212210   4.357   4.444  15.292  1.0145 -1.2453  0.1054
  830MPD2    H312211   4.362   4.500  15.060 -0.8033 -0.9691  0.8832
  830MPD2     N12212   0.077   4.593  15.060 -0.2777 -0.4479  0.8804
  830MPD2    H512213   0.069   4.593  14.959 -0.8547  1.5730  0.9322
  830MPD2    N112214   4.530   4.499  15.461 -0.2295  0.2911 -0.1486
  830MPD2    H712215   4.435   4.483  15.493 -0.5507 -0.7521 -1.6501
  831MPD2     C12216   4.693   1.747  16.431 -0.7427 -0.1658  0.6537
  831MPD2    C112217   4.716   1.647  16.347  0.3038 -1.1424 -0.9603
  831MPD2    C212218   4.611   1.556  16.329 -0.1947 -0.1369 -0.0636
  831MPD2    C312219   4.489   1.568  16.383 -0.0006 -0.2627 -0.4415
  831MPD2    C412220   4.471   1.660  16.475 -0.0515  0.2448 -0.2707
  831MPD2    C512221   4.569   1.754  16.497  0.1101 -0.5043 -0.7498
  831MPD2     H12222   4.634   1.473  16.263 -1.3629 -0.2778 -0.2857
  831MPD2    H112223   4.378   1.651  16.529  0.8711 -1.5732  0.9786
  831MPD2    H212224   0.042   1.824  16.449 -1.6584  0.6236  1.0698
  831MPD2    H312225   4.564   1.838  16.565 -1.1971  0.0752 -1.5508
  831MPD2     N12226   4.380   1.487  16.334  0.1434  0.6785 -0.2608
  831MPD2    H512227   4.286   1.518  16.359 -0.6774 -1.5013 -0.6394
  831MPD2    N112228   0.105   1.646  16.263  0.0809  0.1515 -0.4295
  831MPD2    H712229   0.158   1.732  16.267 -1.0810  0.7853  1.0832
  832MPD2     C12230   2.759   2.372  16.903  0.1942 -0.3146 -0.6283
  832MPD2    C112231   2.724   2.503  16.925  0.6485 -0.2301 -0.1030
  832MPD2    C212232   2.633   2.562  16.840  0.1608 -0.1388 -0.2716
  832MPD2    C312233   2.578   2.481  16.743 -0.3246 -0.1543  0.2475
  832MPD2    C412234   2.611   2.342  16.728  0.0981 -0.3877  0.0533
  832MPD2    C512235   2.705   2.288  16.810  0.2316  0.0114 -0.6577
  832MPD2     H12236   2.612   2.668  16.839  1.6297  0.1363 -2.3650
  832MPD2    H112237   2.558   2.285  16.653 -1.3618 -0.0510  0.8108
  832MPD2    H212238   2.828   2.328  16.974 -1.4986  0.5404  1.5182
  832MPD2    H312239   2.733   2.184  16.796 -2.1764 -0.7024 -0.0432
  832MPD2     N12240   2.468   2.528  16.669  0.6113 -0.1010  0.1551
  832MPD2    H512241   2.416   2.449  16.632  2.8352 -0.4295 -2.2412
  832MPD2    N112242   2.784   2.567  17.035  0.2407  0.3237  0.3056
  832MPD2    H712243   2.845   2.504  17.086  2.1956  1.3473 -0.7570
  833MPD2     C12244   0.111   3.889  12.140 -0.2787 -1.1099  0.3112
  833MPD2    C112245   0.180   4.005  12.177  0.0828  1.0112  0.9690
  833MPD2    C212246   0.318   4.011  12.157  0.9928  0.0290  1.2098
  833MPD2    C312247   0.385   3.914  12.087 -0.1421  0.6366  0.1505
  833MPD2    C412248   0.318   3.801  12.046  0.5138  0.0193 -0.4741
  833MPD2    C512249   0.184   3.787  12.079  0.6889 -0.1104 -0.6983
  833MPD2     H12250   0.367   4.104  12.183  0.5132  0.5153  0.3631
  833MPD2    H112251   0.364   3.730  11.979  0.6015  1.4915 -1.9554
  833MPD2    H212252   0.008   3.883  12.171 -1.0272 -1.1321 -2.1696
  833MPD2    H312253   0.128   3.700  12.046  0.0731 -0.0735  0.2455
  833MPD2     N12254   0.530   3.933  12.055 -0.2530  0.2177 -0.2621
  833MPD2    H512255   0.572   3.865  11.992 -2.3419  0.0263 -1.4711
  833MPD2    N112256   0.108   4.109  12.239 -0.4538 -0.1794 -0.2029
  833MPD2    H712257   0.007   4.102  12.243 -0.3972 -1.5511 -1.3229
  834MPD2     C12258   0.746   3.971  11.251  0.0778  0.0174  0.0542
  834MPD2    C112259   0.694   3.879  11.334 -0.2166  0.2820 -0.8957
  834MPD2    C212260   0.706   3.890  11.470  0.2945 -0.2332  0.6268
  834MPD2    C312261   0.782   3.994  11.526  0.3773 -0.1772  0.5474
  834MPD2    C412262   0.838   4.086  11.436 -1.3488 -1.2128  0.0324
  834MPD2    C512263   0.820   4.066  11.304  0.1335  0.6498  0.2096
  834MPD2     H12264   0.663   3.820  11.541  0.6075 -1.1770 -0.1053
  834MPD2    H112265   0.903   4.169  11.459  1.5356 -3.2238 -0.7375
  834MPD2    H212266   0.729   3.962  11.144  2.8360  0.5772 -0.4182
  834MPD2    H312267   0.861   4.134  11.230  0.0451 -0.5749 -0.9736
  834MPD2     N12268   0.800   3.997  11.663 -0.3613 -0.3569 -0.1152
  834MPD2    H512269   0.741   3.930  11.713 -1.8817  0.6465 -0.5801
  834MPD2    N112270   0.616   3.783  11.268 -0.4992 -0.9381  0.2132
  834MPD2    H712271   0.631   3.767  11.169 -0.9642 -1.9373  0.3011
  835MPD2     C12272   0.586   2.031  10.843 -0.1583 -0.2539 -0.2995
  835MPD2    C112273   0.453   1.994  10.860 -0.4311 -0.4168  0.1231
  835MPD2    C212274   0.406   1.954  10.982 -0.7803  0.3983 -0.6151
  835MPD2    C312275   0.484   1.958  11.092  0.1475 -0.3562  0.6871
  835MPD2    C412276   0.613   2.002  11.080  0.5736 -0.4803 -0.1466
  835MPD2    C512277   0.659   2.040  10.960  0.4288 -0.6145 -0.2732
  835MPD2     H12278   0.300   1.931  10.993 -0.8117 -0.5896 -2.9456
  835MPD2    H112279   0.678   2.021  11.165  1.8116  2.2559 -1.6863
  835MPD2    H212280   0.633   2.072  10.755  2.3232 -0.8014  0.7672
  835MPD2    H312281   0.754   2.091  10.965  0.1762 -0.2124  0.4179
  835MPD2     N12282   0.442   1.913  11.219 -0.3778  0.9084 -0.4194
  835MPD2    H512283   0.500   1.928  11.301 -0.8276 -1.0504  0.2525
  835MPD2    N112284   0.358   2.008  10.755  0.5625  0.3176  0.4672
  835MPD2    H712285   0.264   1.979  10.777  1.1200 -0.1209  2.3227
  836MPD2     C12286   4.444   1.864  11.475  0.3858 -0.0221 -0.6999
  836MPD2    C112287   4.533   1.837  11.578 -0.2250  0.0943 -0.2451
  836MPD2    C212288   4.486   1.861  11.711  0.4802  0.0694  0.0864
  836MPD2    C312289   4.353   1.905  11.733 -0.4098 -0.4763 -0.0692
  836MPD2    C412290   4.272   1.934  11.625  0.0867 -0.3768 -0.6689
  836MPD2    C512291   4.315   1.907  11.500 -0.2049 -0.0939 -0.4576
  836MPD2     H12292   4.545   1.837  11.798 -2.2668 -0.1934  1.8595
  836MPD2    H112293   4.170   1.969  11.633  0.2212 -0.1637  0.1713
  836MPD2    H212294   4.472   1.856  11.371  0.1875 -2.3616 -0.5903
  836MPD2    H312295   4.253   1.939  11.417  2.5273  0.6140 -2.2558
  836MPD2     N12296   4.291   1.928  11.861  0.1323 -0.1963  0.1213
  836MPD2    H512297   4.191   1.941  11.856  0.0578 -1.1934 -1.2277
  836MPD2    N112298   4.655   1.788  11.540 -0.0351 -0.0932 -0.5271
  836MPD2    H712299   4.671   1.774  11.441  0.9030 -1.8993 -0.1212
  837MPD2     C12300   3.474   1.542  10.515 -0.0397  0.5306  0.1816
  837MPD2    C112301   3.367   1.608  10.471 -0.0154 -0.3188  0.7381
  837MPD2    C212302   3.348   1.738  10.516 -0.7032  0.1515 -0.2905
  837MPD2    C312303   3.447   1.815  10.585 -0.3014  0.2810 -0.0309
  837MPD2    C412304   3.564   1.742  10.612 -0.7526  0.2737  0.9235
  837MPD2    C512305   3.571   1.600  10.599 -0.2197 -0.3442  0.2356
  837MPD2     H12306   3.265   1.797  10.479 -0.7443  0.7808  0.7900
  837MPD2    H112307   3.650   1.782  10.665 -0.4820 -0.5725  1.1385
  837MPD2    H212308   3.482   1.437  10.487 -0.1287  1.1305 -2.0475
  837MPD2    H312309   3.651   1.544  10.645  0.1679 -0.4877 -0.6167
  837MPD2     N12310   3.436   1.956  10.604  0.5454 -0.0386 -0.2278
  837MPD2    H512311   3.344   1.998  10.599  0.8761  0.4660 -1.9623
  837MPD2    N112312   3.263   1.560  10.394  0.0810 -0.3229 -0.6179
  837MPD2    H712313   3.179   1.617  10.400  2.3418  3.1479 -1.9912
  838MPD2     C12314   2.331   0.184  11.265  0.7796  0.5205  0.1456
  838MPD2    C112315   2.256   0.063  11.272  0.0510  0.0825  1.0867
  838MPD2    C212316   2.213   0.010  11.385  0.2766 -0.3064 -0.8941
  838MPD2    C312317   2.238   0.076  11.502 -0.5155  0.2475  0.3587
  838MPD2    C412318   2.330   0.184  11.501 -0.2194  0.6222  0.6627
  838MPD2    C512319   2.376   0.237  11.382 -0.0775 -0.2731 -0.8428
  838MPD2     H12320   2.160   4.640  11.376 -1.5011  0.5800  0.2915
  838MPD2    H112321   2.378   0.232  11.585 -0.3587  1.0455  0.4993
  838MPD2    H212322   2.357   0.234  11.173 -0.6384 -1.5420 -1.3835
  838MPD2    H312323   2.443   0.321  11.372  0.5818 -0.8152 -1.0415
  838MPD2     N12324   2.178   0.046  11.632  0.7567 -0.1992  0.3601
  838MPD2    H512325   2.199   0.096  11.717  0.2682 -1.0873  1.0106
  838MPD2    N112326   2.222   4.713  11.155  0.4617  0.0255  0.4811
  838MPD2    H712327   2.153   4.642  11.173  1.2001 -0.9991 -0.7392
  839MPD2     C12328   1.432   4.552  11.212  0.4856 -0.0104 -0.0172
  839MPD2    C112329   1.469   4.435  11.145 -1.0154 -0.7724  0.4840
  839MPD2    C212330   1.591   4.436  11.069  0.6662 -0.5749  0.2764
  839MPD2    C312331   1.673   4.544  11.084  0.0940 -0.4808  0.3415
  839MPD2    C412332   1.637   4.654  11.160 -0.0065 -0.3520 -0.0783
  839MPD2    C512333   1.520   4.654  11.229 -0.6613  0.7979 -0.3712
  839MPD2     H12334   1.618   4.356  11.000 -0.9253 -1.7882  1.0503
  839MPD2    H112335   1.708   0.010  11.169  1.0422 -1.1348 -1.3425
  839MPD2    H212336   1.339   4.565  11.267  0.7385  0.4443  0.2958
  839MPD2    H312337   1.506   0.008  11.302  0.2573  1.1981 -0.6326
  839MPD2     N12338   1.799   4.557  11.026  0.4638  0.0091 -0.2320
  839MPD2    H512339   1.852   4.641  11.048 -0.3455  0.7255 -0.9857
  839MPD2    N112340   1.383   4.323  11.140  0.7449  0.7344  0.1751
  839MPD2    H712341   1.413   4.236  11.098 -1.7280  0.9817 -2.0733
  840MPD2     C12342   2.203   2.006  10.294 -0.4789  0.5037 -0.0483
  840MPD2    C112343   2.147   2.030  10.418 -0.3266  0.2820  0.5748
  840MPD2    C212344   2.212   2.118  10.509  0.2076  0.3717 -0.1111
  840MPD2    C312345   2.306   2.203  10.460  0.1013  0.8099 -0.0384
  840MPD2    C412346   2.334   2.198  10.326 -0.4729 -0.0880  0.1486
  840MPD2    C512347   2.285   2.102  10.245 -0.0498 -0.4192 -0.1482
  840MPD2     H12348   2.178   2.133  10.611 -0.9123 -0.3992 -0.3700
  840MPD2    H112349   2.405   2.267  10.281 -0.2660 -0.0980  0.4631
  840MPD2    H212350   2.153   1.948  10.218 -2.5882  1.5756  0.5236
  840MPD2    H312351   2.312   2.084  10.142 -1.0986  0.5636 -0.5942
  840MPD2     N12352   2.373   2.290  10.549  0.2884  0.5755 -0.5132
  840MPD2    H512353   2.422   2.364  10.500 -0.5630  0.2435 -1.8516
  840MPD2    N112354   2.038   1.950  10.457 -0.6699 -0.1608  0.0139
  840MPD2    H712355   2.004   1.881  10.391 -3.6102 -0.8181  2.2124
  841MPD2     C12356   1.177   1.750  14.655  0.2921  0.1732 -0.3534
  841MPD2    C112357   1.289   1.671  14.690 -0.2301  0.2448  0.6752
  841MPD2    C212358   1.363   1.695  14.808  0.4943 -0.6116 -0.8767
  841MPD2    C312359   1.318   1.796  14.891 -0.1932 -1.0431 -0.8535
  841MPD2    C412360   1.216   1.880  14.850  0.6873  0.3092 -0.1156
  841MPD2    C512361   1.140   1.843  14.743 -0.4691 -0.6913 -0.3884
  841MPD2     H12362   1.449   1.632  14.828 -0.2688 -1.1656  0.6005
  841MPD2    H112363   1.193   1.966  14.911  0.2484  0.4513 -0.4868
  841MPD2    H212364   1.101   1.735  14.579 -1.4424 -1.3774  1.7198
  841MPD2    H312365   1.055   1.905  14.718  1.5796  1.2280 -2.5672
  841MPD2     N12366   1.396   1.834  15.002 -0.3064  0.5282  0.2406
  841MPD2    H512367   1.362   1.921  15.044 -0.6731  0.0479  0.9441
  841MPD2    N112368   1.327   1.566  14.606 -1.0874  0.5837 -0.0482
  841MPD2    H712369   1.399   1.505  14.644 -0.1599  0.7594 -1.5259
  842MPD2     C12370   2.214   3.192  16.483  0.4395 -0.2922 -1.1971
  842MPD2    C112371   2.107   3.114  16.500  0.3817 -0.5122 -0.1702
  842MPD2    C212372   2.107   3.009  16.588 -0.0641  1.1077 -0.1855
  842MPD2    C312373   2.210   2.999  16.678 -0.2936 -0.0021 -0.2526
  842MPD2    C412374   2.316   3.089  16.665 -0.0210 -0.3342 -0.1615
  842MPD2    C512375   2.323   3.177  16.565  0.5578 -0.2291 -0.6131
  842MPD2     H12376   2.015   2.953  16.593 -0.1155  1.3220  1.4087
  842MPD2    H112377   2.406   3.090  16.726 -0.7507 -4.1315  0.9788
  842MPD2    H212378   2.205   3.275  16.413 -0.1529  1.1907  0.6499
  842MPD2    H312379   2.411   3.240  16.560  1.0484 -1.0365 -1.9912
  842MPD2     N12380   2.197   2.917  16.795  0.3516  0.4228  0.1755
  842MPD2    H512381   2.259   2.927  16.874  0.6636  0.0409 -0.0239
  842MPD2    N112382   2.001   3.141  16.409  0.1498  0.1012 -0.2655
  842MPD2    H712383   2.028   3.207  16.337 -1.4769 -0.1155 -1.0618
  843MPD2     C12384   3.909   2.980   0.000  0.1020 -0.0488  0.3817
  843MPD2    C112385   3.998   2.874  17.682  0.2096 -0.1847  0.1245
  843MPD2    C212386   4.127   2.908  17.637 -0.4512  0.8154  0.2782
  843MPD2    C312387   4.168   3.037  17.625  0.0539  0.2824  0.6829
  843MPD2    C412388   4.084   3.138  17.658  0.3610 -0.2878 -0.7184
  843MPD2    C512389   3.952   3.115  17.687  0.3492 -0.5002  0.2384
  843MPD2     H12390   4.189   2.823  17.609 -0.2928  0.7948  0.7014
  843MPD2    H112391   4.124   3.238  17.653 -0.2600  0.0143  0.5770
  843MPD2    H212392   3.806   2.949   0.017 -0.4762  0.5908 -2.0079
  843MPD2    H312393   3.880   3.194   0.001 -0.3329 -0.7471 -1.7681
  843MPD2     N12394   4.297   3.077  17.593  0.3186 -0.2278 -0.6044
  843MPD2    H512395   4.324   3.174  17.603 -1.9355  0.3962 -0.5921
  843MPD2    N112396   3.939   2.744  17.681  0.2186  0.4304 -0.3134
  843MPD2    H712397   3.841   2.731   0.003  0.3207  0.6984  0.2626
  844MPD2     C12398   2.581   2.271  16.140 -0.3882  0.7828 -0.8949
  844MPD2    C112399   2.713   2.236  16.150 -0.4039  0.3638 -0.1569
  844MPD2    C212400   2.790   2.303  16.241  1.1811  0.0868 -0.3000
  844MPD2    C312401   2.737   2.410  16.312 -0.0697  0.4140  0.1366
  844MPD2    C412402   2.604   2.449  16.300 -1.0998 -0.1907  0.0299
  844MPD2    C512403   2.525   2.379  16.207 -0.3199  0.2213 -0.0058
  844MPD2     H12404   2.894   2.276  16.253  0.7897 -2.0472 -1.8343
  844MPD2    H112405   2.551   2.533  16.345  0.0224  0.1488  0.7312
  844MPD2    H212406   2.506   2.216  16.085 -0.9571  0.3702  0.2937
  844MPD2    H312407   2.418   2.396  16.200 -0.7342 -2.5353 -0.1935
  844MPD2     N12408   2.830   2.491  16.384 -0.2598 -0.5299 -0.5513
  844MPD2    H512409   2.926   2.462  16.400 -0.6173 -0.9586  0.7764
  844MPD2    N112410   2.762   2.125  16.079  0.4125  0.1593 -0.2056
  844MPD2    H712411   2.857   2.094  16.097  0.6197  0.3373 -1.0048
  845MPD2     C12412   2.628   3.314  16.847 -0.2466  0.3828 -0.6550
  845MPD2    C112413   2.704   3.250  16.933 -0.1917  0.1172  0.4399
  845MPD2    C212414   2.787   3.146  16.890  0.5326 -0.1488 -0.2767
  845MPD2    C312415   2.775   3.102  16.764 -0.0149 -0.9886  0.3346
  845MPD2    C412416   2.695   3.161  16.675 -0.1153 -0.0150  0.1841
  845MPD2    C512417   2.629   3.266  16.716 -0.0117 -0.4525  0.7091
  845MPD2     H12418   2.861   3.105  16.958 -1.6356 -3.4389  0.1047
  845MPD2    H112419   2.693   3.135  16.569  0.4378 -0.3783  0.2616
  845MPD2    H212420   2.554   3.391  16.863  2.2842  2.2189  2.1313
  845MPD2    H312421   2.566   3.327  16.651 -1.2103 -0.6288  1.6942
  845MPD2     N12422   2.844   2.993  16.713 -0.3815 -0.0727 -0.1089
  845MPD2    H512423   2.826   2.969  16.616 -2.5873  0.5016  0.1627
  845MPD2    N112424   2.693   3.299  17.066 -0.6695  0.7079  0.1396
  845MPD2    H712425   2.622   3.371  17.073 -0.7961  0.3450  2.6649
  846MPD2     C12426   4.506   3.765  13.526 -0.5293 -0.2412 -0.8143
  846MPD2    C112427   4.407   3.862  13.566  0.0969  0.0508 -1.1639
  846MPD2    C212428   4.349   3.840  13.683  0.4093  0.3705  0.2821
  846MPD2    C312429   4.377   3.734  13.765  0.5355  0.0417  0.2023
  846MPD2    C412430   4.465   3.636  13.724 -0.5062 -0.3105  0.4419
  846MPD2    C512431   4.532   3.660  13.610  0.6606 -0.5721 -0.3548
  846MPD2     H12432   4.279   3.911  13.726 -0.6735 -0.6602  0.2174
  846MPD2    H112433   4.476   3.542  13.777 -0.5655  1.4612  3.6013
  846MPD2    H212434   4.558   3.775  13.431  3.1492  0.3272  1.2888
  846MPD2    H312435   4.608   3.593  13.571  0.5569 -0.7048 -0.3270
  846MPD2     N12436   4.304   3.727  13.886 -0.6413 -0.4204  0.2132
  846MPD2    H512437   4.225   3.789  13.903 -0.2803  0.1252 -0.0950
  846MPD2    N112438   4.372   3.981  13.499  0.2555 -0.4469 -0.0250
  846MPD2    H712439   4.309   4.044  13.547  0.5103 -1.0749  1.1276
  847MPD2     C12440   4.085   0.326  14.248 -0.2356 -0.4640  0.4162
  847MPD2    C112441   4.220   0.293  14.246  0.6709 -0.3929 -0.3500
  847MPD2    C212442   4.264   0.168  14.202 -0.2786 -0.1807 -0.6866
  847MPD2    C312443   4.176   0.072  14.153 -0.0658 -1.1567  0.5000
  847MPD2    C412444   4.047   0.109  14.137 -0.1495 -0.7331 -0.3618
  847MPD2    C512445   4.001   0.230  14.193  0.2563 -0.1691  0.3002
  847MPD2     H12446   4.370   0.152  14.216 -0.5221 -1.5241 -0.4441
  847MPD2    H112447   3.978   0.047  14.081  0.3174 -1.6831  0.1204
  847MPD2    H212448   4.049   0.418  14.293  3.5605  0.8257  0.7856
  847MPD2    H312449   3.894   0.242  14.183  0.1732 -0.9351  0.2514
  847MPD2     N12450   4.234   4.664  14.131  0.3767  0.1933 -0.0087
  847MPD2    H512451   4.333   4.652  14.151  0.7445 -0.1830 -2.1434
  847MPD2    N112452   4.319   0.372  14.298  0.0424 -0.1377  0.2709
  847MPD2    H712453   4.413   0.338  14.282 -0.6856 -2.2700  0.5259
  848MPD2     C12454   2.350   3.041  16.035  0.4218  0.5057 -0.9352
  848MPD2    C112455   2.381   3.046  16.172 -0.2752 -0.0263  0.1526
  848MPD2    C212456   2.445   3.158  16.220  0.0167 -0.6915  0.2064
  848MPD2    C312457   2.479   3.261  16.134 -0.1635  0.4102  0.0759
  848MPD2    C412458   2.460   3.253  16.000 -0.6225  1.1006 -0.4894
  848MPD2    C512459   2.397   3.139  15.952 -0.0136  0.0487  0.1753
  848MPD2     H12460   2.473   3.159  16.325  0.0622  1.1701  0.1722
  848MPD2    H112461   2.488   3.326  15.925 -2.7261  1.4378 -0.9397
  848MPD2    H212462   2.280   2.968  15.997  0.5288  0.3984 -0.9272
  848MPD2    H312463   2.374   3.154  15.847 -2.2567 -2.3039  0.3385
  848MPD2     N12464   2.530   3.387  16.182  0.3266 -0.0791 -0.2650
  848MPD2    H512465   2.528   3.463  16.115 -2.0170  0.3567  0.2718
  848MPD2    N112466   2.341   2.943  16.265 -0.0951  0.3226  0.3076
  848MPD2    H712467   2.368   2.955  16.362  1.2437  0.2776 -0.0608
  849MPD2     C12468   1.667   2.820  13.781  0.6671  0.4764 -0.7200
  849MPD2    C112469   1.781   2.770  13.731  0.2049  0.1447 -0.4912
  849MPD2    C212470   1.847   2.665  13.789 -0.3954  0.1538 -0.1592
  849MPD2    C312471   1.799   2.612  13.902  0.6215 -0.1523 -0.6171
  849MPD2    C412472   1.684   2.661  13.960  0.2002 -0.0975  0.1433
  849MPD2    C512473   1.617   2.763  13.896 -0.3117 -0.1380 -0.0212
  849MPD2     H12474   1.935   2.622  13.743  0.1722 -0.6033  1.6300
  849MPD2    H112475   1.647   2.633  14.058 -0.5912 -1.5340 -0.5683
  849MPD2    H212476   1.626   2.910  13.738  0.4417 -0.0848 -1.6869
  849MPD2    H312477   1.538   2.816  13.947  0.4471 -0.0826  1.0850
  849MPD2     N12478   1.870   2.516  13.982 -0.3747  0.4429 -0.1338
  849MPD2    H512479   1.825   2.479  14.065  2.8065 -1.5035  0.7200
  849MPD2    N112480   1.820   2.834  13.610  0.4610  0.3949  0.1266
  849MPD2    H712481   1.762   2.913  13.584 -1.1990 -1.5980 -2.2221
  850MPD2     C12482   4.508   1.408  14.723  0.8068 -0.2685 -0.5031
  850MPD2    C112483   4.570   1.310  14.791  0.5510 -0.8809 -0.1206
  850MPD2    C212484   4.698   1.311  14.828 -0.7681  0.0876 -0.3719
  850MPD2    C312485   0.052   1.420  14.801 -0.0093  0.3081  0.5896
  850MPD2    C412486   4.717   1.530  14.749 -0.4489  0.3873 -0.4886
  850MPD2    C512487   4.587   1.524  14.710 -0.4135 -0.4878  0.1519
  850MPD2     H12488   0.007   1.222  14.881 -0.1422 -0.0299 -0.9724
  850MPD2    H112489   0.047   1.623  14.738 -1.1066  0.7600 -0.6378
  850MPD2    H212490   4.402   1.414  14.704  1.4014 -0.6251 -3.8041
  850MPD2    H312491   4.534   1.611  14.673  0.6987 -0.1914 -0.7543
  850MPD2     N12492   0.185   1.411  14.847  0.7719  0.0707  0.2144
  850MPD2    H512493   0.205   1.339  14.915  0.4175 -0.5019 -0.2887
  850MPD2    N112494   4.506   1.196  14.829 -0.1204  0.4455  0.3387
  850MPD2    H712495   4.565   1.124  14.870 -2.0773 -2.4734 -1.9720
  851MPD2     C12496   0.154   0.778  14.991  0.1105  0.3136 -0.1342
  851MPD2    C112497   0.056   0.699  14.937  0.2652 -0.2862  0.0414
  851MPD2    C212498   0.089   0.565  14.926  0.1492  0.4203  0.3780
  851MPD2    C312499   0.211   0.519  14.970  0.2359  0.2212 -0.5959
  851MPD2    C412500   0.312   0.602  15.010 -0.9342  0.0693 -0.3118
  851MPD2    C512501   0.279   0.732  15.028 -0.2014  0.0451 -0.1388
  851MPD2     H12502   0.015   0.493  14.891  1.7812 -0.8123 -0.5553
  851MPD2    H112503   0.410   0.560  15.032 -1.0411 -0.2428 -0.4318
  851MPD2    H212504   0.133   0.884  14.993  3.3054  0.8992  2.2065
  851MPD2    H312505   0.354   0.799  15.069 -1.2951  1.3666 -0.2762
  851MPD2     N12506   0.229   0.379  14.963 -0.2499 -0.3128  0.8618
  851MPD2    H512507   0.153   0.322  14.927 -0.7122  0.3622  0.7709
  851MPD2    N112508   4.668   0.770  14.903 -0.1768  0.2578  0.8413
  851MPD2    H712509   4.677   0.871  14.905  1.4663  0.1240 -0.2036
  852MPD2     C12510   4.585   3.171   9.639  0.4930 -0.1620 -0.0944
  852MPD2    C112511   4.631   3.254   9.746  0.3508  0.0908 -0.4460
  852MPD2    C212512   4.577   3.380   9.755 -0.6476  0.6916 -0.4321
  852MPD2    C312513   4.493   3.432   9.658  0.4220  0.1180 -0.5140
  852MPD2    C412514   4.441   3.346   9.555 -0.4039 -0.0031  0.6094
  852MPD2    C512515   4.490   3.219   9.551  1.0026 -0.3698 -0.7380
  852MPD2     H12516   4.617   3.449   9.828  0.8422  0.2758 -0.8471
  852MPD2    H112517   4.369   3.378   9.481 -2.3667 -1.5320  1.8608
  852MPD2    H212518   4.611   3.067   9.621 -0.2889 -0.5990  1.2881
  852MPD2    H312519   4.438   3.152   9.484 -2.1022  2.0518 -0.7250
  852MPD2     N12520   4.456   3.570   9.672 -0.1296  0.2898 -0.5535
  852MPD2    H512521   4.498   3.611   9.755  1.8344 -0.2279 -1.2929
  852MPD2    N112522   4.724   3.215   9.846 -0.1222 -1.0109  0.0963
  852MPD2    H712523   0.013   3.275   9.927  2.5921  1.4129 -2.1812
  853MPD2     C12524   0.965   3.307  12.165 -0.6856  0.6277 -0.0977
  853MPD2    C112525   1.088   3.368  12.163  0.4526 -0.4695  1.5932
  853MPD2    C212526   1.154   3.372  12.050  0.7479  0.3045 -0.2640
  853MPD2    C312527   1.104   3.330  11.929  0.4026 -0.3525 -0.5972
  853MPD2    C412528   0.979   3.271  11.926 -0.2750  0.5030  0.8300
  853MPD2    C512529   0.915   3.257  12.050  0.5426 -0.4514  0.0270
  853MPD2     H12530   1.250   3.420  12.061  0.4273  1.0344 -0.6590
  853MPD2    H112531   0.939   3.222  11.838  0.7422  0.8925  0.1612
  853MPD2    H212532   0.902   3.299  12.253 -2.9116  2.5483 -1.5113
  853MPD2    H312533   0.820   3.206  12.053  0.0383  0.4443 -0.5923
  853MPD2     N12534   1.192   3.338  11.816 -0.3397  0.0175 -0.2564
  853MPD2    H512535   1.155   3.324  11.722  0.2587  1.8440 -0.7626
  853MPD2    N112536   1.117   3.429  12.287  0.4948 -0.7645  0.5634
  853MPD2    H712537   1.059   3.407  12.368 -0.3657 -1.3306 -0.1992
  854MPD2     C12538   2.859   3.073  12.799 -0.0737  0.0806 -0.2977
  854MPD2    C112539   2.962   3.115  12.717  0.5964 -0.3202  0.0711
  854MPD2    C212540   3.095   3.067  12.741 -0.0918  0.0001  0.3893
  854MPD2    C312541   3.118   2.971  12.836  0.0795 -0.2158  0.0180
  854MPD2    C412542   3.014   2.926  12.917  0.1049  0.0397  0.6976
  854MPD2    C512543   2.886   2.981  12.904  0.1726  0.7023 -0.2462
  854MPD2     H12544   3.173   3.105  12.677  2.5489 -0.9680  3.0536
  854MPD2    H112545   3.036   2.853  12.994  0.0493 -0.8446 -0.1278
  854MPD2    H212546   2.759   3.113  12.790  0.5797  1.7783  0.1590
  854MPD2    H312547   2.810   2.945  12.972  0.9392 -0.7287 -0.1264
  854MPD2     N12548   3.250   2.935  12.871 -0.0472 -0.0299 -0.5431
  854MPD2    H512549   3.276   2.899  12.962  0.7072 -1.6586 -1.3860
  854MPD2    N112550   2.926   3.194  12.601 -1.1225  0.2947  0.3950
  854MPD2    H712551   2.838   3.245  12.608 -0.0460  2.1325  0.7048
  855MPD2     C12552   3.908   3.166  13.568 -0.7242 -0.1736 -1.0057
  855MPD2    C112553   3.792   3.090  13.567  0.0514  0.0044 -0.6952
  855MPD2    C212554   3.736   3.050  13.446  0.5595 -0.6955 -0.3902
  855MPD2    C312555   3.802   3.075  13.323 -0.2558 -0.1875  0.0473
  855MPD2    C412556   3.924   3.149  13.327 -0.2532  1.3051 -0.5885
  855MPD2    C512557   3.966   3.196  13.443 -0.5449  0.1166  0.2570
  855MPD2     H12558   3.645   2.992  13.453 -0.0608  0.2911 -0.2178
  855MPD2    H112559   3.983   3.177  13.240  3.1286 -0.3876  1.1566
  855MPD2    H212560   3.960   3.206  13.655 -2.3573 -0.0720 -0.0820
  855MPD2    H312561   4.058   3.254  13.439  1.2467 -2.5642  2.3649
  855MPD2     N12562   3.752   3.035  13.194 -0.2374  0.2227  0.1265
  855MPD2    H512563   3.799   3.060  13.107 -0.5216 -0.8463 -0.3445
  855MPD2    N112564   3.706   3.074  13.681 -0.1583 -0.3199 -0.1709
  855MPD2    H712565   3.622   3.020  13.665  0.6113 -1.6763  0.3369
  856MPD2     C12566   0.611   4.051  14.351 -0.2146  0.1284 -0.3077
  856MPD2    C112567   0.698   4.129  14.286 -0.2962  0.3076  0.1459
  856MPD2    C212568   0.661   4.240  14.211  0.0713 -0.3115 -0.4915
  856MPD2    C312569   0.531   4.280  14.207 -0.1441  0.2932 -0.2191
  856MPD2    C412570   0.439   4.195  14.275  0.6365 -0.6544  0.1021
  856MPD2    C512571   0.479   4.082  14.349 -0.5915  0.3480  0.6384
  856MPD2     H12572   0.731   4.292  14.147 -1.8810  1.1195 -1.4510
  856MPD2    H112573   0.331   4.208  14.272  0.5858 -1.2230 -0.6578
  856MPD2    H212574   0.642   3.972  14.418  1.9943  0.9953 -0.2882
  856MPD2    H312575   0.415   4.026  14.416  0.8300 -0.1930  1.5435
  856MPD2     N12576   0.503   4.402  14.135  0.2667 -0.0301 -0.5036
  856MPD2    H512577   0.575   4.462  14.097 -0.4694  1.0748 -0.1577
  856MPD2    N112578   0.839   4.085  14.289  0.0047  1.0005  0.4355
  856MPD2    H712579   0.901   4.145  14.235  0.1646 -0.0074 -0.5012
  857MPD2     C12580   2.148   1.308  13.063  0.0193 -0.4897  0.0947
  857MPD2    C112581   2.267   1.334  12.994  0.1260 -0.2824  0.2168
  857MPD2    C212582   2.317   1.463  13.002  0.3752 -0.4006  0.4876
  857MPD2    C312583   2.255   1.564  13.071 -0.0061 -0.5327 -0.0197
  857MPD2    C412584   2.145   1.530  13.148  0.5076 -0.7804  0.3757
  857MPD2    C512585   2.091   1.403  13.143 -0.0173  0.5353 -0.5199
  857MPD2     H12586   2.406   1.490  12.946 -0.6755  0.6123 -0.7032
  857MPD2    H112587   2.105   1.600  13.220  3.2108  1.4025 -0.2296
  857MPD2    H212588   2.096   1.214  13.057  0.2538 -0.5534 -0.9981
  857MPD2    H312589   1.996   1.385  13.192  0.0179  0.8030 -0.3553
  857MPD2     N12590   2.320   1.687  13.092  0.0098 -0.0565 -1.1106
  857MPD2    H512591   2.409   1.697  13.044  0.8555 -2.0357  0.0483
  857MPD2    N112592   2.320   1.226  12.912 -0.4230  0.0775 -0.6545
  857MPD2    H712593   2.291   1.132  12.938 -0.6507  0.0042 -1.1622
  858MPD2     C12594   3.313   0.355  16.569  0.1862  1.0653  0.6868
  858MPD2    C112595   3.277   0.257  16.657 -0.0896  0.1645 -0.1106
  858MPD2    C212596   3.273   0.290  16.794  0.9352 -0.2302  0.1091
  858MPD2    C312597   3.281   0.419  16.842  0.2383  0.4223  0.0051
  858MPD2    C412598   3.318   0.513  16.751  0.2293 -0.8309  0.3533
  858MPD2    C512599   3.337   0.484  16.614  0.4761  0.7006  0.3126
  858MPD2     H12600   3.259   0.209  16.864 -1.4808  1.1912  1.2547
  858MPD2    H112601   3.311   0.620  16.771 -1.6264 -0.7252 -0.8965
  858MPD2    H212602   3.339   0.327  16.468  0.3189 -0.5840  1.1742
  858MPD2    H312603   3.353   0.563  16.542  1.0975 -0.8038 -1.2276
  858MPD2     N12604   3.273   0.466  16.976  0.4130  0.1577  0.7381
  858MPD2    H512605   3.297   0.563  16.995  0.3776  0.3155 -0.0214
  858MPD2    N112606   3.252   0.128  16.601  0.4929 -0.1373  0.3752
  858MPD2    H712607   3.268   0.116  16.501 -3.7977 -1.1111 -0.2105
  859MPD2     C12608   1.527   3.178  15.877 -0.3274 -0.0227 -0.2203
  859MPD2    C112609   1.542   3.058  15.801 -0.3388  0.2882  0.4745
  859MPD2    C212610   1.504   2.939  15.857  0.1242  0.1233 -0.6582
  859MPD2    C312611   1.455   2.930  15.986  0.1391 -0.5304 -0.2923
  859MPD2    C412612   1.435   3.045  16.056 -0.8511 -0.5213  0.2096
  859MPD2    C512613   1.478   3.167  16.004 -0.0636  0.1127  0.0481
  859MPD2     H12614   1.513   2.850  15.796  1.8076  0.6492 -1.1815
  859MPD2    H112615   1.405   3.049  16.160 -1.0052  1.1799  0.0944
  859MPD2    H212616   1.566   3.276  15.851  1.4229 -1.1513 -1.7808
  859MPD2    H312617   1.469   3.256  16.065 -1.2131  1.0092 -1.4163
  859MPD2     N12618   1.424   2.807  16.047 -0.0182 -0.1645  0.1267
  859MPD2    H512619   1.392   2.812  16.143 -0.2270  0.2943  0.0365
  859MPD2    N112620   1.610   3.059  15.680 -0.1467  0.2795  0.0220
  859MPD2    H712621   1.604   2.964  15.644  0.4084  0.6514 -1.0323
  860MPD2     C12622   4.262   2.976  11.213 -0.0981  0.0922  0.0327
  860MPD2    C112623   4.232   2.864  11.291 -0.2994 -0.3617 -0.1888
  860MPD2    C212624   4.162   2.881  11.404 -0.2654 -0.1431  0.6999
  860MPD2    C312625   4.112   3.004  11.438  0.3382  0.5510  0.1134
  860MPD2    C412626   4.137   3.123  11.370 -0.0183  0.2449 -0.7167
  860MPD2    C512627   4.215   3.101  11.252  0.0971 -0.0572  0.0952
  860MPD2     H12628   4.143   2.794  11.467  0.8964 -0.6237  0.3810
  860MPD2    H112629   4.105   3.223  11.397  0.8753  0.8433 -1.8458
  860MPD2    H212630   4.316   2.974  11.118 -0.2876 -0.1131 -0.0695
  860MPD2    H312631   4.256   3.185  11.197 -1.7900  0.2657 -0.8009
  860MPD2     N12632   4.028   3.009  11.559  0.0626  0.2643 -0.4790
  860MPD2    H512633   4.004   2.924  11.608  1.2876  0.6707  0.8159
  860MPD2    N112634   4.279   2.735  11.257  0.0293  0.1354 -0.4033
  860MPD2    H712635   4.264   2.668  11.332  2.5931  0.5960  0.5253
  861MPD2     C12636   2.756   1.014  11.270  0.5836 -1.0369 -0.2065
  861MPD2    C112637   2.809   1.125  11.339  0.6976  0.0955 -0.4277
  861MPD2    C212638   2.769   1.244  11.292 -0.6515 -0.1562  0.3927
  861MPD2    C312639   2.692   1.267  11.176  0.1106 -0.3698 -0.2723
  861MPD2    C412640   2.637   1.160  11.121  0.8600  0.3117  0.1935
  861MPD2    C512641   2.667   1.032  11.165 -0.2827  0.2135  0.2834
  861MPD2     H12642   2.813   1.329  11.342  1.4299 -1.0267  0.0461
  861MPD2    H112643   2.569   1.173  11.038  1.5773  0.1030 -0.4275
  861MPD2    H212644   2.765   0.911  11.304 -0.3033 -1.4231 -1.1288
  861MPD2    H312645   2.629   0.945  11.112 -0.9540  2.0415 -2.2413
  861MPD2     N12646   2.648   1.394  11.135 -0.0063 -0.6117  0.2591
  861MPD2    H512647   2.588   1.405  11.054  0.4756 -1.1967 -0.1666
  861MPD2    N112648   2.880   1.116  11.460  0.0844 -0.1982  0.4715
  861MPD2    H712649   2.901   1.197  11.517 -0.4398  0.7042 -0.6104
  862MPD2     C12650   2.304   1.697  10.589  0.3537  0.3868  0.2314
  862MPD2    C112651   2.367   1.595  10.668  0.3898 -0.7254  0.3985
  862MPD2    C212652   2.369   1.469  10.621 -0.0396 -0.0599 -0.2875
  862MPD2    C312653   2.324   1.444  10.490  0.2538  0.1594  0.9920
  862MPD2    C412654   2.266   1.542  10.411  0.7003 -0.5475 -0.0104
  862MPD2    C512655   2.263   1.672  10.462 -0.0904 -0.3896  0.2118
  862MPD2     H12656   2.399   1.386  10.685  0.7483  0.4909  0.0620
  862MPD2    H112657   2.227   1.528  10.311  0.8822  1.7204 -0.3810
  862MPD2    H212658   2.300   1.798  10.629  1.5408  0.1897  0.8265
  862MPD2    H312659   2.240   1.758  10.401  1.7419 -0.6440 -0.8404
  862MPD2     N12660   2.343   1.319  10.422 -0.2902 -0.3025  0.4362
  862MPD2    H512661   2.303   1.316  10.329  0.1236 -0.0924  0.2494
  862MPD2    N112662   2.407   1.613  10.802 -0.2189  0.1274 -0.3526
  862MPD2    H712663   2.460   1.538  10.843  1.6617  1.4237 -0.4344
  863MPD2     C12664   1.176   4.144  17.071 -0.1177  0.1358  0.6203
  863MPD2    C112665   1.277   4.222  17.017 -0.5201  0.3412  0.1839
  863MPD2    C212666   1.406   4.176  17.028  0.7488  0.2003  0.9584
  863MPD2    C312667   1.439   4.073  17.119  0.2286 -0.2054 -0.4565
  863MPD2    C412668   1.338   4.013  17.178  0.4311  0.6665 -0.1043
  863MPD2    C512669   1.202   4.039  17.160  0.3923 -0.2698 -0.2057
  863MPD2     H12670   1.496   4.217  16.982 -0.5660  0.0989 -1.7106
  863MPD2    H112671   1.353   3.927  17.243  1.2150  0.6394 -0.3169
  863MPD2    H212672   1.075   4.180  17.055 -0.5589 -0.9343  1.0321
  863MPD2    H312673   1.127   3.975  17.204  0.1950 -0.7841 -1.2879
  863MPD2     N12674   1.570   4.031  17.152  0.9065 -0.6346  0.5617
  863MPD2    H512675   1.576   3.957  17.221 -0.6620 -0.4506  0.8818
  863MPD2    N112676   1.244   4.323  16.932 -0.5922  0.1842  0.6904
  863MPD2    H712677   1.148   4.334  16.903 -1.2492  1.3863  3.2999
  864MPD2     C12678   2.201   0.357  17.496  0.4153  0.5671 -0.2486
  864MPD2    C112679   2.248   0.288  17.389 -0.7860 -0.0868 -0.2584
  864MPD2    C212680   2.338   0.361  17.305  0.7567  0.2269  0.0176
  864MPD2    C312681   2.366   0.496  17.331 -0.1024 -0.0556  0.3638
  864MPD2    C412682   2.315   0.558  17.440  0.2709  0.7572 -0.0174
  864MPD2    C512683   2.235   0.491  17.522  0.2234 -0.3438 -0.5295
  864MPD2     H12684   2.376   0.318  17.213 -0.9443 -0.4070 -0.3872
  864MPD2    H112685   2.341   0.660  17.465  2.7301  0.5323 -1.6360
  864MPD2    H212686   2.124   0.315  17.560  0.2659 -0.4481 -1.1013
  864MPD2    H312687   2.206   0.533  17.617 -0.1913  1.4432 -1.4500
  864MPD2     N12688   2.449   0.572  17.242  0.1937 -0.5569  0.5448
  864MPD2    H512689   2.474   0.667  17.269 -0.1076  0.3292 -2.2583
  864MPD2    N112690   2.190   0.159  17.359 -0.1954 -0.6649 -0.2223
  864MPD2    H712691   2.110   0.127  17.412  0.2371  0.0762  0.8846
  865MPD2     C12692   1.961   0.815  16.813  0.1446  0.9278 -0.0509
  865MPD2    C112693   2.073   0.844  16.739  0.7870 -0.3550 -0.2342
  865MPD2    C212694   2.181   0.896  16.803 -0.2010 -0.4887 -0.5215
  865MPD2    C312695   2.178   0.917  16.940  0.7402 -0.2762 -0.6137
  865MPD2    C412696   2.070   0.883  17.008 -0.0262 -0.9533  0.3263
  865MPD2    C512697   1.950   0.844  16.945  0.3267 -0.1239  0.3848
  865MPD2     H12698   2.268   0.911  16.739 -0.1400 -0.2931 -0.3932
  865MPD2    H112699   2.063   0.906  17.114  0.0895  1.9795 -0.3099
  865MPD2    H212700   1.872   0.774  16.767  1.2264  0.5325 -1.8295
  865MPD2    H312701   1.861   0.826  17.005  0.0725  1.3197  0.4430
  865MPD2     N12702   2.301   0.936  17.009  0.2351 -0.1250  0.5055
  865MPD2    H512703   2.295   0.926  17.110  2.3363 -0.6207  0.5922
  865MPD2    N112704   2.087   0.786  16.612 -0.3454 -0.2482 -0.2030
  865MPD2    H712705   2.000   0.744  16.579 -1.4891 -0.2987  2.8656
  866MPD2     C12706   3.782   1.258  11.646  0.1610 -0.6118 -0.1549
  866MPD2    C112707   3.711   1.240  11.532 -0.4630 -0.4775 -0.0564
  866MPD2    C212708   3.581   1.283  11.520 -0.0282  0.2174  0.3989
  866MPD2    C312709   3.524   1.351  11.627  0.6326  0.5491  0.1843
  866MPD2    C412710   3.591   1.340  11.745  0.0015  0.8146 -0.2829
  866MPD2    C512711   3.718   1.299  11.754  0.5016  0.4228 -0.3112
  866MPD2     H12712   3.527   1.272  11.426  0.0477  1.0991  0.2561
  866MPD2    H112713   3.551   1.382  11.836 -0.4951 -0.7156  0.1920
  866MPD2    H212714   3.882   1.217  11.650  1.1608  1.6662 -1.3930
  866MPD2    H312715   3.761   1.302  11.853 -0.8897 -0.8891  0.3480
  866MPD2     N12716   3.398   1.422  11.619  0.8247 -0.4016  0.2161
  866MPD2    H512717   3.358   1.454  11.707  0.1417  0.4828 -0.4122
  866MPD2    N112718   3.784   1.163  11.435 -0.2111 -0.0117  0.4448
  866MPD2    H712719   3.882   1.145  11.449  0.3328  1.0956 -1.9262
  867MPD2     C12720   0.932   1.117  17.166 -0.5031  0.1113  0.0432
  867MPD2    C112721   1.032   1.028  17.182  0.1682  0.6486  0.3597
  867MPD2    C212722   1.155   1.076  17.223 -0.5298 -0.0071  0.0118
  867MPD2    C312723   1.167   1.218  17.249 -0.6352  0.2833  0.2254
  867MPD2    C412724   1.066   1.302  17.236 -0.3795  0.5945 -0.2877
  867MPD2    C512725   0.954   1.249  17.184  0.2150 -0.0844  0.1602
  867MPD2     H12726   1.226   0.996  17.241 -2.3185 -1.4489  0.7264
  867MPD2    H112727   1.074   1.409  17.255 -1.0501  0.6012 -0.0231
  867MPD2    H212728   0.835   1.095  17.123  0.3272  1.7867 -2.6932
  867MPD2    H312729   0.874   1.319  17.162  2.1534  1.8404 -0.6897
  867MPD2     N12730   1.285   1.282  17.299  0.1938  0.6787  0.1729
  867MPD2    H512731   1.274   1.380  17.320  1.7901  0.5747  1.4982
  867MPD2    N112732   1.012   0.890  17.134  0.4959 -0.0112 -0.2070
  867MPD2    H712733   0.918   0.866  17.106 -0.4384  2.9263  0.4167
  868MPD2     C12734   2.947   0.033  12.984 -0.2957  0.5075 -1.1719
  868MPD2    C112735   2.875   4.648  13.011 -0.5851 -0.5243  0.4929
  868MPD2    C212736   2.779   4.652  13.113  0.5452  0.6016 -0.3012
  868MPD2    C312737   2.765   0.037  13.197 -0.6017  0.1665 -0.0224
  868MPD2    C412738   2.832   0.149  13.171  0.2942 -0.1141 -0.4160
  868MPD2    C512739   2.929   0.142  13.069 -0.2901  0.4178  0.4032
  868MPD2     H12740   2.710   4.569  13.108  2.4379 -1.0116  0.2958
  868MPD2    H112741   2.834   0.239  13.231 -0.8445 -0.4354  0.1052
  868MPD2    H212742   3.015   0.039  12.900 -0.0543 -1.3462 -1.1165
  868MPD2    H312743   2.996   0.224  13.049 -0.3273  0.3023 -0.2033
  868MPD2     N12744   2.668   0.037  13.298 -0.6223  0.1102  0.1540
  868MPD2    H512745   2.599   4.688  13.297 -2.1838  1.5605 -0.2003
  868MPD2    N112746   2.897   4.529  12.934 -0.3958 -0.0043  0.1306
  868MPD2    H712747   2.960   4.541  12.855  0.3195 -1.8525  0.4203
  869MPD2     C12748   4.288   1.218   1.013  0.0563 -0.5761  0.1118
  869MPD2    C112749   4.216   1.280   1.119 -0.5806 -0.7442 -0.0693
  869MPD2    C212750   4.145   1.399   1.097 -0.2522  0.2712  1.0171
  869MPD2    C312751   4.155   1.460   0.967 -0.3787  0.0102  0.1779
  869MPD2    C412752   4.235   1.409   0.865  0.5737 -0.1312 -0.6391
  869MPD2    C512753   4.304   1.287   0.896 -0.4997 -0.6899  0.2544
  869MPD2     H12754   4.070   1.434   1.166 -1.2603  0.3938 -0.1428
  869MPD2    H112755   4.244   1.446   0.763 -1.3596  2.5272  0.1371
  869MPD2    H212756   4.352   1.132   1.029  0.2809 -0.3426  0.4882
  869MPD2    H312757   4.375   1.250   0.822  0.6728 -1.2526  1.6640
  869MPD2     N12758   4.080   1.575   0.921 -0.2384 -0.6975  0.1388
  869MPD2    H512759   4.102   1.604   0.827 -1.4096  1.0811  0.3900
  869MPD2    N112760   4.230   1.224   1.246  0.3232 -0.0828 -0.2172
  869MPD2    H712761   4.294   1.149   1.269 -0.5507 -0.4244  1.1308
  870MPD2     C12762   3.182   1.204   1.939 -0.0096  0.5182 -0.3245
  870MPD2    C112763   3.237   1.188   1.814 -0.0728  0.1208  0.4272
  870MPD2    C212764   3.204   1.271   1.711  0.0689 -0.1632  0.6114
  870MPD2    C312765   3.099   1.357   1.724  0.4342  0.5351 -0.4270
  870MPD2    C412766   3.039   1.365   1.852 -1.0116 -0.1723 -0.0247
  870MPD2    C512767   3.076   1.286   1.956  0.5379 -0.2245  0.6253
  870MPD2     H12768   3.252   1.260   1.614 -1.3836 -1.2603  0.0202
  870MPD2    H112769   2.955   1.427   1.881 -0.3402  1.1222 -0.8605
  870MPD2    H212770   3.217   1.129   2.009 -1.7947  1.5782  1.6782
  870MPD2    H312771   3.018   1.288   2.048 -0.1495  0.7880  0.1675
  870MPD2     N12772   3.065   1.445   1.617 -0.4651 -0.0257 -0.1896
  870MPD2    H512773   3.123   1.444   1.534  1.4384  2.2677  1.1026
  870MPD2    N112774   3.328   1.082   1.797  0.0756  0.0678 -0.2427
  870MPD2    H712775   3.348   1.036   1.885  2.0758  2.7455  0.7250
  871MPD2     C12776   4.416   1.012  16.281 -0.3568  0.1854  0.1081
  871MPD2    C112777   4.404   0.924  16.385 -0.1149 -0.7694 -0.3663
  871MPD2    C212778   4.402   0.790  16.358  0.9328  0.5669  0.0401
  871MPD2    C312779   4.421   0.745  16.226 -0.7222  0.5482  0.7659
  871MPD2    C412780   4.434   0.832  16.123  0.1991 -0.9513  0.2936
  871MPD2    C512781   4.430   0.965  16.151  0.9239 -0.2561 -0.1127
  871MPD2     H12782   4.414   0.716  16.436 -1.1433 -1.6572 -1.7335
  871MPD2    H112783   4.449   0.803  16.020 -0.6333 -0.0501 -0.0860
  871MPD2    H212784   4.416   1.121  16.280 -1.6010  0.2077  2.4859
  871MPD2    H312785   4.421   1.039  16.072 -0.1478 -0.5283 -0.2323
  871MPD2     N12786   4.434   0.604  16.205 -0.5671 -0.0181  0.4264
  871MPD2    H512787   4.415   0.536  16.278  0.3314 -1.3125 -0.5394
  871MPD2    N112788   4.395   0.991  16.511 -0.1493  0.0121  0.0057
  871MPD2    H712789   4.404   1.092  16.511  1.5465 -0.1299  0.2053
  872MPD2     C12790   0.374   3.345  14.438 -0.3439  0.2668  0.2015
  872MPD2    C112791   0.310   3.407  14.329  0.6385 -0.2854  0.0592
  872MPD2    C212792   0.179   3.376  14.314 -0.7556 -0.2873  0.1820
  872MPD2    C312793   0.106   3.288  14.397  0.1578  0.6055  0.3378
  872MPD2    C412794   0.178   3.218  14.495 -0.6558 -0.1363  0.9897
  872MPD2    C512795   0.311   3.248  14.509 -0.2851  0.5146  0.1533
  872MPD2     H12796   0.127   3.418  14.229 -0.4429 -1.2574 -0.4892
  872MPD2    H112797   0.134   3.146  14.562 -2.5854 -0.8784 -1.0688
  872MPD2    H212798   0.478   3.364  14.460  0.0945 -1.1014 -0.6875
  872MPD2    H312799   0.358   3.217  14.601 -2.5794 -2.3705  0.3704
  872MPD2     N12800   4.692   3.259  14.381 -0.2892  0.2646 -1.0996
  872MPD2    H512801   4.656   3.183  14.437  0.5529 -0.0087 -0.9272
  872MPD2    N112802   0.376   3.481  14.231  0.6569 -0.0969 -0.2237
  872MPD2    H712803   0.317   3.517  14.156  0.4176 -2.4912 -1.1978
  873MPD2     C12804   1.801   2.393   0.644  0.2696 -0.0541  0.3120
  873MPD2    C112805   1.788   2.354   0.778 -0.0554 -0.6124 -0.0875
  873MPD2    C212806   1.746   2.225   0.807  0.0755 -0.2499 -0.0771
  873MPD2    C312807   1.706   2.139   0.707 -0.0269  0.5859 -0.1448
  873MPD2    C412808   1.724   2.182   0.576  0.0786 -0.1410 -0.4989
  873MPD2    C512809   1.768   2.305   0.545  0.1608  0.1560 -0.1226
  873MPD2     H12810   1.732   2.203   0.912  0.6641  0.3873  0.1332
  873MPD2    H112811   1.682   2.128   0.492  0.3765 -2.3725  0.7938
  873MPD2    H212812   1.836   2.489   0.610  0.2524 -1.2571 -3.1378
  873MPD2    H312813   1.783   2.342   0.444  2.1418 -0.5518 -0.0864
  873MPD2     N12814   1.667   2.007   0.730  0.2414 -0.5593  0.9043
  873MPD2    H512815   1.623   1.966   0.648 -0.1864 -0.8947  1.2949
  873MPD2    N112816   1.808   2.459   0.877  1.0340  0.9431  0.4645
  873MPD2    H712817   1.829   2.551   0.839 -0.6238  0.2445 -2.1364
  874MPD2     C12818   1.941   3.720  15.981  0.2010  0.7737  0.3089
  874MPD2    C112819   1.970   3.649  16.097 -0.9133  0.2374  0.8627
  874MPD2    C212820   2.087   3.666  16.165 -0.2875  0.1000  0.3460
  874MPD2    C312821   2.175   3.766  16.130 -0.2570  0.7438  0.1602
  874MPD2    C412822   2.151   3.834  16.011  0.1494  0.3124  0.0225
  874MPD2    C512823   2.034   3.817  15.940  0.3521 -0.2782 -0.7557
  874MPD2     H12824   2.114   3.612  16.255 -0.5574  0.4233  0.6221
  874MPD2    H112825   2.218   3.908  15.968 -1.8649  1.7056 -0.7276
  874MPD2    H212826   1.846   3.713  15.929 -0.1333 -0.1095  1.0508
  874MPD2    H312827   2.013   3.874  15.850 -0.1955  0.7170  0.0100
  874MPD2     N12828   2.289   3.774  16.210 -0.4950 -0.3148 -0.0126
  874MPD2    H512829   2.288   3.727  16.301  1.8256  0.7232  0.5397
  874MPD2    N112830   1.865   3.553  16.135  0.4332 -0.5691  0.0965
  874MPD2    H712831   1.773   3.558  16.093  0.1557  0.5115  0.8162
  875MPD2     C12832   3.128   1.509  14.705  1.1342  0.4239 -1.2434
  875MPD2    C112833   3.071   1.633  14.720 -0.4086  0.1842  0.0184
  875MPD2    C212834   3.131   1.726  14.808  0.8775  0.8423 -0.3984
  875MPD2    C312835   3.251   1.691  14.875  0.5596 -1.0246  0.5413
  875MPD2    C412836   3.312   1.566  14.850  0.0142  0.6281  0.2317
  875MPD2    C512837   3.241   1.477  14.774 -0.0625 -0.1048 -0.3592
  875MPD2     H12838   3.083   1.821  14.826  0.0796 -0.3870  3.9892
  875MPD2    H112839   3.406   1.542  14.899 -0.8348 -1.6388  0.7383
  875MPD2    H212840   3.099   1.433  14.633  0.8494  0.0299 -0.7123
  875MPD2    H312841   3.285   1.379  14.766 -3.6438 -1.5529 -2.0397
  875MPD2     N12842   3.300   1.775  14.975  0.8838  0.5703  0.4495
  875MPD2    H512843   3.353   1.737  15.053 -0.1731  0.7526  1.2557
  875MPD2    N112844   2.950   1.676  14.657 -0.3401 -0.3363 -0.1447
  875MPD2    H712845   2.918   1.772  14.670  1.2079  0.2277 -0.4752
  876MPD2     C12846   1.843   2.891  16.038 -0.3688 -0.1304 -0.4653
  876MPD2    C112847   1.926   2.828  15.948  0.4280 -0.2241  0.1963
  876MPD2    C212848   1.939   2.695  15.959 -0.0044  0.6386 -0.2948
  876MPD2    C312849   1.872   2.627  16.063  0.5816 -0.0810  0.0794
  876MPD2    C412850   1.790   2.688  16.152  0.0173 -0.6971 -0.3006
  876MPD2    C512851   1.784   2.824  16.139  0.2035  0.6191  0.3137
  876MPD2     H12852   2.001   2.641  15.888  3.8303  1.0856  2.7064
  876MPD2    H112853   1.732   2.643  16.232 -0.6167 -0.9063 -0.8788
  876MPD2    H212854   1.827   2.998  16.042  2.7355  0.2590  1.5608
  876MPD2    H312855   1.716   2.884  16.199 -0.8036  1.4362 -1.6525
  876MPD2     N12856   1.891   2.485  16.061 -0.6228 -0.8683 -0.2946
  876MPD2    H512857   1.949   2.435  15.994  0.1343 -1.1202  0.5503
  876MPD2    N112858   2.005   2.909  15.873 -0.3575  0.1808  0.8096
  876MPD2    H712859   1.983   3.007  15.881 -0.1906  0.1831  1.2462
  877MPD2     C12860   1.961   3.440  15.291 -0.5946 -0.0615 -0.5280
  877MPD2    C112861   2.053   3.343  15.254 -0.3938 -0.2335  0.2248
  877MPD2    C212862   2.084   3.335  15.122  0.9172 -0.0072  0.4363
  877MPD2    C312863   2.023   3.406  15.018 -0.4029 -0.0954 -0.1053
  877MPD2    C412864   1.919   3.499  15.054 -0.2290 -0.0505 -0.5072
  877MPD2    C512865   1.893   3.511  15.188 -0.4230 -0.3567 -0.1658
  877MPD2     H12866   2.160   3.261  15.100 -0.4118 -1.8243  2.0501
  877MPD2    H112867   1.862   3.557  14.982 -1.9976  0.6836  1.4913
  877MPD2    H212868   1.941   3.449  15.397  0.1563  0.5894 -0.4486
  877MPD2    H312869   1.823   3.586  15.223  1.7934  0.6874  1.9799
  877MPD2     N12870   2.040   3.383  14.876  0.9151 -0.2169 -0.4506
  877MPD2    H512871   1.978   3.435  14.815  1.3226  2.0725  1.0840
  877MPD2    N112872   2.128   3.258  15.346 -0.3719 -0.3020  0.5826
  877MPD2    H712873   2.189   3.187  15.305 -1.2705 -0.4222 -0.5778
  878MPD2     C12874   1.862   2.492  12.687  0.1854 -0.7396 -0.4075
  878MPD2    C112875   1.918   2.614  12.665  0.5416 -0.6381 -0.4948
  878MPD2    C212876   1.953   2.686  12.780 -0.2450  0.1473 -0.9348
  878MPD2    C312877   1.906   2.647  12.904  0.5467 -0.0732  0.4583
  878MPD2    C412878   1.833   2.534  12.924 -0.3666  0.1449 -0.0795
  878MPD2    C512879   1.828   2.448  12.816 -0.6391  0.8569  0.2426
  878MPD2     H12880   2.014   2.774  12.764  1.4821 -0.6944  1.0848
  878MPD2    H112881   1.823   2.492  13.023 -1.4917  0.0023 -0.2517
  878MPD2    H212882   1.855   2.421  12.605 -0.6073 -0.1543 -0.8477
  878MPD2    H312883   1.810   2.343  12.836 -1.5695  0.9207 -0.2674
  878MPD2     N12884   1.955   2.721  13.013  0.0147  0.1523  0.6627
  878MPD2    H512885   2.022   2.793  12.990 -1.2701  1.3488  0.6439
  878MPD2    N112886   1.932   2.661  12.532  0.0005 -0.6073  0.0347
  878MPD2    H712887   1.916   2.597  12.456 -0.9688  0.4755 -0.6786
  879MPD2     C12888   2.706   4.101  17.439 -0.3579 -0.2627  0.1984
  879MPD2    C112889   2.568   4.116  17.465  0.4181  0.3523  0.1924
  879MPD2    C212890   2.474   4.064  17.382 -0.0912 -0.4909 -0.3131
  879MPD2    C312891   2.511   3.995  17.266  0.3719  0.2394 -0.8500
  879MPD2    C412892   2.642   3.979  17.238  0.1556 -0.0275  0.1765
  879MPD2    C512893   2.732   4.036  17.325 -0.7595  0.4220 -0.3038
  879MPD2     H12894   2.368   4.071  17.402  0.1002  1.7267 -0.1191
  879MPD2    H112895   2.673   3.927  17.148 -1.1720  0.1057 -0.3660
  879MPD2    H212896   2.782   4.141  17.506 -1.3722  2.9264 -0.5323
  879MPD2    H312897   2.838   4.027  17.305 -0.8993  0.9329 -1.2274
  879MPD2     N12898   2.420   3.946  17.169  0.0041  0.1719 -0.1104
  879MPD2    H512899   2.453   3.913  17.079 -2.2936 -0.7272 -0.6295
  879MPD2    N112900   2.536   4.180  17.585  0.2615  0.4400 -0.3004
  879MPD2    H712901   2.614   4.207  17.645  0.6830  0.0750 -0.6845
  880MPD2     C12902   3.447   0.722   0.316 -0.2181 -0.1449  0.9950
  880MPD2    C112903   3.359   0.773   0.411 -0.0548 -0.5089  0.0332
  880MPD2    C212904   3.333   0.704   0.536  0.2661 -0.5909  0.0029
  880MPD2    C312905   3.390   0.587   0.559 -0.0273  0.6171  0.3830
  880MPD2    C412906   3.473   0.528   0.468 -0.0063  0.7495 -0.2939
  880MPD2    C512907   3.499   0.592   0.350  0.1073 -0.1651  0.4169
  880MPD2     H12908   3.255   0.739   0.601 -1.2868 -1.0289 -1.6273
  880MPD2    H112909   3.521   0.431   0.471 -0.1236  0.7171  0.4647
  880MPD2    H212910   3.457   0.760   0.215 -2.2947  1.4765  1.3922
  880MPD2    H312911   3.554   0.542   0.271  2.3069 -1.2562  2.6665
  880MPD2     N12912   3.339   0.516   0.672  0.0452  0.3404 -0.7439
  880MPD2    H512913   3.271   0.566   0.728 -0.7810  0.7066 -2.0707
  880MPD2    N112914   3.298   0.896   0.381 -0.6238 -0.3143 -0.5268
  880MPD2    H712915   3.314   0.939   0.290 -1.1443  2.7306  0.8016
  881MPD2     C12916   3.014   1.575  17.427 -0.4944  0.4708  0.1267
  881MPD2    C112917   3.110   1.473  17.439 -0.9110  0.6144 -0.5893
  881MPD2    C212918   3.135   1.416  17.567 -0.6499  0.5479 -1.4870
  881MPD2    C312919   3.057   1.459  17.676  0.1609 -0.7263 -0.4101
  881MPD2    C412920   2.950   1.544  17.652  0.4762 -0.4049 -0.9577
  881MPD2    C512921   2.936   1.606  17.530 -0.3928  0.2775  0.5613
  881MPD2     H12922   3.226   1.359  17.583 -1.1419 -0.3284 -1.8235
  881MPD2    H112923   2.880   1.559   0.032  1.0268  0.7887 -0.7151
  881MPD2    H212924   3.001   1.632  17.336 -1.5081  1.2566  0.7668
  881MPD2    H312925   2.849   1.669  17.516 -0.0026  0.3542 -1.6052
  881MPD2     N12926   3.060   1.401   0.105 -0.3332  0.4564  0.3732
  881MPD2    H512927   2.997   1.430   0.179  1.5963  1.1384  1.7519
  881MPD2    N112928   3.209   1.473  17.340  0.0760  0.0814 -0.2006
  881MPD2    H712929   3.196   1.528  17.256  0.7513 -1.6180 -1.4245
  882MPD2     C12930   1.925   3.139  14.031  0.0212 -0.9227  0.0085
  882MPD2    C112931   1.898   3.225  14.137  0.2901  0.2881 -0.0562
  882MPD2    C212932   1.779   3.296  14.136 -0.3199 -0.4048 -0.4572
  882MPD2    C312933   1.693   3.286  14.030 -0.5581  0.6787 -0.1481
  882MPD2    C412934   1.734   3.214  13.914 -0.4637  0.8443 -0.2061
  882MPD2    C512935   1.836   3.123  13.923  0.0114 -0.1566  0.4585
  882MPD2     H12936   1.758   3.365  14.217  1.6107 -0.0975 -0.2227
  882MPD2    H112937   1.668   3.212  13.827 -0.0389 -0.4914 -0.4934
  882MPD2    H212938   2.017   3.083  14.016 -0.7652 -2.2541  0.1524
  882MPD2    H312939   1.845   3.044  13.849 -2.4969  0.6679 -0.7578
  882MPD2     N12940   1.567   3.350  14.030 -0.3289 -0.7081 -0.4326
  882MPD2    H512941   1.512   3.349  13.945 -0.8926 -1.9531 -0.0495
  882MPD2    N112942   1.987   3.233  14.245 -0.0727 -0.2637 -0.0584
  882MPD2    H712943   2.068   3.172  14.240  0.0632 -0.0117 -0.8202
  883MPD2     C12944   4.155   3.563  16.750 -0.9048  1.2463 -0.1071
  883MPD2    C112945   4.213   3.644  16.652  0.3966 -0.3703 -0.5753
  883MPD2    C212946   4.340   3.693  16.672 -0.3968  0.6617 -0.4738
  883MPD2    C312947   4.400   3.674  16.799 -0.2804  0.1744  0.6178
  883MPD2    C412948   4.336   3.604  16.894 -0.1772  0.5004 -0.3081
  883MPD2    C512949   4.219   3.547  16.868 -0.1773  0.2305 -1.0005
  883MPD2     H12950   4.392   3.743  16.591 -0.3638 -0.3921 -1.1014
  883MPD2    H112951   4.377   3.592  16.994  0.2692  1.7560 -0.3406
  883MPD2    H212952   4.056   3.521  16.738  0.0054 -1.7706  2.8952
  883MPD2    H312953   4.177   3.502  16.957  0.9595 -1.3242 -1.2457
  883MPD2     N12954   4.529   3.737  16.811  0.6361 -0.1625  0.2351
  883MPD2    H512955   4.575   3.775  16.729 -0.7886  1.2861  0.0949
  883MPD2    N112956   4.151   3.686  16.531  0.7776 -0.3902 -0.3523
  883MPD2    H712957   4.206   3.745  16.470 -1.0699 -0.1434 -1.7452
  884MPD2     C12958   1.264   4.302  15.395 -0.9016 -0.7122  0.0971
  884MPD2    C112959   1.187   4.415  15.423  0.4737 -0.2174 -0.6242
  884MPD2    C212960   1.050   4.404  15.406  0.0313 -0.0057  0.1968
  884MPD2    C312961   0.984   4.286  15.381  0.6643  0.6453  0.4073
  884MPD2    C412962   1.061   4.175  15.367 -0.8068  0.0608  0.9962
  884MPD2    C512963   1.197   4.189  15.366 -0.5067 -0.1286 -0.5715
  884MPD2     H12964   0.983   4.488  15.422 -1.7515 -1.1265 -1.3837
  884MPD2    H112965   1.025   4.073  15.359 -0.0162 -0.3287  2.4938
  884MPD2    H212966   1.372   4.289  15.390 -0.6477  1.3821  0.0829
  884MPD2    H312967   1.266   4.108  15.347 -0.5728 -0.2905 -0.1166
  884MPD2     N12968   0.843   4.289  15.377 -0.5318 -0.0479 -0.0013
  884MPD2    H512969   0.794   4.377  15.389 -1.0975 -0.5911  1.5959
  884MPD2    N112970   1.248   4.541  15.436 -0.3900 -0.7143  0.1473
  884MPD2    H712971   1.194   4.627  15.434  0.1739 -0.3418  0.9997
  885MPD2     C12972   3.807   3.595  17.646 -0.4138 -0.4273 -0.4649
  885MPD2    C112973   3.922   3.628   0.013 -0.0303  0.5579 -0.7030
  885MPD2    C212974   3.992   3.734  17.654  0.1543  0.3829  0.5897
  885MPD2    C312975   3.960   3.788  17.528  0.5145 -0.3549 -0.0529
  885MPD2    C412976   3.850   3.740  17.458 -0.0752  0.2554 -0.6377
  885MPD2    C512977   3.778   3.639  17.522  0.6498  1.0455 -0.8121
  885MPD2     H12978   4.082   3.773  17.699 -0.9895  1.4854  1.9212
  885MPD2    H112979   3.816   3.757  17.356  1.2547 -3.2347 -1.6759
  885MPD2    H212980   3.738   3.532  17.701 -0.2477 -1.0884 -1.0164
  885MPD2    H312981   3.683   3.611  17.478  0.5892  0.9937 -0.6480
  885MPD2     N12982   4.039   3.893  17.472 -0.0383  0.1566 -0.1932
  885MPD2    H512983   4.112   3.921  17.537 -0.8386  0.8169  0.4171
  885MPD2    N112984   3.953   3.558   0.131  0.2915 -0.2410 -0.2392
  885MPD2    H712985   3.883   3.487   0.153 -0.6968  1.2493  1.4610
  886MPD2     C12986   0.824   2.771  15.725  0.7224 -0.0960  0.2159
  886MPD2    C112987   0.794   2.758  15.597  0.3360 -0.6949  0.0291
  886MPD2    C212988   0.761   2.872  15.523 -0.0342  0.0476  0.2454
  886MPD2    C312989   0.764   2.998  15.572 -0.3684 -0.0649 -0.7103
  886MPD2    C412990   0.801   3.011  15.705 -0.6534 -0.4411  1.4158
  886MPD2    C512991   0.816   2.898  15.785 -1.0573 -0.3120 -0.1484
  886MPD2     H12992   0.740   2.859  15.417 -0.3609  1.3150  0.1565
  886MPD2    H112993   0.798   3.105  15.758 -1.0400  0.3835 -0.0477
  886MPD2    H212994   0.874   2.699  15.788  2.3735 -0.5634 -1.6384
  886MPD2    H312995   0.837   2.911  15.891 -1.4285 -2.5611  0.2141
  886MPD2     N12996   0.733   3.115  15.497 -0.1550  0.0260  0.6478
  886MPD2    H512997   0.752   3.202  15.545  1.0411 -0.3108  0.7806
  886MPD2    N112998   0.807   2.639  15.519 -0.2031 -0.3404 -0.7223
  886MPD2    H712999   0.793   2.642  15.419 -1.8369  0.4223 -0.4594
  887MPD2     C13000   1.320   2.734  15.209  0.6620 -0.0355 -0.2336
  887MPD2    C113001   1.257   2.704  15.331 -1.0401  0.0130 -0.1741
  887MPD2    C213002   1.240   2.800  15.432 -0.8346  0.4897 -0.4863
  887MPD2    C313003   1.287   2.922  15.409  0.0563  0.1141  0.1629
  887MPD2    C413004   1.340   2.954  15.287  0.4634  0.3810 -0.5141
  887MPD2    C513005   1.358   2.863  15.184  0.5959  0.2748  0.3747
  887MPD2     H13006   1.186   2.768  15.521 -0.7507  1.2667 -0.1493
  887MPD2    H113007   1.358   3.058  15.262  1.6867 -0.2136 -2.1012
  887MPD2    H213008   1.329   2.653  15.138  1.7436 -1.9925  2.1341
  887MPD2    H313009   1.399   2.891  15.087 -1.7178  2.7027  0.0835
  887MPD2     N13010   1.273   3.017  15.516  0.5125  0.0334 -0.0883
  887MPD2    H513011   1.247   2.976  15.605 -0.0747  1.3806  0.3574
  887MPD2    N113012   1.189   2.584  15.356  0.4531 -0.4035  0.8124
  887MPD2    H713013   1.137   2.569  15.442  0.9747 -2.5777  0.7599
  888MPD2     C13014   2.929   2.684  14.696 -0.5648 -0.1907  0.1531
  888MPD2    C113015   3.016   2.681  14.804 -0.1237  0.1236 -0.7523
  888MPD2    C213016   3.098   2.787  14.826 -0.6838  0.6832  0.3990
  888MPD2    C313017   3.111   2.884  14.730  0.4015 -0.0558  0.1250
  888MPD2    C413018   3.030   2.881  14.616 -0.6407  0.0613  0.0393
  888MPD2    C513019   2.948   2.780  14.602 -0.4078 -0.0428  0.3699
  888MPD2     H13020   3.157   2.799  14.916  1.0460  1.0854 -0.7892
  888MPD2    H113021   3.024   2.955  14.536  0.5972  1.0113  0.8276
  888MPD2    H213022   2.877   2.596  14.661 -0.9163  0.3646 -0.7154
  888MPD2    H313023   2.896   2.777  14.506  1.6630 -1.4806 -0.7241
  888MPD2     N13024   3.202   2.991  14.748 -0.7452 -0.2118 -0.0404
  888MPD2    H513025   3.251   2.992  14.837  0.0936  0.1265 -0.5087
  888MPD2    N113026   3.007   2.579  14.908  0.1957  0.3814  0.5721
  888MPD2    H713027   3.075   2.593  14.983 -1.7190  0.6398  2.2607
  889MPD2     C13028   2.174   2.208  12.683  0.3583 -0.0158 -0.3215
  889MPD2    C113029   2.282   2.251  12.765 -0.3632  0.9398 -0.3437
  889MPD2    C213030   2.319   2.380  12.735  0.7955 -0.0236 -0.2681
  889MPD2    C313031   2.273   2.452  12.631  0.1763 -0.3932  1.0266
  889MPD2    C413032   2.188   2.396  12.542  0.3783 -0.4078  0.8820
  889MPD2    C513033   2.137   2.278  12.571  1.0039 -0.1211  0.0112
  889MPD2     H13034   2.399   2.427  12.791  0.1456 -0.5476  1.0921
  889MPD2    H113035   2.150   2.458  12.461  1.4492 -0.7120  0.1479
  889MPD2    H213036   2.136   2.107  12.695  0.4118  0.1556  1.2915
  889MPD2    H313037   2.055   2.242  12.510 -1.9283  0.0652  3.8659
  889MPD2     N13038   2.327   2.580  12.623 -0.2303 -0.5041 -0.8089
  889MPD2    H513039   2.390   2.609  12.697  3.3510  0.6343 -4.3201
  889MPD2    N113040   2.317   2.173  12.877  0.0961  0.0091  0.7185
  889MPD2    H713041   2.262   2.089  12.886  2.4398 -1.5600  0.4531
  890MPD2     C13042   2.284   3.851  14.596 -0.0355 -0.5646  0.4823
  890MPD2    C113043   2.336   3.923  14.701 -0.2151 -0.6194  0.4287
  890MPD2    C213044   2.314   3.875  14.827  0.4858 -0.1995 -0.4766
  890MPD2    C313045   2.251   3.751  14.856 -0.1952  0.2870 -0.0200
  890MPD2    C413046   2.212   3.672  14.755  0.0751 -0.9203 -0.5381
  890MPD2    C513047   2.224   3.722  14.622 -0.1717 -0.9124 -0.6244
  890MPD2     H13048   2.347   3.944  14.903  0.7724  0.1099 -0.8764
  890MPD2    H113049   2.157   3.581  14.774 -0.8432 -0.2571 -0.0178
  890MPD2    H213050   2.286   3.887  14.494  1.6512 -2.1552 -0.0438
  890MPD2    H313051   2.185   3.664  14.539  0.4476 -1.2568 -0.6783
  890MPD2     N13052   2.228   3.710  14.988 -0.6849  0.6695  0.3382
  890MPD2    H513053   2.218   3.611  15.006  0.8855  0.6167  0.9139
  890MPD2    N113054   2.411   4.039  14.673  0.1071 -0.0859  0.2471
  890MPD2    H713055   2.368   4.096  14.601  1.7817  0.9017  0.0270
  891MPD2     C13056   4.586   3.138  16.456  1.1386  0.7560  0.6219
  891MPD2    C113057   4.522   3.032  16.505 -0.1082  0.2250 -0.9848
  891MPD2    C213058   4.598   2.918  16.534 -0.0131 -0.1728 -0.0262
  891MPD2    C313059   0.011   2.911  16.506  0.0076  0.2987 -0.4362
  891MPD2    C413060   0.074   3.024  16.453 -0.2254 -0.1206 -0.2931
  891MPD2    C513061   4.718   3.135  16.426 -0.2962  0.1762  1.1167
  891MPD2     H13062   4.559   2.828  16.579  2.0058 -1.0285  0.0136
  891MPD2    H113063   0.180   3.040  16.436 -0.3562 -0.0507 -1.0660
  891MPD2    H213064   4.522   3.221  16.428  1.1439  0.4926 -0.1657
  891MPD2    H313065   0.038   3.227  16.389  0.4465 -0.5989  0.0924
  891MPD2     N13066   0.080   2.794  16.530 -0.2679 -0.5892 -0.8113
  891MPD2    H513067   0.042   2.726  16.595  1.6789  0.1710  1.1164
  891MPD2    N113068   4.383   3.045  16.515 -0.6680 -0.6899  0.2947
  891MPD2    H713069   4.341   3.133  16.486  1.0094  0.1381  0.3879
  892MPD2     C13070   1.131   3.824  14.812  0.1776 -0.5390 -0.6406
  892MPD2    C113071   1.026   3.777  14.732  0.6623  0.5768 -0.6359
  892MPD2    C213072   1.052   3.734  14.608  0.0698  0.4228  0.1386
  892MPD2    C313073   1.183   3.717  14.571  0.4643 -0.1659 -0.2809
  892MPD2    C413074   1.285   3.768  14.645 -0.1567  0.0524  0.4398
  892MPD2    C513075   1.255   3.827  14.770 -0.1009  0.1097 -0.6217
  892MPD2     H13076   0.973   3.712  14.537  0.3664  0.8234 -0.3156
  892MPD2    H113077   1.391   3.749  14.631 -0.6113 -0.5020 -2.3169
  892MPD2    H213078   1.104   3.866  14.908  3.8045  0.5451 -0.1052
  892MPD2    H313079   1.331   3.866  14.836 -1.8483  2.1871  0.1767
  892MPD2     N13080   1.212   3.661  14.443 -0.1179 -0.3720  0.3305
  892MPD2    H513081   1.305   3.685  14.411  0.5524 -2.0384  1.0503
  892MPD2    N113082   0.896   3.774  14.777 -0.1699  0.1986 -0.3463
  892MPD2    H713083   0.820   3.766  14.710 -0.6627 -2.2207  0.4640
  893MPD2     C13084   3.165   1.366   2.474  0.1154 -0.2799 -0.2434
  893MPD2    C113085   3.112   1.454   2.394  0.2133  0.2422 -0.5203
  893MPD2    C213086   2.993   1.507   2.432  0.0655  0.4952  0.3860
  893MPD2    C313087   2.933   1.489   2.559  0.3300 -1.0161  0.5032
  893MPD2    C413088   2.992   1.400   2.641  0.4761 -0.2393 -0.4686
  893MPD2    C513089   3.107   1.333   2.597 -0.4597  0.5520 -0.4983
  893MPD2     H13090   2.941   1.572   2.362  1.2700 -0.1676 -1.1059
  893MPD2    H113091   2.959   1.384   2.743 -3.3131  2.5735 -1.2584
  893MPD2    H213092   3.256   1.313   2.450 -0.1210 -1.4488  1.4408
  893MPD2    H313093   3.158   1.272   2.671 -1.7461  1.0041  0.7441
  893MPD2     N13094   2.818   1.548   2.607 -0.2856 -0.1781 -0.6227
  893MPD2    H513095   2.786   1.525   2.701 -1.3193 -1.3638 -1.2544
  893MPD2    N113096   3.170   1.477   2.264  0.5803  0.1482  0.3806
  893MPD2    H713097   3.258   1.427   2.253  0.6775  0.2095  0.8663
  894MPD2     C13098   0.482   4.341   0.436 -0.0745  0.5512 -0.0381
  894MPD2    C113099   0.495   4.275   0.555  0.7483  0.1949 -1.0656
  894MPD2    C213100   0.611   4.289   0.626  0.7120 -0.2500 -0.1681
  894MPD2    C313101   0.714   4.374   0.580  0.2387 -0.2245  0.2043
  894MPD2    C413102   0.686   4.462   0.477 -0.4378 -0.3060  0.1862
  894MPD2    C513103   0.571   4.434   0.401  0.3460  0.4611  0.5496
  894MPD2     H13104   0.630   4.227   0.713 -0.3732  1.0783  1.0211
  894MPD2    H113105   0.752   4.541   0.442  1.1452 -1.0709  1.4404
  894MPD2    H213106   0.395   4.323   0.375  1.7181 -2.3574 -1.7592
  894MPD2    H313107   0.549   4.494   0.313 -1.1147  1.0915  1.3434
  894MPD2     N13108   0.830   4.378   0.660  0.5882  0.8783 -0.0763
  894MPD2    H513109   0.826   4.315   0.740  0.2779  0.3494 -0.5089
  894MPD2    N113110   0.402   4.181   0.608 -0.7200  0.5974 -0.0193
  894MPD2    H713111   0.422   4.146   0.701  3.4086 -0.4501 -1.3011
  895MPD2     C13112   0.762   2.114  12.532  0.0256  0.3016 -0.3021
  895MPD2    C113113   0.689   2.229  12.537  0.5324  0.0541  0.3568
  895MPD2    C213114   0.577   2.240  12.619 -0.4905 -0.7141  0.0724
  895MPD2    C313115   0.528   2.124  12.684  0.1457  0.1356  0.5190
  895MPD2    C413116   0.605   2.011  12.681  0.4447 -0.2077  0.3713
  895MPD2    C513117   0.723   2.009  12.611 -0.3540 -0.5189  0.5162
  895MPD2     H13118   0.521   2.332  12.631  0.4810 -0.4944  2.9878
  895MPD2    H113119   0.587   1.923  12.742 -2.2974  0.4691  0.5223
  895MPD2    H213120   0.860   2.109  12.486 -1.4892 -1.3170 -3.3421
  895MPD2    H313121   0.792   1.925  12.612  1.5285  1.0594  1.9059
  895MPD2     N13122   0.406   2.125  12.758 -0.1652  0.5155  0.1341
  895MPD2    H513123   0.378   2.034  12.793 -0.1980  0.4984  0.0638
  895MPD2    N113124   0.729   2.344  12.461 -0.3958  0.3511  0.0588
  895MPD2    H713125   0.661   2.419  12.466  0.0256  0.7171  0.3906
  896MPD2     C13126   2.487   0.151   1.688  0.2776 -0.1879 -0.5062
  896MPD2    C113127   2.552   0.066   1.602 -0.5682 -0.4527  0.0192
  896MPD2    C213128   2.475   0.000   1.509  0.2841  0.1793 -0.0269
  896MPD2    C313129   2.340   0.006   1.512  0.4018  0.1231  1.1587
  896MPD2    C413130   2.281   0.088   1.610  0.5179 -0.2425 -0.0538
  896MPD2    C513131   2.359   0.166   1.693  0.0274 -0.4644 -1.3063
  896MPD2     H13132   2.519   4.658   1.436  1.1378  1.7534 -0.9605
  896MPD2    H113133   2.176   0.109   1.625  0.8258 -0.0112  1.7215
  896MPD2    H213134   2.541   0.211   1.761 -1.0804  0.1077  0.2504
  896MPD2    H313135   2.312   0.227   1.769  0.4906  0.8824 -2.0773
  896MPD2     N13136   2.257   4.662   1.420 -0.6690  0.0794 -0.7737
  896MPD2    H513137   2.296   4.592   1.358 -0.3834  1.8229 -2.5469
  896MPD2    N113138   2.696   0.068   1.606 -0.2824 -0.2913 -0.6943
  896MPD2    H713139   2.737   0.129   1.675  1.3507 -0.7300 -1.2721
  897MPD2     C13140   4.023   2.756  10.917 -0.1086 -0.0904 -0.1214
  897MPD2    C113141   3.949   2.650  10.860 -0.5703 -0.5195 -0.0411
  897MPD2    C213142   3.849   2.591  10.938  0.2200 -0.7247 -0.4259
  897MPD2    C313143   3.822   2.645  11.062 -1.0630  1.4028 -0.3766
  897MPD2    C413144   3.898   2.748  11.119 -0.0514  0.2139  0.1560
  897MPD2    C513145   3.994   2.806  11.039 -0.0888  0.4879 -0.1876
  897MPD2     H13146   3.769   2.525  10.906 -0.2414 -0.7438  0.7747
  897MPD2    H113147   3.880   2.801  11.212  0.6986 -0.2463  0.5625
  897MPD2    H213148   4.099   2.813  10.865 -0.7847 -0.1784 -1.1945
  897MPD2    H313149   4.053   2.889  11.078  0.0684  1.7907 -3.1985
  897MPD2     N13150   3.710   2.602  11.129 -0.3373  0.4637  0.0722
  897MPD2    H513151   3.652   2.534  11.083 -2.1367 -0.5519  3.8980
  897MPD2    N113152   3.972   2.621  10.726 -0.0586  0.1963 -0.3249
  897MPD2    H713153   4.042   2.684  10.686  0.0144 -0.0870 -0.6457
  898MPD2     C13154   0.818   2.706  17.274 -0.3355  0.0878 -0.7133
  898MPD2    C113155   0.948   2.752  17.255 -0.1810  0.8413 -0.3691
  898MPD2    C213156   0.960   2.888  17.244  0.2959 -0.0631 -0.3716
  898MPD2    C313157   0.851   2.985  17.244  0.9285 -0.1751 -0.6633
  898MPD2    C413158   0.722   2.934  17.273 -0.3156 -0.4651 -0.3932
  898MPD2    C513159   0.707   2.792  17.281  0.7725 -0.2113 -0.7313
  898MPD2     H13160   1.061   2.921  17.224  0.9939 -2.3510 -0.6859
  898MPD2    H113161   0.638   3.002  17.280  0.1057 -0.1348  1.5800
  898MPD2    H213162   0.796   2.600  17.270  0.3441 -0.0792  0.1333
  898MPD2    H313163   0.610   2.750  17.302  0.5357  0.1980 -0.9892
  898MPD2     N13164   0.875   3.127  17.228 -0.1077  0.9513 -0.6887
  898MPD2    H513165   0.796   3.188  17.247 -1.3604 -1.0777  0.5118
  898MPD2    N113166   1.068   2.676  17.266  0.0682 -0.9201 -0.3025
  898MPD2    H713167   1.149   2.737  17.265 -0.0556 -0.7467  0.2733
  899MPD2     C13168   1.966   3.643   0.063  0.0897 -0.2656  0.2001
  899MPD2    C113169   1.856   3.705  17.700  0.9629  0.4940 -0.0154
  899MPD2    C213170   1.728   3.680   0.045  0.1942 -0.2790 -0.0539
  899MPD2    C313171   1.703   3.592   0.143  0.3691  0.2918  0.4298
  899MPD2    C413172   1.815   3.526   0.193  0.1734  0.3431  0.2100
  899MPD2    C513173   1.943   3.549   0.156 -1.0922 -0.2979 -0.6790
  899MPD2     H13174   1.651   3.744   0.004 -1.5054 -2.3311 -0.0695
  899MPD2    H113175   1.799   3.458   0.275  1.1791 -1.1537 -0.8366
  899MPD2    H213176   2.067   3.669   0.036  0.4319 -0.3049  1.4507
  899MPD2    H313177   2.028   3.504   0.205 -1.6283 -1.7719 -1.1205
  899MPD2     N13178   1.575   3.578   0.199 -0.5301  0.3154  0.9742
  899MPD2    H513179   1.566   3.512   0.275  2.3161 -0.6387  0.4790
  899MPD2    N113180   1.891   3.797  17.593  0.4435 -0.0140  0.0681
  899MPD2    H713181   1.989   3.818  17.577  0.6208 -2.1931 -1.7737
  900MPD2     C13182   1.475   0.777  12.277  0.2844 -0.1704  0.5005
  900MPD2    C113183   1.375   0.699  12.337  0.5411  0.2957  0.4961
  900MPD2    C213184   1.240   0.715  12.306 -0.0015 -0.5461  0.8485
  900MPD2    C313185   1.208   0.816  12.223 -0.2492 -0.1809 -0.3833
  900MPD2    C413186   1.298   0.897  12.169 -0.0233  0.5768  0.4973
  900MPD2    C513187   1.434   0.879  12.194  0.2734 -0.3097  0.3778
  900MPD2     H13188   1.166   0.655  12.359 -2.4232  1.3546 -0.3954
  900MPD2    H113189   1.276   0.976  12.099 -3.3352  1.0124  2.0295
  900MPD2    H213190   1.580   0.758  12.296 -0.4138 -2.1313  2.4733
  900MPD2    H313191   1.505   0.948  12.152  0.1278  0.7474  1.8672
  900MPD2     N13192   1.072   0.828  12.185 -0.1181 -0.1570  0.2142
  900MPD2    H513193   1.002   0.761  12.215  2.3941 -2.0715  1.8716
  900MPD2    N113194   1.422   0.594  12.415  0.3429  0.1580 -0.4122
  900MPD2    H713195   1.520   0.606  12.439  0.2169 -0.3010  0.3345
  901MPD2     C13196   1.413   4.334  12.910  0.5092 -0.1036 -0.0125
  901MPD2    C113197   1.508   4.335  12.813 -0.0701 -0.1515  0.4716
  901MPD2    C213198   1.527   4.455  12.749  0.5029 -0.3538  0.3893
  901MPD2    C313199   1.458   4.572  12.786  0.5070 -0.6859  0.0630
  901MPD2    C413200   1.372   4.568  12.892 -0.1924 -0.0775  0.5310
  901MPD2    C513201   1.348   4.448  12.957  0.5972 -0.8756  0.0684
  901MPD2     H13202   1.600   4.458  12.669 -0.8743  0.2099 -0.8449
  901MPD2    H113203   1.312   4.653  12.923  1.4998  1.2054  0.3015
  901MPD2    H213204   1.393   4.244  12.968 -0.3783  0.7027  0.9318
  901MPD2    H313205   1.279   4.445  13.041  0.5055 -1.3371 -0.0247
  901MPD2     N13206   1.486   4.692  12.712  0.6381  0.0366  0.3690
  901MPD2    H513207   1.557   4.681  12.639  0.3233  1.7153 -0.2012
  901MPD2    N113208   1.555   4.208  12.770  0.1066 -0.7587 -0.1483
  901MPD2    H713209   1.493   4.131  12.790 -0.0310 -0.4974  0.4095
  902MPD2     C13210   4.438   2.975  12.402 -0.4832  0.2977 -0.3494
  902MPD2    C113211   4.455   3.012  12.269  0.7183 -0.1644 -0.2056
  902MPD2    C213212   4.544   2.939  12.195 -0.2232 -0.1645  0.0898
  902MPD2    C313213   4.605   2.830  12.250 -0.0067 -0.2534  0.7954
  902MPD2    C413214   4.575   2.789  12.375  0.0023  0.0663  0.5680
  902MPD2    C513215   4.491   2.855  12.452 -0.0963 -0.1272 -0.5477
  902MPD2     H13216   4.565   2.968  12.093  0.1638  0.7107  0.4117
  902MPD2    H113217   4.620   2.698  12.413 -1.0411 -0.3573  0.7877
  902MPD2    H213218   4.366   3.028  12.462 -1.4064  1.9369 -2.9060
  902MPD2    H313219   4.443   2.819  12.543  1.0124 -0.5808 -0.1368
  902MPD2     N13220   4.703   2.767  12.173  0.2647 -0.1322  0.6562
  902MPD2    H513221   0.022   2.827  12.103  2.5617 -1.4420  0.9649
  902MPD2    N113222   4.383   3.121  12.225 -0.4365 -0.1164 -0.4625
  902MPD2    H713223   4.332   3.173  12.295 -1.7528  0.9565 -2.2030
  903MPD2     C13224   0.327   2.832  11.556  0.0080 -0.1956 -0.2931
  903MPD2    C113225   0.274   2.714  11.598  0.0631 -0.5042  0.6467
  903MPD2    C213226   0.207   2.630  11.513 -0.6534  0.5569 -0.4524
  903MPD2    C313227   0.192   2.662  11.380 -0.0566 -0.1959  0.0122
  903MPD2    C413228   0.251   2.777  11.333 -0.8876 -0.3445  0.6139
  903MPD2    C513229   0.315   2.863  11.422 -0.0736  0.2887 -0.0352
  903MPD2     H13230   0.162   2.545  11.564  1.3017  0.4694  1.1445
  903MPD2    H113231   0.260   2.796  11.226  1.0330  1.4649  1.1038
  903MPD2    H213232   0.379   2.902  11.620 -1.4314  1.6150 -1.0736
  903MPD2    H313233   0.357   2.955  11.384  0.6298 -0.0286 -0.0368
  903MPD2     N13234   0.113   2.575  11.305 -0.0626  0.5692 -0.2871
  903MPD2    H513235   0.078   2.489  11.348 -1.8581  0.2895 -2.2796
  903MPD2    N113236   0.265   2.663  11.730 -0.5583 -0.8193 -0.4795
  903MPD2    H713237   0.190   2.597  11.748 -2.0119 -0.1933 -4.3699
  904MPD2     C13238   4.521   2.245  13.997  1.3104 -0.5130  0.1098
  904MPD2    C113239   4.567   2.289  13.877 -0.0166  0.5699  0.2281
  904MPD2    C213240   4.701   2.285  13.843  0.5852 -0.5750 -0.0689
  904MPD2    C313241   0.070   2.243  13.940  0.1952  0.7337 -0.1733
  904MPD2    C413242   0.027   2.189  14.060  0.4811  0.3815  0.6090
  904MPD2    C513243   4.615   2.192  14.079 -0.0179 -0.0123  0.2027
  904MPD2     H13244   0.015   2.343  13.760  0.6699 -1.0791 -0.3794
  904MPD2    H113245   0.096   2.154  14.136  3.4909  0.1716 -2.2154
  904MPD2    H213246   4.415   2.249  14.020  0.9830 -2.6936 -1.0212
  904MPD2    H313247   4.575   2.141  14.166 -1.2075  1.9543  0.7895
  904MPD2     N13248   0.207   2.261  13.905  0.2679  0.1160 -0.0900
  904MPD2    H513249   0.218   2.301  13.813  2.1457 -1.4719 -0.5477
  904MPD2    N113250   4.485   2.355  13.782  0.0524  0.2510  0.2695
  904MPD2    H713251   4.531   2.381  13.695  0.3161 -1.7548 -0.1756
  905MPD2     C13252   4.470   2.761  13.077  0.5573 -0.9837  0.0304
  905MPD2    C113253   4.435   2.638  13.124 -0.0138  0.0371  0.2154
  905MPD2    C213254   4.481   2.525  13.061 -1.1067  0.2619 -0.0036
  905MPD2    C313255   4.559   2.544  12.951 -0.0135  0.2295 -0.0432
  905MPD2    C413256   4.591   2.666  12.902  1.0272 -0.5220  0.2450
  905MPD2    C513257   4.544   2.770  12.965  0.5232 -0.7057 -0.2409
  905MPD2     H13258   4.443   2.428  13.094 -1.3111  0.8147  1.3643
  905MPD2    H113259   4.669   2.683  12.827 -0.3366 -0.0961 -1.0735
  905MPD2    H213260   4.446   2.858  13.119 -2.0118 -1.1377 -1.0833
  905MPD2    H313261   4.571   2.867  12.924 -1.2069  0.2527  0.8362
  905MPD2     N13262   4.630   2.433  12.902  0.6008 -0.0877  0.4461
  905MPD2    H513263   4.717   2.450  12.853 -0.2442  1.4643 -0.5315
  905MPD2    N113264   4.371   2.625  13.250 -0.7529 -0.0887 -0.4924
  905MPD2    H713265   4.344   2.715  13.287 -0.4704 -0.4174  0.5328
  906MPD2     C13266   2.462   2.529  11.390 -0.3817 -0.1653  0.3062
  906MPD2    C113267   2.414   2.444  11.296 -1.0826 -0.7558 -0.2794
  906MPD2    C213268   2.352   2.330  11.348  0.3520  0.9783 -0.1376
  906MPD2    C313269   2.336   2.307  11.477  0.2443 -0.7099 -0.2825
  906MPD2    C413270   2.380   2.394  11.569 -0.2893  0.0548 -0.4228
  906MPD2    C513271   2.448   2.501  11.524 -0.4040  0.2875  0.9750
  906MPD2     H13272   2.311   2.254  11.283  0.5042  0.1594  0.7213
  906MPD2    H113273   2.374   2.365  11.674  0.8496  0.4086 -0.2524
  906MPD2    H213274   2.524   2.611  11.355 -0.9310 -0.1037 -0.5249
  906MPD2    H313275   2.488   2.572  11.596 -0.2832 -0.5355  1.7152
  906MPD2     N13276   2.261   2.186  11.513  0.6902 -0.7647 -0.1497
  906MPD2    H513277   2.212   2.143  11.435 -3.7566  2.9533  0.6134
  906MPD2    N113278   2.428   2.456  11.154 -0.1914 -0.0545 -0.6128
  906MPD2    H713279   2.397   2.371  11.109 -0.2019  1.4375 -3.4740
  907MPD2     C13280   1.148   1.558  15.089 -0.2473 -0.2988 -0.3012
  907MPD2    C113281   1.160   1.434  15.152 -0.4670  0.2743  0.0929
  907MPD2    C213282   1.193   1.422  15.285 -0.8676  0.4702  0.2743
  907MPD2    C313283   1.219   1.535  15.363 -0.5396  0.1844 -0.3655
  907MPD2    C413284   1.203   1.661  15.308  0.2884  0.1573 -0.9281
  907MPD2    C513285   1.170   1.669  15.170 -0.4158  0.4491  0.5088
  907MPD2     H13286   1.211   1.329  15.337 -1.0593  0.8480  1.0279
  907MPD2    H113287   1.208   1.754  15.364  1.2526  0.2594 -1.1893
  907MPD2    H213288   1.131   1.580  14.984  1.9240  0.7964 -0.4266
  907MPD2    H313289   1.178   1.764  15.118 -1.3729 -0.7739 -1.8976
  907MPD2     N13290   1.264   1.508  15.493 -0.2833 -0.4031  0.0961
  907MPD2    H513291   1.278   1.408  15.509  0.1353 -0.1471  1.2782
  907MPD2    N113292   1.149   1.312  15.077 -1.0127 -0.3753  0.7807
  907MPD2    H713293   1.166   1.228  15.132 -1.5213 -0.6269  0.5437
  908MPD2     C13294   3.451   1.976  10.135 -0.4460 -0.5579 -0.8496
  908MPD2    C113295   3.565   1.946  10.206 -0.1041  0.2263  0.2616
  908MPD2    C213296   3.645   2.049  10.251 -0.2172 -0.2113  0.1061
  908MPD2    C313297   3.612   2.182  10.226 -0.2430  0.2731 -1.2056
  908MPD2    C413298   3.501   2.213  10.154 -0.7551  0.3673 -0.9173
  908MPD2    C513299   3.428   2.108  10.106 -1.1345  0.1407  0.2090
  908MPD2     H13300   3.735   2.035  10.309 -1.4458  1.1283  2.3756
  908MPD2    H113301   3.474   2.315  10.131 -1.2038  0.5574  0.4399
  908MPD2    H213302   3.387   1.896  10.100 -2.3277  0.3831  0.4373
  908MPD2    H313303   3.339   2.139  10.054 -1.2902 -1.7159 -0.6132
  908MPD2     N13304   3.716   2.269  10.262  1.1122  0.3773  0.2283
  908MPD2    H513305   3.790   2.220  10.311  2.0734 -0.6577 -2.2746
  908MPD2    N113306   3.599   1.811  10.237 -0.5095  0.4034  0.7239
  908MPD2    H713307   3.524   1.744  10.224 -0.7070  0.5319  1.2182
  909MPD2     C13308   4.077   4.574  11.428  0.2299 -0.5149 -0.5289
  909MPD2    C113309   4.114   4.704  11.443  0.0111 -0.1139  0.1972
  909MPD2    C213310   4.059   0.049  11.548 -0.0464  0.1501  0.0647
  909MPD2    C313311   3.970   4.721  11.639 -0.3841 -0.5116  0.5365
  909MPD2    C413312   3.930   4.590  11.620 -0.0354 -0.5139  0.3606
  909MPD2    C513313   3.991   4.515  11.522  0.6543 -0.6168  0.1816
  909MPD2     H13314   4.087   0.150  11.577 -1.5017  0.9390 -1.3219
  909MPD2    H113315   3.848   4.548  11.677  0.4418  0.2251  1.5905
  909MPD2    H213316   4.122   4.506  11.356  0.6944  0.0463 -0.7699
  909MPD2    H313317   3.966   4.411  11.506 -0.5132  0.0842 -2.6452
  909MPD2     N13318   3.928   0.086  11.738 -0.3230  0.3273 -0.0438
  909MPD2    H513319   3.969   0.178  11.740  0.2962  0.0877 -2.0795
  909MPD2    N113320   4.222   0.041  11.366  0.9151  0.3925  0.0915
  909MPD2    H713321   4.266   0.126  11.399 -0.3787  0.7157  0.9848
  910MPD2     C13322   0.548   2.294  15.460 -0.7972  0.8499 -0.1270
  910MPD2    C113323   0.474   2.183  15.433  0.2598 -0.1402  0.5889
  910MPD2    C213324   0.383   2.186  15.334  0.6793  0.5643  0.0998
  910MPD2    C313325   0.361   2.304  15.262  0.1457  0.6466  0.1673
  910MPD2    C413326   0.457   2.405  15.274  0.0191 -1.0605 -0.6733
  910MPD2    C513327   0.536   2.407  15.383  0.6790 -0.1003  0.0765
  910MPD2     H13328   0.339   2.092  15.304  4.1665 -0.5052 -1.6810
  910MPD2    H113329   0.454   2.492  15.210  2.3445 -0.9356 -0.6028
  910MPD2    H213330   0.622   2.302  15.538 -0.4994  1.0821 -0.4390
  910MPD2    H313331   0.595   2.496  15.401  0.9307 -0.6241  1.8374
  910MPD2     N13332   0.269   2.313  15.157 -0.3888  0.3309  0.2097
  910MPD2    H513333   0.286   2.387  15.089 -1.2559 -1.0483 -1.5046
  910MPD2    N113334   0.487   2.067  15.514  0.3591  0.7228 -0.8791
  910MPD2    H713335   0.423   1.990  15.497 -1.2404  1.4122  1.9887
  911MPD2     C13336   3.155   2.360  15.963 -0.4494  0.9334  0.0767
  911MPD2    C113337   3.140   2.415  16.083 -0.0633 -0.1229  0.0467
  911MPD2    C213338   3.034   2.504  16.106  0.5439  0.5765 -0.7880
  911MPD2    C313339   2.948   2.544  15.999  0.0800  0.7226 -0.4713
  911MPD2    C413340   2.974   2.485  15.876 -0.0515  0.2276  0.1289
  911MPD2    C513341   3.077   2.398  15.860 -0.6315 -1.0899  0.0281
  911MPD2     H13342   3.013   2.545  16.204  0.0305  1.9593 -1.4790
  911MPD2    H113343   2.906   2.506  15.793 -1.1941 -1.0076  0.7552
  911MPD2    H213344   3.229   2.281  15.949 -0.8523  0.3780  1.0562
  911MPD2    H313345   3.096   2.353  15.764 -0.0767 -0.8434  0.0258
  911MPD2     N13346   2.832   2.627  16.018 -0.0108  0.1902 -0.4719
  911MPD2    H513347   2.770   2.632  15.938 -0.0712 -1.3744 -0.5205
  911MPD2    N113348   3.231   2.376  16.185  0.3210 -0.0286  0.3557
  911MPD2    H713349   3.300   2.309  16.153 -0.5968 -0.9172  0.2415
  912MPD2     C13350   2.690   2.613  15.487 -0.4682 -0.4927 -0.5200
  912MPD2    C113351   2.646   2.571  15.612 -0.1677  0.6366 -0.0701
  912MPD2    C213352   2.658   2.439  15.640 -0.4721 -0.6765 -0.1189
  912MPD2    C313353   2.736   2.358  15.558  0.6436 -0.4352 -1.1988
  912MPD2    C413354   2.794   2.408  15.446 -0.7082 -0.2119 -0.3500
  912MPD2    C513355   2.769   2.537  15.408 -0.2759  0.5161 -0.2097
  912MPD2     H13356   2.623   2.387  15.729  0.5522  1.6233  1.6205
  912MPD2    H113357   2.859   2.351  15.380 -0.0765  0.5324 -0.3717
  912MPD2    H213358   2.674   2.710  15.441  0.5127 -0.2559 -0.3730
  912MPD2    H313359   2.798   2.583  15.314 -1.3927 -0.3155 -0.9578
  912MPD2     N13360   2.773   2.230  15.608  0.2156  0.3081  0.1366
  912MPD2    H513361   2.713   2.193  15.681 -1.0266  0.2245 -0.9316
  912MPD2    N113362   2.595   2.669  15.699  0.3799 -0.0557 -0.3784
  912MPD2    H713363   2.609   2.765  15.668  2.1267 -0.4494 -0.8017
  913MPD2     C13364   3.557   3.273  10.527 -0.7300  0.0303  0.1018
  913MPD2    C113365   3.620   3.383  10.584 -1.0650 -0.0572 -0.2780
  913MPD2    C213366   3.685   3.476  10.499 -0.0274 -0.6630 -0.0372
  913MPD2    C313367   3.686   3.452  10.363 -0.8570 -0.2654  1.0457
  913MPD2    C413368   3.631   3.334  10.308 -0.6193  0.1673 -0.1715
  913MPD2    C513369   3.572   3.243  10.394  1.3912 -0.1850  0.3965
  913MPD2     H13370   3.734   3.565  10.536  0.3100 -1.7271  2.0648
  913MPD2    H113371   3.639   3.313  10.202  1.5567  1.9137 -0.3469
  913MPD2    H213372   3.502   3.205  10.590  0.2968  0.2394  1.2118
  913MPD2    H313373   3.539   3.151  10.347  1.1827 -0.2582  0.6802
  913MPD2     N13374   3.757   3.533  10.276 -0.2853 -0.0958 -0.6044
  913MPD2    H513375   3.766   3.502  10.179 -0.7294 -0.6020 -0.4826
  913MPD2    N113376   3.590   3.402  10.717  0.1078 -0.1796  0.2156
  913MPD2    H713377   3.544   3.333  10.775  1.5340  0.1862  1.7828
  914MPD2     C13378   1.661   4.202  11.836  0.1178  0.3227 -0.0826
  914MPD2    C113379   1.730   4.265  11.936  0.5556 -0.5712 -0.5218
  914MPD2    C213380   1.723   4.213  12.061  0.4623 -0.0939  0.7217
  914MPD2    C313381   1.640   4.111  12.089 -0.0598 -0.4745 -0.5925
  914MPD2    C413382   1.556   4.059  11.997 -0.4054 -0.1439  0.0424
  914MPD2    C513383   1.568   4.103  11.870 -0.1070 -0.4388 -0.1241
  914MPD2     H13384   1.787   4.247  12.141 -0.6310  0.6659  1.2733
  914MPD2    H113385   1.475   3.991  12.020  1.4627 -2.2540  0.3864
  914MPD2    H213386   1.655   4.226  11.731  0.6071  1.1700  0.0818
  914MPD2    H313387   1.510   4.049  11.795 -3.2172  2.5238  0.1298
  914MPD2     N13388   1.635   4.074  12.223 -0.0901  0.3631 -0.3152
  914MPD2    H513389   1.693   4.128  12.286 -0.6353 -0.3640  0.8159
  914MPD2    N113390   1.809   4.379  11.907  0.1856  0.2206 -0.0758
  914MPD2    H713391   1.818   4.407  11.810  0.1792 -0.0531 -0.1554
  915MPD2     C13392   4.457   4.203  15.693 -0.0194 -0.0019 -0.2274
  915MPD2    C113393   4.333   4.199  15.628  0.1366 -0.2672 -0.9846
  915MPD2    C213394   4.223   4.238  15.705  0.1087 -0.4270 -0.4823
  915MPD2    C313395   4.232   4.285  15.831  0.0498  0.4306 -0.4800
  915MPD2    C413396   4.353   4.278  15.893  0.1206 -0.5776  0.0911
  915MPD2    C513397   4.462   4.243  15.820  0.5451  0.5254  0.1278
  915MPD2     H13398   4.119   4.227  15.676  0.3536  0.3148 -1.6201
  915MPD2    H113399   4.362   4.302  15.998 -2.9836 -0.2095  0.2892
  915MPD2    H213400   4.549   4.170  15.646  0.5017  0.7148  0.2924
  915MPD2    H313401   4.559   4.244  15.868  0.7336 -2.2794 -0.1817
  915MPD2     N13402   4.115   4.324  15.907  0.7131  0.1935 -0.5955
  915MPD2    H513403   4.025   4.305  15.864 -0.6054  0.1292  2.2009
  915MPD2    N113404   4.325   4.150  15.499 -0.0295 -0.2062 -0.7512
  915MPD2    H713405   4.411   4.124  15.451  0.2258 -1.0726  0.1911
  916MPD2     C13406   1.993   2.245  15.502  0.2084 -0.1738 -0.5311
  916MPD2    C113407   1.985   2.135  15.586 -0.0597 -0.0049  0.7506
  916MPD2    C213408   2.020   2.009  15.535 -0.1947 -0.6860  0.6400
  916MPD2    C313409   2.053   1.994  15.400 -0.2162  0.5949  0.0320
  916MPD2    C413410   2.062   2.109  15.322  0.1250  1.4092 -0.5442
  916MPD2    C513411   2.028   2.232  15.368  0.3078  0.3609  0.7514
  916MPD2     H13412   2.001   1.916  15.587 -0.2923 -1.9791 -1.7021
  916MPD2    H113413   2.085   2.103  15.216 -0.9540  0.1141 -0.7112
  916MPD2    H213414   1.973   2.345  15.538  1.9964 -0.4275  1.1292
  916MPD2    H313415   2.034   2.321  15.306  2.5240  0.0619  0.5146
  916MPD2     N13416   2.067   1.863  15.343 -0.0798  1.1393 -0.9566
  916MPD2    H513417   2.065   1.793  15.417 -1.9023  1.9062 -0.2727
  916MPD2    N113418   1.958   2.150  15.723 -0.5531  0.0944 -0.2934
  916MPD2    H713419   1.959   2.247  15.754  2.4377 -0.5804  1.7576
  917MPD2     C13420   2.544   4.425  10.836  0.3003 -0.2083  0.2733
  917MPD2    C113421   2.608   4.513  10.920  0.1078  0.0102  0.3619
  917MPD2    C213422   2.709   4.590  10.867 -0.3950  0.9146 -0.6685
  917MPD2    C313423   2.744   4.587  10.736  0.6535 -0.3413  0.5846
  917MPD2    C413424   2.686   4.497  10.650 -0.6522 -0.4623 -0.8020
  917MPD2    C513425   2.589   4.420  10.707 -0.2112  0.2337  0.4478
  917MPD2     H13426   2.758   4.668  10.925 -1.3314  2.1568 -1.5603
  917MPD2    H113427   2.711   4.477  10.547 -0.2708 -0.2876 -0.7443
  917MPD2    H213428   2.473   4.352  10.874 -0.6899  0.9667  0.6837
  917MPD2    H313429   2.538   4.354  10.637  3.0765 -2.6479  0.7356
  917MPD2     N13430   2.841   4.674  10.674  0.4686  0.0767  0.1037
  917MPD2    H513431   2.866   4.654  10.577 -0.6190 -1.4491  0.1399
  917MPD2    N113432   2.569   4.515  11.056 -0.2693 -0.3713  0.3312
  917MPD2    H713433   2.496   4.449  11.081 -0.6442  1.3115  3.6326
  918MPD2     C13434   2.754   0.296  11.984  0.3601  0.6312  0.1550
  918MPD2    C113435   2.778   0.161  12.006  0.0044 -1.0552 -0.5270
  918MPD2    C213436   2.720   0.064  11.921 -1.1770  0.0764 -0.0105
  918MPD2    C313437   2.643   0.113  11.820  0.5987 -0.2301 -0.5053
  918MPD2    C413438   2.624   0.250  11.798  0.7537  0.1100 -0.6321
  918MPD2    C513439   2.680   0.337  11.877  0.0512 -0.6990 -0.5286
  918MPD2     H13440   2.745   4.684  11.928 -0.7996  0.2929  2.0090
  918MPD2    H113441   2.560   0.286  11.718 -0.6132 -0.0067  0.4231
  918MPD2    H213442   2.795   0.370  12.052  1.3056  0.8636 -0.6766
  918MPD2    H313443   2.676   0.444  11.859  0.9641 -0.8410 -1.5919
  918MPD2     N13444   2.606   0.019  11.727 -0.0452 -0.3520 -0.6369
  918MPD2    H513445   2.622   4.646  11.749  0.8607 -0.0287  0.1812
  918MPD2    N113446   2.864   0.118  12.108 -0.4377  0.2075 -0.2477
  918MPD2    H713447   2.874   0.017  12.113 -1.2432  0.2328  1.6631
  919MPD2     C13448   3.173   3.971  11.361 -0.1575  0.6066 -0.3800
  919MPD2    C113449   3.172   3.833  11.356  0.2410 -0.0229 -0.2295
  919MPD2    C213450   3.151   3.775  11.229 -0.6574  0.2184 -0.9160
  919MPD2    C313451   3.146   3.850  11.112  0.5641  0.5215 -0.6305
  919MPD2    C413452   3.142   3.986  11.130 -0.3789 -0.1298  0.5486
  919MPD2    C513453   3.151   4.042  11.253 -0.0900  0.8455 -0.2297
  919MPD2     H13454   3.153   3.667  11.229 -0.9728  0.2085  0.6239
  919MPD2    H113455   3.137   4.057  11.048  0.5884  0.0684  0.6576
  919MPD2    H213456   3.195   4.024  11.453 -0.9891 -1.0009  0.7503
  919MPD2    H313457   3.168   4.149  11.254 -0.3224  0.8884 -2.2708
  919MPD2     N13458   3.129   3.800  10.982  0.0270 -0.2401 -0.4639
  919MPD2    H513459   3.103   3.861  10.906 -2.9721 -0.1174  0.6840
  919MPD2    N113460   3.198   3.747  11.467 -0.5345 -0.3401  0.3530
  919MPD2    H713461   3.207   3.650  11.439 -2.8824 -0.0201 -1.5496
  920MPD2     C13462   3.092   4.109  10.101 -0.0821 -0.4835 -0.0884
  920MPD2    C113463   3.015   3.997  10.092  0.3152  0.4569 -0.5060
  920MPD2    C213464   3.032   3.910  10.194  0.3520  0.5560  0.2161
  920MPD2    C313465   3.128   3.930  10.290  0.0791 -0.0683  0.0199
  920MPD2    C413466   3.201   4.045  10.300 -0.2212  0.2607 -0.6299
  920MPD2    C513467   3.186   4.137  10.197  0.3296  0.0748 -0.4307
  920MPD2     H13468   2.980   3.815  10.189  0.4853  0.4354  1.0875
  920MPD2    H113469   3.278   4.044  10.375 -0.8621  0.0680  0.0290
  920MPD2    H213470   3.092   4.190  10.028  1.0660  0.3222  0.8015
  920MPD2    H313471   3.252   4.220  10.175  1.1964 -0.4527  0.1907
  920MPD2     N13472   3.138   3.826  10.387  0.6736  0.5034 -0.2334
  920MPD2    H513473   3.079   3.745  10.374  0.4892  0.5516  0.2885
  920MPD2    N113474   2.920   3.977   9.989  0.2523 -0.1613  0.2738
  920MPD2    H713475   2.861   3.895   9.986  0.4475 -0.3080  0.4160
  921MPD2     C13476   3.871   2.604  16.974  0.3705 -0.2915  0.1009
  921MPD2    C113477   3.819   2.654  16.857 -0.0703 -0.4660  0.5498
  921MPD2    C213478   3.707   2.587  16.800 -1.2044 -0.3433  0.6952
  921MPD2    C313479   3.644   2.477  16.862  0.3634  0.2244  0.6624
  921MPD2    C413480   3.697   2.439  16.980  0.1566  0.2948  0.0661
  921MPD2    C513481   3.805   2.495  17.038  0.4852 -0.0696 -0.0218
  921MPD2     H13482   3.673   2.622  16.703  1.0418 -1.0534 -0.3555
  921MPD2    H113483   3.656   2.361  17.044  1.5993  0.7808  1.5767
  921MPD2    H213484   3.959   2.645  17.022 -1.0669  0.8016  1.7720
  921MPD2    H313485   3.834   2.458  17.135 -0.6582 -0.2499  0.2508
  921MPD2     N13486   3.541   2.405  16.799  0.0996 -0.0809 -0.3297
  921MPD2    H513487   3.505   2.321  16.845 -1.4020  0.8997  0.2863
  921MPD2    N113488   3.879   2.770  16.794 -0.0334  0.1467  0.0526
  921MPD2    H713489   3.965   2.804  16.835 -0.2484  1.3753 -0.5291
  922MPD2     C13490   0.057   0.008  17.477 -0.3671  0.9606 -1.1482
  922MPD2    C113491   0.040   0.120  17.398 -0.3396  0.1738 -0.5681
  922MPD2    C213492   4.641   0.126  17.331 -0.2812 -0.6607 -0.1155
  922MPD2    C313493   4.545   0.027  17.323  0.2443 -0.2130 -0.5683
  922MPD2    C413494   4.570   4.645  17.400 -0.9311  0.2860 -0.2844
  922MPD2    C513495   4.684   4.640  17.483 -0.1030  0.0749  1.1125
  922MPD2     H13496   4.647   0.210  17.262  0.5428  1.4402  2.5030
  922MPD2    H113497   4.506   4.559  17.409 -1.8434  0.7909 -1.9055
  922MPD2    H213498   0.137   4.721  17.549 -0.8904 -1.1286 -0.9240
  922MPD2    H313499   4.697   4.551  17.542 -1.6772 -1.1601 -0.3792
  922MPD2     N13500   4.422   0.050  17.258  0.0607  0.1032 -0.3293
  922MPD2    H513501   4.410   0.136  17.206  2.9800  2.9825  3.7913
  922MPD2    N113502   0.137   0.225  17.393  0.0620  0.3055  0.2222
  922MPD2    H713503   0.110   0.315  17.354  0.4028 -0.0029 -0.7079
  923MPD2     C13504   1.001   3.100   8.938 -0.3577 -0.1732 -0.0439
  923MPD2    C113505   0.914   3.067   9.040 -0.2909 -0.5706 -0.4123
  923MPD2    C213506   0.954   2.983   9.143  0.8835  0.1410  0.3114
  923MPD2    C313507   1.086   2.933   9.146 -0.2887  0.8465 -0.0987
  923MPD2    C413508   1.168   2.972   9.038 -0.2364 -0.5329  0.5003
  923MPD2    C513509   1.128   3.043   8.939  0.3717  0.1074  0.0537
  923MPD2     H13510   0.886   2.950   9.221 -0.5923 -0.4379 -1.2079
  923MPD2    H113511   1.268   2.931   9.029  0.2387  0.4718  1.2355
  923MPD2    H213512   0.974   3.163   8.855  1.8888  2.2855  1.0891
  923MPD2    H313513   1.198   3.068   8.861  0.8331  2.0315  1.1039
  923MPD2     N13514   1.139   2.839   9.237 -0.0829 -0.2961  0.1090
  923MPD2    H513515   1.238   2.814   9.228 -0.1082 -0.2009 -0.4183
  923MPD2    N113516   0.787   3.121   9.020 -0.2131  0.3991 -0.7994
  923MPD2    H713517   0.759   3.178   8.940 -0.5887 -0.5937 -1.3788
  924MPD2     C13518   1.469   0.786  15.625 -0.8576 -0.9658  0.2432
  924MPD2    C113519   1.424   0.850  15.741 -0.1753  0.2038  0.3949
  924MPD2    C213520   1.455   0.988  15.767 -0.5129  0.7457 -0.6278
  924MPD2    C313521   1.534   1.052  15.672  0.7255  0.2762  0.3214
  924MPD2    C413522   1.581   0.992  15.561 -0.4766 -0.1275  0.2461
  924MPD2    C513523   1.553   0.858  15.543 -0.6429  0.6856  0.3534
  924MPD2     H13524   1.409   1.047  15.846 -1.7575  0.0011 -0.7966
  924MPD2    H113525   1.649   1.047  15.496  1.7703 -2.4737  0.6070
  924MPD2    H213526   1.445   0.684  15.597  1.1297 -0.3203 -3.8459
  924MPD2    H313527   1.598   0.797  15.466 -0.3654 -1.1091  1.9185
  924MPD2     N13528   1.569   1.191  15.677 -0.2735 -0.0524  0.3603
  924MPD2    H513529   1.609   1.237  15.596 -1.0433  0.5981  0.3485
  924MPD2    N113530   1.348   0.776  15.836 -0.0159  0.3639  0.1944
  924MPD2    H713531   1.311   0.689  15.800  2.0740 -0.4897  0.0913
  925MPD2     C13532   3.988   3.249  14.856 -0.4651 -0.3638  0.0231
  925MPD2    C113533   4.123   3.240  14.840 -0.6572  0.3384 -0.3298
  925MPD2    C213534   4.205   3.240  14.954  0.2350  0.6488  0.4394
  925MPD2    C313535   4.155   3.253  15.083 -0.1635 -0.7370  0.2265
  925MPD2    C413536   4.019   3.270  15.094  0.3398 -0.7477  0.1457
  925MPD2    C513537   3.944   3.264  14.981 -0.1308 -0.1723 -0.0258
  925MPD2     H13538   4.311   3.239  14.930 -0.1803 -2.8362 -1.2879
  925MPD2    H113539   3.975   3.277  15.192  1.4195 -2.7696  0.7738
  925MPD2    H213540   3.915   3.255  14.776 -1.5504 -1.1899  0.9510
  925MPD2    H313541   3.838   3.289  14.987 -0.0676 -0.3989  1.9433
  925MPD2     N13542   4.228   3.255  15.202  0.4109 -0.1547 -0.1796
  925MPD2    H513543   4.182   3.290  15.286 -1.4803  1.1073 -1.7395
  925MPD2    N113544   4.166   3.245  14.708 -0.0587 -0.2702  0.1309
  925MPD2    H713545   4.093   3.255  14.638  1.4399  1.2265 -1.2090
  926MPD2     C13546   3.381   1.536  13.485 -0.2200 -0.7079 -0.4098
  926MPD2    C113547   3.383   1.669  13.481  0.0115  0.5208 -0.4383
  926MPD2    C213548   3.487   1.729  13.418  0.3931  0.0089 -0.1196
  926MPD2    C313549   3.594   1.650  13.375 -0.4883  0.1667 -0.3611
  926MPD2    C413550   3.589   1.513  13.376 -0.2006 -0.8186 -0.0587
  926MPD2    C513551   3.480   1.457  13.438 -0.0378  0.9180  0.0641
  926MPD2     H13552   3.487   1.837  13.417 -0.8876 -0.0148 -2.1915
  926MPD2    H113553   3.669   1.448  13.343 -0.0733 -0.6502 -0.0770
  926MPD2    H213554   3.300   1.487  13.538 -0.1565 -0.3333  0.0358
  926MPD2    H313555   3.477   1.351  13.461 -0.4250  0.9344  0.0862
  926MPD2     N13556   3.710   1.715  13.323 -0.1064 -0.0014  0.3419
  926MPD2    H513557   3.788   1.654  13.301  0.0949  1.4291 -2.8661
  926MPD2    N113558   3.290   1.750  13.546  0.4972 -0.4704 -0.1654
  926MPD2    H713559   3.312   1.850  13.548 -1.6599  0.0544 -2.8235
  927MPD2     C13560   2.761   3.558  17.591 -0.3062 -0.0415  0.2952
  927MPD2    C113561   2.852   3.472  17.648 -0.1691  0.6578  0.3241
  927MPD2    C213562   2.985   3.508  17.633  0.0849 -0.3553  0.5900
  927MPD2    C313563   3.025   3.607  17.546 -0.1879 -0.8495  0.0985
  927MPD2    C413564   2.936   3.692  17.482 -0.2693 -0.7719 -0.5982
  927MPD2    C513565   2.800   3.663  17.513 -0.0289 -0.6870  0.2931
  927MPD2     H13566   3.061   3.454  17.688  0.0179 -2.3184 -1.2331
  927MPD2    H113567   2.952   3.782  17.424  2.6224 -0.0854  1.2759
  927MPD2    H213568   2.656   3.547  17.615 -0.4957  0.5988 -0.2255
  927MPD2    H313569   2.726   3.726  17.465 -1.2336 -0.3803  2.5412
  927MPD2     N13570   3.162   3.621  17.526  0.6425  0.5118 -0.5306
  927MPD2    H513571   3.229   3.549  17.550  0.6341  0.4410 -0.7151
  927MPD2    N113572   2.802   3.374   0.040  0.0095  0.5740 -0.4107
  927MPD2    H713573   2.702   3.362   0.051  0.2412  0.2003  1.2470
  928MPD2     C13574   1.135   1.791   0.779 -0.2157  0.6448  0.0438
  928MPD2    C113575   1.090   1.795   0.651  0.9913 -0.5737  0.3421
  928MPD2    C213576   1.150   1.873   0.552  0.5140  0.0074  0.4647
  928MPD2    C313577   1.249   1.952   0.594 -0.6590  0.4445  1.3516
  928MPD2    C413578   1.288   1.961   0.723  0.3893 -0.3288  0.0678
  928MPD2    C513579   1.233   1.880   0.813  0.0187  0.2681  0.4051
  928MPD2     H13580   1.120   1.867   0.448 -0.2369  2.5281  0.5376
  928MPD2    H113581   1.368   2.030   0.750 -0.2093 -0.6858  2.7063
  928MPD2    H213582   1.088   1.731   0.856 -1.2055 -2.4328 -3.0126
  928MPD2    H313583   1.267   1.891   0.915 -0.6522 -0.2302  0.6821
  928MPD2     N13584   1.315   2.033   0.504 -0.2169  0.4004  0.0135
  928MPD2    H513585   1.367   2.106   0.550 -0.3682  0.1174  0.6407
  928MPD2    N113586   0.981   1.707   0.620 -0.0791  0.2139 -0.7552
  928MPD2    H713587   0.953   1.646   0.696 -1.2718 -2.2195 -3.1381
  929MPD2     C13588   1.272   2.648   9.844  0.0753 -0.4781  0.0289
  929MPD2    C113589   1.201   2.532   9.847  0.6741  0.0797  0.1359
  929MPD2    C213590   1.072   2.534   9.797 -0.2738  0.2373  0.5135
  929MPD2    C313591   1.011   2.649   9.748 -0.3003 -0.8728 -0.7391
  929MPD2    C413592   1.089   2.765   9.749  1.0925 -0.5700 -0.0871
  929MPD2    C513593   1.219   2.760   9.794  0.4341  0.8232 -0.3793
  929MPD2     H13594   1.015   2.442   9.785  0.3748 -0.2153  0.9277
  929MPD2    H113595   1.049   2.859   9.711  1.0029 -0.8206 -0.6105
  929MPD2    H213596   1.373   2.657   9.883 -0.5772  2.3782  1.0586
  929MPD2    H313597   1.281   2.849   9.801  1.5200 -0.0419  1.1515
  929MPD2     N13598   0.878   2.663   9.700  0.2129 -0.4849 -0.2126
  929MPD2    H513599   0.835   2.754   9.688  0.8635  0.0900  1.8240
  929MPD2    N113600   1.271   2.411   9.886 -0.1073  0.2013 -0.7715
  929MPD2    H713601   1.368   2.426   9.910 -0.5203 -2.2140  2.4399
  930MPD2     C13602   3.379   4.632  14.350 -0.2708 -0.4143 -0.3530
  930MPD2    C113603   3.284   0.001  14.314  0.2588 -0.1893  0.1745
  930MPD2    C213604   3.164   4.685  14.265  0.4589 -0.7637 -0.9784
  930MPD2    C313605   3.137   4.545  14.250 -0.2356  0.2148  0.2026
  930MPD2    C413606   3.232   4.454  14.276  0.8449  0.2183  0.3983
  930MPD2    C513607   3.354   4.495  14.338 -0.2554  0.2061  0.6205
  930MPD2     H13608   3.090   0.036  14.243  0.4903  0.2362  2.4130
  930MPD2    H113609   3.215   4.348  14.261  1.6358 -0.1435  2.0856
  930MPD2    H213610   3.469   4.672  14.395 -0.0872  0.4542 -1.4839
  930MPD2    H313611   3.420   4.414  14.365  0.7558 -0.1116 -2.7698
  930MPD2     N13612   3.022   4.495  14.182 -0.1441  0.1906  0.1192
  930MPD2    H513613   3.012   4.394  14.185 -2.0960  0.3330 -1.3027
  930MPD2    N113614   3.325   0.139  14.326 -0.1843  0.2777 -0.1115
  930MPD2    H713615   3.413   0.148  14.376  0.2799  1.0656 -1.0616
  931MPD2     C13616   3.244   3.038   0.591  0.8108  0.0231 -0.2183
  931MPD2    C113617   3.111   2.995   0.593  0.1097 -0.0313  0.3365
  931MPD2    C213618   3.074   2.890   0.678 -0.6265 -0.9553  0.1328
  931MPD2    C313619   3.168   2.825   0.752 -0.1275  0.3986  0.3455
  931MPD2    C413620   3.299   2.856   0.734 -0.2999 -0.3298  0.2012
  931MPD2    C513621   3.334   2.965   0.662  0.0991 -0.2257  0.4179
  931MPD2     H13622   2.969   2.867   0.685 -0.6953 -0.6876 -0.0299
  931MPD2    H113623   3.370   2.800   0.794 -1.4935 -0.1139  1.8120
  931MPD2    H213624   3.275   3.117   0.523  0.3233  1.1238  0.8435
  931MPD2    H313625   3.440   2.980   0.643  0.7678  0.1202  4.4476
  931MPD2     N13626   3.132   2.722   0.845 -0.3027  0.1867  0.6389
  931MPD2    H513627   3.205   2.668   0.890 -2.2947 -3.2776 -0.3543
  931MPD2    N113628   3.019   3.047   0.500 -0.2537  0.3046  0.4163
  931MPD2    H713629   3.063   3.116   0.440  0.6342 -0.3252  0.3490
  932MPD2     C13630   0.654   3.044  11.308  0.7587 -0.2590  0.3918
  932MPD2    C113631   0.561   3.053  11.214  0.4540 -0.6452 -0.1459
  932MPD2    C213632   0.537   2.945  11.133 -0.0164 -0.5446  0.0153
  932MPD2    C313633   0.599   2.827  11.159  1.0207  0.4590 -0.0128
  932MPD2    C413634   0.693   2.818  11.255  0.3329 -0.1943 -0.7006
  932MPD2    C513635   0.723   2.928  11.329 -0.1073  0.3718  0.2053
  932MPD2     H13636   0.460   2.952  11.057  1.7413  0.6240 -1.6655
  932MPD2    H113637   0.736   2.724  11.287  0.9554  0.2520 -0.2335
  932MPD2    H213638   0.686   3.119  11.379 -0.7723  0.7339  0.0098
  932MPD2    H313639   0.799   2.921  11.405  2.7867 -0.1119 -2.7093
  932MPD2     N13640   0.564   2.711  11.088 -0.0566  0.3360 -0.0163
  932MPD2    H513641   0.609   2.627  11.125 -1.7461 -0.2140  0.7968
  932MPD2    N113642   0.486   3.170  11.184 -0.9314  0.2321 -0.3465
  932MPD2    H713643   0.420   3.166  11.106 -0.0954  0.9010 -1.0856
  933MPD2     C13644   0.108   1.506   0.667  0.2233  0.2383  0.6947
  933MPD2    C113645   0.197   1.592   0.614 -0.6636  0.5474  0.0654
  933MPD2    C213646   0.157   1.713   0.572  0.3052 -0.2888  1.0513
  933MPD2    C313647   0.028   1.758   0.585 -0.3303 -0.2752 -0.7181
  933MPD2    C413648   4.661   1.661   0.633 -0.0342  0.2922  0.0996
  933MPD2    C513649   4.704   1.535   0.668 -0.3396  0.5479 -0.3659
  933MPD2     H13650   0.228   1.794   0.556 -0.7134  0.7687  1.8879
  933MPD2    H113651   4.554   1.675   0.642 -0.2165  0.1091 -1.8356
  933MPD2    H213652   0.131   1.405   0.701  0.2802  0.0393  0.0714
  933MPD2    H313653   4.637   1.459   0.706 -3.8998  3.3929 -0.9322
  933MPD2     N13654   4.723   1.886   0.544  0.7194  0.0463 -0.1955
  933MPD2    H513655   0.072   1.929   0.490  1.2077  0.2195  0.6168
  933MPD2    N113656   0.337   1.560   0.602 -0.1464 -0.4798  0.4328
  933MPD2    H713657   0.355   1.466   0.635  1.0497 -0.0264  1.0862
  934MPD2     C13658   2.179   4.520   1.976 -0.2545 -0.0423  0.0094
  934MPD2    C113659   2.257   4.474   1.870 -0.2007 -0.6189  0.1444
  934MPD2    C213660   2.196   4.390   1.779 -0.3525 -0.3719  0.5293
  934MPD2    C313661   2.064   4.336   1.793 -0.4559  0.7907 -0.8193
  934MPD2    C413662   1.988   4.382   1.906  0.3572 -0.2441 -0.1066
  934MPD2    C513663   2.048   4.472   1.994 -0.0104 -0.2004 -0.0774
  934MPD2     H13664   2.255   4.365   1.691  2.4621 -0.8324  2.5328
  934MPD2    H113665   1.883   4.358   1.917  0.8157 -2.4071 -0.4819
  934MPD2    H213666   2.210   4.580   2.060  0.3650 -0.7296  0.2767
  934MPD2    H313667   1.984   4.502   2.075 -1.1299  2.2969 -1.8847
  934MPD2     N13668   2.003   4.248   1.698 -0.3247  0.1885 -0.5786
  934MPD2    H513669   1.904   4.229   1.711  0.1585 -1.1292  1.0190
  934MPD2    N113670   2.396   4.481   1.879  0.2285 -0.3516  0.3736
  934MPD2    H713671   2.435   4.426   1.803  0.6105  1.8073 -1.0319
  935MPD2     C13672   2.315   3.411   1.207 -0.1438  0.2971  0.2553
  935MPD2    C113673   2.173   3.412   1.194 -0.0359 -0.4640 -0.2622
  935MPD2    C213674   2.105   3.519   1.244 -0.0278  0.0953  0.1899
  935MPD2    C313675   2.170   3.625   1.309  0.4107 -0.0428  0.0885
  935MPD2    C413676   2.306   3.620   1.319  0.1893  0.1511 -0.4539
  935MPD2    C513677   2.382   3.521   1.260  0.3246 -0.5438  1.1992
  935MPD2     H13678   1.998   3.533   1.229  0.5833  2.9067 -1.6580
  935MPD2    H113679   2.350   3.714   1.349 -1.9296  1.9059 -2.8567
  935MPD2    H213680   2.374   3.325   1.180 -1.5445 -0.4280 -0.5201
  935MPD2    H313681   2.490   3.521   1.272  0.2414  1.2900  1.9769
  935MPD2     N13682   2.107   3.737   1.360  0.9227  0.4307  0.1916
  935MPD2    H513683   2.170   3.806   1.401 -0.2750  2.2936 -1.0975
  935MPD2    N113684   2.105   3.302   1.132 -0.1004  0.1286 -0.7535
  935MPD2    H713685   2.005   3.312   1.140 -0.0852 -0.4056  0.1393
  936MPD2     C13686   0.845   1.169  12.318  0.1953  0.2894  0.1258
  936MPD2    C113687   0.898   1.129  12.437 -0.4371  0.5045  0.7521
  936MPD2    C213688   1.034   1.130  12.461 -0.3814 -0.0986  0.5470
  936MPD2    C313689   1.119   1.173  12.360  0.2245  0.0465  0.1084
  936MPD2    C413690   1.067   1.225  12.240 -0.0569  0.0702 -0.1541
  936MPD2    C513691   0.930   1.216  12.222 -0.7308  0.6609  0.0902
  936MPD2     H13692   1.084   1.105  12.554  1.2512  0.6566 -0.1368
  936MPD2    H113693   1.131   1.267  12.164  0.3310 -1.8242 -0.8793
  936MPD2    H213694   0.740   1.152  12.298  0.6963 -1.8285 -0.7189
  936MPD2    H313695   0.874   1.247  12.135  0.1878  1.0140 -0.3703
  936MPD2     N13696   1.261   1.157  12.382 -0.2299  0.6575  0.2301
  936MPD2    H513697   1.320   1.206  12.315 -1.9467  1.8203 -0.4512
  936MPD2    N113698   0.824   1.069  12.546  0.2255  0.6981 -1.0623
  936MPD2    H713699   0.885   1.063  12.627  1.1613 -1.1469 -1.9097
  937MPD2     C13700   3.593   3.172  11.433 -0.2697 -0.1303 -0.8595
  937MPD2    C113701   3.615   3.305  11.446 -0.1606 -0.3484 -0.0098
  937MPD2    C213702   3.691   3.366  11.347 -0.4557  0.1983 -0.0337
  937MPD2    C313703   3.760   3.299  11.251 -0.1976 -0.0661  0.3255
  937MPD2    C413704   3.749   3.164  11.251  0.3137 -0.3228  0.9325
  937MPD2    C513705   3.663   3.100  11.335 -0.4441 -0.0967  0.6393
  937MPD2     H13706   3.695   3.474  11.355  2.1716  0.0147  1.0741
  937MPD2    H113707   3.803   3.097  11.184 -4.0598 -2.4397 -0.4616
  937MPD2    H213708   3.535   3.120  11.508 -0.6156 -0.2662 -1.2182
  937MPD2    H313709   3.660   2.992  11.335 -0.8530 -0.0704 -1.1246
  937MPD2     N13710   3.843   3.366  11.160 -0.0897 -0.7375  0.3099
  937MPD2    H513711   3.850   3.466  11.174  1.7697 -0.8646  0.2312
  937MPD2    N113712   3.531   3.388  11.527 -0.1430  0.9659  0.0450
  937MPD2    H713713   3.542   3.488  11.515  0.7950  0.8629  0.0892
  938MPD2     C13714   0.776   3.941   0.681 -0.6993  0.1521  0.2673
  938MPD2    C113715   0.816   3.833   0.755 -0.4903  0.1903 -0.2379
  938MPD2    C213716   0.725   3.732   0.776 -0.0792  0.0930  0.3529
  938MPD2    C313717   0.591   3.741   0.740  0.0897 -0.8421 -0.3508
  938MPD2    C413718   0.554   3.845   0.652 -0.3764  0.1054 -0.1662
  938MPD2    C513719   0.647   3.939   0.629 -0.5130  0.1299  0.1857
  938MPD2     H13720   0.768   3.651   0.835  0.1573 -0.0141  0.0318
  938MPD2    H113721   0.453   3.850   0.613 -0.3319 -0.2458 -0.3215
  938MPD2    H213722   0.843   4.025   0.663 -0.3653  0.0794  1.1748
  938MPD2    H313723   0.614   4.025   0.572 -1.9986  0.3548  1.3808
  938MPD2     N13724   0.487   3.643   0.767  0.4059 -0.2332 -0.1142
  938MPD2    H513725   0.409   3.652   0.703  0.5104 -0.9292 -0.3401
  938MPD2    N113726   0.950   3.806   0.804 -0.5733 -0.2188  0.2454
  938MPD2    H713727   0.970   3.712   0.837  0.8017 -0.4475 -1.2278
  939MPD2     C13728   2.956   0.934   1.108 -0.1472  0.4684  0.4972
  939MPD2    C113729   2.865   0.837   1.158  0.3283 -0.8709 -0.0797
  939MPD2    C213730   2.856   0.726   1.084  0.4449  0.5207  0.0751
  939MPD2    C313731   2.922   0.711   0.964 -0.0064 -0.3488 -0.6533
  939MPD2    C413732   3.005   0.813   0.914 -0.2459  0.2490  0.1277
  939MPD2    C513733   3.022   0.925   0.991 -0.5449 -0.5890 -0.1055
  939MPD2     H13734   2.785   0.648   1.109  0.5187 -0.5736 -3.1791
  939MPD2    H113735   3.057   0.798   0.820 -0.2917 -1.1789  0.3393
  939MPD2    H213736   2.970   1.024   1.167 -1.4980  0.6323  0.5755
  939MPD2    H313737   3.089   1.001   0.951  0.4735 -0.9275  0.9534
  939MPD2     N13738   2.909   0.578   0.902  0.4149 -0.3644 -0.6079
  939MPD2    H513739   2.849   0.510   0.946 -0.6704  1.3417  0.5453
  939MPD2    N113740   2.802   0.861   1.285  0.2941 -0.1318 -0.2208
  939MPD2    H713741   2.832   0.933   1.349 -0.0560 -0.0793 -0.1124
  940MPD2     C13742   1.894   1.601  12.867  0.8009  0.1469 -0.7357
  940MPD2    C113743   1.845   1.483  12.924  0.5753 -0.4328  0.8899
  940MPD2    C213744   1.860   1.367  12.858  0.5271  0.2849  1.3650
  940MPD2    C313745   1.898   1.366  12.723  0.2229  0.4894  0.1400
  940MPD2    C413746   1.951   1.482  12.672  0.0504  0.2010 -0.4559
  940MPD2    C513747   1.963   1.594  12.753  0.5513  0.0321  0.3740
  940MPD2     H13748   1.815   1.282  12.908  1.2452  0.3433  2.1019
  940MPD2    H113749   1.993   1.476  12.572  0.5413 -0.2775 -0.2215
  940MPD2    H213750   1.899   1.688  12.932 -1.4295  0.5039 -1.0448
  940MPD2    H313751   2.008   1.684  12.713 -0.1827 -0.4227 -1.4709
  940MPD2     N13752   1.890   1.249  12.643  0.1554  0.3494 -0.1595
  940MPD2    H513753   1.935   1.248  12.552  0.8309 -0.7996  0.1906
  940MPD2    N113754   1.775   1.481  13.048  0.2355 -0.5479  0.5931
  940MPD2    H713755   1.719   1.396  13.054 -1.3609  0.4346 -0.1954
  941MPD2     C13756   0.645   0.463   9.279 -0.3915  0.3015  0.3617
  941MPD2    C113757   0.631   0.467   9.421 -0.3346 -0.5532 -0.6367
  941MPD2    C213758   0.530   0.392   9.484  0.2406 -0.0497  0.5237
  941MPD2    C313759   0.453   0.303   9.414  0.0151  0.3705  0.3066
  941MPD2    C413760   0.483   0.288   9.280  0.5996 -0.5249  0.0482
  941MPD2    C513761   0.567   0.369   9.214  0.2215 -0.1039 -0.4806
  941MPD2     H13762   0.518   0.418   9.589 -0.8224 -0.8623  0.6069
  941MPD2    H113763   0.430   0.221   9.213 -0.2142  0.4132 -0.2566
  941MPD2    H213764   0.703   0.526   9.212  1.4454 -0.0541  1.5994
  941MPD2    H313765   0.594   0.354   9.110  1.0458 -0.3131 -0.2391
  941MPD2     N13766   0.338   0.231   9.461  0.2158 -0.8390  0.0677
  941MPD2    H513767   0.296   0.164   9.397 -0.2339 -0.9031  0.4256
  941MPD2    N113768   0.688   0.561   9.501  0.3721 -0.2857  0.5016
  941MPD2    H713769   0.675   0.561   9.602 -0.2484 -2.2788  0.4075
  942MPD2     C13770   0.541   2.220   9.453  0.8854  0.5086 -0.4813
  942MPD2    C113771   0.488   2.331   9.384 -0.3217  0.0631  0.1161
  942MPD2    C213772   0.581   2.405   9.312 -0.0655 -0.2308 -0.1891
  942MPD2    C313773   0.716   2.376   9.305 -0.1553  0.0662 -0.6714
  942MPD2    C413774   0.758   2.265   9.366  0.3482  0.0246 -0.1556
  942MPD2    C513775   0.676   2.186   9.441  1.0602  0.7590 -0.0159
  942MPD2     H13776   0.548   2.500   9.273 -0.9104  0.0151  1.1407
  942MPD2    H113777   0.861   2.231   9.363 -0.7620 -3.5327  1.1117
  942MPD2    H213778   0.484   2.166   9.528  1.8556 -1.6518 -1.3098
  942MPD2    H313779   0.721   2.113   9.508 -1.1543 -0.8519 -0.2740
  942MPD2     N13780   0.812   2.461   9.246  0.1147  0.1474 -0.1911
  942MPD2    H513781   0.907   2.436   9.271  0.5703  0.5515 -1.5219
  942MPD2    N113782   0.361   2.383   9.414  0.0824 -0.2938  0.6601
  942MPD2    H713783   0.326   2.462   9.362  3.9637 -0.2243 -1.8103
  943MPD2     C13784   2.919   4.693   9.590  0.3478 -0.0386 -0.9211
  943MPD2    C113785   3.022   0.064   9.581  0.5687  0.0807  0.0469
  943MPD2    C213786   3.000   0.175   9.501 -0.0003  0.2286 -0.0857
  943MPD2    C313787   2.879   0.208   9.444  0.5199  0.0443  0.3895
  943MPD2    C413788   2.781   0.119   9.465  0.1018  0.9032  0.9104
  943MPD2    C513789   2.800   0.007   9.540 -0.5360 -0.2137  0.4399
  943MPD2     H13790   3.080   0.248   9.498  0.1342  0.0835 -0.0472
  943MPD2    H113791   2.684   0.133   9.421  1.1566 -1.6040 -2.2188
  943MPD2    H213792   2.944   4.595   9.629  0.7570  0.3845 -0.1350
  943MPD2    H313793   2.719   4.661   9.553  0.2916 -1.6326 -2.1961
  943MPD2     N13794   2.849   0.325   9.367 -0.0221 -0.5794  0.3801
  943MPD2    H513795   2.755   0.340   9.332 -0.6879 -0.2969  2.2794
  943MPD2    N113796   3.155   0.047   9.624  0.1146  0.0515 -0.7363
  943MPD2    H713797   3.220   0.117   9.591 -1.3523  1.6719 -0.1956
  944MPD2     C13798   4.262   0.483  10.792 -0.1765 -0.1724 -0.3393
  944MPD2    C113799   4.239   0.351  10.753  0.2862  0.3300  0.6248
  944MPD2    C213800   4.173   0.259  10.825  0.2732  0.7610 -0.7025
  944MPD2    C313801   4.123   0.300  10.951  0.1572 -0.0077 -1.1328
  944MPD2    C413802   4.136   0.435  10.985 -0.7118  0.2437 -0.4498
  944MPD2    C513803   4.200   0.525  10.910  0.7670  0.3443 -0.1510
  944MPD2     H13804   4.166   0.154  10.799  1.0745  0.5977 -0.2805
  944MPD2    H113805   4.100   0.475  11.079  1.4969 -1.4714  1.1088
  944MPD2    H213806   4.319   0.552  10.731  0.5463 -0.8105 -0.3754
  944MPD2    H313807   4.211   0.627  10.944 -3.1329  0.7221 -0.0229
  944MPD2     N13808   4.050   0.205  11.021 -0.0199  0.0146  0.1898
  944MPD2    H513809   4.028   0.116  10.977  0.7460  0.9192 -2.0013
  944MPD2    N113810   4.289   0.321  10.622 -0.0257 -0.3740 -0.0246
  944MPD2    H713811   4.349   0.388  10.575 -0.9958 -1.0239 -2.2131
    1TCq1    O113812   2.236   0.399  13.840 -0.5385  0.3268  0.6300
    1TCq1    C113813   2.114   0.447  13.816 -0.1247 -0.2095 -0.4575
    1TCq1    O213814   2.085   0.519  13.719 -0.4811  0.0085  0.0406
    1TCq1    C213815   2.070   0.474  13.947 -0.0136 -0.2103 -0.1421
    1TCq1    C313816   1.943   0.438  13.982 -0.4247 -0.1170 -0.1470
    1TCq1    C413817   1.897   0.462  14.111 -0.0607  0.6385 -0.9017
    1TCq1    C513818   1.992   0.497  14.205  0.1694  0.2161  0.2466
    1TCq1    C613819   2.123   0.510  14.169 -0.1904  0.0145 -0.2660
    1TCq1    C713820   2.166   0.502  14.040  0.2796 -0.1367  0.0509
    1TCq1    C813821   2.218   0.580  14.256  0.5775  0.2195 -0.5836
    1TCq1    O413822   2.334   0.554  14.242  0.4458 -0.7620  0.1804
    1TCq1    C913823   1.760   0.445  14.148  0.0669  1.0138 -0.2075
    1TCq1    O513824   1.682   0.425  14.049 -0.1363  0.2475 -0.0180
    1TCq1    O613825   1.730   0.432  14.268 -0.1576  0.0590  0.2939
    1TCq1    H113826   2.228   0.340  13.918  0.5184 -0.0026  0.4895
    1TCq1    H213827   1.875   0.411  13.901 -2.7134  1.7714  1.1563
    1TCq1    H313828   1.971   0.499  14.311  2.6311 -1.2762  0.7458
    1TCq1    H413829   2.266   0.535  14.013  0.2646  0.4197  0.6684
    2MPD2     C13830   2.297   0.771  14.724 -0.0210  0.6015 -0.1833
    2MPD2    C113831   2.171   0.808  14.682 -0.7801 -0.6879 -0.5534
    2MPD2    C213832   2.120   0.761  14.563  0.0708  0.3574  0.1725
    2MPD2    C313833   2.205   0.688  14.481 -0.1743  0.0505  0.7583
    2MPD2    C413834   2.335   0.662  14.518 -0.3676  0.5587  0.3220
    2MPD2    C513835   2.375   0.711  14.638 -0.2265  0.2731  0.2929
    2MPD2     H13836   2.018   0.781  14.532  0.3737  0.1093 -1.0077
    2MPD2    H113837   2.411   0.604  14.467 -0.7078  0.1023  0.3366
    2MPD2    H213838   2.332   0.814  14.817 -0.7585  0.5055  0.1424
    2MPD2    H313839   2.479   0.700  14.665 -0.6663  2.1920  2.7285
    2MPD2     N13840   2.151   0.644  14.357  0.4968 -0.0170  0.3680
    2MPD2    H513841   2.051   0.663  14.358  0.5521  0.2770  0.1412
    2MPD2    N113842   2.097   0.892  14.770  0.0150 -0.1773  0.1646
    2MPD2    H713843   2.143   0.927  14.854 -1.2071  2.8603 -0.4082
    3TMC2    C113844   1.934   1.028  14.860 -0.0428 -0.1125  0.1641
    3TMC2    C213845   1.977   0.999  14.987 -0.3904 -0.0343  0.3553
    3TMC2    C313846   1.945   1.091  15.079 -0.2812  0.1365 -0.4628
    3TMC2    C413847   1.861   1.140  14.828  0.0527 -0.1328  0.4477
    3TMC2    C513848   1.829   1.230  14.926 -0.2595 -0.1167  0.1111
    3TMC2    C613849   1.873   1.202  15.051  0.2841 -0.2480  0.2383
    3TMC2     C13850   1.968   0.944  14.748  0.8536 -0.1895  0.1987
    3TMC2     O13851   1.901   0.940  14.647 -0.7900 -0.3718  0.6100
    3TMC2     H13852   2.032   0.910  15.017 -0.8572 -0.2559  0.5477
    3TMC2    H113853   1.838   1.168  14.726 -0.0109 -1.8324 -0.0030
    3TMC2    H213854   1.866   1.276  15.130 -0.3864  0.8793 -0.8777
    3TMC2    C713855   1.800   1.371  14.904 -0.1497  0.2422 -0.4667
    3TMC2    C813856   2.029   1.102  15.196  0.0180  0.2939 -0.0285
    3TMC2    O113857   1.846   1.451  14.983 -0.1085 -0.3997 -0.3547
    3TMC2    O213858   1.992   1.156  15.300  0.6235  0.0978  0.1870
    3TMC2    O513859   2.152   1.118  15.148 -0.2095 -0.2305  0.5496
    3TMC2    H513860   2.159   1.106  15.050  0.0427 -0.1438  0.5572
    4MPD2     C13861   0.812   1.853  14.232  0.7951 -0.3983  0.6997
    4MPD2    C113862   0.851   1.781  14.126  0.4747  0.4173  0.4370
    4MPD2    C213863   0.984   1.739  14.118 -0.3024  0.2019  0.8159
    4MPD2    C313864   1.079   1.787  14.207 -0.7772  0.2223  0.1849
    4MPD2    C413865   1.033   1.862  14.313  0.6978  0.7521  0.2733
    4MPD2    C513866   0.900   1.894  14.330  0.0202  0.7328 -0.1310
    4MPD2     H13867   1.011   1.670  14.039 -0.2256  0.8479  0.2816
    4MPD2    H113868   1.102   1.892  14.391  0.9027  0.0590  0.3524
    4MPD2    H213869   0.708   1.879  14.246  0.1249 -2.5423 -0.3259
    4MPD2    H313870   0.866   1.948  14.418  0.5889 -1.4105  1.3941
    4MPD2     N13871   1.215   1.767  14.185 -0.0914  0.2676  0.6525
    4MPD2    H513872   1.286   1.796  14.252 -0.6387  0.4502  1.1510
    4MPD2    N113873   0.749   1.748  14.029  0.0067 -0.9381  0.3753
    4MPD2    H713874   0.654   1.777  14.049 -0.1335 -0.2547 -1.2478
    5TCq2    C113875   1.267   1.722  14.066  0.5679 -0.3201  0.1059
    5TCq2    O213876   1.215   1.694  13.957 -0.1128  0.5187  1.0384
    5TCq2    C213877   1.408   1.687  14.073  0.7549  0.9120  0.4475
    5TCq2    C313878   1.466   1.650  13.954  0.2122 -0.8808  0.2772
    5TCq2    C413879   1.589   1.589  13.946  0.3318 -0.2373 -0.0551
    5TCq2    C513880   1.651   1.557  14.067  0.0059  0.3018  0.1529
    5TCq2    C613881   1.590   1.582  14.187 -0.1081 -0.1634  0.2863
    5TCq2    C713882   1.470   1.653  14.190  0.5546 -0.7965  0.8553
    5TCq2    C813883   1.646   1.552  14.309  0.3812 -0.3712  0.8812
    5TCq2    O413884   1.704   1.446  14.326  0.1746 -1.1996 -0.3845
    5TCq2    C913885   1.654   1.547  13.819  0.2959  0.4766  0.5688
    5TCq2    O513886   1.762   1.478  13.830  0.2058 -0.4906  0.1789
    5TCq2    O613887   1.591   1.571  13.717  0.4222  0.6949 -0.1628
    5TCq2    H213888   1.426   1.667  13.854  0.9293  0.3180  0.1993
    5TCq2    H313889   1.740   1.496  14.071  0.1231  0.4162 -0.7565
    5TCq2    H413890   1.409   1.668  14.278  1.7404  3.6641  0.9526
    6MPD1     C13891   1.065   2.691  12.627  0.7790  0.0400  0.0473
    6MPD1    C113892   0.978   2.729  12.724 -0.7980  1.1074  0.1870
    6MPD1    C213893   0.900   2.632  12.778  0.6933 -0.3725 -0.3194
    6MPD1    C313894   0.920   2.498  12.744  0.0287  0.0735  0.1689
    6MPD1    C413895   1.004   2.459  12.647 -0.1785  0.9890  0.7397
    6MPD1    C513896   1.080   2.557  12.585  0.4365  0.3067 -1.1241
    6MPD1     H13897   0.823   2.665  12.846 -0.0080  1.1181 -1.8390
    6MPD1    H113898   1.019   2.355  12.622  0.3912  0.9436  1.2750
    6MPD1    H213899   1.133   2.767  12.591  0.9432 -0.6356 -1.0545
    6MPD1    H313900   1.160   2.530  12.517  1.5368  0.2608  0.1854
    6MPD1     N13901   0.851   2.395  12.816 -0.2760  0.5561  0.2642
    6MPD1    H513902   0.873   2.296  12.801 -1.6565  0.3310 -0.2558
    6MPD1    N113903   0.963   2.867  12.763 -0.1440 -0.5199 -0.5028
    6MPD1    H613904   0.905   2.875  12.846 -1.2242 -1.4017 -1.1754
    6MPD1    H713905   1.050   2.921  12.769  0.4226 -1.5826  0.6630
    7MPD2     C13906   0.251   2.158  13.450  0.0467 -0.3003 -0.3251
    7MPD2    C113907   0.357   2.079  13.401  0.6741 -0.0316 -0.3615
    7MPD2    C213908   0.405   1.968  13.473  0.6301 -0.3246 -0.2378
    7MPD2    C313909   0.339   1.929  13.589  0.0594  0.2626  0.0534
    7MPD2    C413910   0.233   2.008  13.634 -0.3061 -0.5139  1.2515
    7MPD2    C513911   0.190   2.118  13.564  1.0102  0.6114  0.8731
    7MPD2     H13912   0.489   1.908  13.440  1.8827  1.3212 -0.0349
    7MPD2    H113913   0.177   1.984  13.724 -1.5752  1.5377  1.0032
    7MPD2    H213914   0.226   2.249  13.397  0.8462  0.5046  0.6802
    7MPD2    H313915   0.108   2.173  13.610  1.3233  0.3558  1.7491
    7MPD2     N13916   0.388   1.815  13.658 -0.3521 -0.8083  0.2918
    7MPD2    H513917   0.450   1.765  13.594  3.4102  0.7714  2.7197
    7MPD2    N113918   0.429   2.109  13.291  0.7537 -0.0294  0.5653
    7MPD2    H713919   0.509   2.048  13.277 -0.8616 -1.3312 -2.8595
    8TMC3    C113920   0.426   1.656  13.807  0.8734  0.2819  0.0552
    8TMC3    C213921   0.537   1.689  13.879 -0.2662  0.2221 -0.0520
    8TMC3    C313922   0.657   1.633  13.842  0.2723 -0.1045 -0.7592
    8TMC3    C413923   0.446   1.576  13.692 -1.0777  0.2390  0.3395
    8TMC3    C513924   0.567   1.526  13.648  0.3697  0.0123 -0.0722
    8TMC3    C613925   0.682   1.553  13.732 -0.6799 -0.1960 -0.4336
    8TMC3     C13926   0.347   1.774  13.783  0.0048 -0.1916  0.4993
    8TMC3     O13927   0.297   1.832  13.883 -0.7162 -0.4786 -0.4066
    8TMC3     H13928   0.520   1.770  13.949  0.8992  0.6474 -0.2659
    8TMC3    H113929   0.365   1.548  13.625 -0.2363 -1.0982 -0.1013
    8TMC3    H213930   0.782   1.515  13.715  0.2708  1.7712  0.8432
    8TMC3    C713931   0.585   1.569  13.509  0.9965 -0.4445 -0.4846
    8TMC3    C813932   0.775   1.680  13.916  0.5276 -0.2732 -0.1960
    8TMC3    O113933   0.510   1.663  13.473 -0.1890 -0.0976  0.7236
    8TMC3    O213934   0.882   1.644  13.859 -0.6100  0.2696 -0.9531
    9TMC3    C113935   0.690   2.294  12.967 -0.5201  0.3275  0.0392
    9TMC3    C213936   0.752   2.173  12.950  0.3828  0.2125  0.2516
    9TMC3    C313937   0.693   2.065  13.002 -0.2663 -0.5576  0.6295
    9TMC3    C413938   0.577   2.310  13.043 -0.4048  0.5078  0.1086
    9TMC3    C513939   0.509   2.199  13.086  0.3412 -0.7550 -0.1740
    9TMC3    C613940   0.572   2.076  13.066 -0.1913 -0.2182 -0.1732
    9TMC3     C13941   0.740   2.413  12.896 -0.2510 -0.0739 -0.2672
    9TMC3     O13942   0.661   2.509  12.894  0.0536  0.2653 -0.2761
    9TMC3     H13943   0.843   2.157  12.894 -0.7848 -0.7192 -1.3722
    9TMC3    H113944   0.544   2.409  13.073 -0.9098  0.4086 -0.1360
    9TMC3    H213945   0.525   1.987  13.105 -2.8435  0.6760 -1.3744
    9TMC3    C713946   0.418   2.213  13.202 -0.3373  0.1878 -0.1462
    9TMC3    C813947   0.783   1.947  13.017  0.0199 -0.5047 -0.2356
    9TMC3    O113948   0.351   2.315  13.207 -0.9160  0.0596 -0.4667
    9TMC3    O213949   0.891   1.945  12.955 -0.5275  0.0061 -0.1988
   10MPD2     C13950   0.901   1.537  13.309 -0.8286 -0.0920 -0.3623
   10MPD2    C113951   0.776   1.590  13.345  0.1521 -0.1744 -0.3952
   10MPD2    C213952   0.721   1.697  13.273 -0.5533  0.1868 -0.2002
   10MPD2    C313953   0.789   1.753  13.166  0.2657  0.4381 -0.0399
   10MPD2    C413954   0.914   1.708  13.135 -0.6458 -0.0019  0.9561
   10MPD2    C513955   0.967   1.604  13.212 -0.0019  0.7419 -0.7132
   10MPD2     H13956   0.641   1.755  13.318 -0.5680 -0.5801  0.7519
   10MPD2    H113957   0.981   1.774  13.081  0.5562  1.1829  3.8498
   10MPD2    H213958   0.957   1.463  13.365  0.5749 -0.2682 -2.0115
   10MPD2    H313959   1.067   1.563  13.200 -1.1926 -2.4159  0.2093
   10MPD2     N13960   0.726   1.860  13.111  0.1790  0.1095  0.6072
   10MPD2    H513961   0.631   1.877  13.144 -0.6310 -1.5480 -0.8338
   10MPD2    N113962   0.701   1.533  13.451 -0.1418 -0.3427 -0.3285
   10MPD2    H713963   0.753   1.462  13.502  1.0006  0.5957 -0.2152
   11MPD2     C13964   1.733   1.644  14.806 -1.3425 -0.3043  0.4086
   11MPD2    C113965   1.702   1.524  14.735  0.1791 -0.3128 -0.3717
   11MPD2    C213966   1.667   1.525  14.601  0.1542  0.4462 -0.3445
   11MPD2    C313967   1.664   1.641  14.535 -0.5905 -0.2649 -0.5151
   11MPD2    C413968   1.689   1.758  14.601  0.0644 -0.0906 -0.6487
   11MPD2    C513969   1.718   1.762  14.737  0.5416 -0.9019 -0.7718
   11MPD2     H13970   1.643   1.435  14.546  0.8467 -0.4474  0.8081
   11MPD2    H113971   1.685   1.846  14.538 -0.2757 -1.6072 -2.7409
   11MPD2    H213972   1.775   1.659  14.905 -0.3930 -0.1191 -0.0194
   11MPD2    H313973   1.747   1.857  14.779  0.2475 -0.2430 -2.0744
   11MPD2     N13974   1.639   1.654  14.401 -0.2540  0.4038  0.4312
   11MPD2    H513975   1.613   1.747  14.369  2.5706  0.7914 -0.7131
   11MPD2    N113976   1.730   1.398  14.788  0.1805  0.5681 -0.8070
   11MPD2    H713977   1.697   1.321  14.730  2.7577 -1.2289  0.1176
    1MPD1     C13978   0.468   2.723  17.007 -0.4226 -0.0736  0.6414
    1MPD1    C113979   0.335   2.674  17.015 -0.0854  0.3297 -0.5909
    1MPD1    C213980   0.234   2.760  16.970  0.0624 -0.0404 -0.0777
    1MPD1    C313981   0.263   2.879  16.909  0.2616 -0.3452 -0.4697
    1MPD1    C413982   0.391   2.919  16.900 -0.3937 -0.4376 -0.0727
    1MPD1    C513983   0.494   2.847  16.949 -0.1015 -0.0176 -0.0913
    1MPD1     H13984   0.137   2.713  16.969  0.8270 -1.6309  0.4462
    1MPD1    H113985   0.413   3.011  16.847  0.0740  1.0579  2.7435
    1MPD1    H213986   0.553   2.672  17.053  0.8777 -0.3661 -2.1076
    1MPD1    H313987   0.597   2.880  16.945 -0.1685  0.7233  3.7210
    1MPD1     N13988   0.162   2.962  16.853  0.5519 -0.8147 -0.0794
    1MPD1    H513989   0.186   3.060  16.837  1.2848 -0.7276  1.5656
    1MPD1    N113990   0.312   2.544  17.068 -0.4291 -0.1716  0.1343
    1MPD1    H613991   0.378   2.533  17.145  0.5890 -0.3155 -0.7721
    1MPD1    H713992   0.214   2.529  17.094 -1.4963  1.5935 -2.8528
    2MPD1     C13993   4.642   3.724  16.337  0.0336  0.4581  0.4841
    2MPD1    C113994   4.531   3.642  16.330  0.0497 -0.0663  0.8945
    2MPD1    C213995   4.517   3.554  16.433 -0.3676  0.0558  0.5333
    2MPD1    C313996   4.605   3.540  16.539 -0.5171  0.2854 -0.9880
    2MPD1    C413997   0.000   3.614  16.539 -0.1734 -0.1910 -0.0395
    2MPD1    C513998   0.015   3.702  16.435  0.0836 -1.0937 -0.2986
    2MPD1     H13999   4.435   3.482  16.431  0.4240 -0.8137 -0.4726
    2MPD1    H114000   0.082   3.601  16.609  1.8997  3.0778 -1.8673
    2MPD1    H214001   4.653   3.803  16.263 -1.4647  1.4338  1.2995
    2MPD1    H314002   0.110   3.755  16.430 -0.4248 -0.0422  1.2738
    2MPD1     N14003   4.575   3.440  16.631 -0.0472 -0.1109  1.0613
    2MPD1    H514004   4.485   3.395  16.618 -0.0622 -0.3025  1.8123
    2MPD1    N114005   4.430   3.646  16.229 -0.0759 -0.2387 -0.1388
    2MPD1    H614006   4.379   3.558  16.223  0.8180 -0.6432 -1.8489
    2MPD1    H714007   4.473   3.657  16.137 -1.7984  1.2753 -0.7801
    3TMC3    C114008   4.622   3.260  16.765 -0.2110 -1.0899 -0.2772
    3TMC3    C214009   4.488   3.253  16.802  0.0136  0.6445  0.5401
    3TMC3    C314010   4.443   3.134  16.853 -0.0903 -1.1739  0.0268
    3TMC3    C414011   4.708   3.158  16.781 -0.3155 -0.8498  0.3450
    3TMC3    C514012   4.662   3.044  16.828  0.7558  0.3583  0.3044
    3TMC3    C614013   4.531   3.029  16.871 -0.0874  0.3726 -0.3872
    3TMC3     C14014   4.672   3.377  16.708  0.2603  0.3753 -0.1086
    3TMC3     O14015   0.064   3.408  16.731 -0.3186 -0.1077 -0.6832
    3TMC3     H14016   4.433   3.347  16.806 -0.3955  0.3708  1.3065
    3TMC3    H114017   0.080   3.170  16.733 -0.8525 -1.3632 -0.8526
    3TMC3    H214018   4.489   2.936  16.908 -1.3015  0.8069 -0.7048
    3TMC3    C714019   0.029   2.933  16.849 -0.2194  0.2901 -0.0821
    3TMC3    C814020   4.305   3.119  16.897 -0.3519  0.4579 -0.6481
    3TMC3    O114021   4.701   2.823  16.850 -0.3700  0.0898 -0.1135
    3TMC3    O214022   4.278   3.043  16.988 -0.2166  0.6837 -0.0749
    4MPD1     C14023   3.806   3.219  16.846  0.3479  0.6164 -0.2666
    4MPD1    C114024   3.874   3.295  16.749  0.6197  0.5308 -0.0164
    4MPD1    C214025   4.008   3.269  16.728  0.0030  0.5067  0.9975
    4MPD1    C314026   4.078   3.194  16.818  0.2110  0.2124 -0.3350
    4MPD1    C414027   4.010   3.135  16.915  0.4020  0.7991  0.1793
    4MPD1    C514028   3.876   3.141  16.936 -0.2855 -0.2093 -0.2141
    4MPD1     H14029   4.064   3.313  16.646  0.4528  0.5634  1.3287
    4MPD1    H114030   4.061   3.066  16.982 -1.1361  1.9668  2.5477
    4MPD1    H214031   3.698   3.222  16.841  0.3770  0.6247 -0.8915
    4MPD1    H314032   3.826   3.089  17.017  0.8652  0.1052  0.6900
    4MPD1     N14033   4.221   3.191  16.812 -0.5136  0.4546 -0.3850
    4MPD1    H514034   4.269   3.228  16.730  1.6420 -0.7103  0.3591
    4MPD1    N114035   3.806   3.367  16.651  0.3014  0.6070  0.3425
    4MPD1    H614036   3.855   3.444  16.606  0.8956  0.4574  0.7395
    4MPD1    H714037   3.711   3.397  16.668  0.1988  0.1296  0.6058
    1TCq1    O114038   4.595   3.384  12.411  0.2368  0.5130 -0.7456
    1TCq1    C114039   4.648   3.482  12.333 -0.0516  0.3546 -0.3686
    1TCq1    O214040   4.631   3.485  12.213 -0.0745  0.2038  0.1606
    1TCq1    C214041   0.044   3.525  12.401 -0.3478 -0.7952  0.2986
    1TCq1    C314042   0.047   3.559  12.537  0.0012 -0.3284  0.0853
    1TCq1    C414043   0.178   3.583  12.583  0.3049 -0.8075 -0.7679
    1TCq1    C514044   0.286   3.614  12.506  0.2878 -0.3193 -0.5360
    1TCq1    C614045   0.270   3.590  12.370 -0.3664 -0.3738 -0.7159
    1TCq1    C714046   0.152   3.541  12.320  0.2552  0.9387  0.0333
    1TCq1    C814047   0.382   3.596  12.281  0.3538  0.3232  0.1748
    1TCq1    O414048   0.375   3.520  12.181  0.4675 -0.4655 -0.7865
    1TCq1    C914049   0.204   3.609  12.721  0.1161 -0.1702 -0.2302
    1TCq1    O514050   0.320   3.649  12.754  0.1972 -0.7162  0.2372
    1TCq1    O614051   0.110   3.596  12.805 -0.0738 -0.4257  0.0984
    1TCq1    H114052   4.620   3.389  12.505  1.9453 -0.2593 -1.1623
    1TCq1    H214053   4.696   3.537  12.611  0.3127  1.2831  0.8956
    1TCq1    H314054   0.380   3.643  12.551  0.2077 -0.8754 -0.0132
    1TCq1    H414055   0.132   3.519  12.216  1.0558  1.0086 -0.1336
    2MPD1     C14056   0.866   3.682  12.202  0.1701 -0.1015 -0.3724
    2MPD1    C114057   0.827   3.768  12.301  0.0485  0.5018  0.5434
    2MPD1    C214058   0.691   3.765  12.338  0.6805 -0.0305  0.1148
    2MPD1    C314059   0.605   3.684  12.272  0.2085 -0.3191  0.0632
    2MPD1    C414060   0.649   3.611  12.163 -0.8487  0.7260 -0.3001
    2MPD1    C514061   0.776   3.617  12.122 -0.2390  1.3605 -0.5586
    2MPD1     H14062   0.656   3.813  12.428 -1.1715  1.0129 -1.1799
    2MPD1    H114063   0.589   3.543  12.103  1.3615 -2.3323  0.9603
    2MPD1    H214064   0.970   3.677  12.173  0.2587 -0.3848  0.0034
    2MPD1    H314065   0.798   3.558  12.034  2.1114 -1.0144  1.6397
    2MPD1     N14066   0.479   3.676  12.331 -0.1212  0.9393  0.1339
    2MPD1    H514067   0.461   3.739  12.409 -1.0400  0.9061 -0.0540
    2MPD1    N114068   0.929   3.810  12.391  0.0481 -0.8076  1.0204
    2MPD1    H614069   0.897   3.895  12.437  2.1235 -0.5977  2.0842
    2MPD1    H714070   1.017   3.837  12.346 -0.1941 -1.7097  0.0076
    1TCq1    O114071   2.830   0.468   1.323  0.1553 -0.0064  0.6007
    1TCq1    C114072   2.778   0.461   1.445  0.1560 -0.0433  0.1153
    1TCq1    O214073   2.661   0.430   1.466 -0.2129 -0.2020 -0.0522
    1TCq1    C214074   2.872   0.497   1.554 -0.0163 -0.2075  0.7423
    1TCq1    C314075   2.818   0.518   1.675 -1.0163  0.3545  0.7502
    1TCq1    C414076   2.897   0.584   1.765  0.3555 -0.2454 -0.1477
    1TCq1    C514077   3.034   0.593   1.744  1.0079 -0.9940  0.0783
    1TCq1    C614078   3.078   0.569   1.617 -0.0030  0.5100 -0.0340
    1TCq1    C714079   2.998   0.519   1.520  0.0765  0.7362 -0.1782
    1TCq1    C814080   3.223   0.563   1.601  0.4628  0.4510  0.1646
    1TCq1    O414081   3.288   0.645   1.663  0.3111 -0.1453  0.3056
    1TCq1    C914082   2.847   0.594   1.903  0.1713  0.0786  0.5784
    1TCq1    O514083   2.752   0.515   1.925  0.4801 -0.0823  0.4919
    1TCq1    O614084   2.896   0.679   1.982 -0.3766  0.4421 -0.1830
    1TCq1    H114085   2.926   0.483   1.314  0.0803  0.5222  0.7143
    1TCq1    H214086   2.711   0.517   1.693 -0.6855  0.6601  2.7562
    1TCq1    H314087   3.104   0.613   1.824  1.3512 -3.2670  0.3366
    1TCq1    H414088   3.040   0.492   1.424  2.3456 -0.0732  1.0389
    2MPD1     C14089   3.656   0.374   1.393 -0.2432  0.1602 -0.8400
    2MPD1    C114090   3.553   0.278   1.383 -0.0175  0.4394  0.0890
    2MPD1    C214091   3.423   0.314   1.425 -0.6153 -0.1001 -0.3835
    2MPD1    C314092   3.394   0.427   1.491 -0.1333 -0.4023  0.2302
    2MPD1    C414093   3.499   0.513   1.514  0.0763  0.2485  0.4792
    2MPD1    C514094   3.627   0.485   1.461 -0.3904  0.4815  0.0899
    2MPD1     H14095   3.344   0.246   1.396  1.7475 -2.7635 -0.6720
    2MPD1    H114096   3.483   0.606   1.567 -0.9732 -0.2009  0.9590
    2MPD1    H214097   3.757   0.352   1.359 -0.9561 -0.6966 -2.4196
    2MPD1    H314098   3.713   0.550   1.469  1.2277 -1.7992  0.8734
    2MPD1     N14099   3.259   0.455   1.528 -0.4330  0.1647  0.1610
    2MPD1    H514100   3.185   0.397   1.489  0.0603 -0.1860 -0.2647
    2MPD1    N114101   3.569   0.168   1.295  0.2046 -0.0661 -0.1222
    2MPD1    H614102   3.667   0.141   1.306  0.2730  0.5385  0.8141
    2MPD1    H714103   3.511   0.095   1.336 -1.0355 -0.5495 -2.7611
    1MPD1     C14104   1.171   3.103  12.459  0.4027  0.2962  0.9581
    1MPD1    C114105   1.140   3.045  12.339  1.0072  0.4101  0.1379
    1MPD1    C214106   1.232   3.039  12.245  0.5628  0.1619 -0.0462
    1MPD1    C314107   1.343   3.123  12.240 -1.1118  0.3309  0.1685
    1MPD1    C414108   1.371   3.194  12.354  0.5202 -0.2985  0.4207
    1MPD1    C514109   1.294   3.172  12.469 -0.4903 -0.3289  0.8848
    1MPD1     H14110   1.217   2.989  12.150  1.0749 -0.6105  0.2800
    1MPD1    H114111   1.461   3.252  12.367 -0.6657  2.0939 -1.9373
    1MPD1    H214112   1.096   3.108  12.538  0.0148  2.3073  0.4646
    1MPD1    H314113   1.328   3.214  12.563 -0.1060 -2.8492  1.8759
    1MPD1     N14114   1.433   3.123  12.126  0.9170  0.1747  0.4210
    1MPD1    H514115   1.411   3.055  12.054 -0.8350  0.6119  0.5384
    1MPD1    N114116   1.032   2.951  12.343  0.1540 -0.5066 -0.5435
    1MPD1    H614117   0.949   2.978  12.397 -0.8007 -0.0971 -2.1933
    1MPD1    H714118   0.986   2.942  12.252 -0.5281 -0.0965 -0.2434
    2MPD1     C14119   1.450   2.053  10.848 -0.1562 -0.4117 -0.6498
    2MPD1    C114120   1.419   2.065  10.715 -0.0030  0.4977 -0.4251
    2MPD1    C214121   1.521   2.110  10.626  0.1851 -0.0168  0.5791
    2MPD1    C314122   1.652   2.126  10.674  0.0067 -0.1014  0.0710
    2MPD1    C414123   1.680   2.111  10.810  0.1191 -0.6653  0.2212
    2MPD1    C514124   1.576   2.072  10.887 -0.3923  0.3687 -0.3712
    2MPD1     H14125   1.493   2.126  10.523  0.9660 -1.4893  0.1429
    2MPD1    H114126   1.775   2.115  10.862  0.4116 -0.3725 -0.3287
    2MPD1    H214127   1.373   2.035  10.922 -1.2839 -0.4947 -1.8510
    2MPD1    H314128   1.604   2.061  10.992 -1.2654 -2.8524 -0.5050
    2MPD1     N14129   1.754   2.178  10.590 -0.5502  0.3197 -0.1978
    2MPD1    H514130   1.841   2.196  10.638 -0.1199 -2.1814 -0.0471
    2MPD1    N114131   1.283   2.058  10.675  0.3644  0.2523  0.2693
    2MPD1    H614132   1.232   1.998  10.740  0.1020 -0.1807 -0.3316
    2MPD1    H714133   1.276   2.038  10.575 -1.4308 -2.5543  0.9636
    3MPD1     C14134   2.368   2.271   9.720 -0.5861  0.1372  0.8493
    3MPD1    C114135   2.393   2.383   9.793 -0.8700  0.2181 -0.8708
    3MPD1    C214136   2.332   2.400   9.913 -0.1197  0.3890  0.1553
    3MPD1    C314137   2.224   2.324   9.951  0.0042  0.1536 -0.4363
    3MPD1    C414138   2.187   2.217   9.871 -0.0345  0.5715 -1.0339
    3MPD1    C514139   2.264   2.182   9.761  0.4065 -0.2038 -0.2470
    3MPD1     H14140   2.346   2.488   9.976 -0.4957  0.4455  0.1602
    3MPD1    H114141   2.101   2.155   9.895  2.1902 -1.5373  1.3704
    3MPD1    H214142   2.429   2.250   9.633  0.8626 -1.7295  2.3023
    3MPD1    H314143   2.231   2.097   9.702  1.0426 -1.4279  1.1510
    3MPD1     N14144   2.148   2.365  10.059 -0.2672 -0.0483 -0.0646
    3MPD1    H514145   2.192   2.442  10.108 -2.2980  0.3022  1.2096
    3MPD1    N114146   2.486   2.478   9.750 -0.1584 -0.4542 -0.2875
    3MPD1    H614147   2.478   2.496   9.650 -0.5705 -1.6883 -0.4734
    3MPD1    H714148   2.459   2.563   9.800 -1.5313 -0.0460 -1.7000
    4MPD2     C14149   2.037   3.452  11.567 -0.0251 -0.5286  0.0364
    4MPD2    C114150   2.032   3.319  11.607  0.0550  0.1670 -0.3298
    4MPD2    C214151   2.115   3.230  11.544  0.1974 -0.8398  0.4247
    4MPD2    C314152   2.194   3.267  11.435 -0.6898 -0.4883 -0.1852
    4MPD2    C414153   2.182   3.396  11.386 -0.4325  0.1256 -0.4189
    4MPD2    C514154   2.118   3.490  11.464 -0.0742 -0.1048 -0.0269
    4MPD2     H14155   2.107   3.130  11.586 -0.7965 -1.2746 -0.7956
    4MPD2    H114156   2.241   3.426  11.299  0.5665  0.2500  0.3006
    4MPD2    H214157   1.993   3.532  11.625  1.1876  0.3506 -0.2567
    4MPD2    H314158   2.131   3.595  11.440 -0.4729  0.1743  1.0123
    4MPD2     N14159   2.281   3.168  11.376  0.0707 -0.0444  0.4337
    4MPD2    H514160   2.280   3.080  11.426  2.2835  0.0799  0.6913
    4MPD2    N114161   1.969   3.273  11.722  0.5863 -0.1177  0.1702
    4MPD2    H714162   1.999   3.180  11.749  0.7264 -0.3714 -0.8590
    5TMC3    C114163   1.795   3.222  11.860 -0.2164  0.1577 -0.1392
    5TMC3    C214164   1.701   3.270  11.951 -0.6647  0.2813  0.1112
    5TMC3    C314165   1.622   3.172  12.000  0.0991 -0.7589 -0.2309
    5TMC3    C414166   1.805   3.094  11.816  0.4088 -0.5523 -0.1159
    5TMC3    C514167   1.725   3.000  11.877  0.1207 -0.4345 -0.1886
    5TMC3    C614168   1.628   3.036  11.969  0.9314 -0.4711  0.9491
    5TMC3     C14169   1.852   3.321  11.776  0.1105 -0.3055 -0.7632
    5TMC3     O14170   1.795   3.431  11.754  0.2975 -0.3638  0.5452
    5TMC3     H14171   1.684   3.373  11.981  0.2908 -0.0473  1.7846
    5TMC3    H114172   1.859   3.069  11.726  0.8026  0.8893 -0.2758
    5TMC3    H214173   1.588   2.957  12.032 -2.0074  0.0839 -0.1798
    5TMC3    C714174   1.750   2.856  11.854  0.4482 -0.3739 -0.1274
    5TMC3    C814175   1.536   3.213  12.102 -0.0493  0.3882 -0.2037
    5TMC3    O114176   1.703   2.774  11.928 -0.8069 -0.0021 -0.1988
    5TMC3    O214177   1.574   3.312  12.163  0.4630  0.0670  0.4942
    6TMC3    C114178   1.876   2.270  10.417 -0.5142  0.3380  0.3203
    6TMC3    C214179   1.879   2.287  10.279  0.5286  0.1162  0.2232
    6TMC3    C314180   1.984   2.354  10.233  0.4156  0.1177 -0.9892
    6TMC3    C414181   1.943   2.346  10.503 -0.0693  0.0597 -0.1359
    6TMC3    C514182   2.046   2.412  10.446 -0.6501 -0.1095  0.2838
    6TMC3    C614183   2.069   2.424  10.310  0.4565 -0.2202  0.4883
    6TMC3     C14184   1.749   2.213  10.457  0.7772 -0.1927 -0.7909
    6TMC3     O14185   1.663   2.179  10.375 -0.2007 -0.4001 -0.0758
    6TMC3     H14186   1.822   2.227  10.209 -1.4757  0.0476  1.8934
    6TMC3    H114187   1.926   2.351  10.609  0.9022  0.0489  0.0229
    6TMC3    H214188   2.169   2.442  10.272  0.2328  0.2898  0.1506
    6TMC3    C714189   2.122   2.504  10.536 -0.1857 -0.3069 -0.5371
    6TMC3    C814190   2.040   2.295  10.116 -0.4693 -0.8300  0.2165
    6TMC3    O114191   2.088   2.494  10.653  0.4562  0.5493  0.1711
    6TMC3    O214192   1.991   2.191  10.074 -0.0298 -0.3241  0.3508
    7MPD2     C14193   2.039   2.530  11.568  0.2170 -0.2982  0.4870
    7MPD2    C114194   2.071   2.666  11.542 -0.4168  0.0590  0.5727
    7MPD2    C214195   1.996   2.766  11.606 -0.4739  0.9387  0.6327
    7MPD2    C314196   1.899   2.735  11.700  0.2477 -0.2066  0.4051
    7MPD2    C414197   1.864   2.602  11.725  1.2840 -0.3995  0.3080
    7MPD2    C514198   1.937   2.501  11.657 -0.7889  0.1735 -0.1754
    7MPD2     H14199   2.017   2.872  11.607 -1.2595  1.1072 -0.9928
    7MPD2    H114200   1.777   2.568  11.781  1.2651  1.6740  1.4970
    7MPD2    H214201   2.088   2.462  11.500  1.8773  0.9317  0.4396
    7MPD2    H314202   1.905   2.397  11.666 -0.0073 -0.0540 -0.0750
    7MPD2     N14203   1.841   2.848  11.759 -0.5514 -0.2566  0.7163
    7MPD2    H514204   1.877   2.936  11.725  1.7067 -0.8033  1.6689
    7MPD2    N114205   2.166   2.693  11.440  1.0611  0.2554  0.4315
    7MPD2    H714206   2.179   2.628  11.363  1.6985  1.0696 -0.1574
    8TMC3    C114207   2.306   2.834  11.318 -0.0909  0.7929 -0.4916
    8TMC3    C214208   2.245   2.794  11.210 -1.2338 -0.3838  0.4506
    8TMC3    C314209   2.264   2.871  11.096 -0.7800 -0.3591 -0.1712
    8TMC3    C414210   2.367   2.957  11.329 -0.3130  0.3771 -0.1505
    8TMC3    C514211   2.366   3.039  11.222  0.6811  0.0190 -0.2358
    8TMC3    C614212   2.311   3.000  11.105  0.3626  0.2729 -0.0885
    8TMC3     C14213   2.234   2.816  11.432 -0.4364  0.1029 -0.0536
    8TMC3     O14214   2.225   2.906  11.513 -0.4205  0.1683  0.5649
    8TMC3     H14215   2.209   2.693  11.200 -0.4565 -0.5885 -0.3367
    8TMC3    H114216   2.414   2.972  11.425 -0.1924 -0.3328 -0.1011
    8TMC3    H214217   2.315   3.067  11.019 -1.6838  1.8165  1.0351
    8TMC3    C714218   2.339   3.177  11.255  0.4948 -0.8439 -0.0731
    8TMC3    C814219   2.240   2.819  10.963  0.0057 -0.4234  0.0084
    8TMC3    O114220   2.314   3.256  11.167  0.0358 -0.0342 -0.2914
    8TMC3    O214221   2.170   2.714  10.960  0.0140  0.4262 -0.2548
    9MPD2     C14222   2.410   2.908  10.661  0.0116 -0.5997  0.2086
    9MPD2    C114223   2.325   2.836  10.739 -0.4438  0.3285  0.0420
    9MPD2    C214224   2.255   2.731  10.678  0.6641  0.1942 -0.6103
    9MPD2    C314225   2.279   2.696  10.541  0.7213 -0.5114  1.0359
    9MPD2    C414226   2.371   2.770  10.472 -0.1898  0.1027  0.1166
    9MPD2    C514227   2.438   2.876  10.529 -1.0998  0.0199  0.3037
    9MPD2     H14228   2.203   2.665  10.747 -0.4646  1.7921  0.0748
    9MPD2    H114229   2.385   2.756  10.365  1.1126 -0.1992  0.3269
    9MPD2    H214230   2.453   3.002  10.697 -0.9722  0.6548 -1.9127
    9MPD2    H314231   2.499   2.942  10.469 -2.4476  2.0938  1.2248
    9MPD2     N14232   2.211   2.590  10.476 -0.2195  0.4964 -0.0491
    9MPD2    H514233   2.218   2.586  10.375 -0.7972 -4.2566  0.0790
    9MPD2    N114234   2.320   2.871  10.870  0.1296  0.4108  0.9416
    9MPD2    H714235   2.382   2.947  10.896  0.4039  0.5703 -0.1964
    1MPD1     C14236   2.823   0.555  17.322 -0.2310 -0.2120  0.0384
    1MPD1    C114237   2.835   0.656  17.234 -0.2416 -0.1678 -0.6119
    1MPD1    C214238   2.869   0.630  17.099  0.0581  0.1425  0.5062
    1MPD1    C314239   2.900   0.505  17.057 -0.5178  0.6944  0.8951
    1MPD1    C414240   2.890   0.401  17.155 -0.6334 -0.0507  0.0913
    1MPD1    C514241   2.857   0.424  17.279  0.2217 -0.1483  0.0082
    1MPD1     H14242   2.864   0.716  17.032  0.6106  0.2516  0.5987
    1MPD1    H114243   2.917   0.299  17.130 -1.1974 -0.3306  0.6282
    1MPD1    H214244   2.786   0.567  17.423  0.3746 -0.3159  0.2718
    1MPD1    H314245   2.853   0.344  17.352  0.3158 -0.1657 -0.0056
    1MPD1     N14246   2.934   0.463  16.926 -0.2383  0.2963 -0.1737
    1MPD1    H514247   2.943   0.364  16.903  1.3292  0.1547  1.0695
    1MPD1    N114248   2.789   0.784  17.277  0.0160 -0.2225  0.4677
    1MPD1    H614249   2.833   0.851  17.214 -1.4436  0.2842 -0.0137
    1MPD1    H714250   2.818   0.799  17.374  0.4033 -2.2412  0.6568
    2MPD1     C14251   2.727   4.463  16.346  0.0013 -0.1317 -0.3889
    2MPD1    C114252   2.826   4.517  16.267  0.0260 -0.0672 -0.5059
    2MPD1    C214253   2.888   4.633  16.304  0.1572  0.4170  0.0461
    2MPD1    C314254   2.833   4.711  16.403 -0.3210 -0.0923  0.5635
    2MPD1    C414255   2.729   4.654  16.480  0.7255  0.4825  0.4504
    2MPD1    C514256   2.691   4.526  16.458 -0.3153  0.6114 -0.1431
    2MPD1     H14257   2.975   4.677  16.256 -1.0330 -0.0187 -2.5267
    2MPD1    H114258   2.675   4.700  16.561 -1.9005  1.0108 -1.5794
    2MPD1    H214259   2.681   4.370  16.314 -0.1843 -0.2978  0.3802
    2MPD1    H314260   2.601   4.493  16.508  1.0960 -0.6915  1.5765
    2MPD1     N14261   2.893   0.115  16.433 -0.5214 -0.4255 -0.1528
    2MPD1    H514262   2.956   0.152  16.363 -2.1606  0.7042 -1.0094
    2MPD1    N114263   2.877   4.451  16.157  0.3394  0.1575  0.3176
    2MPD1    H614264   2.799   4.411  16.103 -0.4548  1.2657  0.6421
    2MPD1    H714265   2.921   4.513  16.089  0.8374  0.4918  0.9529
    3TCq2    C114266   2.859   0.191  16.540  1.8307  0.1051  0.1256
    3TCq2    O214267   2.793   0.160  16.639  0.1951  0.3293  0.2274
    3TCq2    C214268   2.939   0.305  16.559  0.0795 -0.1972 -0.5489
    3TCq2    C314269   2.975   0.386  16.450 -0.2246 -0.1361 -0.3992
    3TCq2    C414270   3.009   0.517  16.468 -0.4654 -0.2413  0.1455
    3TCq2    C514271   2.997   0.579  16.592  0.7036  0.0248 -0.4819
    3TCq2    C614272   2.971   0.490  16.696 -0.3571 -0.0948 -0.0138
    3TCq2    C714273   2.938   0.354  16.686  0.1505 -0.4719  0.0376
    3TCq2    C814274   2.941   0.557  16.824 -0.0465  0.1143  0.4588
    3TCq2    O414275   2.952   0.679  16.834 -0.4045 -0.6233 -0.0960
    3TCq2    C914276   3.058   0.601  16.352 -0.4595  0.9548  0.8015
    3TCq2    O514277   3.077   0.543  16.242 -0.2760 -0.0450  0.3901
    3TCq2    O614278   3.074   0.724  16.371  0.2210  0.8209 -0.0810
    3TCq2    H214279   2.966   0.345  16.351  3.1194 -1.8116 -0.0081
    3TCq2    H314280   3.020   0.685  16.600 -1.1943  0.3779  0.1911
    3TCq2    H414281   2.898   0.297  16.769 -0.4431 -0.3984 -0.2003
    1TCq1    O114282   4.054   0.068  12.657 -0.0860  0.1237 -0.1823
    1TCq1    C114283   4.020   0.179  12.721 -0.0385 -0.2262 -0.6825
    1TCq1    O214284   3.908   0.214  12.756 -0.6492 -0.4858 -0.5034
    1TCq1    C214285   4.137   0.230  12.802  0.6691  0.0730  0.0937
    1TCq1    C314286   4.117   0.260  12.936 -0.3070 -0.4155 -0.5918
    1TCq1    C414287   4.218   0.315  13.004  0.5659 -0.0194  0.7512
    1TCq1    C514288   4.342   0.335  12.946 -0.4914  0.6552  0.8054
    1TCq1    C614289   4.358   0.295  12.816  0.1075 -0.2451 -0.7468
    1TCq1    C714290   4.254   0.253  12.735 -0.3057  0.2570 -0.4160
    1TCq1    C814291   4.482   0.342  12.748  0.0722 -0.3601  0.9844
    1TCq1    O414292   4.474   0.374  12.631  0.1377 -0.0752  0.1343
    1TCq1    C914293   4.192   0.348  13.134  0.8153  0.0509 -0.5668
    1TCq1    O514294   4.272   0.418  13.200 -0.2293  0.5093 -0.2946
    1TCq1    O614295   4.096   0.287  13.183  0.5290 -0.4932  0.0276
    1TCq1    H114296   4.151   0.059  12.658  0.0575  1.8300  2.6118
    1TCq1    H214297   4.016   0.263  12.974  0.2452  1.5811  0.6749
    1TCq1    H314298   4.419   0.386  13.002 -1.4553  1.6127  1.2600
    1TCq1    H414299   4.259   0.259  12.627 -1.1506 -0.0488 -0.4742
    2MPD2     C14300   4.723   0.516  12.700 -0.4275  0.5266  0.4056
    2MPD2    C114301   4.716   0.416  12.794  0.2094  0.5087  0.2416
    2MPD2    C214302   0.100   0.383  12.861  0.6907 -0.3031 -0.1323
    2MPD2    C314303   0.225   0.446  12.839 -0.3057  0.3026  0.0565
    2MPD2    C414304   0.235   0.549  12.747 -0.1307 -0.5526 -0.2271
    2MPD2    C514305   0.118   0.581  12.686  0.0795 -0.3730  0.6318
    2MPD2     H14306   0.096   0.313  12.943 -0.4393  0.0177  0.0902
    2MPD2    H114307   0.329   0.591  12.715 -1.9504  1.6306 -2.7726
    2MPD2    H214308   4.643   0.547  12.634 -0.6736 -1.2933 -0.1491
    2MPD2    H314309   0.133   0.656  12.609 -0.4047 -0.4945  0.4166
    2MPD2     N14310   0.336   0.406  12.914 -0.3564  0.2492 -0.1242
    2MPD2    H514311   0.330   0.322  12.971  0.1502  0.0619 -0.3465
    2MPD2    N114312   4.596   0.352  12.831  0.2542  0.3366  0.1561
    2MPD2    H714313   4.600   0.300  12.919  1.0879 -0.6219 -0.4433
    3TCq1    O114314   0.782   0.521  13.306 -0.2840 -0.5710 -0.0319
    3TCq1    C114315   0.852   0.469  13.202 -0.1957 -0.2847 -0.1958
    3TCq1    O214316   0.966   0.431  13.214 -0.1010  0.2825 -0.5298
    3TCq1    C214317   0.756   0.412  13.110 -0.5363  0.2291  0.1694
    3TCq1    C314318   0.760   0.277  13.096  0.4558 -0.0645  0.0194
    3TCq1    C414319   0.661   0.207  13.037  0.6168  0.9237 -0.4905
    3TCq1    C514320   0.558   0.278  12.973 -0.3401 -0.3399 -0.0214
    3TCq1    C614321   0.557   0.415  12.985  0.0070  0.5687  0.2754
    3TCq1    C714322   0.653   0.490  13.052 -0.3924 -0.1526 -0.4984
    3TCq1    C814323   0.444   0.484  12.926  0.0069 -0.7012 -0.4107
    3TCq1    O414324   0.451   0.603  12.907 -0.6705 -0.3433 -0.0819
    3TCq1    C914325   0.674   0.066  13.024  0.1636 -0.6132  0.0144
    3TCq1    O514326   0.589   0.005  12.950  0.4647 -0.8589  0.1934
    3TCq1    O614327   0.791   0.021  13.040  0.0929  0.9283  0.1958
    3TCq1    H114328   0.684   0.515  13.300 -0.2144 -2.4150  0.7400
    3TCq1    H214329   0.843   0.214  13.130 -1.4587 -1.9252  1.2707
    3TCq1    H314330   0.486   0.225  12.910 -1.7353  1.5682 -0.0342
    3TCq1    H414331   0.656   0.597  13.065  1.7078 -0.4297  1.2071
    1MPD2     C14332   0.858   2.258  14.561  0.3686 -0.4487 -0.7570
    1MPD2    C114333   0.734   2.218  14.596 -0.0440 -0.0145  0.1316
    1MPD2    C214334   0.717   2.161  14.721 -0.0789 -0.5679 -0.8210
    1MPD2    C314335   0.831   2.148  14.805  0.4543 -0.2611  0.0924
    1MPD2    C414336   0.957   2.185  14.768 -0.2484 -0.7386  0.1480
    1MPD2    C514337   0.966   2.232  14.639 -0.2682  0.6210  0.5428
    1MPD2     H14338   0.617   2.129  14.749  0.7883 -0.7962  1.9704
    1MPD2    H114339   1.049   2.179  14.824 -1.3645 -1.6231  1.8807
    1MPD2    H214340   0.874   2.307  14.466 -0.5632  0.7543 -0.2979
    1MPD2    H314341   1.064   2.266  14.607  0.1008 -0.1769  0.8263
    1MPD2     N14342   0.798   2.101  14.934 -0.1351  0.5328 -0.4340
    1MPD2    H514343   0.699   2.080  14.943 -0.1502  1.9421  2.5783
    1MPD2    N114344   0.637   2.230  14.499  0.1977  0.5731  0.4615
    1MPD2    H714345   0.638   2.298  14.424  0.4554 -0.4829 -0.4804
    2TMC3    C114346   0.433   2.165  14.396 -0.1719  0.3752 -0.5718
    2TMC3    C214347   0.341   2.065  14.414  0.0861  0.4022  0.2049
    2TMC3    C314348   0.211   2.100  14.402 -0.4351  0.4860 -0.1897
    2TMC3    C414349   0.394   2.297  14.376  0.2950  0.3671 -0.2864
    2TMC3    C514350   0.263   2.323  14.354  0.2409  0.1072 -0.0610
    2TMC3    C614351   0.165   2.226  14.375 -1.0601  0.0940 -0.3614
    2TMC3     C14352   0.531   2.144  14.502 -0.3995 -0.4647  0.3117
    2TMC3     O14353   0.509   2.049  14.573  0.1395  0.1536  0.3618
    2TMC3     H14354   0.368   1.962  14.436  1.4010  0.4389 -1.1917
    2TMC3    H114355   0.464   2.378  14.363 -0.1291  0.9791  1.2801
    2TMC3    H214356   0.060   2.246  14.388 -0.8966 -0.1468  1.3057
    2TMC3    C714357   0.230   2.430  14.266 -0.2710  0.4042 -0.4826
    2TMC3    C814358   0.136   2.054  14.521  0.4846  0.1706 -0.3602
    2TMC3    O114359   0.108   2.443  14.243  0.5636  0.3971  0.1080
    2TMC3    O214360   0.013   2.060  14.520  0.5454  0.2146  0.6758
    3TCq1    O114361   0.820   3.028  13.423  0.3245  0.1153  0.2138
    3TCq1    C114362   0.927   2.951  13.451  0.2378 -0.1277 -0.1048
    3TCq1    O214363   1.030   2.939  13.384 -0.3555  0.1041 -0.1666
    3TCq1    C214364   0.879   2.856  13.541 -0.3597  0.3005 -0.7085
    3TCq1    C314365   0.918   2.726  13.527 -0.0875 -0.1837  0.1078
    3TCq1    C414366   0.854   2.633  13.610  0.7891  0.6675  0.2614
    3TCq1    C514367   0.755   2.672  13.694 -0.1744  0.5613 -0.2628
    3TCq1    C614368   0.736   2.801  13.719  0.1744 -0.1482  0.0769
    3TCq1    C714369   0.793   2.899  13.641  0.4246 -0.6704  0.1719
    3TCq1    C814370   0.610   2.836  13.790 -0.2945 -0.3142  0.5543
    3TCq1    O414371   0.547   2.936  13.762 -0.1347  0.2613 -0.6040
    3TCq1    C914372   0.881   2.500  13.599  0.1112 -0.2931  0.4348
    3TCq1    O514373   0.964   2.463  13.505 -0.2160 -0.5297 -0.0506
    3TCq1    O614374   0.801   2.420  13.659  0.0446  0.2061 -0.4461
    3TCq1    H114375   0.745   3.009  13.483  0.6309  1.4592  1.0371
    3TCq1    H214376   0.981   2.700  13.443 -2.4683 -2.5166 -0.9555
    3TCq1    H314377   0.694   2.601  13.749  0.4768  0.0872 -0.1461
    3TCq1    H414378   0.784   3.003  13.668 -1.4870 -0.7227 -0.2640
    4MPD2     C14379   0.340   2.777  13.903 -0.3530 -0.1177 -0.0917
    4MPD2    C114380   0.451   2.718  13.949 -0.9691  0.3393  0.8095
    4MPD2    C214381   0.455   2.632  14.049  0.4054 -0.3932  0.6196
    4MPD2    C314382   0.338   2.585  14.100 -0.0913  0.2109 -0.2689
    4MPD2    C414383   0.216   2.636  14.053  0.6915 -0.2115  0.9002
    4MPD2    C514384   0.219   2.729  13.953 -0.6151  0.0005  0.7267
    4MPD2     H14385   0.542   2.575  14.080  0.7002 -0.0918  0.3400
    4MPD2    H114386   0.116   2.614  14.089  0.1385  2.4848  1.0185
    4MPD2    H214387   0.343   2.848  13.820  2.8536 -0.3590 -0.2013
    4MPD2    H314388   0.126   2.772  13.920  0.2227  0.6108 -0.8270
    4MPD2     N14389   0.343   2.489  14.204 -0.5329 -0.2544 -0.0981
    4MPD2    H514390   0.429   2.458  14.247 -0.4178 -0.4166 -0.4456
    4MPD2    N114391   0.576   2.743  13.891 -0.2174 -0.1293  0.3815
    4MPD2    H714392   0.648   2.686  13.935 -1.4694 -2.6604 -0.8021
    5TMC2    C114393   0.581   1.936  15.154  0.1155 -0.3932  0.4040
    5TMC2    C214394   0.637   1.807  15.159 -0.4327 -0.9706 -0.2567
    5TMC2    C314395   0.769   1.790  15.189  0.2366 -0.1052  0.3072
    5TMC2    C414396   0.677   2.039  15.151  0.1199  0.2873  0.5314
    5TMC2    C514397   0.814   2.012  15.151  0.3860  0.7314 -0.6498
    5TMC2    C614398   0.863   1.889  15.182 -0.0098  0.3490 -0.1730
    5TMC2     C14399   0.483   1.958  15.051  0.1326  0.5943  0.0158
    5TMC2     O14400   0.513   2.051  14.979  0.3002  0.0620  0.7730
    5TMC2     H14401   0.572   1.721  15.145 -0.0101 -0.7202 -3.7998
    5TMC2    H114402   0.647   2.141  15.129  1.5123  0.4170 -0.7957
    5TMC2    H214403   0.969   1.863  15.183  0.1953  1.1873 -1.4637
    5TMC2    C714404   0.888   2.064  15.038  0.0460  0.3104 -0.2225
    5TMC2    C814405   0.811   1.666  15.140  0.2648  0.3295  0.3088
    5TMC2    O114406   1.008   2.044  15.032 -0.0512  0.4054  0.2818
    5TMC2    O214407   0.866   1.672  15.030  0.2512  0.0456  0.3897
    5TMC2    O514408   0.724   1.572  15.191  0.3912 -0.7436  0.4918
    5TMC2    H514409   0.689   1.597  15.279  0.3786  2.2386 -0.3542
    6MPD2     C14410   0.066   1.901  14.765  0.1519  0.0295 -0.0282
    6MPD2    C114411   0.190   1.954  14.744 -0.4582  0.3924 -0.0395
    6MPD2    C214412   0.286   1.944  14.846 -0.1968  0.5586 -0.7467
    6MPD2    C314413   0.262   1.885  14.969 -0.4496  0.1702 -0.0024
    6MPD2    C414414   0.139   1.830  14.989  0.3701 -0.2183  0.3527
    6MPD2    C514415   0.042   1.839  14.888 -0.3576  0.0362 -0.6443
    6MPD2     H14416   0.384   1.973  14.811 -0.9930  0.6929 -2.8400
    6MPD2    H114417   0.104   1.787  15.082  0.5978 -1.4287 -0.1283
    6MPD2    H214418   4.704   1.907  14.700  1.1142 -4.1906 -1.7050
    6MPD2    H314419   4.668   1.802  14.913  0.2406 -1.3781 -0.3428
    6MPD2     N14420   0.363   1.882  15.065  0.2297  0.3445 -0.4385
    6MPD2    H514421   0.354   1.830  15.151 -0.0073  1.3212  0.1309
    6MPD2    N114422   0.226   2.015  14.620  0.6803 -0.2708 -0.7500
    6MPD2    H714423   0.323   2.046  14.616 -0.0154  1.9554 -0.6093
  945NH4     N114424   0.915   0.625   1.673 -0.2670 -0.2847  0.5025
  945NH4     H214425   0.874   0.543   1.723 -0.3318 -0.4186  0.2332
  945NH4     H314426   1.018   0.622   1.660 -0.6249  0.1464 -2.4074
  945NH4     H414427   0.884   0.705   1.731  2.2680  0.8746  0.2586
  945NH4     H514428   0.865   0.630   1.582 -2.6426  0.7956  1.8694
  946SOD     NA14429   2.785   4.538   0.698  0.1055 -0.5870 -0.1863
  947SOD     NA14430   4.316   1.980  14.778 -0.1576  0.4338  0.1099
  948SOD     NA14431   2.169   2.338   8.504  0.1372 -0.1294 -0.1386
  949SOD     NA14432   4.629   2.946   2.144 -0.2554 -0.0929 -0.4099
  950SOD     NA14433   1.243   3.020  16.989  0.0326 -0.0022 -0.6852
  951SOD     NA14434   0.711   3.165  12.484  0.1846  0.1066  0.0191
  952SOD     NA14435   0.440   2.249   0.491 -0.0635 -0.1075 -0.5174
  953SOD     NA14436   1.512   0.886  14.449  0.7035 -0.2325  0.1911
  954SOD     NA14437   4.703   2.062   9.011  0.1944  0.0766  0.3408
  955SOD     NA14438   0.367   0.707  10.155 -0.4349  0.1369  0.2902
  956SOD     NA14439   4.557   1.889   9.902 -0.1910  0.0406  0.1895
  957SOD     NA14440   0.269   3.152  10.581  0.0435  0.2139 -0.0461
  958SOD     NA14441   4.244   4.421  10.757 -0.5675  0.6476  0.0967
  959SOD     NA14442   1.972   1.962  14.698  0.0912  0.1043 -0.3981
  960SOD     NA14443   1.514   2.371  13.400 -0.1116  0.2188  0.4100
  961SOD     NA14444   2.933   2.174   2.542 -0.4756  0.5725  0.1069
  962SOD     NA14445   1.120   0.157  12.811 -0.0193  0.5033  0.2511
  963SOD     NA14446   1.921   2.332  16.660  0.1980 -0.7525  0.4958
  964SOD     NA14447   0.627   1.033  11.518 -0.1303  0.2814 -0.4187
  965SOD     NA14448   3.691   4.124  10.718 -0.0503 -0.1095 -0.0948
  966SOD     NA14449   2.022   3.902   6.175  0.0420 -0.3051 -0.2919
  967SOD     NA14450   3.138   0.418  11.356  0.2295  0.1369  0.1588
  968SOD     NA14451   0.513   1.321  11.459  0.1451 -0.5001 -0.3408
  969SOD     NA14452   3.736   0.085  10.172 -0.2588  0.0759 -0.1913
  970SOD     NA14453   0.296   0.388  10.130  0.3053 -0.3846  0.2008
  971SOD     NA14454   4.390   1.012  10.940  0.2957 -0.6890  0.0083
  972SOD     NA14455   0.917   2.322   3.390 -0.3673 -0.2951 -0.3502
  973SOD     NA14456   1.105   3.515   1.424 -0.1801  0.0057 -0.4469
  974SOD     NA14457   4.177   0.300   2.767 -0.1394 -0.0417  0.6433
  975SOD     NA14458   0.898   0.611  10.125 -0.4103 -0.1013 -0.1656
  976SOD     NA14459   0.618   4.542  12.837  0.2172  0.4248 -0.4236
  977SOD     NA14460   4.504   2.065  14.536  0.0253 -0.3715 -0.3819
  978SOD     NA14461   1.050   0.852  11.629  0.1794  0.0446  0.0257
  979SOD     NA14462   2.918   2.906   1.037  0.0336  0.3179 -0.2153
  980SOD     NA14463   3.537   0.073  13.402 -0.2019 -0.2246 -0.6544
  981SOD     NA14464   2.980   2.247   0.588  0.5682 -0.6111 -0.4103
  982SOD     NA14465   2.185   1.153   1.289  0.6306  0.3598  0.1392
  983SOD     NA14466   0.592   0.520   9.985  0.3426  0.0259 -0.2873
  984SOD     NA14467   1.655   4.261  16.485 -0.4319 -0.3921 -0.1239
  985SOD     NA14468   1.600   1.754   1.988  0.1522  0.0654 -0.1522
  986SOD     NA14469   4.096   1.190  14.634  0.7425  0.1601  0.5314
  987SOD     NA14470   4.675   1.119  15.519 -0.0025 -0.5584  0.1266
  988SOD     NA14471   2.495   1.105  16.356  0.2468 -0.0346  0.2013
  989SOD     NA14472   4.201   3.363  15.972  0.3429 -0.4643  0.1763
  990SOD     NA14473   1.880   3.599   8.424 -0.1323 -0.3009  0.1107
  991SOD     NA14474   1.460   2.811  17.071  0.3216  0.4537  0.0885
  992SOD     NA14475   2.473   2.160  11.866 -0.6744 -0.0568  0.4719
  993SOD     NA14476   1.751   0.775  14.623 -0.1469 -0.3892 -0.4381
  994SOD     NA14477   2.828   1.557  13.154  0.9654 -0.3116  0.4146
  995SOD     NA14478   2.783   4.611   1.006 -0.3232  0.0090  0.0726
  996SOD     NA14479   3.858   0.805  12.830  0.0886 -0.0581  0.0275
  997SOD     NA14480   0.045   0.613  10.180 -0.7464  0.2600  0.2414
  998SOD     NA14481   4.125   1.747   8.724 -0.3476 -0.0681 -0.5353
  999SOD     NA14482   2.035   4.264  15.242  0.3599  0.8071 -0.9863
 1000SOD     NA14483   0.151   3.475  12.978 -0.0855  0.1608 -0.2680
 1001SOD     NA14484   0.764   1.611  14.586 -0.3017  0.8217  0.1168
 1002SOD     NA14485   3.163   0.738  16.174  0.1053  0.4939  0.2242
 1003SOD     NA14486   1.207   3.187   3.572 -0.2184 -0.5089  0.1981
 1004SOD     NA14487   1.915   4.365  14.181  0.1671  0.5660 -0.3796
 1005SOD     NA14488   1.812   1.044  14.425 -0.6900  0.2231 -0.1282
 1006SOD     NA14489   0.583   2.520  10.557 -0.0662 -0.4733  0.1767
 1007SOD     NA14490   0.837   3.648   1.270 -0.0212  0.3326  0.0502
 1008SOD     NA14491   1.915   4.697  12.569 -0.3893  0.1558 -0.6593
 1009SOD     NA14492   2.193   2.032  10.865  0.4047 -0.1332 -0.1307
 1010SOD     NA14493   1.291   0.729  11.370  0.5772  0.2508  0.2898
 1011SOL     OW14494   0.369   4.383   1.948  0.3717  0.1611 -0.7399
 1011SOL    HW114495   0.341   4.472   1.970  0.9082  0.6576 -2.1122
 1011SOL    HW214496   0.449   4.375   2.000 -1.0077 -0.1308  1.3582
 1012SOL     OW14497   1.504   0.071   1.721  0.1652  0.0896 -0.0833
 1012SOL    HW114498   1.524   0.068   1.814  0.5161  0.9644 -0.1317
 1012SOL    HW214499   1.529   0.159   1.691 -0.5465  0.5602  0.7195
 1013SOL     OW14500   4.634   2.865   3.612 -0.3478  0.1688  0.4024
 1013SOL    HW114501   4.725   2.864   3.583 -0.6115 -0.2620 -0.4192
 1013SOL    HW214502   4.636   2.817   3.695 -0.8205  0.0703  0.3599
 1014SOL     OW14503   1.192   3.450   6.692 -0.5604  0.3061 -0.3909
 1014SOL    HW114504   1.106   3.474   6.725 -0.6990 -0.5711 -0.1018
 1014SOL    HW214505   1.175   3.374   6.635 -1.0741 -0.8452  1.2887
 1015SOL     OW14506   0.695   3.259   1.119  0.5817  0.1725  0.7949
 1015SOL    HW114507   0.725   3.349   1.107  0.7310  0.0389  0.1681
 1015SOL    HW214508   0.630   3.267   1.189 -1.3439 -1.3126 -0.8258
 1016SOL     OW14509   1.703   1.303  15.467 -0.5278  0.5342 -0.0174
 1016SOL    HW114510   1.709   1.396  15.444  2.7446  0.3943  0.2518
 1016SOL    HW214511   1.661   1.273  15.386  0.3414 -0.6886 -0.0170
 1017SOL     OW14512   0.249   1.811   3.881 -0.3046 -0.3440 -0.1048
 1017SOL    HW114513   0.321   1.829   3.941 -0.2083  0.2312 -0.3854
 1017SOL    HW214514   0.289   1.743   3.828  2.9340  1.0709  0.4984
 1018SOL     OW14515   0.791   0.820   8.076  0.2717 -0.1143  0.3009
 1018SOL    HW114516   0.839   0.890   8.120 -0.3481  0.7512 -0.4005
 1018SOL    HW214517   0.704   0.834   8.111  1.6303  2.1208  2.7850
 1019SOL     OW14518   0.863   0.905   1.311  0.2750 -0.1280  0.4003
 1019SOL    HW114519   0.793   0.850   1.274  0.8281  0.2538 -1.2056
 1019SOL    HW214520   0.859   0.984   1.257 -3.0493 -1.5307 -1.3932
 1020SOL     OW14521   2.898   0.029   7.448  0.6202  0.4765  0.6178
 1020SOL    HW114522   2.978   4.701   7.445  0.0469 -0.2175 -3.1541
 1020SOL    HW214523   2.904   0.042   7.542 -1.2656 -1.1986  0.9719
 1021SOL     OW14524   1.132   0.404  10.754 -0.7570 -0.7368 -0.0329
 1021SOL    HW114525   1.049   0.393  10.708  0.5969 -3.4271 -1.8790
 1021SOL    HW214526   1.174   0.470  10.699 -1.1546 -1.0274 -0.6860
 1022SOL     OW14527   3.713   2.568   9.097  0.4259  0.3588 -1.1739
 1022SOL    HW114528   3.686   2.628   9.167 -2.0529 -1.6811 -0.3641
 1022SOL    HW214529   3.632   2.522   9.076  0.4911 -0.6075  0.7069
 1023SOL     OW14530   3.766   1.932   5.246 -0.6085  0.1604 -0.0142
 1023SOL    HW114531   3.718   1.966   5.322  1.6566  2.5124  0.3797
 1023SOL    HW214532   3.812   1.857   5.284  0.4856  0.9402  0.1946
 1024SOL     OW14533   1.911   2.047   6.962 -0.2412 -0.3850  0.4134
 1024SOL    HW114534   1.879   1.962   6.990 -0.7050 -0.0474  0.9126
 1024SOL    HW214535   1.902   2.109   7.034 -0.1280  1.3245 -1.0369
 1025SOL     OW14536   3.785   3.663   6.799  0.1280  0.6593  0.1565
 1025SOL    HW114537   3.721   3.593   6.789 -0.4999  1.1051  1.0127
 1025SOL    HW214538   3.845   3.657   6.725  0.4996 -1.9871  0.6728
 1026SOL     OW14539   3.602   1.012   7.489 -0.4239  0.1020  0.4064
 1026SOL    HW114540   3.557   1.011   7.573 -0.9558 -2.0973  0.0933
 1026SOL    HW214541   3.693   0.999   7.513  0.1075  1.6611 -0.7717
 1027SOL     OW14542   3.303   3.913   1.288  0.5161  0.0496 -0.0496
 1027SOL    HW114543   3.360   3.844   1.254  0.6676  0.1671 -0.0315
 1027SOL    HW214544   3.275   3.873   1.370 -0.4725  2.0858  0.5901
 1028SOL     OW14545   0.111   2.597  16.090  0.4503  0.3820 -0.3419
 1028SOL    HW114546   0.072   2.561  16.010 -1.1468  2.2802 -0.4010
 1028SOL    HW214547   0.084   2.688  16.081  2.0462  0.7013 -1.8470
 1029SOL     OW14548   0.868   1.678  12.538 -0.3479 -0.8735  0.1852
 1029SOL    HW114549   0.953   1.702  12.503 -0.7205  0.6438  0.3259
 1029SOL    HW214550   0.887   1.663  12.631  1.0446  1.2997  0.2460
 1030SOL     OW14551   1.883   3.426  15.785  0.5282 -0.1271  0.2847
 1030SOL    HW114552   1.933   3.380  15.717 -0.6497  2.2653 -2.2008
 1030SOL    HW214553   1.953   3.466  15.836  0.3909  0.1916  0.2238
 1031SOL     OW14554   3.387   0.076   3.683 -0.0389 -0.2351  0.4122
 1031SOL    HW114555   3.365   0.031   3.602  1.4294  0.6343 -0.4786
 1031SOL    HW214556   3.482   0.062   3.687 -0.0212  0.1638  1.3354
 1032SOL     OW14557   1.885   2.804   2.289  0.0411  0.2266 -0.2592
 1032SOL    HW114558   1.946   2.732   2.302 -0.8411 -0.1592  1.7493
 1032SOL    HW214559   1.947   2.868   2.254  0.7599  0.2971  1.1526
 1033SOL     OW14560   2.279   0.922   4.730 -0.3332 -0.3939 -0.4035
 1033SOL    HW114561   2.319   0.869   4.661 -1.4044 -1.3848 -0.2610
 1033SOL    HW214562   2.240   0.990   4.674  0.7243  0.0674 -0.5914
 1034SOL     OW14563   2.961   3.650   3.463 -0.0938  0.2305 -0.4673
 1034SOL    HW114564   2.942   3.629   3.554 -1.2131 -0.2178 -0.8039
 1034SOL    HW214565   2.978   3.742   3.485  0.0710 -0.0508  0.5591
 1035SOL     OW14566   4.129   3.320   0.993  0.0184  0.4966  0.0054
 1035SOL    HW114567   4.083   3.318   0.909  0.1195  0.2357 -0.0449
 1035SOL    HW214568   4.177   3.403   0.995  1.0044 -0.0163 -1.7815
 1036SOL     OW14569   3.901   2.273  11.046 -0.3213 -0.5047 -0.2512
 1036SOL    HW114570   3.809   2.274  11.073  0.0024  1.0641  0.7578
 1036SOL    HW214571   3.906   2.211  10.973 -0.0898 -0.2915 -0.4149
 1037SOL     OW14572   3.042   3.301   3.670 -0.4549 -0.6384  0.1880
 1037SOL    HW114573   3.072   3.388   3.698  0.5504 -0.2823 -2.0467
 1037SOL    HW214574   3.078   3.248   3.741 -1.2834  0.2168  1.2707
 1038SOL     OW14575   1.286   3.165  11.373 -0.1617  0.0760  0.1488
 1038SOL    HW114576   1.313   3.197  11.287  0.5838  0.8088  0.6533
 1038SOL    HW214577   1.350   3.094  11.383 -0.4260 -0.0273  1.1372
 1039SOL     OW14578   4.505   1.733  13.832  0.4727  0.1123 -0.2705
 1039SOL    HW114579   4.587   1.770  13.865 -0.0165  1.3080 -0.3736
 1039SOL    HW214580   4.500   1.656  13.888 -0.3887  2.9072  3.5207
 1040SOL     OW14581   0.721   2.893  12.940 -0.1465 -0.0735 -0.1072
 1040SOL    HW114582   0.702   2.981  12.972 -2.1534 -0.7090  0.4411
 1040SOL    HW214583   0.673   2.886  12.857 -2.7857  0.4093  1.3804
 1041SOL     OW14584   3.780   0.402   2.956 -0.0951 -0.1415 -0.0623
 1041SOL    HW114585   3.768   0.328   3.015  0.1466  0.7965  1.1617
 1041SOL    HW214586   3.782   0.473   3.021  1.8469  1.1206 -1.4745
 1042SOL     OW14587   0.889   1.980  12.195 -0.6675  0.2170 -0.0003
 1042SOL    HW114588   0.803   1.946  12.171  0.1716 -0.3076 -2.2497
 1042SOL    HW214589   0.879   2.064  12.241 -0.7535  0.1775  0.0541
 1043SOL     OW14590   3.032   2.480   6.716  0.0581 -0.0605 -0.0978
 1043SOL    HW114591   2.980   2.414   6.669 -1.4082  1.0694 -0.0584
 1043SOL    HW214592   3.084   2.526   6.651 -0.2770 -0.3186 -0.5482
 1044SOL     OW14593   1.333   2.870   7.752  0.4949 -0.2664 -0.5903
 1044SOL    HW114594   1.284   2.905   7.678  1.8129  0.1870 -1.2502
 1044SOL    HW214595   1.324   2.776   7.733  2.5636 -0.4188 -0.8067
 1045SOL     OW14596   1.505   4.593   1.950 -0.2159  0.4454  0.2794
 1045SOL    HW114597   1.585   4.611   1.902 -1.1181  0.5808 -1.1760
 1045SOL    HW214598   1.527   4.519   2.007  1.1285  1.0361  0.5197
 1046SOL     OW14599   1.632   2.447  13.220  0.2282  0.0571  0.0237
 1046SOL    HW114600   1.714   2.403  13.198  0.6587  0.6810  0.3711
 1046SOL    HW214601   1.648   2.540  13.204 -0.2111 -0.0173 -0.8043
 1047SOL     OW14602   0.461   0.533   1.512 -0.3359  0.4508 -0.5570
 1047SOL    HW114603   0.473   0.513   1.604  1.8389  0.1898 -0.9009
 1047SOL    HW214604   0.385   0.478   1.494 -0.7635  0.2468  1.9413
 1048SOL     OW14605   2.445   1.352   6.541  0.1201  0.0008 -0.6752
 1048SOL    HW114606   2.537   1.377   6.544  0.1540 -0.0744 -1.0931
 1048SOL    HW214607   2.407   1.415   6.481 -3.0109 -1.1649  0.0616
 1049SOL     OW14608   2.426   2.858   0.531  0.2223 -0.4306  0.0124
 1049SOL    HW114609   2.333   2.855   0.554 -0.3426 -0.6331 -2.2262
 1049SOL    HW214610   2.465   2.799   0.595  0.2147  3.2627  3.4020
 1050SOL     OW14611   2.388   0.306   7.014  0.0635  0.0909 -0.5217
 1050SOL    HW114612   2.425   0.220   7.037  2.2591  1.0556 -0.4696
 1050SOL    HW214613   2.412   0.327   6.924  1.0049 -0.5357 -0.4192
 1051SOL     OW14614   3.836   0.046   6.589  0.0101  0.3234 -0.3539
 1051SOL    HW114615   3.753   0.002   6.607  2.0007 -3.2577  0.0713
 1051SOL    HW214616   3.895   4.702   6.619  0.4949  0.3633 -1.2116
 1052SOL     OW14617   2.853   2.302   6.249  0.2657  0.2256 -0.0967
 1052SOL    HW114618   2.760   2.322   6.265 -0.1210  0.0599 -2.0760
 1052SOL    HW214619   2.851   2.209   6.230 -0.3671 -0.0173  1.1364
 1053SOL     OW14620   1.801   4.014  10.483 -0.3844  0.8325 -0.0953
 1053SOL    HW114621   1.814   4.086  10.421 -2.8143  1.0550 -0.3427
 1053SOL    HW214622   1.827   4.065  10.560 -0.0184 -1.4414  1.2677
 1054SOL     OW14623   3.648   2.459   2.651 -0.4643  0.2115 -0.8922
 1054SOL    HW114624   3.729   2.507   2.670 -1.7360  1.8869  0.3452
 1054SOL    HW214625   3.584   2.510   2.701  0.5310 -0.6779  1.3113
 1055SOL     OW14626   2.948   4.628   1.144 -0.3514  0.2886 -0.9381
 1055SOL    HW114627   3.041   4.645   1.131 -0.1230 -0.2929 -0.1232
 1055SOL    HW214628   2.920   4.698   1.203  2.3349 -1.2298  2.0945
 1056SOL     OW14629   0.637   2.814   3.444 -0.0034  0.2541 -0.2611
 1056SOL    HW114630   0.694   2.822   3.367  0.4772  0.0511  0.0735
 1056SOL    HW214631   0.692   2.851   3.512 -0.5569 -0.4476  0.5768
 1057SOL     OW14632   4.486   4.099   5.741 -0.9235  0.1193  0.5870
 1057SOL    HW114633   4.402   4.053   5.732 -0.7781 -0.2015  0.8578
 1057SOL    HW214634   4.470   4.151   5.820  0.1533 -1.3294  1.7706
 1058SOL     OW14635   4.343   2.614   7.475  0.1345  0.4595 -0.0741
 1058SOL    HW114636   4.313   2.571   7.555 -0.4156 -1.8479 -1.5255
 1058SOL    HW214637   4.272   2.587   7.417 -0.8689  0.0515  1.3474
 1059SOL     OW14638   4.432   0.238  17.043  0.2052  0.1469  0.2658
 1059SOL    HW114639   4.396   0.247  16.955 -0.7802 -2.2565  0.4212
 1059SOL    HW214640   4.468   0.327  17.050  1.8873 -0.5906  1.1032
 1060SOL     OW14641   4.199   1.757   2.835 -0.0535  0.6043 -0.0572
 1060SOL    HW114642   4.267   1.694   2.812 -0.4768 -0.1123  0.6626
 1060SOL    HW214643   4.168   1.788   2.750 -0.7575 -2.2566 -0.8358
 1061SOL     OW14644   4.362   3.673   6.446  0.1712 -0.3903 -0.1085
 1061SOL    HW114645   4.281   3.721   6.432  0.6372  0.6907  0.9787
 1061SOL    HW214646   4.417   3.732   6.498 -0.3684  0.8006 -0.8866
 1062SOL     OW14647   1.204   3.987  11.978 -0.0593  0.0341 -0.1412
 1062SOL    HW114648   1.151   4.062  11.951 -0.1154  0.6420  1.6507
 1062SOL    HW214649   1.225   3.942  11.897  2.8914  3.6754 -1.4113
 1063SOL     OW14650   4.436   3.387  11.246 -0.3441  0.2455 -0.3112
 1063SOL    HW114651   4.390   3.469  11.264  0.4334  0.6829 -0.2862
 1063SOL    HW214652   4.431   3.354  11.335  1.0930 -1.4095 -0.8473
 1064SOL     OW14653   2.974   2.684   2.663 -0.0992  0.0080  0.4968
 1064SOL    HW114654   3.049   2.677   2.722  0.9972  2.3373 -0.6221
 1064SOL    HW214655   2.905   2.689   2.729  0.5624  0.3545  1.1588
 1065SOL     OW14656   0.510   4.542  10.129 -0.1039  0.1060 -0.4557
 1065SOL    HW114657   0.442   4.607  10.111  0.0679  0.2639 -0.5353
 1065SOL    HW214658   0.566   4.588  10.192 -1.1287 -2.9581  2.7045
 1066SOL     OW14659   1.237   1.428   8.793 -0.1223  0.8202 -0.1258
 1066SOL    HW114660   1.149   1.391   8.785 -0.1000  0.2518  2.3798
 1066SOL    HW214661   1.219   1.520   8.810 -1.9487  0.2554  0.9683
 1067SOL     OW14662   3.578   0.636   8.781 -0.6578  0.1724 -0.1667
 1067SOL    HW114663   3.630   0.702   8.827 -1.2235  0.4711  0.0430
 1067SOL    HW214664   3.487   0.667   8.784 -0.1673  1.7384 -1.2310
 1068SOL     OW14665   4.081   3.115   9.092 -0.8898  0.3674 -0.2957
 1068SOL    HW114666   4.123   3.173   9.029 -0.8515  0.9271  0.2520
 1068SOL    HW214667   4.071   3.172   9.168  1.2037  0.9002 -0.4050
 1069SOL     OW14668   2.890   3.186   6.884 -0.2621 -0.1853 -0.1640
 1069SOL    HW114669   2.839   3.109   6.908 -0.0927  0.0858  1.0672
 1069SOL    HW214670   2.861   3.188   6.793  0.7652 -1.3149 -0.5186
 1070SOL     OW14671   0.637   1.903   0.055  0.5066 -0.2631  0.4214
 1070SOL    HW114672   0.719   1.872   0.016 -0.2319 -1.4046 -0.2200
 1070SOL    HW214673   0.673   1.934   0.138 -1.5412 -1.4261  1.7311
 1071SOL     OW14674   3.140   3.472   6.773  0.0939  0.0580  0.1760
 1071SOL    HW114675   3.197   3.542   6.805 -1.4162  1.3657  0.0059
 1071SOL    HW214676   3.097   3.446   6.854  2.9451 -0.1630  1.6044
 1072SOL     OW14677   2.616   3.790   3.711 -0.1684 -0.2592 -0.4829
 1072SOL    HW114678   2.655   3.873   3.683  2.4196 -1.1393  0.4546
 1072SOL    HW214679   2.613   3.744   3.627 -3.0203 -2.0895  0.6184
 1073SOL     OW14680   1.888   4.503   7.459  0.1140 -0.0996  0.1957
 1073SOL    HW114681   1.799   4.473   7.437 -0.0216 -0.7151  1.5838
 1073SOL    HW214682   1.945   4.462   7.394 -1.7021 -2.7425  0.2208
 1074SOL     OW14683   1.818   3.520   8.928  0.1123  0.1608 -0.3906
 1074SOL    HW114684   1.910   3.509   8.950 -0.3617  0.9665  2.0415
 1074SOL    HW214685   1.782   3.447   8.977 -1.0738 -0.0704 -1.5989
 1075SOL     OW14686   1.183   0.337   6.162 -0.1356 -0.5107 -0.4647
 1075SOL    HW114687   1.159   0.401   6.096  0.2999  0.0615 -0.0626
 1075SOL    HW214688   1.276   0.357   6.177 -0.3728  0.4044 -0.2540
 1076SOL     OW14689   3.754   2.491   5.877  0.3331 -0.7093 -0.4324
 1076SOL    HW114690   3.815   2.494   5.804  2.2568 -2.8833  1.0808
 1076SOL    HW214691   3.784   2.568   5.927 -1.4373  0.2673 -0.8854
 1077SOL     OW14692   1.846   1.329  13.613  0.0115  0.0283  0.1027
 1077SOL    HW114693   1.802   1.365  13.691 -1.4424 -0.4495 -0.5045
 1077SOL    HW214694   1.871   1.246  13.653 -1.8158 -1.4163 -1.8392
 1078SOL     OW14695   3.512   0.402   8.903  0.1009  0.3805  0.2438
 1078SOL    HW114696   3.523   0.486   8.858  2.3427 -0.3141 -0.5221
 1078SOL    HW214697   3.565   0.411   8.982 -0.6982 -1.2286  0.9612
 1079SOL     OW14698   4.490   3.827  11.380 -0.0911 -0.2987  0.3470
 1079SOL    HW114699   4.425   3.758  11.374 -1.8915  1.3310  0.9052
 1079SOL    HW214700   4.560   3.776  11.420 -0.0333 -1.0358 -0.7259
 1080SOL     OW14701   0.285   3.179   7.655 -0.0927 -0.2404 -0.1606
 1080SOL    HW114702   0.354   3.179   7.589  0.0239 -0.8071 -0.0379
 1080SOL    HW214703   0.224   3.127   7.604 -2.3432  1.0108  1.2153
 1081SOL     OW14704   4.012   1.572   4.429  0.2899  0.1361 -0.0240
 1081SOL    HW114705   4.022   1.526   4.345 -2.4346  1.0966 -0.8645
 1081SOL    HW214706   3.951   1.512   4.472  0.0703 -0.7343 -1.5495
 1082SOL     OW14707   3.557   3.836  16.291  0.0256  0.3229  0.0253
 1082SOL    HW114708   3.582   3.926  16.271 -0.1302  0.3239 -0.1617
 1082SOL    HW214709   3.488   3.819  16.227 -0.6183 -0.9661  1.0611
 1083SOL     OW14710   3.429   3.482   9.787 -0.4805 -0.6287 -0.2011
 1083SOL    HW114711   3.417   3.465   9.880 -1.2651 -0.0476 -0.1988
 1083SOL    HW214712   3.360   3.427   9.751 -2.4342 -0.3044  3.1179
 1084SOL     OW14713   2.901   3.520   0.567 -0.0585 -0.1991 -0.3868
 1084SOL    HW114714   2.814   3.540   0.533  0.8578  2.8006 -0.9768
 1084SOL    HW214715   2.894   3.561   0.654  0.6523  0.9501 -0.8685
 1085SOL     OW14716   0.551   3.601   1.619 -0.1483 -0.2817 -0.1906
 1085SOL    HW114717   0.613   3.531   1.642 -2.1629 -2.4230 -1.1831
 1085SOL    HW214718   0.603   3.665   1.570  1.1064  0.6640  2.4091
 1086SOL     OW14719   1.349   2.053  17.073 -0.3094  0.1695  0.0876
 1086SOL    HW114720   1.316   1.976  17.120  0.2103 -0.2165 -0.1819
 1086SOL    HW214721   1.277   2.079  17.016  0.2013  0.1477 -0.5711
 1087SOL     OW14722   0.373   0.772   3.047 -0.4200 -0.1858  0.1300
 1087SOL    HW114723   0.330   0.754   2.963 -2.4172  1.1553  0.8699
 1087SOL    HW214724   0.311   0.836   3.083 -0.1685  0.5583 -0.7443
 1088SOL     OW14725   2.721   1.598   8.124  0.3074 -0.3403 -0.2455
 1088SOL    HW114726   2.697   1.688   8.146 -0.5969 -0.2104 -1.7878
 1088SOL    HW214727   2.636   1.557   8.139 -0.3147  1.1771  0.2940
 1089SOL     OW14728   2.217   1.713   5.491 -0.8837  0.1294  0.1531
 1089SOL    HW114729   2.147   1.767   5.454 -0.3710  0.6966  0.0056
 1089SOL    HW214730   2.190   1.625   5.466 -3.4302  0.5161  1.4708
 1090SOL     OW14731   1.582   0.441   3.592  0.2384  0.0860  0.0778
 1090SOL    HW114732   1.490   0.458   3.573  0.9360  0.4163 -2.9364
 1090SOL    HW214733   1.572   0.401   3.679 -1.2683 -1.1605 -0.6803
 1091SOL     OW14734   3.046   2.440  11.785 -0.2577 -0.3256  0.3929
 1091SOL    HW114735   3.110   2.496  11.741  0.0973 -0.3652  0.8489
 1091SOL    HW214736   3.082   2.427  11.873  0.6158  0.7937  0.2020
 1092SOL     OW14737   1.088   1.612   1.130 -0.6544 -0.2129  0.4541
 1092SOL    HW114738   0.998   1.641   1.115 -0.0906  1.4504  0.2771
 1092SOL    HW214739   1.099   1.665   1.209  1.0742 -0.0886  0.1483
 1093SOL     OW14740   1.524   1.488   5.623  0.2890 -0.1788  0.5647
 1093SOL    HW114741   1.444   1.449   5.656  0.7646 -1.5589  0.1107
 1093SOL    HW214742   1.583   1.448   5.687  0.3644 -0.7572  0.1455
 1094SOL     OW14743   3.069   0.520  11.166 -0.2483  0.3436 -0.1144
 1094SOL    HW114744   3.052   0.614  11.175  0.7727  0.0821  4.6635
 1094SOL    HW214745   3.004   0.510  11.096  0.0984  0.1519 -0.4058
 1095SOL     OW14746   0.673   3.156   6.681 -0.4278  0.0633 -0.2177
 1095SOL    HW114747   0.584   3.169   6.714 -0.7694 -0.7518 -0.8237
 1095SOL    HW214748   0.676   3.179   6.588 -0.9313 -1.9449 -0.7228
 1096SOL     OW14749   4.459   4.134   6.653 -0.1903 -0.6180 -0.1943
 1096SOL    HW114750   4.455   4.122   6.747 -0.6396  3.6989  0.3541
 1096SOL    HW214751   4.369   4.106   6.638  0.4370 -1.7880 -1.8804
 1097SOL     OW14752   3.549   3.221   0.576  0.0329  0.3362 -0.1187
 1097SOL    HW114753   3.631   3.170   0.578 -1.3988 -2.0069 -0.6599
 1097SOL    HW214754   3.495   3.161   0.524  2.8430 -1.1627 -1.3378
 1098SOL     OW14755   3.527   4.501   2.066  0.5458  0.2621  0.0115
 1098SOL    HW114756   3.589   4.428   2.070 -1.6561 -1.6510 -0.3143
 1098SOL    HW214757   3.485   4.480   2.150 -0.8218  2.4702 -0.1166
 1099SOL     OW14758   2.075   3.747   7.744 -0.3916  0.3301  0.6574
 1099SOL    HW114759   2.016   3.724   7.672 -0.4672  2.2482  0.1166
 1099SOL    HW214760   2.134   3.672   7.732 -1.9940 -0.9292  0.6592
 1100SOL     OW14761   1.131   3.090   4.297 -0.0652  0.2901 -0.5540
 1100SOL    HW114762   1.118   3.109   4.204 -0.8442 -1.8489 -0.8842
 1100SOL    HW214763   1.047   3.096   4.342 -0.1655  0.0735 -0.7188
 1101SOL     OW14764   1.000   3.817   7.448  0.4174 -0.0280 -0.3076
 1101SOL    HW114765   1.082   3.804   7.496  1.6452  1.0306 -2.1442
 1101SOL    HW214766   0.964   3.899   7.482  2.7454  0.8795 -0.0766
 1102SOL     OW14767   1.554   0.799   4.131  0.6600  0.0631  0.2342
 1102SOL    HW114768   1.644   0.799   4.100 -0.0222  1.8782 -1.6769
 1102SOL    HW214769   1.564   0.721   4.186  0.5211  1.7334  2.6135
 1103SOL     OW14770   0.917   4.660   6.884 -0.2966 -0.3347 -0.2252
 1103SOL    HW114771   0.864   4.645   6.963  0.5439  0.8200  0.5490
 1103SOL    HW214772   0.952   0.022   6.901 -2.0701  0.3144  0.1333
 1104SOL     OW14773   0.970   3.899   8.079 -0.1592 -0.2803  0.4577
 1104SOL    HW114774   0.927   3.857   8.154  0.3105  0.5692  1.2055
 1104SOL    HW214775   0.939   3.842   8.009 -0.9080  0.9404 -0.1938
 1105SOL     OW14776   2.806   3.483  11.035 -0.0364 -0.1288 -0.5486
 1105SOL    HW114777   2.829   3.564  11.082 -0.4247  0.0061 -0.5931
 1105SOL    HW214778   2.725   3.451  11.074  0.3434 -1.0460 -0.5156
 1106SOL     OW14779   1.041   2.235   9.168 -0.3006 -0.2039  0.1366
 1106SOL    HW114780   1.084   2.156   9.136 -2.8419 -2.5788  2.6201
 1106SOL    HW214781   0.957   2.219   9.125 -1.3840  0.6064  1.9677
 1107SOL     OW14782   2.967   2.284   6.542 -0.0689  0.1826 -0.1206
 1107SOL    HW114783   2.936   2.194   6.547 -0.8427  0.3693 -1.5845
 1107SOL    HW214784   2.946   2.305   6.452 -0.9041 -2.0506 -0.4378
 1108SOL     OW14785   0.021   0.927   3.026  0.0244 -0.0198 -0.6076
 1108SOL    HW114786   0.093   0.990   3.018 -0.3146  0.4808  0.3280
 1108SOL    HW214787   4.694   0.969   3.094  1.5033  1.2125 -0.2292
 1109SOL     OW14788   2.979   3.872  16.808 -0.1239 -0.3944 -0.1235
 1109SOL    HW114789   2.940   3.897  16.891  1.2616 -0.9760  0.7020
 1109SOL    HW214790   3.009   3.781  16.814  0.8744 -0.3300 -3.7809
 1110SOL     OW14791   4.494   4.537   9.309 -0.1134  0.1946  0.0226
 1110SOL    HW114792   4.482   4.623   9.349 -0.7959  0.2894 -0.3814
 1110SOL    HW214793   4.414   4.489   9.330  0.0147  1.0549  2.4000
 1111SOL     OW14794   4.542   2.985   4.002 -0.4036  0.2736  0.5125
 1111SOL    HW114795   4.464   2.944   4.040 -0.6566 -1.0737 -1.4034
 1111SOL    HW214796   4.581   3.029   4.077 -0.6548 -0.7140  1.2192
 1112SOL     OW14797   4.398   2.118  10.505  0.2597  0.1548 -0.4204
 1112SOL    HW114798   4.474   2.147  10.557  0.3089 -1.2960  0.3402
 1112SOL    HW214799   4.336   2.188  10.521  0.7951  0.1485  1.8142
 1113SOL     OW14800   1.406   1.394   8.579 -0.0370  0.0724 -0.3118
 1113SOL    HW114801   1.374   1.400   8.669  0.2509  1.6080 -0.3064
 1113SOL    HW214802   1.496   1.373   8.606  0.5102  2.5471 -0.2015
 1114SOL     OW14803   1.714   3.008   2.156 -0.5764 -0.2125 -0.1241
 1114SOL    HW114804   1.805   2.984   2.172 -1.1910 -1.6160  1.2473
 1114SOL    HW214805   1.684   2.957   2.081 -2.4404  1.4741 -0.5586
 1115SOL     OW14806   3.535   2.722   4.751 -0.3670  0.5400 -1.1525
 1115SOL    HW114807   3.440   2.720   4.736 -0.5192 -1.6943  0.1733
 1115SOL    HW214808   3.547   2.817   4.749  0.1464  0.5177  0.5047
 1116SOL     OW14809   0.933   2.225   7.376  0.5037  0.0471  0.0435
 1116SOL    HW114810   0.938   2.307   7.328 -0.9814 -0.0163 -0.2288
 1116SOL    HW214811   0.910   2.170   7.300  1.8905 -0.5761  0.0809
 1117SOL     OW14812   3.845   1.860   6.689 -0.7547 -0.1752  0.1551
 1117SOL    HW114813   3.790   1.782   6.703 -0.2106 -1.1068 -2.8542
 1117SOL    HW214814   3.777   1.923   6.714 -0.8415 -0.4382  0.6045
 1118SOL     OW14815   2.215   0.576  16.963  0.3026  0.3170 -0.2675
 1118SOL    HW114816   2.134   0.556  17.012 -0.6244  0.5877 -1.6876
 1118SOL    HW214817   2.285   0.546  17.021  3.0770  2.5425 -2.5397
 1119SOL     OW14818   4.306   3.301   4.468  1.1318 -0.4070 -0.2864
 1119SOL    HW114819   4.241   3.370   4.462  2.6123  0.9005 -1.3340
 1119SOL    HW214820   4.382   3.332   4.519 -0.2088  2.1558  0.1592
 1120SOL     OW14821   0.585   4.078   7.041 -0.1821 -0.6464  0.0814
 1120SOL    HW114822   0.568   4.171   7.057 -1.0724 -0.8123  0.0869
 1120SOL    HW214823   0.497   4.041   7.044 -0.6258  0.2485 -1.4946
 1121SOL     OW14824   2.584   4.589   5.635 -0.1531 -0.0484  0.3600
 1121SOL    HW114825   2.522   4.622   5.570  0.0147 -1.0865 -0.3271
 1121SOL    HW214826   2.640   4.531   5.582 -0.8499  1.1633 -1.7056
 1122SOL     OW14827   3.097   2.873   3.765  0.1630 -0.6772 -0.7078
 1122SOL    HW114828   3.190   2.858   3.746 -0.0395 -0.5416 -1.8286
 1122SOL    HW214829   3.057   2.821   3.695 -1.4448  1.3471 -1.2939
 1123SOL     OW14830   1.054   0.047   0.743 -0.0838 -0.7166 -0.1536
 1123SOL    HW114831   0.979   0.077   0.794  0.7023  0.3407  0.3819
 1123SOL    HW214832   1.013   4.704   0.690  1.1415  0.0403 -2.0773
 1124SOL     OW14833   3.131   0.031  13.963  0.0244  1.0238  0.2702
 1124SOL    HW114834   3.058   4.722  14.015 -2.1272  1.3128 -2.5791
 1124SOL    HW214835   3.162   0.095  14.027 -0.7950  1.4101  0.2786
 1125SOL     OW14836   1.385   3.589   9.736 -0.0591  0.1480  0.0134
 1125SOL    HW114837   1.334   3.667   9.713  1.3308  1.6978  2.1779
 1125SOL    HW214838   1.419   3.620   9.819  0.1882  1.9856 -0.7654
 1126SOL     OW14839   0.485   4.575   9.682 -0.1196 -0.1242 -0.7720
 1126SOL    HW114840   0.562   4.574   9.625 -1.7194  0.2005 -2.9207
 1126SOL    HW214841   0.421   4.603   9.617  1.7852  0.1966 -2.5041
 1127SOL     OW14842   1.841   0.929   7.394 -0.4047 -0.3223 -0.2737
 1127SOL    HW114843   1.932   0.917   7.368  0.3353  0.6136  1.8909
 1127SOL    HW214844   1.836   0.858   7.457 -1.1071 -0.4903 -0.5178
 1128SOL     OW14845   1.332   2.381  11.389  0.3784  0.4000 -0.2492
 1128SOL    HW114846   1.290   2.335  11.462 -1.7530  0.6877 -1.3195
 1128SOL    HW214847   1.349   2.308  11.330 -0.9405  1.1764 -1.5699
 1129SOL     OW14848   4.593   1.255   7.941  0.0738 -0.4579 -0.4730
 1129SOL    HW114849   4.659   1.242   7.873  1.1804 -2.8696  1.0204
 1129SOL    HW214850   4.552   1.169   7.929 -1.0660  0.0286 -0.0330
 1130SOL     OW14851   1.256   2.674  16.764 -0.3085  0.0606  0.2678
 1130SOL    HW114852   1.274   2.661  16.670 -0.7723 -0.0441  0.1930
 1130SOL    HW214853   1.228   2.586  16.789 -0.5171 -1.4082 -4.9982
 1131SOL     OW14854   3.274   2.242   4.849 -0.3054  0.1162  1.1528
 1131SOL    HW114855   3.323   2.323   4.838  0.1015 -0.3369 -0.3549
 1131SOL    HW214856   3.342   2.175   4.859  0.3580  0.3257 -1.9841
 1132SOL     OW14857   2.737   3.565   8.478  0.0460 -0.4586 -0.4362
 1132SOL    HW114858   2.662   3.597   8.427 -1.4696 -1.6507  1.0151
 1132SOL    HW214859   2.805   3.564   8.411  0.0382  0.3289 -0.4602
 1133SOL     OW14860   3.319   1.300   3.731  0.3971  0.3846 -0.2050
 1133SOL    HW114861   3.271   1.354   3.668 -2.3837 -2.5376 -0.5777
 1133SOL    HW214862   3.404   1.341   3.717  0.3085  1.3371  2.1075
 1134SOL     OW14863   3.465   2.183   9.784  0.2395  0.2105  0.4465
 1134SOL    HW114864   3.515   2.112   9.742 -1.3752 -1.5307  1.4652
 1134SOL    HW214865   3.535   2.247   9.794 -0.3961  0.6329  2.0901
 1135SOL     OW14866   0.329   2.225   4.461 -0.0303 -0.0619  0.3398
 1135SOL    HW114867   0.277   2.247   4.383  2.3711 -0.2056 -1.3005
 1135SOL    HW214868   0.288   2.146   4.496  1.3268 -0.2281  1.5246
 1136SOL     OW14869   0.714   4.719   8.044  0.0900 -1.0070 -0.0520
 1136SOL    HW114870   0.791   0.026   8.091 -0.0360 -0.8494  0.0473
 1136SOL    HW214871   0.680   4.654   8.105 -1.6615  0.8095  0.9235
 1137SOL     OW14872   1.597   3.115   2.627 -0.5493  0.3449  0.0755
 1137SOL    HW114873   1.518   3.155   2.589 -1.2635 -0.6476  0.5362
 1137SOL    HW214874   1.611   3.036   2.575  3.4601  0.8009  0.4805
 1138SOL     OW14875   0.626   0.325  11.180  0.1353  0.7004  0.9285
 1138SOL    HW114876   0.650   0.338  11.272  1.6740  1.4797  0.4153
 1138SOL    HW214877   0.712   0.302  11.146  0.2167  1.4825  0.6070
 1139SOL     OW14878   1.485   0.407   7.818  0.4704  0.0697 -0.1863
 1139SOL    HW114879   1.553   0.354   7.857  1.3339  1.5665  0.3305
 1139SOL    HW214880   1.462   0.344   7.749 -0.5824 -1.1399  1.2760
 1140SOL     OW14881   2.288   1.292   7.267 -0.1560 -0.0062 -0.1307
 1140SOL    HW114882   2.294   1.317   7.175  0.3621 -1.9015 -0.5988
 1140SOL    HW214883   2.375   1.256   7.286 -0.3864 -0.0789  0.7797
 1141SOL     OW14884   3.868   2.679   6.066  0.4131 -0.2471 -0.7931
 1141SOL    HW114885   3.939   2.668   6.129 -0.0141  0.1032 -0.2432
 1141SOL    HW214886   3.803   2.721   6.124 -0.8118 -1.8769 -0.9892
 1142SOL     OW14887   3.549   3.289  12.698 -0.3336  0.4071 -0.3464
 1142SOL    HW114888   3.574   3.381  12.695 -0.0512  0.2752 -1.9208
 1142SOL    HW214889   3.453   3.289  12.695 -0.3576  0.8519  0.5133
 1143SOL     OW14890   4.673   2.939   4.688 -0.2886 -0.0130  0.0117
 1143SOL    HW114891   4.708   2.872   4.629 -0.4274 -1.1323  1.1994
 1143SOL    HW214892   4.635   3.005   4.630 -0.1605 -0.4824 -0.5945
 1144SOL     OW14893   2.519   0.048   3.820  0.2429 -0.2930 -0.0062
 1144SOL    HW114894   2.424   0.040   3.822  0.1678  0.5028 -0.4551
 1144SOL    HW214895   2.534   0.030   3.727 -3.2731 -2.5580 -0.1121
 1145SOL     OW14896   2.978   4.224   3.614 -0.1233  0.0912  0.4143
 1145SOL    HW114897   3.047   4.275   3.657 -0.7346  2.4170 -1.3680
 1145SOL    HW214898   3.009   4.195   3.529 -0.9707  1.3277 -0.3185
 1146SOL     OW14899   3.628   0.725  14.949 -0.0551 -0.2317  0.0429
 1146SOL    HW114900   3.687   0.659  14.913  0.1693  1.3620 -2.5002
 1146SOL    HW214901   3.645   0.714  15.042  0.2924  0.2195  0.0370
 1147SOL     OW14902   3.852   1.246   8.208  0.2218  0.1335  0.4247
 1147SOL    HW114903   3.942   1.280   8.203 -0.1507  1.2084  1.0316
 1147SOL    HW214904   3.843   1.229   8.302 -0.3454  2.0966  0.7199
 1148SOL     OW14905   2.532   0.747   1.932  0.5075 -0.2860  0.3134
 1148SOL    HW114906   2.602   0.719   1.991  0.4925  0.7524  0.8401
 1148SOL    HW214907   2.490   0.663   1.917  1.1130 -0.2979 -1.3136
 1149SOL     OW14908   3.041   0.599   2.991 -0.2891  0.5886  0.2693
 1149SOL    HW114909   2.986   0.582   2.914 -2.1267  3.7754  0.8660
 1149SOL    HW214910   3.112   0.539   2.970  0.8052  2.2773 -0.8380
 1150SOL     OW14911   3.805   1.321   5.869 -0.0727  0.4821  0.5895
 1150SOL    HW114912   3.809   1.352   5.960  2.8938  2.9513 -0.3547
 1150SOL    HW214913   3.781   1.405   5.829  1.0353 -0.0126 -1.0617
 1151SOL     OW14914   4.563   0.721   8.082 -0.3426 -0.2038 -0.3963
 1151SOL    HW114915   4.618   0.683   8.013  1.6671  0.1314  1.0273
 1151SOL    HW214916   4.495   0.655   8.094 -0.0386 -0.6246 -0.9830
 1152SOL     OW14917   2.964   3.209   2.610 -0.1666 -0.0756 -0.1923
 1152SOL    HW114918   3.007   3.292   2.592  1.2920 -1.1713 -1.6974
 1152SOL    HW214919   2.873   3.227   2.586  0.3671  1.9738 -0.6621
 1153SOL     OW14920   4.512   4.675   2.602  0.0473  0.4151  0.5256
 1153SOL    HW114921   4.542   0.041   2.613  0.5844  0.3194 -0.1939
 1153SOL    HW214922   4.536   4.641   2.688 -0.5945 -1.0464  0.1301
 1154SOL     OW14923   1.665   3.833   8.138 -0.9882  0.0772  0.1116
 1154SOL    HW114924   1.736   3.778   8.170 -0.7680 -0.0253 -0.5681
 1154SOL    HW214925   1.639   3.875   8.221 -1.8387  0.6373 -0.4347
 1155SOL     OW14926   2.484   1.911  11.903  0.8738  0.5453  0.0359
 1155SOL    HW114927   2.480   1.871  11.990 -2.6687  2.5416  0.8165
 1155SOL    HW214928   2.526   1.839  11.856 -1.5484 -0.9754  0.1627
 1156SOL     OW14929   4.101   1.654   3.827 -0.1605  0.3151  0.0840
 1156SOL    HW114930   4.084   1.565   3.795 -2.1586  0.7105  0.0244
 1156SOL    HW214931   4.020   1.671   3.876 -0.3672 -1.4516  0.3764
 1157SOL     OW14932   2.636   2.640   5.146 -0.0415  0.0683  0.7049
 1157SOL    HW114933   2.579   2.677   5.213 -1.0833  0.5066 -0.4235
 1157SOL    HW214934   2.583   2.574   5.101  0.4729 -0.8722  1.4905
 1158SOL     OW14935   0.585   4.442   2.158 -0.0939  0.1544 -0.6966
 1158SOL    HW114936   0.610   4.497   2.084 -1.1978  0.5063 -0.8014
 1158SOL    HW214937   0.613   4.495   2.233  0.8620 -1.6075  0.1802
 1159SOL     OW14938   1.000   1.664   6.259 -0.2356 -0.3385 -0.5707
 1159SOL    HW114939   1.000   1.651   6.354  2.1393 -1.3844 -0.7246
 1159SOL    HW214940   0.907   1.686   6.246 -0.4300 -0.4265  0.6871
 1160SOL     OW14941   1.917   1.141  16.534  0.3894  0.0055 -0.2685
 1160SOL    HW114942   1.937   1.212  16.473  2.1893  0.1163  0.4300
 1160SOL    HW214943   1.892   1.065  16.482  1.5020  0.7610 -1.8919
 1161SOL     OW14944   4.065   3.457   6.895 -0.2659 -0.1295 -0.0413
 1161SOL    HW114945   4.126   3.526   6.868 -3.0211  1.9033 -1.0841
 1161SOL    HW214946   4.000   3.462   6.825  0.7669  0.2214 -0.9740
 1162SOL     OW14947   0.887   0.272   4.866  0.5066 -0.0165  0.0277
 1162SOL    HW114948   0.931   0.328   4.931 -0.5968  1.0916 -0.1865
 1162SOL    HW214949   0.943   0.197   4.886 -1.5886 -1.9307 -1.3298
 1163SOL     OW14950   4.626   3.066  11.046 -0.5232  0.1476  0.6528
 1163SOL    HW114951   4.617   3.071  11.141 -1.1797  0.6494  0.5656
 1163SOL    HW214952   4.665   3.150  11.022  2.2452 -1.1705  0.5700
 1164SOL     OW14953   1.430   1.845   1.823  0.7830 -1.0035  0.0976
 1164SOL    HW114954   1.480   1.857   1.742  1.7642  2.2960  1.1770
 1164SOL    HW214955   1.348   1.841   1.775 -0.1912  0.4850  1.6538
 1165SOL     OW14956   4.485   1.376   0.524 -0.3808 -0.2163 -0.3533
 1165SOL    HW114957   4.505   1.367   0.431 -1.0569 -0.7361 -0.4416
 1165SOL    HW214958   4.557   1.325   0.561 -1.1589 -0.9278  0.1615
 1166SOL     OW14959   2.490   3.642  13.153  0.0202 -0.0463  0.2749
 1166SOL    HW114960   2.397   3.662  13.159 -0.4703 -2.2027 -0.2429
 1166SOL    HW214961   2.523   3.730  13.135 -1.0904  0.8342  2.6683
 1167SOL     OW14962   2.957   0.500   8.819  0.8463 -0.7961 -0.0291
 1167SOL    HW114963   2.887   0.547   8.773  1.0420 -0.2113  0.2637
 1167SOL    HW214964   3.010   0.562   8.869 -0.5491  0.7834 -0.4884
 1168SOL     OW14965   1.685   2.193   5.418  0.4171  0.0149  0.1324
 1168SOL    HW114966   1.680   2.260   5.486 -0.2655 -0.8455  0.9262
 1168SOL    HW214967   1.738   2.236   5.351 -0.4150 -2.1250 -1.9112
 1169SOL     OW14968   1.032   3.761  15.522  0.2665 -0.1602 -0.5879
 1169SOL    HW114969   1.023   3.779  15.616  0.5401  0.4910 -0.6872
 1169SOL    HW214970   0.948   3.787  15.483 -0.3186 -2.7230 -1.0441
 1170SOL     OW14971   1.924   0.116  11.148  0.0610  0.1121 -0.0033
 1170SOL    HW114972   1.921   0.173  11.071  0.5469  1.0194  0.6500
 1170SOL    HW214973   1.956   0.184  11.208 -0.1131  0.0754  0.1310
 1171SOL     OW14974   2.344   1.803   5.220  0.2129  0.1332 -0.4583
 1171SOL    HW114975   2.350   1.899   5.226 -1.2478  0.2138 -0.2470
 1171SOL    HW214976   2.390   1.776   5.299  1.2929 -0.5092 -1.3162
 1172SOL     OW14977   0.043   1.470   6.613  0.0625  0.3455  0.9144
 1172SOL    HW114978   4.688   1.438   6.571 -0.1714  0.1874  1.4811
 1172SOL    HW214979   0.057   1.404   6.681 -0.5398 -1.8305 -1.0793
 1173SOL     OW14980   0.338   2.396   5.237  0.2294 -1.0506  0.1717
 1173SOL    HW114981   0.407   2.333   5.215  1.6471  1.5327 -2.7696
 1173SOL    HW214982   0.312   2.368   5.325 -0.4380 -0.1480  0.2593
 1174SOL     OW14983   0.340   2.932   3.943 -0.2726  0.2805  0.0392
 1174SOL    HW114984   0.283   2.854   3.943 -2.0888  1.6056 -1.7234
 1174SOL    HW214985   0.283   3.004   3.970 -1.1579  0.2931 -1.8940
 1175SOL     OW14986   3.839   4.587   0.203 -0.0607  0.6290 -0.0477
 1175SOL    HW114987   3.848   4.501   0.243  1.4290  0.1958 -1.3041
 1175SOL    HW214988   3.867   4.649   0.271  0.5346  0.7026 -0.3534
 1176SOL     OW14989   4.432   4.383   5.426 -0.0971  0.1099 -0.2985
 1176SOL    HW114990   4.393   4.468   5.406 -1.8084 -0.8141 -0.8495
 1176SOL    HW214991   4.358   4.325   5.412  0.1360 -0.5408  1.1490
 1177SOL     OW14992   3.116   2.537   4.828  0.3824  0.0542  0.7475
 1177SOL    HW114993   3.080   2.523   4.741  1.8061 -0.4288  0.2287
 1177SOL    HW214994   3.088   2.457   4.872  0.9126 -1.9439 -2.5443
 1178SOL     OW14995   0.678   1.852   8.416 -0.1477  0.6138 -0.4768
 1178SOL    HW114996   0.751   1.872   8.357  0.6337 -1.4100 -0.1829
 1178SOL    HW214997   0.604   1.839   8.357 -1.5045  1.0911  1.1147
 1179SOL     OW14998   4.685   1.734   4.507 -0.7510  0.6260 -0.2566
 1179SOL    HW114999   4.647   1.815   4.473  0.1593  1.8674  1.7153
 1179SOL    HW215000   4.600   1.691   4.496 -0.1465 -0.6668  0.2188
 1180SOL     OW15001   4.165   3.310   3.345 -0.0664  0.3508  0.0795
 1180SOL    HW115002   4.133   3.370   3.278  0.3296 -1.7192 -1.9576
 1180SOL    HW215003   4.142   3.230   3.297  0.0160  1.2188 -1.3743
 1181SOL     OW15004   0.955   1.590  12.780  0.2504 -0.4159 -0.2517
 1181SOL    HW115005   1.004   1.524  12.829  0.4941  0.3897  0.5882
 1181SOL    HW215006   0.875   1.595  12.833  1.7968  1.3735  1.9167
 1182SOL     OW15007   1.241   4.660   7.616  0.0716  0.5384  0.5628
 1182SOL    HW115008   1.283   0.020   7.631  1.2475  0.2470 -1.0789
 1182SOL    HW215009   1.278   4.618   7.693  1.7189  0.3074 -0.3516
 1183SOL     OW15010   1.437   2.790  10.711 -0.9428 -0.4564 -0.8084
 1183SOL    HW115011   1.400   2.719  10.763 -0.1828 -0.6531 -0.5343
 1183SOL    HW215012   1.373   2.781  10.641  0.2367 -1.5242 -1.7514
 1184SOL     OW15013   4.042   1.272  14.205  0.2402  0.0213 -0.4915
 1184SOL    HW115014   4.035   1.229  14.120 -0.4156  0.7745 -0.8173
 1184SOL    HW215015   4.029   1.362  14.177  0.4956  0.6075  1.2577
 1185SOL     OW15016   0.663   1.347   2.150 -0.4691 -0.4543  0.0476
 1185SOL    HW115017   0.638   1.373   2.239 -0.5376 -0.1062 -0.0707
 1185SOL    HW215018   0.754   1.317   2.152  0.3242  1.9151  0.1509
 1186SOL     OW15019   0.414   3.754  13.265 -0.4033  0.0764 -0.5206
 1186SOL    HW115020   0.333   3.703  13.261 -0.9690  1.0393 -1.2661
 1186SOL    HW215021   0.426   3.766  13.360  1.2481  2.4281 -1.0117
 1187SOL     OW15022   2.376   2.904   9.551  0.3412  0.3035  0.3327
 1187SOL    HW115023   2.422   2.913   9.468  0.0846  0.7052  0.2357
 1187SOL    HW215024   2.354   2.994   9.575  0.5548  0.3100  0.4973
 1188SOL     OW15025   4.711   1.914   3.531  0.0072  0.1872  0.2973
 1188SOL    HW115026   0.021   1.898   3.443  0.5616  0.4643  0.4634
 1188SOL    HW215027   0.059   1.893   3.590 -1.2280  0.5574  1.9692
 1189SOL     OW15028   4.504   0.488   2.426 -0.3827  0.2006 -0.3094
 1189SOL    HW115029   4.596   0.493   2.450 -0.6799  1.0602  0.6259
 1189SOL    HW215030   4.478   0.579   2.437 -3.0032 -0.3500 -1.8242
 1190SOL     OW15031   1.864   4.066   3.528 -0.3375  0.6064 -0.1029
 1190SOL    HW115032   1.938   4.117   3.559  1.1401 -1.6486  0.1185
 1190SOL    HW215033   1.915   3.985   3.525  0.1842  1.0472 -3.0129
 1191SOL     OW15034   4.509   1.351   6.578  0.5966  0.0513 -0.2494
 1191SOL    HW115035   4.491   1.268   6.534  0.3311  0.2643 -0.5455
 1191SOL    HW215036   4.421   1.389   6.580 -0.6516 -2.8199 -0.6112
 1192SOL     OW15037   2.336   3.164   8.966  0.1876  0.6807 -0.1942
 1192SOL    HW115038   2.334   3.069   8.980  1.2107  0.5592 -0.8340
 1192SOL    HW215039   2.378   3.201   9.044  0.4852  0.1776 -0.1116
 1193SOL     OW15040   1.586   1.205   8.806  0.4311 -0.3905  0.2584
 1193SOL    HW115041   1.654   1.229   8.869  0.3903  0.7885 -0.1570
 1193SOL    HW215042   1.611   1.247   8.724 -1.3314  0.4386  0.1420
 1194SOL     OW15043   0.013   1.804   2.998  0.2409 -0.2052 -0.0456
 1194SOL    HW115044   0.094   1.756   2.981  0.8566 -0.0564  2.5640
 1194SOL    HW215045   0.034   1.880   2.943  0.4674  0.4791  0.9823
 1195SOL     OW15046   2.991   2.893   5.957  0.4289  0.2279 -0.0185
 1195SOL    HW115047   3.057   2.868   5.892  0.4940 -1.7652  0.8201
 1195SOL    HW215048   3.000   2.828   6.026  1.5169 -2.7500 -2.9248
 1196SOL     OW15049   3.722   0.205  12.952 -0.4596 -0.5213 -0.1666
 1196SOL    HW115050   3.785   0.196  12.880  0.7262  1.7051  0.6062
 1196SOL    HW215051   3.773   0.267  13.004  1.8512 -2.0394 -0.5803
 1197SOL     OW15052   0.157   4.556   0.093 -0.3680 -0.1610 -0.1103
 1197SOL    HW115053   0.079   4.502   0.103  0.4583 -1.4960 -0.9157
 1197SOL    HW215054   0.210   4.493   0.045 -3.1466 -2.5152 -0.1073
 1198SOL     OW15055   4.411   1.615   5.176  0.1904 -0.3857  0.2122
 1198SOL    HW115056   4.407   1.544   5.111 -1.8421  0.7123 -0.8546
 1198SOL    HW215057   4.332   1.666   5.160  0.4031 -0.0723  0.1629
 1199SOL     OW15058   1.797   3.879   8.624  0.2540  0.1403 -0.2869
 1199SOL    HW115059   1.842   3.905   8.705 -0.7307  1.3247 -0.1176
 1199SOL    HW215060   1.753   3.799   8.653  0.6045 -1.1523 -3.3232
 1200SOL     OW15061   3.679   3.332   6.278  0.2167  0.4184 -0.3802
 1200SOL    HW115062   3.680   3.239   6.260  2.5888  0.0889  1.4375
 1200SOL    HW215063   3.765   3.346   6.318  0.3055  0.6448 -0.6548
 1201SOL     OW15064   1.749   2.507   6.896  0.2117  0.3086 -0.0563
 1201SOL    HW115065   1.774   2.570   6.963  0.6389  0.1453 -0.0612
 1201SOL    HW215066   1.684   2.451   6.938 -0.5678 -0.9658 -2.9111
 1202SOL     OW15067   3.542   1.875   5.965 -0.2078 -0.0598  0.1276
 1202SOL    HW115068   3.461   1.927   5.968 -0.2540 -0.1879  1.1234
 1202SOL    HW215069   3.609   1.943   5.969  1.1008 -1.3189 -0.2780
 1203SOL     OW15070   3.919   0.764   8.389  0.3688 -0.3742  0.5097
 1203SOL    HW115071   3.844   0.821   8.377 -1.0803 -2.3235  0.3516
 1203SOL    HW215072   3.905   0.734   8.479  0.5025 -0.8241  0.3802
 1204SOL     OW15073   2.003   0.341   4.850  0.9266 -0.1064  0.7983
 1204SOL    HW115074   2.039   0.348   4.939  0.6601  2.6525  0.6776
 1204SOL    HW215075   2.039   0.259   4.815  0.3964 -0.0240  0.0768
 1205SOL     OW15076   0.223   2.720   2.928  0.3662  0.1043  0.5136
 1205SOL    HW115077   0.206   2.720   2.834  0.4774  0.2216  0.4918
 1205SOL    HW215078   0.143   2.686   2.966 -0.3220  1.6907  0.4936
 1206SOL     OW15079   4.288   2.668   4.501  0.1309  0.5228 -0.4563
 1206SOL    HW115080   4.332   2.625   4.575  2.0465  0.3166 -1.7154
 1206SOL    HW215081   4.327   2.624   4.425 -1.7667  0.3875 -1.3379
 1207SOL     OW15082   1.646   4.408  13.495 -0.2872 -0.3560 -0.2418
 1207SOL    HW115083   1.677   4.333  13.443  2.1254  0.7716 -0.4328
 1207SOL    HW215084   1.683   4.473  13.435 -0.2490  0.3472  0.5455
 1208SOL     OW15085   1.672   0.757   8.049  0.0461  0.4587  0.5463
 1208SOL    HW115086   1.609   0.690   8.075 -0.3689  1.3196  1.7849
 1208SOL    HW215087   1.626   0.810   7.983  0.0256 -1.8677 -1.2842
 1209SOL     OW15088   1.101   2.661   2.974 -0.2611  0.4737  0.3559
 1209SOL    HW115089   1.147   2.723   3.029  0.4416  0.8819 -0.6919
 1209SOL    HW215090   1.143   2.581   3.005 -1.4898 -2.2193 -4.8785
 1210SOL     OW15091   3.954   0.237   0.640  0.6909 -0.1825  0.3795
 1210SOL    HW115092   3.892   0.310   0.643  1.3875  0.4662 -0.7602
 1210SOL    HW215093   3.899   0.174   0.687 -0.8672  0.3632 -0.7103
 1211SOL     OW15094   4.248   1.051   6.240  0.1915 -0.3524 -0.3264
 1211SOL    HW115095   4.199   0.970   6.224 -0.4021  0.4739 -2.7427
 1211SOL    HW215096   4.304   1.064   6.163  0.5323 -1.6001 -0.2926
 1212SOL     OW15097   3.411   1.316   7.714  0.4037  0.1066 -0.3100
 1212SOL    HW115098   3.489   1.272   7.746  0.1996 -0.4467 -0.5826
 1212SOL    HW215099   3.376   1.350   7.797 -0.6286  1.7836 -1.4224
 1213SOL     OW15100   2.255   4.291   3.533 -0.5427 -0.4970  0.0805
 1213SOL    HW115101   2.263   4.365   3.594 -0.0740 -0.0976 -0.4684
 1213SOL    HW215102   2.190   4.237   3.578  0.0802 -0.7243  0.7091
 1214SOL     OW15103   1.697   1.316  10.295  0.5998 -0.0740 -0.3908
 1214SOL    HW115104   1.724   1.311  10.203 -0.6177  0.9122 -0.7933
 1214SOL    HW215105   1.779   1.290  10.337 -0.7614 -0.1655  2.1711
 1215SOL     OW15106   4.217   3.015  15.816 -0.0438  0.1031  0.4897
 1215SOL    HW115107   4.163   3.056  15.883  0.1644 -1.7719  1.8060
 1215SOL    HW215108   4.176   2.929  15.822 -0.5634  0.2934 -0.4027
 1216SOL     OW15109   0.061   2.002  10.814  0.1477  0.1673  0.4919
 1216SOL    HW115110   0.053   1.908  10.830 -0.8505  0.0535 -0.7025
 1216SOL    HW215111   4.724   2.036  10.879  0.0796  0.5223  0.2397
 1217SOL     OW15112   4.193   3.166   5.967  0.0132 -0.3293  0.7258
 1217SOL    HW115113   4.174   3.140   6.057  1.2146  0.5082  1.2256
 1217SOL    HW215114   4.287   3.183   5.978 -0.0246 -0.7915  1.7853
 1218SOL     OW15115   0.781   3.355  15.648  1.0509 -0.0196 -0.3749
 1218SOL    HW115116   0.709   3.411  15.678  1.7569  0.7168 -0.0503
 1218SOL    HW215117   0.852   3.419  15.649  1.2502 -0.2293 -1.2045
 1219SOL     OW15118   1.400   2.369  14.089  0.0978  0.1821 -0.1452
 1219SOL    HW115119   1.483   2.328  14.063  0.2394  1.0009 -0.9906
 1219SOL    HW215120   1.414   2.444  14.147  0.7664 -1.0726  1.3196
 1220SOL     OW15121   0.216   0.334   0.455  0.1272 -0.8363 -0.1312
 1220SOL    HW115122   0.269   0.346   0.375 -0.1551  0.2979 -0.1520
 1220SOL    HW215123   0.296   0.333   0.508  0.2124 -0.1397 -0.2398
 1221SOL     OW15124   3.236   1.949   4.791  0.6985  0.0903  0.3367
 1221SOL    HW115125   3.188   2.029   4.815  0.3349 -0.7734  2.4372
 1221SOL    HW215126   3.218   1.941   4.697 -1.0671  1.6205  0.5443
 1222SOL     OW15127   1.972   2.891   9.378  0.0169 -0.8325  0.1907
 1222SOL    HW115128   1.906   2.889   9.447 -1.0473  0.7791 -0.7775
 1222SOL    HW215129   2.027   2.817   9.402  1.3372 -0.2710 -1.0726
 1223SOL     OW15130   4.000   0.220  13.402 -0.2431 -0.4404 -0.2559
 1223SOL    HW115131   4.052   0.278  13.456 -1.0445  0.0042  0.0283
 1223SOL    HW215132   4.032   0.242  13.314 -0.0939 -0.1785 -0.1351
 1224SOL     OW15133   2.288   4.329   6.911 -0.0233  0.0722  0.2277
 1224SOL    HW115134   2.301   4.236   6.933  0.4794 -0.2301 -1.3553
 1224SOL    HW215135   2.377   4.362   6.908 -0.0099  0.2228  2.0322
 1225SOL     OW15136   0.224   2.712   2.653 -0.0868 -0.9553 -0.1562
 1225SOL    HW115137   0.192   2.797   2.626  4.3152  0.2869 -1.4574
 1225SOL    HW215138   0.224   2.677   2.564 -0.1860 -1.2307 -0.0480
 1226SOL     OW15139   2.277   2.551   8.459 -0.4337 -0.0498 -0.0391
 1226SOL    HW115140   2.369   2.576   8.452 -0.3982 -0.1679  0.0213
 1226SOL    HW215141   2.235   2.605   8.391 -0.9078 -0.4211 -0.0401
 1227SOL     OW15142   3.811   1.979   7.055 -0.8790 -0.4593 -0.2525
 1227SOL    HW115143   3.824   2.072   7.040  1.9429 -0.7595  0.3198
 1227SOL    HW215144   3.729   1.997   7.102 -1.8362 -0.8952 -1.7331
 1228SOL     OW15145   3.141   1.744   6.309  0.1281  0.3073  0.3489
 1228SOL    HW115146   3.172   1.678   6.370 -0.4561  1.0250  1.4344
 1228SOL    HW215147   3.088   1.797   6.369  1.8125  0.7281  1.4522
 1229SOL     OW15148   1.816   0.969   0.038 -0.4809  0.3856  0.7981
 1229SOL    HW115149   1.895   1.009   0.076 -0.9580  1.2965  0.8094
 1229SOL    HW215150   1.820   0.987  17.646 -1.2376 -1.8423  0.3474
 1230SOL     OW15151   3.303   1.388   7.489 -0.2480 -0.7188  0.5185
 1230SOL    HW115152   3.379   1.394   7.431  0.4657  0.2743  1.5572
 1230SOL    HW215153   3.342   1.366   7.574  1.4885 -0.9188 -0.3271
 1231SOL     OW15154   3.558   2.943   7.197  0.4324  0.0775 -0.0863
 1231SOL    HW115155   3.502   2.866   7.194 -0.1535  0.4545  1.0568
 1231SOL    HW215156   3.506   3.020   7.175  0.3772 -0.4465 -1.8205
 1232SOL     OW15157   3.933   1.835   4.271  0.6761  0.0165  0.6130
 1232SOL    HW115158   3.985   1.754   4.264  0.9245  0.0519  2.1097
 1232SOL    HW215159   3.920   1.847   4.365  0.2280  1.4853  0.3599
 1233SOL     OW15160   4.191   2.367   4.835  0.1656 -0.0876 -0.4037
 1233SOL    HW115161   4.134   2.440   4.809  0.3428  0.4604  0.7383
 1233SOL    HW215162   4.164   2.355   4.926 -2.5108 -2.5633 -1.5242
 1234SOL     OW15163   0.343   2.858  16.150  0.3501 -0.2082 -0.2409
 1234SOL    HW115164   0.250   2.838  16.152  0.1085  0.8629 -0.4869
 1234SOL    HW215165   0.374   2.863  16.241 -0.6917 -0.7753  0.1339
 1235SOL     OW15166   1.539   1.930   8.231  1.0449  0.5554 -0.0573
 1235SOL    HW115167   1.499   1.896   8.151  0.1288 -2.0158  1.4877
 1235SOL    HW215168   1.508   2.020   8.229 -0.3726  0.0441 -1.0143
 1236SOL     OW15169   3.083   4.597   4.113  0.1703 -0.6114  0.1870
 1236SOL    HW115170   3.090   4.685   4.151  0.8717  0.0540 -1.4612
 1236SOL    HW215171   3.099   4.614   4.020 -0.6583 -0.2330  0.1139
 1237SOL     OW15172   0.662   3.005  10.816 -0.2227  0.1542  0.5454
 1237SOL    HW115173   0.637   2.983  10.905 -0.4207  4.6206  1.5948
 1237SOL    HW215174   0.713   3.086  10.825 -2.1136  1.7260 -2.9925
 1238SOL     OW15175   1.481   4.625   3.893 -1.0755 -0.1632  0.2376
 1238SOL    HW115176   1.550   4.665   3.946 -0.7069 -1.4635  0.7366
 1238SOL    HW215177   1.509   4.534   3.884 -0.6583 -0.0711  0.6164
 1239SOL     OW15178   1.694   1.673   5.185  0.1969 -0.0219  0.2445
 1239SOL    HW115179   1.723   1.583   5.167 -0.4742  0.2699 -2.2715
 1239SOL    HW215180   1.712   1.691   5.277  0.2816  0.1819  0.1880
 1240SOL     OW15181   0.503   1.767   2.753 -0.2149 -0.0790 -0.1584
 1240SOL    HW115182   0.442   1.840   2.763  0.4327  0.7385 -2.1565
 1240SOL    HW215183   0.545   1.771   2.838  0.1631  1.4401 -0.4169
 1241SOL     OW15184   0.518   3.500   4.916  0.0965 -0.0559  0.3294
 1241SOL    HW115185   0.538   3.435   4.983 -1.8321 -1.8814 -0.8735
 1241SOL    HW215186   0.466   3.560   4.969  1.3797  0.7135  0.7110
 1242SOL     OW15187   4.015   1.385  14.730 -0.0253 -0.2045 -0.5492
 1242SOL    HW115188   3.928   1.422  14.743  0.1303 -0.3972  0.9620
 1242SOL    HW215189   4.058   1.383  14.815 -0.6292 -3.9668 -0.3388
 1243SOL     OW15190   2.070   3.500   2.817 -0.4932 -0.2019 -0.6174
 1243SOL    HW115191   2.111   3.425   2.773  1.1077 -0.7749  1.8812
 1243SOL    HW215192   2.141   3.537   2.870 -0.9885 -1.5433  0.9617
 1244SOL     OW15193   2.422   2.828   7.983 -0.0526  0.7287  0.4884
 1244SOL    HW115194   2.337   2.821   7.941 -0.4608  1.0881  1.2511
 1244SOL    HW215195   2.434   2.733   7.989 -0.2811  0.8317  2.6601
 1245SOL     OW15196   0.473   2.945  12.132 -0.4365  0.2408 -0.2279
 1245SOL    HW115197   0.415   3.021  12.130  1.7090  1.8792  0.4008
 1245SOL    HW215198   0.477   2.915  12.042 -0.4752 -1.2726  0.2693
 1246SOL     OW15199   0.199   3.124   4.012  0.4184  0.2483  0.4878
 1246SOL    HW115200   0.285   3.140   4.051  0.6002 -0.9514  0.5986
 1246SOL    HW215201   0.177   3.208   3.972  0.5556  0.6483  1.2613
 1247SOL     OW15202   1.162   0.345  12.216  0.4390  0.1878  0.1862
 1247SOL    HW115203   1.186   0.367  12.306 -3.4505  0.1139  1.2416
 1247SOL    HW215204   1.104   0.420  12.205 -1.3610 -1.0115  1.3724
 1248SOL     OW15205   2.676   3.237   8.642  0.5081  0.3477  0.3351
 1248SOL    HW115206   2.607   3.257   8.705 -0.4432 -2.4894  0.2232
 1248SOL    HW215207   2.719   3.320   8.623 -3.2438  2.1838 -0.2170
 1249SOL     OW15208   2.274   0.400   8.064  0.2080  0.1758  0.4783
 1249SOL    HW115209   2.270   0.306   8.047 -1.7278  0.4320 -0.5448
 1249SOL    HW215210   2.191   0.433   8.028  1.5485  0.2012 -2.6167
 1250SOL     OW15211   3.317   2.313  12.308 -0.5270 -0.3012  0.0761
 1250SOL    HW115212   3.304   2.403  12.279  0.5678 -0.5206 -1.1279
 1250SOL    HW215213   3.400   2.284  12.271  0.7391  0.8991  2.0041
 1251SOL     OW15214   4.153   0.825  12.329 -0.0678  0.3329 -0.2982
 1251SOL    HW115215   4.242   0.855  12.348  0.8239 -0.5190 -3.1653
 1251SOL    HW215216   4.145   0.854  12.238  0.0003  0.0287 -0.4010
 1252SOL     OW15217   2.043   4.080   5.118  0.7667  0.3974  0.2170
 1252SOL    HW115218   1.956   4.099   5.083 -0.0382 -2.8447  0.4298
 1252SOL    HW215219   2.037   3.985   5.125 -2.1689  0.6208  0.7398
 1253SOL     OW15220   3.444   2.155  10.951  0.2506  0.0022 -0.3158
 1253SOL    HW115221   3.390   2.083  10.982 -0.7384  1.8185  2.1965
 1253SOL    HW215222   3.523   2.103  10.940  0.4736  0.4639 -0.8891
 1254SOL     OW15223   3.086   1.850   9.900 -0.1119  0.3563  0.4106
 1254SOL    HW115224   3.124   1.928   9.859 -0.8912  0.5979  0.1453
 1254SOL    HW215225   3.081   1.880   9.991  0.5107  1.0770  0.2042
 1255SOL     OW15226   3.480   2.041   2.639  0.4991 -0.3996 -0.0633
 1255SOL    HW115227   3.564   2.086   2.634  0.3257 -0.1296 -0.4954
 1255SOL    HW215228   3.493   1.959   2.591  0.2317 -1.2580  1.3178
 1256SOL     OW15229   4.288   1.495   6.974  0.2830  0.0494  0.4026
 1256SOL    HW115230   4.282   1.420   7.032  3.1112  0.5701  1.3864
 1256SOL    HW215231   4.196   1.493   6.949 -0.0736 -0.4673  1.7822
 1257SOL     OW15232   4.127   2.220   6.392  0.0101 -0.3796  0.6251
 1257SOL    HW115233   4.195   2.263   6.342 -0.7096  0.6064  0.4892
 1257SOL    HW215234   4.164   2.232   6.480  0.2170  1.7612  0.2291
 1258SOL     OW15235   3.023   4.009   4.763  0.2965 -0.0950  0.3318
 1258SOL    HW115236   3.057   4.010   4.673  1.3333 -0.7135  0.7108
 1258SOL    HW215237   3.100   4.033   4.814  1.3536  0.7621 -1.6986
 1259SOL     OW15238   0.396   0.962   9.455  0.1150 -0.6225 -0.2666
 1259SOL    HW115239   0.456   1.012   9.509 -0.3104  0.4264 -0.7518
 1259SOL    HW215240   0.426   0.873   9.473  1.4370 -0.1612 -0.2501
 1260SOL     OW15241   3.109   3.120   7.822  0.7276 -0.2940 -0.2060
 1260SOL    HW115242   3.141   3.195   7.772  0.0554 -1.1074 -1.8683
 1260SOL    HW215243   3.103   3.056   7.752 -0.2849 -2.0947  1.5270
 1261SOL     OW15244   4.075   0.097   5.783 -0.1167  0.4229 -0.1411
 1261SOL    HW115245   4.123   0.174   5.752 -0.5265  0.8958  0.4000
 1261SOL    HW215246   4.016   0.075   5.711 -0.5556 -4.0001  1.5981
 1262SOL     OW15247   4.034   3.142   7.113  0.0308 -0.2260  0.1842
 1262SOL    HW115248   4.098   3.071   7.105  1.5865  1.1366  0.4697
 1262SOL    HW215249   4.084   3.206   7.062 -0.4527 -0.2569 -0.3342
 1263SOL     OW15250   3.327   4.506   3.613 -0.6543  0.5825  0.4627
 1263SOL    HW115251   3.332   4.573   3.545  0.7167  0.9889  0.9765
 1263SOL    HW215252   3.397   4.525   3.675 -0.3121 -0.3932  0.3590
 1264SOL     OW15253   0.577   1.392   3.451 -0.6286  0.1672 -0.0561
 1264SOL    HW115254   0.484   1.386   3.431 -0.6557 -0.4348  0.2499
 1264SOL    HW215255   0.618   1.416   3.368  0.2505 -2.3906 -0.3622
 1265SOL     OW15256   1.944   2.145   9.545 -0.1428  0.2730 -0.3360
 1265SOL    HW115257   1.876   2.104   9.492  2.3476 -0.8744 -2.6328
 1265SOL    HW215258   1.892   2.181   9.617 -1.4067  0.5797 -1.4183
 1266SOL     OW15259   4.520   3.806  10.170 -0.1309 -0.0053 -0.0926
 1266SOL    HW115260   4.508   3.869  10.241 -0.5822 -2.2176  1.8169
 1266SOL    HW215261   4.526   3.853  10.087  1.7457  1.7733  1.0299
 1267SOL     OW15262   3.769   3.435   2.302 -0.6989  0.4333  0.6930
 1267SOL    HW115263   3.811   3.476   2.226 -1.2535 -0.5955 -0.1613
 1267SOL    HW215264   3.733   3.354   2.269  0.0718 -0.1553  1.2819
 1268SOL     OW15265   4.242   2.002   3.052  0.3052 -0.0004  0.4234
 1268SOL    HW115266   4.167   1.956   3.090 -1.5637  2.3006 -0.4296
 1268SOL    HW215267   4.265   1.956   2.971  0.9224 -0.2992  0.7692
 1269SOL     OW15268   0.365   3.669   5.038  0.1038  0.4848  0.4512
 1269SOL    HW115269   0.282   3.635   5.070  1.2810 -3.3163 -0.4840
 1269SOL    HW215270   0.338   3.686   4.948  0.4895  0.4804  0.3361
 1270SOL     OW15271   0.969   3.820   3.283 -0.0965  0.4847 -0.0984
 1270SOL    HW115272   1.043   3.872   3.313 -0.3635 -0.3816  2.0307
 1270SOL    HW215273   0.974   3.748   3.346 -1.3822  1.3492  0.9788
 1271SOL     OW15274   0.650   2.468   7.860 -0.1785  0.0537  0.4005
 1271SOL    HW115275   0.623   2.549   7.905 -2.4330 -0.1911 -0.5066
 1271SOL    HW215276   0.745   2.476   7.855 -0.0359 -1.2818  0.9296
 1272SOL     OW15277   0.041   1.742   4.117  0.0443  0.8325 -0.5459
 1272SOL    HW115278   0.047   1.768   4.025 -0.0083  1.4383 -0.3783
 1272SOL    HW215279   0.075   1.652   4.113  2.5876  1.7153  1.1992
 1273SOL     OW15280   3.053   1.165   8.999 -0.2212 -0.0150 -0.7992
 1273SOL    HW115281   3.015   1.247   9.029 -0.2125 -0.7356  1.1836
 1273SOL    HW215282   3.007   1.108   9.060 -0.6762 -0.1935 -1.3098
 1274SOL     OW15283   2.192   1.252   9.096 -0.2594 -0.2577  0.0845
 1274SOL    HW115284   2.220   1.339   9.125 -0.9733 -0.3287  0.9531
 1274SOL    HW215285   2.268   1.197   9.114  1.0099  1.6474  0.6160
 1275SOL     OW15286   1.070   1.021  16.859  0.5796 -0.1763 -0.4517
 1275SOL    HW115287   1.073   1.114  16.880  0.3709  0.1000 -1.6347
 1275SOL    HW215288   0.975   1.011  16.847  0.3344  0.0877  1.2296
 1276SOL     OW15289   4.533   3.059   8.181  0.3966 -0.2337  0.0902
 1276SOL    HW115290   4.604   3.093   8.128  2.1355 -1.7760  1.4217
 1276SOL    HW215291   4.539   2.963   8.177  0.3624 -0.2970  1.4951
 1277SOL     OW15292   3.854   2.314  16.528 -0.1922 -0.1519  0.1986
 1277SOL    HW115293   3.835   2.406  16.514 -3.2975 -0.9642 -1.0073
 1277SOL    HW215294   3.926   2.291  16.469 -2.5894 -3.5140 -1.4504
 1278SOL     OW15295   4.474   0.955   4.654 -0.3439  0.0566  0.4408
 1278SOL    HW115296   4.513   0.897   4.588  0.2345  0.7849  0.1504
 1278SOL    HW215297   4.412   1.002   4.599  0.8682 -0.3133 -1.2394
 1279SOL     OW15298   3.519   3.786  13.072  0.3892  0.1438 -0.4161
 1279SOL    HW115299   3.480   3.705  13.038 -0.9046  1.4122 -1.9615
 1279SOL    HW215300   3.561   3.824  12.995 -0.6116  2.1334  0.0186
 1280SOL     OW15301   4.328   4.045   3.612  0.4709  0.1969 -0.0146
 1280SOL    HW115302   4.308   4.102   3.538  1.6989  0.1071 -0.4125
 1280SOL    HW215303   4.267   4.078   3.678  0.1440  1.3317 -0.8927
 1281SOL     OW15304   0.725   1.163   7.219  0.1334  0.2725 -0.4434
 1281SOL    HW115305   0.769   1.228   7.273 -0.2753 -0.2872  0.5630
 1281SOL    HW215306   0.666   1.221   7.172 -0.5183  1.1269  1.4513
 1282SOL     OW15307   0.972   3.048   6.433  0.0794 -0.6076  0.0785
 1282SOL    HW115308   0.993   3.094   6.351  1.6857 -0.4818  0.5774
 1282SOL    HW215309   0.911   2.982   6.400 -1.1206  0.5120  0.0565
 1283SOL     OW15310   1.436   0.703  17.548 -0.1952 -0.3691 -0.2096
 1283SOL    HW115311   1.462   0.704  17.640 -0.4558 -1.0065 -0.1262
 1283SOL    HW215312   1.411   0.795  17.546 -0.7676 -0.5066  0.4906
 1284SOL     OW15313   3.219   0.045  15.605  0.1702 -0.4447  0.2565
 1284SOL    HW115314   3.155   0.061  15.535 -2.4336 -0.5404  2.5841
 1284SOL    HW215315   3.286   0.000  15.554  0.2082 -0.3785  0.2481
 1285SOL     OW15316   1.411   1.873  14.415  0.3097  0.1031 -0.3647
 1285SOL    HW115317   1.387   1.966  14.407 -1.1032 -0.0265  2.6007
 1285SOL    HW215318   1.366   1.862  14.499 -1.4667 -0.5109 -1.3921
 1286SOL     OW15319   4.223   3.384   5.357  0.8141  0.4795  0.1392
 1286SOL    HW115320   4.174   3.381   5.439 -1.3897  0.9250 -1.1771
 1286SOL    HW215321   4.312   3.401   5.389  0.8994  2.2620 -1.0647
 1287SOL     OW15322   0.762   4.165  13.088  0.1083  0.1227  0.1577
 1287SOL    HW115323   0.711   4.096  13.131  1.4004  0.1785  1.7920
 1287SOL    HW215324   0.689   4.215  13.050  0.4782 -0.5694 -1.4351
 1288SOL     OW15325   0.065   0.814   8.195 -0.1962 -0.5426  0.0279
 1288SOL    HW115326   4.699   0.815   8.165  0.2258 -2.5069 -1.2984
 1288SOL    HW215327   0.043   0.819   8.289 -1.2023 -3.0015 -0.0707
 1289SOL     OW15328   1.997   2.231  11.197  0.0019  0.1439 -0.3320
 1289SOL    HW115329   2.069   2.168  11.205 -0.2463 -0.1433 -0.3444
 1289SOL    HW215330   1.933   2.178  11.245  1.6564  0.1829  1.9528
 1290SOL     OW15331   1.251   4.721   2.197 -0.0447 -0.5946  0.3936
 1290SOL    HW115332   1.325   4.681   2.241 -1.1786 -2.6967  0.3948
 1290SOL    HW215333   1.183   4.655   2.213  0.7007 -1.3023  0.6606
 1291SOL     OW15334   0.862   3.147  14.586  0.5295 -0.0982 -0.4236
 1291SOL    HW115335   0.942   3.165  14.536  2.0225  1.2817  2.4900
 1291SOL    HW215336   0.789   3.141  14.524 -0.9267  1.6944  1.1285
 1292SOL     OW15337   1.094   2.452   3.321 -0.0430  0.1584 -0.3811
 1292SOL    HW115338   1.141   2.457   3.238  1.3261 -0.0127  0.3805
 1292SOL    HW215339   1.120   2.532   3.365 -0.8980 -0.3069  0.9652
 1293SOL     OW15340   0.256   2.080   8.665  0.3314 -0.0066  0.5260
 1293SOL    HW115341   0.222   2.048   8.748  1.4289  1.3527  1.5011
 1293SOL    HW215342   0.345   2.100   8.694 -0.2134  1.6237  1.0611
 1294SOL     OW15343   2.861   1.669   7.770  0.0389  0.1707  0.0315
 1294SOL    HW115344   2.916   1.624   7.834  0.1796  0.6485  0.2497
 1294SOL    HW215345   2.779   1.668   7.819  0.1404 -0.9110  0.1821
 1295SOL     OW15346   3.335   0.898   6.625  0.4249 -0.6309  0.0981
 1295SOL    HW115347   3.329   0.824   6.685  0.7083 -1.7101 -1.2003
 1295SOL    HW215348   3.324   0.978   6.677 -0.6323 -0.8384  0.1890
 1296SOL     OW15349   0.836   0.907   6.813 -0.1479 -0.0631 -0.2865
 1296SOL    HW115350   0.864   0.981   6.868  0.6446 -0.2385 -0.4477
 1296SOL    HW215351   0.757   0.877   6.858  0.4688 -0.5990  0.4392
 1297SOL     OW15352   2.378   1.844  12.529 -0.0476  0.4671 -0.3232
 1297SOL    HW115353   2.285   1.854  12.550  0.8004  1.1054  3.1699
 1297SOL    HW215354   2.393   1.766  12.582 -0.0457  0.5156 -0.2531
 1298SOL     OW15355   2.357   3.119   1.431  0.3690 -0.0059  0.2146
 1298SOL    HW115356   2.284   3.180   1.441  1.3368  0.8763  1.8775
 1298SOL    HW215357   2.433   3.176   1.421 -0.0051  0.7384  1.5970
 1299SOL     OW15358   1.308   1.162   6.838  0.7322 -0.3199  0.2013
 1299SOL    HW115359   1.277   1.105   6.909  0.6191  0.4284  0.7608
 1299SOL    HW215360   1.327   1.098   6.770  0.2234 -2.8220  2.4159
 1300SOL     OW15361   2.590   3.200   2.810 -0.2622 -0.2401  0.3221
 1300SOL    HW115362   2.580   3.290   2.780  1.2097  0.1784  1.1414
 1300SOL    HW215363   2.538   3.156   2.743 -0.5501  2.9593 -1.5547
 1301SOL     OW15364   0.161   0.297   5.603  0.7037  0.4383  0.3864
 1301SOL    HW115365   0.109   0.354   5.661  0.5498 -0.3820  1.0522
 1301SOL    HW215366   0.158   0.216   5.654  1.1714 -0.3889 -0.8998
 1302SOL     OW15367   0.950   0.310  12.453  0.1625  0.3287  0.2061
 1302SOL    HW115368   0.886   0.370  12.414  1.1409  1.0871 -0.2455
 1302SOL    HW215369   1.009   0.374  12.493 -0.0476 -0.3561  1.6075
 1303SOL     OW15370   1.374   0.649   7.465 -0.5275 -0.0364 -0.1994
 1303SOL    HW115371   1.458   0.612   7.492 -0.8461  0.3344  1.2993
 1303SOL    HW215372   1.345   0.567   7.425  0.7186  0.2573 -1.6968
 1304SOL     OW15373   3.543   3.043   2.463 -0.0308  0.2088  0.4499
 1304SOL    HW115374   3.491   3.110   2.508 -0.4434  0.7115 -0.7711
 1304SOL    HW215375   3.487   3.029   2.387 -0.3772 -0.2591  0.7914
 1305SOL     OW15376   1.180   0.367  10.401  0.3340 -0.2207  0.1042
 1305SOL    HW115377   1.106   0.312  10.427 -0.2565  1.2408  1.4368
 1305SOL    HW215378   1.137   0.452  10.396 -1.3151 -1.0124  0.8220
 1306SOL     OW15379   4.409   1.044   0.674 -0.1274 -0.3288  0.4854
 1306SOL    HW115380   4.372   1.005   0.594  1.5673 -0.9317 -0.0088
 1306SOL    HW215381   4.467   1.109   0.636 -0.4770 -1.1948 -1.5577
 1307SOL     OW15382   1.886   4.415   2.820 -0.0937 -0.1824  0.1148
 1307SOL    HW115383   1.841   4.455   2.895  0.8320 -0.8792  1.0276
 1307SOL    HW215384   1.942   4.489   2.798 -0.8101  0.0233 -1.0122
 1308SOL     OW15385   1.095   0.078  12.602  0.2739 -0.1607 -0.3375
 1308SOL    HW115386   1.155   0.068  12.527  0.2225 -2.1822 -0.1131
 1308SOL    HW215387   1.012   0.049  12.563 -0.0817  0.1335  0.2101
 1309SOL     OW15388   2.428   1.308   3.056  0.4739  0.0622  0.3446
 1309SOL    HW115389   2.398   1.376   3.117 -1.2324 -0.6008  0.2389
 1309SOL    HW215390   2.389   1.340   2.974  0.6540 -0.7416 -0.0493
 1310SOL     OW15391   1.461   1.787   8.463  0.3251  0.1307 -0.1461
 1310SOL    HW115392   1.471   1.696   8.436 -0.0134 -0.5347  1.9704
 1310SOL    HW215393   1.487   1.826   8.379 -1.3173  0.6184 -0.4312
 1311SOL     OW15394   3.595   2.041   8.209 -0.2412 -0.3579  0.2929
 1311SOL    HW115395   3.614   2.134   8.203 -2.1060  0.0855  1.2733
 1311SOL    HW215396   3.674   1.996   8.240 -0.7706 -0.7401  1.0892
 1312SOL     OW15397   1.415   0.744   8.950 -0.0460  1.1320  0.3722
 1312SOL    HW115398   1.484   0.773   9.010 -1.9562 -2.7238  4.4549
 1312SOL    HW215399   1.404   0.825   8.901  0.4093 -0.1327 -1.8181
 1313SOL     OW15400   3.305   3.361   4.117  0.2497 -0.3820 -0.1109
 1313SOL    HW115401   3.342   3.319   4.040 -0.7910 -2.1017  0.3474
 1313SOL    HW215402   3.220   3.394   4.089  1.0682 -0.1811 -2.3432
 1314SOL     OW15403   3.541   3.028   3.198  0.0663  0.0682  0.2967
 1314SOL    HW115404   3.613   3.035   3.136 -0.6377 -2.0934 -0.7426
 1314SOL    HW215405   3.466   3.052   3.143 -0.1249 -0.7310  0.2200
 1315SOL     OW15406   2.402   4.161   4.093 -0.3235  0.1317  0.0798
 1315SOL    HW115407   2.419   4.169   4.187 -0.0406 -2.2174  0.2357
 1315SOL    HW215408   2.456   4.084   4.073 -0.3706  0.8324 -2.8534
 1316SOL     OW15409   2.860   3.848  10.507 -0.4177 -0.2395 -0.2554
 1316SOL    HW115410   2.887   3.766  10.547 -0.6148  1.6811  3.8686
 1316SOL    HW215411   2.848   3.910  10.579  0.2879 -0.1168 -0.2431
 1317SOL     OW15412   2.632   1.068   5.943 -0.4054 -0.5355 -0.1985
 1317SOL    HW115413   2.639   1.063   6.038  0.4294 -0.4532 -0.2587
 1317SOL    HW215414   2.724   1.074   5.918 -0.2345  0.6299  0.7116
 1318SOL     OW15415   3.588   2.554   3.588  0.3925  0.0388 -0.1836
 1318SOL    HW115416   3.608   2.465   3.617 -0.8694 -0.2833 -0.2931
 1318SOL    HW215417   3.609   2.609   3.663  1.5895 -1.9637  0.9285
 1319SOL     OW15418   0.030   0.463  17.214 -0.2916  0.1961  0.0668
 1319SOL    HW115419   0.059   0.448  17.124  0.6958 -1.2144  0.6134
 1319SOL    HW215420   4.662   0.468  17.191  0.1416  0.2302 -1.6488
 1320SOL     OW15421   0.778   4.124   1.005 -0.4709  0.4649  0.8916
 1320SOL    HW115422   0.808   4.038   0.977  1.7525  1.1964  1.0482
 1320SOL    HW215423   0.867   4.150   1.030  0.4202 -0.7694 -0.9938
 1321SOL     OW15424   4.513   2.182   2.939  0.2132 -0.0238 -0.1281
 1321SOL    HW115425   4.462   2.262   2.923  0.0565 -0.6966 -2.9377
 1321SOL    HW215426   4.513   2.178   3.035  0.3232  1.7081 -0.0462
 1322SOL     OW15427   4.620   1.635   2.045 -0.0414 -0.1208 -0.5150
 1322SOL    HW115428   4.550   1.700   2.036  0.2292  0.3305  0.6207
 1322SOL    HW215429   4.650   1.632   2.136 -0.7242  0.3449 -0.2738
 1323SOL     OW15430   0.196   3.199  15.097 -0.1657 -0.2064  0.6975
 1323SOL    HW115431   0.229   3.247  15.174  0.1133  0.6325  0.0618
 1323SOL    HW215432   0.124   3.151  15.138 -0.6330 -0.4681 -0.4487
 1324SOL     OW15433   1.188   1.348   5.656 -0.9447  1.0117 -0.7977
 1324SOL    HW115434   1.168   1.401   5.579 -1.9708 -1.4273 -2.2311
 1324SOL    HW215435   1.106   1.336   5.705 -0.8081  0.1400 -0.7757
 1325SOL     OW15436   2.233   0.070  13.138  0.2345  0.3061 -0.0866
 1325SOL    HW115437   2.144   0.098  13.159  0.7981  0.7188  1.8156
 1325SOL    HW215438   2.232   0.110  13.051 -1.2414 -0.4299 -0.3955
 1326SOL     OW15439   2.522   4.603   5.946 -0.0718  0.6414  0.4610
 1326SOL    HW115440   2.475   4.591   5.863  0.2109 -2.1763  0.7165
 1326SOL    HW215441   2.457   4.560   6.002 -0.5252 -1.7707 -1.9194
 1327SOL     OW15442   3.566   3.529   6.441 -0.3720 -0.6724 -0.3575
 1327SOL    HW115443   3.481   3.487   6.430  0.3967 -2.4750  0.5831
 1327SOL    HW215444   3.625   3.457   6.417  1.4564  1.4020 -1.9777
 1328SOL     OW15445   3.543   3.830   1.888 -0.4149 -0.5273 -0.4174
 1328SOL    HW115446   3.578   3.836   1.800  0.2675  0.7771 -0.0574
 1328SOL    HW215447   3.453   3.862   1.878 -0.8470 -1.8602 -0.6800
 1329SOL     OW15448   2.857   3.727  14.922  0.1405 -0.1265 -0.0213
 1329SOL    HW115449   2.883   3.694  15.008 -1.1899 -1.0807  0.0204
 1329SOL    HW215450   2.761   3.720  14.921  0.1511 -0.4229  0.6064
 1330SOL     OW15451   2.965   3.040   8.343 -0.1105 -0.3549  0.3569
 1330SOL    HW115452   3.018   3.007   8.271  1.4280 -1.7126  2.0990
 1330SOL    HW215453   3.023   3.046   8.420  0.7652  0.9096 -0.4021
 1331SOL     OW15454   2.161   3.209  13.642  0.0212 -0.4942  0.0941
 1331SOL    HW115455   2.184   3.281  13.583  0.4670 -0.5005  0.2628
 1331SOL    HW215456   2.124   3.260  13.714 -0.1562  1.6308 -1.5048
 1332SOL     OW15457   3.997   4.304   4.442  0.0126 -0.2690  0.2484
 1332SOL    HW115458   4.001   4.371   4.374 -2.3489  0.2716  0.6487
 1332SOL    HW215459   3.909   4.320   4.476 -0.0761  3.0243 -1.4645
 1333SOL     OW15460   1.102   3.172   9.398 -0.2797 -0.4483 -0.0597
 1333SOL    HW115461   1.012   3.160   9.368 -0.3189  0.3539 -0.2609
 1333SOL    HW215462   1.134   3.240   9.338 -0.4132 -0.2459  0.0973
 1334SOL     OW15463   1.682   4.240   8.986 -0.0404  0.0466  0.1490
 1334SOL    HW115464   1.661   4.302   9.056  1.4295 -0.7019  1.2343
 1334SOL    HW215465   1.692   4.167   9.046 -1.0013 -1.5888 -1.6680
 1335SOL     OW15466   2.786   0.165   6.878  0.3443 -0.5073 -0.1052
 1335SOL    HW115467   2.726   0.094   6.899  0.1660 -0.3565 -0.0961
 1335SOL    HW215468   2.756   0.231   6.940  1.3992  1.6961 -1.9225
 1336SOL     OW15469   3.373   0.212   9.219 -0.3328  0.4053  0.8111
 1336SOL    HW115470   3.401   0.123   9.198 -1.1080  0.0860  1.1174
 1336SOL    HW215471   3.456   0.257   9.203 -0.3444  0.1397  0.0246
 1337SOL     OW15472   3.159   4.641   9.038 -0.0408 -0.4047  0.0552
 1337SOL    HW115473   3.123   4.711   9.092 -2.1774 -1.4649  0.0227
 1337SOL    HW215474   3.138   4.561   9.088 -0.1855 -0.6461 -0.3897
 1338SOL     OW15475   4.651   4.675   1.444 -0.0699  0.7734 -0.3407
 1338SOL    HW115476   4.691   4.658   1.359  1.2286 -0.6729  0.5534
 1338SOL    HW215477   4.592   4.602   1.459 -2.9667  3.1605 -0.2477
 1339SOL     OW15478   3.320   0.674  10.509 -0.3083  0.3075 -0.3072
 1339SOL    HW115479   3.313   0.593  10.460  2.8556  0.4641 -1.0431
 1339SOL    HW215480   3.413   0.685  10.527 -0.1492  0.0808 -1.0164
 1340SOL     OW15481   2.935   0.106   6.655 -0.6139  0.2700  0.1888
 1340SOL    HW115482   2.991   0.028   6.665 -0.7887  0.3093  1.3807
 1340SOL    HW215483   2.886   0.105   6.737 -0.8943 -0.3250  0.0190
 1341SOL     OW15484   4.416   4.227   5.986 -0.1343  0.4715  0.2154
 1341SOL    HW115485   4.389   4.196   6.072 -2.3763  0.3988 -0.5032
 1341SOL    HW215486   4.471   4.303   6.006 -1.0892  1.4862 -1.0415
 1342SOL     OW15487   3.009   3.114   9.646  0.3451 -0.9016 -0.1662
 1342SOL    HW115488   2.992   3.066   9.728  0.9039 -2.1152 -0.7595
 1342SOL    HW215489   3.005   3.044   9.580 -0.2227  0.3561 -1.4632
 1343SOL     OW15490   4.427   2.497   5.009 -0.2769 -0.1914 -0.9236
 1343SOL    HW115491   4.498   2.437   4.985  0.1551  0.4568 -1.2668
 1343SOL    HW215492   4.385   2.454   5.083  3.5893 -1.0722  0.7853
 1344SOL     OW15493   2.380   4.261   5.287  0.2971 -0.1531  0.2702
 1344SOL    HW115494   2.337   4.341   5.254 -0.9899  0.1056  2.5403
 1344SOL    HW215495   2.381   4.281   5.381 -1.3976 -0.7653  0.4168
 1345SOL     OW15496   0.726   4.669   3.493  0.2008  0.3625  0.5163
 1345SOL    HW115497   0.637   4.690   3.465 -0.0260 -1.0303  0.1974
 1345SOL    HW215498   0.768   0.030   3.488 -1.5172  1.2010  0.7882
 1346SOL     OW15499   1.448   2.879   8.729 -0.6040 -0.0454  0.3718
 1346SOL    HW115500   1.467   2.956   8.782  3.5210 -0.3151 -0.6884
 1346SOL    HW215501   1.376   2.921   8.682 -0.2801 -0.3013 -0.3604
 1347SOL     OW15502   3.720   0.315   0.738  0.5452  0.5390  0.0411
 1347SOL    HW115503   3.734   0.261   0.815 -0.8152 -0.5708 -0.4993
 1347SOL    HW215504   3.626   0.312   0.717  0.4411  0.2456  0.5830
 1348SOL     OW15505   0.863   0.596  13.723 -0.5799 -0.5861  0.1511
 1348SOL    HW115506   0.873   0.680  13.766 -0.4884  0.0645 -1.1452
 1348SOL    HW215507   0.924   0.613  13.651  0.3230 -1.4507  0.7107
 1349SOL     OW15508   3.965   1.159  14.431 -0.6557 -0.1383 -0.7591
 1349SOL    HW115509   3.905   1.103  14.381 -1.1996 -2.7410  2.7674
 1349SOL    HW215510   3.998   1.212  14.358  0.1937 -0.2721 -0.4641
 1350SOL     OW15511   1.509   2.823  16.541 -0.3588  0.0196 -0.1883
 1350SOL    HW115512   1.509   2.895  16.605 -1.4153 -2.0717  2.1607
 1350SOL    HW215513   1.429   2.770  16.548 -2.2415  2.6396 -1.7976
 1351SOL     OW15514   1.194   4.212   7.847  0.5462 -0.0720 -0.2062
 1351SOL    HW115515   1.131   4.283   7.852 -0.8782 -1.2122 -2.1566
 1351SOL    HW215516   1.257   4.251   7.908 -0.3560  1.5408 -0.3187
 1352SOL     OW15517   4.375   3.847   2.982 -0.6007 -0.4491  0.6518
 1352SOL    HW115518   4.432   3.770   2.984 -2.7725 -2.0477  0.7127
 1352SOL    HW215519   4.406   3.903   3.053  0.4751 -2.3003  1.6351
 1353SOL     OW15520   2.962   0.156   4.631 -0.1545  0.1267 -0.2747
 1353SOL    HW115521   3.004   0.239   4.606 -0.2384  0.0987 -0.5062
 1353SOL    HW215522   2.949   0.115   4.546  0.8571 -0.0521 -0.3409
 1354SOL     OW15523   3.345   0.816  14.585  0.4555 -0.4602 -0.4922
 1354SOL    HW115524   3.287   0.797  14.659  0.3720  1.1993 -0.1279
 1354SOL    HW215525   3.395   0.896  14.600 -2.2732  0.8220  1.9737
 1355SOL     OW15526   2.710   1.300   1.409  0.5332 -0.2440 -0.7102
 1355SOL    HW115527   2.657   1.360   1.460  0.7734 -2.0226  1.6536
 1355SOL    HW215528   2.730   1.239   1.481 -0.1831 -0.8623 -1.0309
 1356SOL     OW15529   3.284   3.319  12.677 -0.0445  0.1998  0.2477
 1356SOL    HW115530   3.230   3.301  12.600 -0.9483 -2.6567  1.5507
 1356SOL    HW215531   3.238   3.293  12.757  0.1079  1.1950  0.6685
 1357SOL     OW15532   1.533   0.901   7.853  0.0837  0.4864 -0.4809
 1357SOL    HW115533   1.569   0.983   7.886 -0.7736  0.6516  0.0348
 1357SOL    HW215534   1.447   0.919   7.890 -0.0090  0.2372 -0.5727
 1358SOL     OW15535   4.322   1.840   6.988  0.0960 -0.3279 -0.3445
 1358SOL    HW115536   4.274   1.847   7.070 -1.0847  1.1198 -1.1629
 1358SOL    HW215537   4.254   1.879   6.934  0.5026 -2.4449 -2.3922
 1359SOL     OW15538   2.071   0.759   7.819  0.0651 -0.8244  0.2812
 1359SOL    HW115539   2.053   0.784   7.909  1.8307  2.0167 -0.1313
 1359SOL    HW215540   2.137   0.827   7.802 -0.3281 -0.5670 -0.2304
 1360SOL     OW15541   1.991   1.695  14.062 -0.2150 -0.3514 -0.0993
 1360SOL    HW115542   1.975   1.705  13.968 -0.0446 -1.2423 -0.2220
 1360SOL    HW215543   1.932   1.619  14.066  0.6861 -1.0999 -0.9755
 1361SOL     OW15544   0.040   4.574   0.747  0.0887  0.3496  0.5376
 1361SOL    HW115545   0.129   4.611   0.750  0.7396 -1.0661 -0.9432
 1361SOL    HW215546   0.028   4.597   0.655  1.1375  1.6587  0.7142
 1362SOL     OW15547   4.475   1.132  15.385 -0.0600 -0.1068  0.7195
 1362SOL    HW115548   4.403   1.078  15.418 -3.2924  3.0917 -1.1297
 1362SOL    HW215549   4.435   1.191  15.321 -1.5272 -0.1666  1.5769
 1363SOL     OW15550   2.107   1.146   8.387  0.1713  0.3718 -0.1325
 1363SOL    HW115551   2.202   1.154   8.394 -0.0596  3.4360 -0.7815
 1363SOL    HW215552   2.090   1.236   8.361 -0.1821  0.5338  0.6423
 1364SOL     OW15553   1.823   2.980   2.988 -0.4086 -0.2756  0.0914
 1364SOL    HW115554   1.908   3.014   2.961 -1.5229  2.0595 -0.4660
 1364SOL    HW215555   1.768   3.042   2.940  1.8697  0.3506 -1.7246
 1365SOL     OW15556   1.544   2.101   6.972 -0.2538  0.1092 -0.2875
 1365SOL    HW115557   1.455   2.093   7.006  0.7323  1.1942  2.5247
 1365SOL    HW215558   1.553   2.009   6.946  2.3417 -0.8217  3.8508
 1366SOL     OW15559   1.411   2.698   6.880  0.1015 -1.0000  0.2095
 1366SOL    HW115560   1.384   2.734   6.965  0.1139  1.2986 -0.7551
 1366SOL    HW215561   1.454   2.618   6.910 -0.3353 -1.2662  0.1293
 1367SOL     OW15562   1.064   1.261   3.961  0.5082  0.4598  0.1563
 1367SOL    HW115563   1.095   1.291   4.047 -0.0126  0.5172  0.3236
 1367SOL    HW215564   1.125   1.187   3.953  0.1347  0.0608  0.9806
 1368SOL     OW15565   2.430   2.756  12.006  0.0237  0.5387  0.1951
 1368SOL    HW115566   2.393   2.668  12.005 -0.3805  0.7240 -0.4438
 1368SOL    HW215567   2.364   2.806  11.958  0.4593  0.0642 -0.9053
 1369SOL     OW15568   0.723   1.219  16.316 -0.3219 -0.2311 -0.0966
 1369SOL    HW115569   0.714   1.306  16.278  0.1382  0.1242  0.6072
 1369SOL    HW215570   0.733   1.244  16.408 -3.3306 -0.1677  0.2384
 1370SOL     OW15571   4.116   0.834  12.034 -0.5020 -0.1896  0.0107
 1370SOL    HW115572   4.120   0.785  11.952 -0.7008  1.8464 -1.2197
 1370SOL    HW215573   4.204   0.870  12.029 -0.1786 -0.9735  0.1016
 1371SOL     OW15574   3.693   4.420  12.967  0.3197  0.5010  0.2568
 1371SOL    HW115575   3.753   4.358  13.008  0.7825  2.1431  2.0489
 1371SOL    HW215576   3.757   4.486  12.944 -0.4542  1.0383 -0.3524
 1372SOL     OW15577   0.820   3.730   7.049 -0.1355  0.0970  0.4944
 1372SOL    HW115578   0.839   3.693   7.135 -1.2028 -1.6189 -0.0054
 1372SOL    HW215579   0.805   3.822   7.068  0.0490 -0.1573  1.8903
 1373SOL     OW15580   1.722   3.600   3.938 -0.0317 -0.5601 -0.8022
 1373SOL    HW115581   1.811   3.634   3.946 -0.8853  0.9162  2.6635
 1373SOL    HW215582   1.736   3.509   3.964 -0.8784 -0.4512  0.0768
 1374SOL     OW15583   0.009   4.564   1.202 -0.0187  0.0512  0.6363
 1374SOL    HW115584   4.679   4.635   1.169 -0.7749 -1.3421 -1.0874
 1374SOL    HW215585   0.011   4.496   1.134  0.7530 -0.9933  1.6894
 1375SOL     OW15586   0.024   2.620  13.374 -0.2117  0.1529  0.3585
 1375SOL    HW115587   0.079   2.554  13.332  0.2234 -0.3559  1.7198
 1375SOL    HW215588   4.710   2.667  13.300 -0.7248 -1.5242 -0.4355
 1376SOL     OW15589   2.430   2.577   2.096 -0.3537  0.3848  0.6106
 1376SOL    HW115590   2.362   2.542   2.153 -1.1494 -0.0479 -0.5831
 1376SOL    HW215591   2.509   2.534   2.129 -0.3675 -0.0043  0.1464
 1377SOL     OW15592   4.528   1.833   7.719  0.2488 -0.6004  0.2234
 1377SOL    HW115593   4.559   1.775   7.649 -0.0466 -1.6247  0.9335
 1377SOL    HW215594   4.566   1.911   7.678 -2.3518  0.4039 -0.2236
 1378SOL     OW15595   4.109   2.521  16.744 -0.3063  0.0536 -0.4863
 1378SOL    HW115596   4.126   2.490  16.833  0.6243  2.9030  0.3292
 1378SOL    HW215597   4.014   2.524  16.738 -0.2296  0.8195 -1.3066
 1379SOL     OW15598   4.455   0.559   6.439  0.3437  0.1145 -0.5136
 1379SOL    HW115599   4.364   0.533   6.424 -0.3092  1.5671  0.8704
 1379SOL    HW215600   4.441   0.649   6.467 -2.8431 -0.4175 -0.4004
 1380SOL     OW15601   0.474   0.207   1.350  0.4141 -0.6350  0.5556
 1380SOL    HW115602   0.452   0.155   1.427 -0.4583 -0.1973  0.5994
 1380SOL    HW215603   0.562   0.172   1.336 -0.4621 -0.9634 -4.3768
 1381SOL     OW15604   2.913   1.773   2.839 -0.0556  0.8115  0.8500
 1381SOL    HW115605   3.007   1.759   2.828 -0.4053 -2.9678  3.0723
 1381SOL    HW215606   2.881   1.684   2.825  1.4285 -0.1812  3.8506
 1382SOL     OW15607   3.437   1.720  11.835  0.1182 -0.1153  0.4525
 1382SOL    HW115608   3.345   1.697  11.843  0.0903  0.2893  1.2961
 1382SOL    HW215609   3.478   1.666  11.902  0.6801  1.7072  1.5973
 1383SOL     OW15610   4.188   2.336   1.602 -0.1365 -0.6356  0.2968
 1383SOL    HW115611   4.181   2.391   1.680  0.3408  0.5252 -0.4790
 1383SOL    HW215612   4.256   2.381   1.552 -0.2495 -1.8606 -0.9398
 1384SOL     OW15613   2.157   1.303   1.481 -0.0095 -0.3057  0.1748
 1384SOL    HW115614   2.236   1.300   1.535  1.4627 -1.5884 -2.0450
 1384SOL    HW215615   2.131   1.395   1.480  0.5581 -0.1495 -0.4067
 1385SOL     OW15616   4.019   4.303   6.516 -0.3426  0.0433 -0.0276
 1385SOL    HW115617   3.997   4.359   6.442 -0.2821  0.0818 -0.0165
 1385SOL    HW215618   3.933   4.316   6.555 -0.0716 -1.2679  1.0047
 1386SOL     OW15619   0.100   3.429   8.793 -0.3861  0.1720  0.3617
 1386SOL    HW115620   0.144   3.409   8.710  0.7364  2.1475  0.4894
 1386SOL    HW215621   0.155   3.500   8.825 -1.3619  0.5495  1.1835
 1387SOL     OW15622   0.580   3.500   6.067  0.4973 -0.1371 -0.6561
 1387SOL    HW115623   0.534   3.417   6.050  0.7651 -0.4089 -0.0524
 1387SOL    HW215624   0.505   3.557   6.055 -0.1364 -0.4925  1.5421
 1388SOL     OW15625   3.362   3.981   5.660  0.2016  0.1449  0.7219
 1388SOL    HW115626   3.282   4.027   5.635  1.4448  1.0288 -1.5865
 1388SOL    HW215627   3.415   4.012   5.586 -0.5132 -0.4508 -0.0301
 1389SOL     OW15628   4.116   2.954   6.358 -0.2448 -0.3629  0.3144
 1389SOL    HW115629   4.123   2.910   6.273 -2.3785  0.6754 -0.4135
 1389SOL    HW215630   4.159   2.894   6.418 -0.1586  0.6995  1.3185
 1390SOL     OW15631   2.414   3.652  11.209 -0.2136 -0.0350  0.1141
 1390SOL    HW115632   2.338   3.625  11.158 -1.3814  0.0224  1.8105
 1390SOL    HW215633   2.425   3.740  11.172  0.5751  0.0527  0.5691
 1391SOL     OW15634   3.542   3.450   4.516  0.0792 -0.1686 -0.2543
 1391SOL    HW115635   3.456   3.435   4.475  0.1907 -2.8179  0.4279
 1391SOL    HW215636   3.590   3.492   4.446  1.4872  0.4223  1.0663
 1392SOL     OW15637   3.893   4.708  10.847 -0.2838  0.5140  0.1225
 1392SOL    HW115638   3.808   0.007  10.884 -0.9878 -1.3043 -0.3608
 1392SOL    HW215639   3.900   4.614  10.836  1.1368  0.5859  0.3797
 1393SOL     OW15640   2.248   1.540  11.745  0.1841  0.1848  0.3186
 1393SOL    HW115641   2.253   1.459  11.796 -2.1150  0.9947  1.8223
 1393SOL    HW215642   2.158   1.526  11.715  0.0480  1.4541  0.1490
 1394SOL     OW15643   0.108   1.744  15.485  0.1742  0.3650 -0.5732
 1394SOL    HW115644   0.115   1.649  15.498 -0.0218  0.2843 -1.0521
 1394SOL    HW215645   0.158   1.778  15.559 -0.9957  1.8624 -0.4539
 1395SOL     OW15646   3.564   4.671  10.098 -0.0282 -0.5135  0.3021
 1395SOL    HW115647   3.511   4.725  10.039 -2.7819 -0.2027  3.0436
 1395SOL    HW215648   3.501   4.654  10.168  0.2354  0.2872  0.7286
 1396SOL     OW15649   2.993   2.632   1.878 -0.7418 -0.2207  0.0870
 1396SOL    HW115650   3.086   2.606   1.879 -0.9331 -0.9034 -0.3642
 1396SOL    HW215651   3.012   2.722   1.905 -1.4581  0.0604 -0.3595
 1397SOL     OW15652   2.375   3.988   4.917 -0.1741  0.1110  0.6668
 1397SOL    HW115653   2.456   3.979   4.968  0.3226 -1.3575 -0.3765
 1397SOL    HW215654   2.367   3.893   4.905 -0.6222  0.0356  1.5824
 1398SOL     OW15655   1.618   2.964   9.887  0.2689  0.5177 -0.1085
 1398SOL    HW115656   1.593   2.875   9.911 -2.9317  1.2312 -0.8239
 1398SOL    HW215657   1.555   2.996   9.952  0.3744  1.5654 -0.5284
 1399SOL     OW15658   4.655   1.768  11.212 -0.2078  0.3399  0.2891
 1399SOL    HW115659   4.627   1.685  11.172  1.5116 -0.3869  0.6197
 1399SOL    HW215660   4.636   1.817  11.132  1.5160  1.1432  0.3768
 1400SOL     OW15661   4.528   3.084   1.990 -0.5394  0.2410 -0.1899
 1400SOL    HW115662   4.517   3.120   1.902  0.1619 -1.4351 -0.9534
 1400SOL    HW215663   4.458   3.126   2.041 -1.2473  0.1067 -1.0639
 1401SOL     OW15664   1.113   0.597   2.041 -0.2806 -0.1972  0.6488
 1401SOL    HW115665   1.101   0.505   2.063  0.5208 -0.0006  1.9423
 1401SOL    HW215666   1.195   0.618   2.086 -0.4840  0.6559  0.6256
 1402SOL     OW15667   3.929   1.400   7.372  0.7541  0.3585 -0.2293
 1402SOL    HW115668   3.887   1.485   7.365  2.4868  1.2712  0.2871
 1402SOL    HW215669   3.893   1.368   7.454  0.9334  0.0114 -0.2837
 1403SOL     OW15670   3.696   3.268   6.806  0.7944  0.1436 -0.1221
 1403SOL    HW115671   3.663   3.183   6.778  1.5154 -0.5259  1.0671
 1403SOL    HW215672   3.703   3.259   6.901 -0.3094  1.0047  0.0397
 1404SOL     OW15673   4.129   3.877   3.050  0.0548 -0.0358 -0.0675
 1404SOL    HW115674   4.217   3.865   3.016 -1.1285  1.3357 -3.5925
 1404SOL    HW215675   4.125   3.970   3.027 -0.3080  0.5110  2.1919
 1405SOL     OW15676   4.429   0.831   6.452 -0.6910 -0.5037 -0.2302
 1405SOL    HW115677   4.457   0.922   6.451 -2.5394  0.0533 -0.7278
 1405SOL    HW215678   4.334   0.841   6.447 -0.7254  0.0648  1.3710
 1406SOL     OW15679   2.888   1.073   7.600 -0.0374 -0.4560 -0.1952
 1406SOL    HW115680   2.953   1.104   7.537 -0.2073  0.9987  0.3338
 1406SOL    HW215681   2.948   1.009   7.636 -0.1269  0.6112  1.8290
 1407SOL     OW15682   4.396   1.134   0.065 -0.4350 -0.3076  0.3912
 1407SOL    HW115683   4.338   1.179   0.126  0.3078  2.1625 -0.6847
 1407SOL    HW215684   4.440   1.074   0.124  0.3078  0.2816  0.4410
 1408SOL     OW15685   2.504   4.010   6.294  0.0127  0.3045  0.5856
 1408SOL    HW115686   2.486   4.011   6.200 -0.0140 -0.7551  0.5891
 1408SOL    HW215687   2.593   3.974   6.294  0.2042  0.7616  2.6913
 1409SOL     OW15688   0.328   2.408   0.880  0.0958 -0.7494 -0.0746
 1409SOL    HW115689   0.320   2.482   0.820 -0.9629 -0.0840  0.8847
 1409SOL    HW215690   0.353   2.340   0.817  4.5801  0.0267  0.9044
 1410SOL     OW15691   4.110   3.409   7.384  0.0270  0.5464  0.6213
 1410SOL    HW115692   4.192   3.383   7.427  0.0114  1.0716  0.9716
 1410SOL    HW215693   4.083   3.323   7.354  1.3593  1.4448 -3.1672
 1411SOL     OW15694   0.223   0.749   2.815 -0.0063 -1.2978 -0.0624
 1411SOL    HW115695   0.277   0.768   2.738  0.3663 -0.3556  0.4334
 1411SOL    HW215696   0.142   0.794   2.792 -1.3712 -2.0651  3.2074
 1412SOL     OW15697   4.564   1.496  10.745  0.3058 -0.6762 -0.0205
 1412SOL    HW115698   4.471   1.473  10.754  0.7399 -2.3484  0.1423
 1412SOL    HW215699   4.576   1.509  10.651  1.1063 -2.2264 -0.1277
 1413SOL     OW15700   0.474   1.454   4.427 -0.6989 -0.0702  0.3727
 1413SOL    HW115701   0.439   1.460   4.338  1.7434  0.9779 -0.5084
 1413SOL    HW215702   0.562   1.426   4.404 -0.1378  0.2796  2.1372
 1414SOL     OW15703   0.740   4.709   7.152 -0.4172 -0.1963  0.0783
 1414SOL    HW115704   0.713   0.027   7.233  2.0377 -0.2750  0.9444
 1414SOL    HW215705   0.835   4.709   7.160 -0.3262  0.6501 -0.9476
 1415SOL     OW15706   2.057   1.911  14.201  0.1624  0.3519  0.4111
 1415SOL    HW115707   1.994   1.966  14.154 -0.5889 -0.7108  0.1530
 1415SOL    HW215708   2.049   1.837  14.140 -4.5109  1.0611  0.1819
 1416SOL     OW15709   2.510   2.063   5.123  0.1589 -0.4817  0.7311
 1416SOL    HW115710   2.590   2.115   5.118 -0.6374  0.6147 -0.5575
 1416SOL    HW215711   2.495   2.057   5.029 -1.6297 -0.1182  1.0026
 1417SOL     OW15712   1.440   1.315   4.983  0.6149  0.1078  0.1028
 1417SOL    HW115713   1.492   1.370   4.925  1.0774  0.9219  1.2859
 1417SOL    HW215714   1.510   1.249   4.989  1.0759  0.5786 -0.1363
 1418SOL     OW15715   3.211   4.189   9.766 -0.3486  0.1137  0.2164
 1418SOL    HW115716   3.213   4.239   9.685 -1.8749 -0.2096 -0.0248
 1418SOL    HW215717   3.118   4.194   9.788 -0.5026 -1.8909  0.0201
 1419SOL     OW15718   3.113   1.672   4.901 -0.6224 -0.7948 -0.0592
 1419SOL    HW115719   3.017   1.668   4.895 -0.7119  1.1296  0.0454
 1419SOL    HW215720   3.135   1.716   4.819 -3.0497  1.1793  0.3435
 1420SOL     OW15721   4.374   3.977   1.093  0.0397  0.2540  0.3092
 1420SOL    HW115722   4.325   3.951   1.171 -0.2513 -1.1801 -0.3426
 1420SOL    HW215723   4.414   4.057   1.125 -0.7139  0.1029  1.6281
 1421SOL     OW15724   2.904   1.828   2.216  0.4827 -0.1834 -0.1005
 1421SOL    HW115725   2.873   1.788   2.297  1.2602  1.5022  1.0310
 1421SOL    HW215726   2.928   1.749   2.166  1.2583 -1.0748  1.6920
 1422SOL     OW15727   4.171   3.444   4.745  0.4704  0.0636 -0.0926
 1422SOL    HW115728   4.184   3.404   4.659 -0.8249  0.5671 -0.5188
 1422SOL    HW215729   4.183   3.365   4.798  0.8026  0.0088 -0.2486
 1423SOL     OW15730   3.227   0.420   5.615 -0.1198  0.1602  0.2144
 1423SOL    HW115731   3.240   0.507   5.655 -1.4335 -0.1559  1.3267
 1423SOL    HW215732   3.144   0.392   5.653 -1.6233  1.7908 -1.8343
 1424SOL     OW15733   3.696   2.333   8.560 -0.1947  0.0115  0.2532
 1424SOL    HW115734   3.759   2.391   8.517  1.1711 -2.3534 -0.9350
 1424SOL    HW215735   3.735   2.310   8.644 -0.6037  1.0022  0.7144
 1425SOL     OW15736   0.614   0.862   5.310  0.3990 -0.1558 -0.4721
 1425SOL    HW115737   0.588   0.927   5.375 -1.4302  0.0051 -1.3794
 1425SOL    HW215738   0.622   0.922   5.236 -1.7757  1.6486  0.7637
 1426SOL     OW15739   2.382   1.976   5.623 -0.0584 -0.0598  0.0959
 1426SOL    HW115740   2.434   2.050   5.593  0.4598 -1.1983 -1.8525
 1426SOL    HW215741   2.381   2.006   5.713  0.3882  1.8743 -0.5395
 1427SOL     OW15742   4.363   3.843   7.949 -0.0165 -0.2402 -0.7161
 1427SOL    HW115743   4.352   3.785   8.024  0.2187  0.1396 -0.3825
 1427SOL    HW215744   4.452   3.876   7.962  0.5339 -2.4984  1.0501
 1428SOL     OW15745   1.512   1.347   5.386 -0.2688 -0.2166 -0.2284
 1428SOL    HW115746   1.507   1.391   5.471  0.5106 -1.6878  0.5810
 1428SOL    HW215747   1.545   1.414   5.326 -0.3215 -1.2863 -1.4342
 1429SOL     OW15748   0.827   2.932  16.802 -0.0934  0.0611 -0.0081
 1429SOL    HW115749   0.840   2.848  16.847 -2.2821 -0.1916  0.1714
 1429SOL    HW215750   0.770   2.895  16.734  1.2398  0.6281 -1.4133
 1430SOL     OW15751   3.544   1.962   7.149 -0.0023 -0.1250  0.5038
 1430SOL    HW115752   3.510   2.000   7.068 -1.7366 -1.0291  0.8011
 1430SOL    HW215753   3.466   1.928   7.193 -1.1817  0.4730 -1.1137
 1431SOL     OW15754   1.508   0.765  10.906  0.0416  0.2651 -0.0923
 1431SOL    HW115755   1.479   0.674  10.913  0.9154 -0.1211 -1.4522
 1431SOL    HW215756   1.423   0.799  10.879  0.9710  3.1535  0.6083
 1432SOL     OW15757   3.593   4.508   7.823  0.1481 -0.2354  0.0401
 1432SOL    HW115758   3.499   4.516   7.842  0.0725 -0.1535 -0.3496
 1432SOL    HW215759   3.609   4.427   7.871  0.0601  0.5651  1.4156
 1433SOL     OW15760   1.939   0.727   8.094 -0.3259  0.0551 -0.5116
 1433SOL    HW115761   1.846   0.746   8.085 -0.6552 -1.3392 -0.0206
 1433SOL    HW215762   1.963   0.798   8.152  2.2301  0.6271 -2.2553
 1434SOL     OW15763   3.073   3.616   6.473  0.4525  0.4127  0.3356
 1434SOL    HW115764   3.024   3.552   6.524 -1.5078  0.8594 -1.0071
 1434SOL    HW215765   3.111   3.676   6.536  0.5283  1.9623 -1.1920
 1435SOL     OW15766   2.950   2.029   3.852 -0.3071  0.2826 -0.2404
 1435SOL    HW115767   3.011   1.958   3.875 -0.9073  0.2192  1.1292
 1435SOL    HW215768   2.882   2.007   3.915 -0.9637  1.9317 -0.3837
 1436SOL     OW15769   2.873   0.843   2.581 -0.1598  0.3444 -0.0164
 1436SOL    HW115770   2.807   0.845   2.511  0.9659  0.4459 -1.0788
 1436SOL    HW215771   2.957   0.858   2.537 -0.2783 -0.2078 -0.4431
 1437SOL     OW15772   2.410   4.163   3.300 -0.2760  0.3925  0.5511
 1437SOL    HW115773   2.499   4.135   3.321  0.6780  1.9830 -1.3591
 1437SOL    HW215774   2.374   4.174   3.388 -1.1449 -0.1489  0.2639
 1438SOL     OW15775   0.491   2.261  10.217  0.5575 -0.0241 -0.0530
 1438SOL    HW115776   0.496   2.304  10.131 -0.8071 -0.6495 -0.4636
 1438SOL    HW215777   0.483   2.169  10.193  2.8170 -0.3211  0.3419
 1439SOL     OW15778   4.559   4.117   8.076 -0.4872 -0.7640  0.2662
 1439SOL    HW115779   4.573   4.022   8.065  0.0533 -0.8586  1.8473
 1439SOL    HW215780   4.504   4.119   8.154 -1.1897 -0.1628 -0.2465
 1440SOL     OW15781   1.262   2.070  16.004  0.4303 -0.2776 -0.0012
 1440SOL    HW115782   1.356   2.086  16.009  0.2465  1.1885 -1.2207
 1440SOL    HW215783   1.252   2.019  16.085  1.9073  1.1907  1.1072
 1441SOL     OW15784   2.003   0.899   2.570 -0.1818  0.6731 -0.1276
 1441SOL    HW115785   2.058   0.902   2.492 -1.8055 -1.0956 -1.3406
 1441SOL    HW215786   1.937   0.966   2.553  0.9589  2.3483  2.0688
 1442SOL     OW15787   0.934   3.410   7.615 -0.1040 -0.0253 -0.1504
 1442SOL    HW115788   0.898   3.496   7.635  1.4911  0.8044 -0.8464
 1442SOL    HW215789   0.861   3.350   7.624  0.1022 -0.3788 -0.8319
 1443SOL     OW15790   3.336   0.930   4.507 -0.2013 -0.3896 -0.2057
 1443SOL    HW115791   3.402   0.999   4.516  0.4088 -0.5812 -3.0252
 1443SOL    HW215792   3.349   0.883   4.589 -0.5397 -1.2769 -0.6542
 1444SOL     OW15793   0.046   3.453   7.895  0.4708  0.0851 -0.0088
 1444SOL    HW115794   4.684   3.447   7.935  0.2392  3.6809  0.0743
 1444SOL    HW215795   0.061   3.545   7.917 -0.2936  0.4633 -1.0590
 1445SOL     OW15796   2.564   3.593   6.704  0.8835 -0.6085 -0.4684
 1445SOL    HW115797   2.650   3.599   6.747  0.0492 -2.3110  1.4587
 1445SOL    HW215798   2.520   3.544   6.773  0.5009  1.4614  0.7519
 1446SOL     OW15799   1.562   3.421  13.662  0.1406 -0.4664  0.6379
 1446SOL    HW115800   1.657   3.434  13.654 -0.0617  2.4467  2.9045
 1446SOL    HW215801   1.543   3.502  13.710  1.6581  1.1878 -1.5115
 1447SOL     OW15802   2.472   2.134   7.374 -0.2265 -0.0155  0.0592
 1447SOL    HW115803   2.479   2.228   7.355 -1.6542 -0.3925 -2.3945
 1447SOL    HW215804   2.406   2.093   7.318 -0.4685  1.8927 -1.0501
 1448SOL     OW15805   1.770   4.397   4.091 -0.0948 -0.0236 -0.0468
 1448SOL    HW115806   1.709   4.463   4.126 -1.9367 -2.5962  1.6222
 1448SOL    HW215807   1.786   4.344   4.169  1.4144  1.0190  0.3512
 1449SOL     OW15808   2.868   3.314  16.050 -0.0767  0.2275 -0.2216
 1449SOL    HW115809   2.866   3.318  16.145 -0.5388  0.9863 -0.2575
 1449SOL    HW215810   2.881   3.220  16.040 -1.6981 -0.1485  1.1398
 1450SOL     OW15811   0.859   4.084  10.322 -0.3529 -0.0096  0.2176
 1450SOL    HW115812   0.809   4.054  10.247 -0.5530  0.6462  0.0911
 1450SOL    HW215813   0.809   4.162  10.347  0.9835  0.3685  1.7427
 1451SOL     OW15814   2.329   3.472   1.646 -0.6868  0.6926  0.0865
 1451SOL    HW115815   2.304   3.556   1.684 -1.2153  0.4583  0.2587
 1451SOL    HW215816   2.411   3.497   1.604 -0.8199 -2.2996 -1.9741
 1452SOL     OW15817   3.738   0.604   8.107 -0.5813  0.7239 -0.1461
 1452SOL    HW115818   3.682   0.676   8.135  0.1617  0.1935  2.6939
 1452SOL    HW215819   3.680   0.531   8.126  1.5792 -1.2294 -1.0602
 1453SOL     OW15820   2.403   2.126   3.719 -0.3810  0.1619  0.2332
 1453SOL    HW115821   2.357   2.107   3.801 -0.1316 -1.2537  0.0366
 1453SOL    HW215822   2.498   2.123   3.732 -0.5067 -3.3214  0.2145
 1454SOL     OW15823   1.572   0.916   9.118  0.0810  0.4271 -0.0620
 1454SOL    HW115824   1.667   0.925   9.122  0.3512 -2.0126 -0.6095
 1454SOL    HW215825   1.564   0.864   9.199 -0.9999 -0.0207 -0.4490
 1455SOL     OW15826   1.337   2.872  12.708  0.2450  0.1268 -0.3006
 1455SOL    HW115827   1.303   2.910  12.789  0.5287  0.8208 -0.5117
 1455SOL    HW215828   1.304   2.920  12.632 -0.5542  2.6851  1.6591
 1456SOL     OW15829   1.632   2.320   1.545 -0.5049  0.2876 -0.1549
 1456SOL    HW115830   1.609   2.322   1.452 -1.1774  0.2106  0.0130
 1456SOL    HW215831   1.706   2.259   1.543 -1.8942 -1.3582 -1.2320
 1457SOL     OW15832   0.009   2.776   1.756  0.2520 -0.1376  0.3203
 1457SOL    HW115833   0.038   2.865   1.739 -0.0591  0.2523  1.8833
 1457SOL    HW215834   4.666   2.765   1.690 -0.0516  1.8313  0.3147
 1458SOL     OW15835   3.867   3.479   3.289  0.5046  0.0055  0.2994
 1458SOL    HW115836   3.936   3.543   3.306  0.5637  0.3682 -1.2512
 1458SOL    HW215837   3.893   3.469   3.197  0.7389  1.0502  0.2466
 1459SOL     OW15838   0.204   4.316   3.062  0.2291 -0.1381  0.0319
 1459SOL    HW115839   0.251   4.242   3.100  0.8683  0.7719  1.0444
 1459SOL    HW215840   0.176   4.275   2.981  1.4477 -1.0321  0.0626
 1460SOL     OW15841   0.929   2.688  16.899  0.5090 -0.6417  0.0799
 1460SOL    HW115842   0.955   2.626  16.967  0.5225 -0.7513 -0.0245
 1460SOL    HW215843   0.885   2.635  16.832 -1.3629  2.3325 -1.0406
 1461SOL     OW15844   2.696   0.163   4.771  0.4056 -0.5441 -0.7359
 1461SOL    HW115845   2.791   0.156   4.780  0.8255  2.5060 -2.5402
 1461SOL    HW215846   2.686   0.231   4.703  2.6999  0.4546 -0.0609
 1462SOL     OW15847   3.649   2.420   9.713 -0.2223 -0.1203 -0.9293
 1462SOL    HW115848   3.616   2.420   9.623  0.6300  0.9846 -1.2519
 1462SOL    HW215849   3.691   2.507   9.716 -0.4636 -0.1275  1.8053
 1463SOL     OW15850   3.701   0.809   5.100 -0.4842 -0.1408 -0.0228
 1463SOL    HW115851   3.627   0.847   5.054  0.4306  0.8365 -0.6847
 1463SOL    HW215852   3.654   0.770   5.174 -0.2757  0.2737  0.3281
 1464SOL     OW15853   2.283   2.970   4.999 -0.1878  0.2681  0.6231
 1464SOL    HW115854   2.282   2.895   4.939 -1.2341  0.8635 -0.0988
 1464SOL    HW215855   2.201   3.016   4.980 -1.4728 -2.1864  0.1719
 1465SOL     OW15856   0.895   2.873   4.207 -0.1265  0.1137 -0.6391
 1465SOL    HW115857   0.889   2.842   4.297  0.6589 -1.2765 -1.0709
 1465SOL    HW215858   0.812   2.843   4.169 -0.4218 -1.0124  0.9159
 1466SOL     OW15859   0.872   3.133   4.120 -0.4663 -0.2440  0.1590
 1466SOL    HW115860   0.792   3.154   4.169 -0.1706  1.4980 -0.0940
 1466SOL    HW215861   0.873   3.038   4.134 -2.1461 -0.7126 -2.8015
 1467SOL     OW15862   0.058   0.777   6.522 -0.3159 -0.0519 -0.5878
 1467SOL    HW115863   0.124   0.780   6.591  2.0381 -4.5925 -2.6466
 1467SOL    HW215864   0.043   0.683   6.528  0.2414 -0.1384 -0.5608
 1468SOL     OW15865   2.761   4.298   4.078  0.0186 -0.4142 -0.1605
 1468SOL    HW115866   2.748   4.383   4.121 -1.1077 -0.7738  0.2251
 1468SOL    HW215867   2.730   4.239   4.147  3.8922  0.5733  2.4104
 1469SOL     OW15868   4.226   2.249   2.887  0.4174 -0.3107 -0.1701
 1469SOL    HW115869   4.238   2.177   2.949 -3.5166  0.9836  2.1188
 1469SOL    HW215870   4.155   2.295   2.933  0.0320 -1.8448  0.7644
 1470SOL     OW15871   0.582   3.406   4.452  0.1264 -0.4602 -0.1173
 1470SOL    HW115872   0.498   3.450   4.441  0.6387  0.6263  0.3494
 1470SOL    HW215873   0.600   3.419   4.545  1.8792  0.8268 -0.6416
 1471SOL     OW15874   2.950   1.703  16.068 -0.6277 -1.4399 -0.3398
 1471SOL    HW115875   2.856   1.688  16.058 -0.6556 -1.2874 -0.3033
 1471SOL    HW215876   2.975   1.674  15.980  0.9527 -0.3911 -0.2308
 1472SOL     OW15877   0.799   3.003   0.415  0.1591 -0.2003  0.4170
 1472SOL    HW115878   0.852   3.075   0.450  1.0630 -0.0280 -1.2560
 1472SOL    HW215879   0.862   2.952   0.363 -1.2008 -1.4000 -0.0290
 1473SOL     OW15880   0.438   0.462   4.374 -0.5009 -0.2616  0.6852
 1473SOL    HW115881   0.425   0.368   4.390  0.0639 -0.4288  0.1362
 1473SOL    HW215882   0.350   0.484   4.345 -0.2525 -0.5245 -0.2545
 1474SOL     OW15883   2.117   2.681  12.190  0.4295  0.7149 -0.0595
 1474SOL    HW115884   2.175   2.628  12.136 -0.4437  0.4773 -0.7570
 1474SOL    HW215885   2.153   2.654  12.275  0.8953  0.7131 -0.2582
 1475SOL     OW15886   0.145   2.415   5.018  0.3728  0.3004  0.1070
 1475SOL    HW115887   0.158   2.437   5.110  3.3584  2.6307 -0.8505
 1475SOL    HW215888   0.207   2.342   5.009  1.6914  1.7504 -2.6880
 1476SOL     OW15889   4.206   0.247   5.137 -0.0723  0.8675  0.5891
 1476SOL    HW115890   4.205   0.154   5.113 -1.7288  1.2645 -0.7959
 1476SOL    HW215891   4.246   0.228   5.222 -1.6472  0.6727  1.2870
 1477SOL     OW15892   0.871   2.899   7.025  0.1148  0.2311  0.9228
 1477SOL    HW115893   0.779   2.897   7.050 -0.4224 -0.5281 -1.1019
 1477SOL    HW215894   0.869   2.963   6.955  0.3397 -0.0909  0.6235
 1478SOL     OW15895   3.334   4.457   8.447 -0.3470 -0.1690 -0.0905
 1478SOL    HW115896   3.409   4.490   8.496  1.0715 -0.0493 -2.3982
 1478SOL    HW215897   3.345   4.368   8.480  2.2833 -1.2221 -3.8959
 1479SOL     OW15898   2.844   0.613   3.933  0.0900 -0.2100  0.2155
 1479SOL    HW115899   2.749   0.623   3.929  0.0338  0.1228  2.6280
 1479SOL    HW215900   2.868   0.699   3.898 -2.2621 -0.1588 -1.2601
 1480SOL     OW15901   1.105   1.413   5.389  0.4711 -0.0796  0.4180
 1480SOL    HW115902   1.079   1.502   5.365  2.9766  0.6800  0.5432
 1480SOL    HW215903   1.027   1.362   5.367  0.4217  1.1800 -2.3277
 1481SOL     OW15904   2.582   1.701   6.226  0.0401 -0.3118 -0.2308
 1481SOL    HW115905   2.634   1.661   6.156  0.4175 -2.8475  1.5288
 1481SOL    HW215906   2.516   1.634   6.245 -1.0944  0.6465 -0.7607
 1482SOL     OW15907   3.990   2.199   5.153  0.5640  0.2911  0.7283
 1482SOL    HW115908   4.040   2.130   5.198 -0.6641 -0.2546  1.2695
 1482SOL    HW215909   4.012   2.272   5.212  1.4060  0.5284  0.1136
 1483SOL     OW15910   2.993   0.861   0.181 -0.3688  0.1793  0.0093
 1483SOL    HW115911   2.945   0.939   0.208 -1.9066 -0.4874 -0.7852
 1483SOL    HW215912   2.984   0.815   0.265 -2.5428  0.1569 -0.2288
 1484SOL     OW15913   2.991   4.591  15.286 -0.4807  0.0308  0.0608
 1484SOL    HW115914   3.039   4.594  15.203  1.3713  1.5489  1.1894
 1484SOL    HW215915   2.920   4.528  15.273 -2.0423  2.0436 -1.2594
 1485SOL     OW15916   2.648   2.939  16.436  0.3281 -0.1496  0.6387
 1485SOL    HW115917   2.635   2.844  16.439 -0.3414 -0.0505  0.9982
 1485SOL    HW215918   2.729   2.954  16.387 -0.1673  0.0360 -0.1198
 1486SOL     OW15919   0.735   0.550   7.131 -0.1805  0.2647 -0.3473
 1486SOL    HW115920   0.734   0.521   7.222 -0.7146 -1.8760 -1.0339
 1486SOL    HW215921   0.694   0.478   7.083  0.0673 -1.1461  1.6052
 1487SOL     OW15922   3.470   4.437   5.311  0.3738  0.3456  0.7568
 1487SOL    HW115923   3.551   4.486   5.297  0.8958 -0.9519 -0.7862
 1487SOL    HW215924   3.476   4.431   5.406  0.4233  1.7839  0.8405
 1488SOL     OW15925   1.880   4.630   8.015 -0.6182 -0.1493  0.0478
 1488SOL    HW115926   1.816   4.651   8.083 -2.0862  1.2477 -1.7523
 1488SOL    HW215927   1.865   4.537   7.999 -0.5494 -0.2551  0.5977
 1489SOL     OW15928   0.762   3.060  11.618 -0.4138  0.0087 -0.2938
 1489SOL    HW115929   0.841   3.009  11.636 -0.6756 -0.4073 -0.3255
 1489SOL    HW215930   0.708   3.026  11.690  1.3222  0.7994  1.3939
 1490SOL     OW15931   3.476   0.135  17.199 -0.0783 -0.5026  0.6182
 1490SOL    HW115932   3.429   0.056  17.176 -0.2526 -0.5431  1.1116
 1490SOL    HW215933   3.463   0.197  17.127  0.4630 -0.4817  0.5391
 1491SOL     OW15934   0.161   1.735   7.598 -0.1390 -0.8817  0.1781
 1491SOL    HW115935   0.184   1.756   7.508  1.3873 -0.1936  0.7305
 1491SOL    HW215936   0.195   1.646   7.597  0.3882 -0.7120  3.1455
 1492SOL     OW15937   1.770   3.000  13.012  0.3020 -0.1379 -0.3508
 1492SOL    HW115938   1.765   3.085  13.056 -1.3954 -0.2584 -0.3299
 1492SOL    HW215939   1.809   3.019  12.926  1.4886 -0.7608  0.0565
 1493SOL     OW15940   0.143   0.150   7.599  0.2013 -0.0151  0.0241
 1493SOL    HW115941   0.195   0.136   7.519 -2.6471  0.2319 -1.8815
 1493SOL    HW215942   0.062   0.149   7.548  0.7740  0.6497 -0.9030
 1494SOL     OW15943   2.372   3.939   1.066  0.2693 -0.3606 -0.2513
 1494SOL    HW115944   2.379   4.031   1.092  2.1122 -0.9255  1.2531
 1494SOL    HW215945   2.307   3.943   0.996  3.7021  1.0865 -3.3622
 1495SOL     OW15946   3.689   3.913   8.431 -0.0533  0.2860 -0.5980
 1495SOL    HW115947   3.708   3.819   8.430 -0.1518  0.2926 -2.7815
 1495SOL    HW215948   3.777   3.944   8.454  1.2039 -2.0564 -2.1339
 1496SOL     OW15949   1.825   3.879   3.831  0.0347  0.7868 -0.3378
 1496SOL    HW115950   1.875   3.850   3.755 -1.6684 -1.4525 -0.6080
 1496SOL    HW215951   1.743   3.840   3.802  1.3643 -0.2247 -2.7246
 1497SOL     OW15952   1.544   1.481   4.795 -0.4149 -0.2943 -0.3846
 1497SOL    HW115953   1.621   1.531   4.767 -0.5557  0.9628  1.4965
 1497SOL    HW215954   1.500   1.459   4.712 -1.9467  2.0451 -0.1839
 1498SOL     OW15955   1.959   1.282  10.422  0.0915  0.3234  0.4852
 1498SOL    HW115956   1.935   1.213  10.483  2.5511  0.2930  1.4171
 1498SOL    HW215957   1.974   1.351  10.487  0.1852 -0.9523  1.8157
 1499SOL     OW15958   4.104   4.371   6.784 -0.3208  0.5208  0.6072
 1499SOL    HW115959   4.112   4.291   6.836 -0.6122 -0.6981 -1.2289
 1499SOL    HW215960   4.089   4.330   6.699 -0.1560 -1.4563  1.5172
 1500SOL     OW15961   0.165   3.023   2.830  0.2896 -0.1009  0.0936
 1500SOL    HW115962   0.215   2.962   2.884 -0.6223 -0.3798  0.6186
 1500SOL    HW215963   0.193   3.109   2.863 -0.8725 -0.1267  1.1669
 1501SOL     OW15964   2.583   1.072   3.099  0.3676 -1.0314 -0.8913
 1501SOL    HW115965   2.661   1.099   3.049  0.3297 -0.9374 -0.9000
 1501SOL    HW215966   2.526   1.142   3.065  0.6824 -0.4769 -0.2758
 1502SOL     OW15967   4.374   1.949   1.622  0.0903  0.1016 -0.1057
 1502SOL    HW115968   4.316   1.876   1.641 -0.4451 -0.1140 -2.6129
 1502SOL    HW215969   4.349   1.973   1.533 -2.7103 -1.5090  0.2471
 1503SOL     OW15970   4.719   2.494   8.076  0.2633 -0.8065  0.4384
 1503SOL    HW115971   0.083   2.459   8.083  0.0578 -1.5796 -0.8416
 1503SOL    HW215972   4.688   2.467   8.162 -0.1073  1.9117  1.1617
 1504SOL     OW15973   2.072   1.139   6.096 -0.1079  0.0509  0.2828
 1504SOL    HW115974   2.132   1.193   6.044  1.8823  0.4515  2.9606
 1504SOL    HW215975   2.132   1.094   6.156  0.9035  4.0741  2.3096
 1505SOL     OW15976   0.365   1.580   3.781 -0.8784  0.1085  0.1618
 1505SOL    HW115977   0.306   1.529   3.726 -1.6353  0.7925  0.3265
 1505SOL    HW215978   0.422   1.617   3.714  1.8533 -1.9347  1.3725
 1506SOL     OW15979   2.339   2.000   7.182 -0.3347 -0.0112 -0.0338
 1506SOL    HW115980   2.311   1.953   7.103  0.5740 -1.6826  0.6413
 1506SOL    HW215981   2.427   2.027   7.154  0.5477 -1.2800  1.5412
 1507SOL     OW15982   3.314   4.225   3.267 -0.3833  0.0780  0.3758
 1507SOL    HW115983   3.391   4.180   3.302  0.3840  1.6605  0.7234
 1507SOL    HW215984   3.329   4.301   3.323  0.7299 -0.0638  0.2740
 1508SOL     OW15985   3.592   1.376   4.778 -0.2657  0.4143 -0.1813
 1508SOL    HW115986   3.665   1.438   4.785 -0.4313  0.6729 -0.7418
 1508SOL    HW215987   3.560   1.383   4.867  1.5532  0.4590  0.4783
 1509SOL     OW15988   2.015   4.507   3.989  0.2816  0.0252 -0.1455
 1509SOL    HW115989   2.073   4.434   3.965 -0.9405 -0.7475 -0.7621
 1509SOL    HW215990   1.945   4.454   4.029 -0.0732 -0.1752 -1.0299
 1510SOL     OW15991   0.239   0.259  11.711  0.4328  0.6526  0.2257
 1510SOL    HW115992   0.276   0.346  11.725 -0.5479  1.4896 -2.3810
 1510SOL    HW215993   0.302   0.222  11.649  0.8632  2.6134 -0.5032
 1511SOL     OW15994   1.422   0.748  16.420 -0.7292  0.9823  0.2190
 1511SOL    HW115995   1.452   0.813  16.356  0.3638  0.2395 -0.0386
 1511SOL    HW215996   1.419   0.671  16.364  1.9413  0.1531  1.2017
 1512SOL     OW15997   0.388   3.894   6.052  0.6365  0.1148 -0.4772
 1512SOL    HW115998   0.350   3.807   6.059  3.6496 -1.0637  1.1175
 1512SOL    HW215999   0.449   3.896   6.125 -0.9802  0.2290  0.8687
 1513SOL     OW16000   4.401   1.032   6.758 -0.4914 -0.2011 -0.3626
 1513SOL    HW116001   4.421   1.103   6.819  1.7525 -0.2409 -1.0613
 1513SOL    HW216002   4.347   1.066   6.687  1.4689  0.0044 -1.7652
 1514SOL     OW16003   2.382   2.145   4.022 -0.1903 -0.1025 -0.5059
 1514SOL    HW116004   2.407   2.066   4.070  1.5075 -1.2313 -3.2164
 1514SOL    HW216005   2.461   2.162   3.969 -1.5875  1.4944 -2.0538
 1515SOL     OW16006   3.854   0.082   1.211  0.2021 -0.0804 -0.1768
 1515SOL    HW116007   3.943   0.095   1.244  0.3179 -1.0165 -0.1170
 1515SOL    HW216008   3.835   0.008   1.269 -0.9113  0.5952  0.3324
 1516SOL     OW16009   1.655   0.740  13.330  0.4592 -0.5063  0.7738
 1516SOL    HW116010   1.701   0.758  13.412 -0.4100  0.4312  1.0547
 1516SOL    HW216011   1.564   0.759  13.351  0.1730  0.1998 -1.0903
 1517SOL     OW16012   0.224   0.540   0.106 -0.2301  0.1610  0.1848
 1517SOL    HW116013   0.251   0.448   0.104  0.4310  0.3646  0.0241
 1517SOL    HW216014   0.131   0.526   0.087  0.1787 -0.4567 -1.3575
 1518SOL     OW16015   4.248   3.982   5.545  0.0386 -0.3997  0.2929
 1518SOL    HW116016   4.253   4.054   5.482  0.4416 -2.2760 -1.7995
 1518SOL    HW216017   4.155   3.974   5.564 -0.3242  2.7265 -0.1734
 1519SOL     OW16018   4.660   1.704   3.237  0.2318  0.0084 -0.2346
 1519SOL    HW116019   0.019   1.682   3.278  2.4916  3.3037 -3.1405
 1519SOL    HW216020   4.688   1.725   3.147  2.3182  0.2695  0.4755
 1520SOL     OW16021   0.578   4.637   6.923 -0.2866 -0.1096  0.0391
 1520SOL    HW116022   0.494   4.682   6.934  0.1620  0.6963  0.2381
 1520SOL    HW216023   0.621   4.652   7.007 -1.1540  0.3804  0.3871
 1521SOL     OW16024   3.388   0.686   7.561 -0.7571  0.3812  0.2726
 1521SOL    HW116025   3.357   0.719   7.645  2.5140  0.9661  1.2424
 1521SOL    HW216026   3.334   0.607   7.560 -3.0467  1.9508 -0.4957
 1522SOL     OW16027   3.717   0.040   7.806 -0.0404 -0.1824  0.7210
 1522SOL    HW116028   3.698   4.683   7.760  1.0552 -1.3222  2.2969
 1522SOL    HW216029   3.644   0.095   7.775  0.0614 -0.1213  0.5884
 1523SOL     OW16030   3.950   2.375   6.246  0.0686 -1.0348 -0.4368
 1523SOL    HW116031   3.971   2.457   6.290  0.7409 -0.4087 -1.9419
 1523SOL    HW216032   3.994   2.311   6.302  2.2438  2.2405  1.5747
 1524SOL     OW16033   3.374   3.156  13.317 -0.1292  0.4416 -0.2180
 1524SOL    HW116034   3.414   3.207  13.246 -1.2136 -0.0504 -1.1766
 1524SOL    HW216035   3.433   3.081  13.309  0.4087  0.6099  2.3509
 1525SOL     OW16036   4.707   2.052   8.004 -0.4245 -0.1649  0.7957
 1525SOL    HW116037   0.053   2.113   7.985 -1.2197  0.2075 -1.0004
 1525SOL    HW216038   0.001   1.981   7.943 -2.1262 -0.0099  0.0863
 1526SOL     OW16039   3.454   4.615   1.463 -0.4345 -0.5156  0.7349
 1526SOL    HW116040   3.524   4.551   1.477 -0.4149 -0.0708  2.5520
 1526SOL    HW216041   3.470   4.675   1.535 -1.9123  1.3997 -0.5393
 1527SOL     OW16042   2.472   2.707   8.907 -0.0995 -0.5520 -0.6108
 1527SOL    HW116043   2.528   2.704   8.829 -0.6300  0.0595 -1.0079
 1527SOL    HW216044   2.539   2.751   8.959  1.3553 -1.7452 -1.4456
 1528SOL     OW16045   1.197   3.351   7.575 -0.1637 -0.4140  0.0015
 1528SOL    HW116046   1.106   3.364   7.602 -0.5397  0.9080 -1.8545
 1528SOL    HW216047   1.235   3.318   7.656  0.0849 -0.2823 -0.0602
 1529SOL     OW16048   0.374   2.551  16.154  0.1963  0.2888 -0.4881
 1529SOL    HW116049   0.389   2.645  16.163 -0.0595  0.0059  2.7280
 1529SOL    HW216050   0.282   2.555  16.126  0.1420  0.9866 -0.2181
 1530SOL     OW16051   2.552   4.162  15.648  0.5575 -0.5872 -0.6549
 1530SOL    HW116052   2.571   4.136  15.739  0.4341  0.9377 -0.1961
 1530SOL    HW216053   2.625   4.120  15.602  0.7439  1.1467 -1.9244
 1531SOL     OW16054   4.498   4.039   5.005  0.8491  0.0472 -0.3093
 1531SOL    HW116055   4.555   3.971   5.041 -1.3339 -1.7979 -0.3603
 1531SOL    HW216056   4.494   4.103   5.076  1.0305  0.7694 -0.9520
 1532SOL     OW16057   0.882   3.797   2.465  0.2691  0.0773  0.2884
 1532SOL    HW116058   0.854   3.724   2.410  1.1154  0.6006 -0.8341
 1532SOL    HW216059   0.822   3.866   2.438  1.4040  0.9890  0.1189
 1533SOL     OW16060   4.372   4.304  16.260 -0.4945 -0.2909 -0.1515
 1533SOL    HW116061   4.317   4.367  16.212 -0.0699  0.1697 -0.0354
 1533SOL    HW216062   4.315   4.305  16.336 -0.3856 -1.9642 -0.0500
 1534SOL     OW16063   2.120   2.106   8.601  0.2573  0.5182 -0.2462
 1534SOL    HW116064   2.098   2.138   8.689 -3.1375 -2.6403  0.0219
 1534SOL    HW216065   2.180   2.038   8.631 -0.8560 -0.5132 -0.3726
 1535SOL     OW16066   4.478   1.700   8.923 -0.4448 -1.0297  0.1230
 1535SOL    HW116067   4.450   1.625   8.976 -0.3394 -0.1338  1.4358
 1535SOL    HW216068   4.509   1.644   8.852 -0.1586  1.4794 -1.7174
 1536SOL     OW16069   1.163   1.580  16.557 -0.0747  0.1238  0.2903
 1536SOL    HW116070   1.132   1.511  16.497  0.3695  0.6037 -0.4898
 1536SOL    HW216071   1.214   1.537  16.626  0.2327  2.3143  1.4234
 1537SOL     OW16072   3.668   2.009   5.466 -0.7682  0.2087 -0.7968
 1537SOL    HW116073   3.753   1.986   5.502 -0.9946  0.9763  0.2210
 1537SOL    HW216074   3.620   2.015   5.549  0.4767  0.2987 -0.0863
 1538SOL     OW16075   0.747   1.731  10.970  0.4586 -0.0741  0.1916
 1538SOL    HW116076   0.690   1.669  11.016  3.7848 -3.6147 -0.4674
 1538SOL    HW216077   0.772   1.793  11.039 -0.0548 -0.4520  0.7205
 1539SOL     OW16078   3.499   0.300   3.956  0.0716 -0.3041 -0.1893
 1539SOL    HW116079   3.509   0.333   4.046  0.4841  0.8024 -0.6421
 1539SOL    HW216080   3.488   0.207   3.974 -0.3059 -0.1308  0.4881
 1540SOL     OW16081   0.290   3.390   6.731 -0.0849 -0.3351 -1.3120
 1540SOL    HW116082   0.209   3.433   6.701  0.5771  0.7050 -1.5906
 1540SOL    HW216083   0.352   3.388   6.658 -0.0946 -0.2004 -1.3232
 1541SOL     OW16084   4.461   3.431   8.813  0.1164 -0.0502  0.1149
 1541SOL    HW116085   4.421   3.502   8.864 -0.8472 -1.1403  0.8507
 1541SOL    HW216086   4.546   3.475   8.819  0.1518  0.0447 -1.0187
 1542SOL     OW16087   1.393   2.119   7.888  0.1442  0.2757 -0.6406
 1542SOL    HW116088   1.392   2.107   7.793  1.4790  0.8030 -0.7222
 1542SOL    HW216089   1.331   2.192   7.897  0.0665  0.3730 -1.9697
 1543SOL     OW16090   2.459   3.063   0.841 -0.4403 -0.2730 -0.1736
 1543SOL    HW116091   2.547   3.052   0.876 -1.5058 -0.3495  2.4865
 1543SOL    HW216092   2.397   3.066   0.914 -0.6368  0.9249 -0.4006
 1544SOL     OW16093   0.117   2.097   3.014  0.3696  0.3285 -0.4889
 1544SOL    HW116094   0.081   2.118   2.928 -0.6840 -0.8085 -0.3207
 1544SOL    HW216095   0.082   2.165   3.071  0.8002  0.6463 -0.6013
 1545SOL     OW16096   4.269   0.500   2.718  0.4123  0.0835  0.3412
 1545SOL    HW116097   4.360   0.526   2.710 -0.2699  2.2719 -0.5715
 1545SOL    HW216098   4.248   0.523   2.627 -0.8129  1.2285  0.8939
 1546SOL     OW16099   1.408   2.387   5.732 -0.3061 -0.0176 -0.3654
 1546SOL    HW116100   1.350   2.395   5.808  1.8906 -1.6712  1.4776
 1546SOL    HW216101   1.355   2.348   5.663  0.6077 -0.1998 -0.9584
 1547SOL     OW16102   0.023   0.708   3.158 -0.8311 -0.2232  0.6642
 1547SOL    HW116103   0.029   0.785   3.101 -1.2456 -0.8864 -0.2733
 1547SOL    HW216104   0.058   0.636   3.106 -0.1265  0.7912 -0.2945
 1548SOL     OW16105   3.322   3.292   5.130 -0.3827 -0.0039 -0.1149
 1548SOL    HW116106   3.241   3.295   5.078 -0.7604  2.1248  0.6174
 1548SOL    HW216107   3.323   3.199   5.153 -0.9340  0.3129  1.1997
 1549SOL     OW16108   2.983   1.225  12.716 -0.5563  0.1960 -0.2713
 1549SOL    HW116109   2.930   1.178  12.652  0.2866  1.7394 -2.1174
 1549SOL    HW216110   3.030   1.156  12.762  0.4835  1.0120 -0.1005
 1550SOL     OW16111   0.907   2.086  10.716 -0.1067  0.6777 -0.5285
 1550SOL    HW116112   0.834   2.109  10.659 -0.7399  2.2301  0.9156
 1550SOL    HW216113   0.912   1.997  10.682  1.7903  1.3750 -2.1333
 1551SOL     OW16114   0.014   3.803   1.460  0.2064 -0.5535  0.2872
 1551SOL    HW116115   4.666   3.758   1.418  0.8469 -2.6487  1.3942
 1551SOL    HW216116   4.724   3.895   1.438 -0.5452 -0.9939 -1.0120
 1552SOL     OW16117   2.467   3.198   3.391  0.3260  0.1240  0.1456
 1552SOL    HW116118   2.540   3.258   3.377 -0.1031 -0.1750 -3.3307
 1552SOL    HW216119   2.504   3.111   3.380 -0.7963 -0.3238 -0.1126
 1553SOL     OW16120   1.870   1.656   6.476 -0.3872 -0.4072 -0.1718
 1553SOL    HW116121   1.876   1.560   6.476 -0.0603 -0.3728 -2.1990
 1553SOL    HW216122   1.934   1.674   6.545 -2.5423 -0.8950  1.9927
 1554SOL     OW16123   3.726   1.159  10.873  0.3690  0.0850 -0.4207
 1554SOL    HW116124   3.647   1.136  10.921  1.2928  0.3779  1.2352
 1554SOL    HW216125   3.690   1.208  10.799 -0.9080  0.8618  0.7083
 1555SOL     OW16126   4.318   3.960   7.603  0.2621 -0.6511 -0.3355
 1555SOL    HW116127   4.369   3.999   7.673  0.1038  0.5266 -0.8807
 1555SOL    HW216128   4.381   3.953   7.531  2.9093 -3.6742  2.2608
 1556SOL     OW16129   3.656   0.082  10.965 -0.4728 -0.0885  0.4335
 1556SOL    HW116130   3.625   0.094  11.055  1.2431  1.4335  0.8150
 1556SOL    HW216131   3.573   0.054  10.926 -0.6002  1.0582 -0.1388
 1557SOL     OW16132   0.817   1.833  14.658  0.5441 -0.1883 -0.0492
 1557SOL    HW116133   0.749   1.896  14.681 -0.0379 -1.5188  1.8984
 1557SOL    HW216134   0.863   1.815  14.740 -0.8378 -1.1571  0.5041
 1558SOL     OW16135   4.199   1.354   5.826  0.3809 -0.3140 -0.8476
 1558SOL    HW116136   4.225   1.262   5.831  1.3622 -0.1033 -2.0306
 1558SOL    HW216137   4.146   1.358   5.905  2.3042 -0.8584  0.4829
 1559SOL     OW16138   4.338   1.440  10.947 -0.6558  0.0277  0.0059
 1559SOL    HW116139   4.315   1.367  11.005  0.9623 -0.6123 -0.1483
 1559SOL    HW216140   4.311   1.403  10.862 -0.6263  2.7221 -1.1734
 1560SOL     OW16141   1.540   2.480  10.069  0.5867  0.0793 -0.0344
 1560SOL    HW116142   1.551   2.575  10.075  3.1530 -0.1174 -2.1736
 1560SOL    HW216143   1.508   2.463  10.158  0.6645  0.5033  0.0747
 1561SOL     OW16144   1.568   0.699   6.010 -0.3095 -0.0352 -0.1327
 1561SOL    HW116145   1.524   0.758   6.070  1.1997  1.0496 -0.0732
 1561SOL    HW216146   1.589   0.767   5.945 -0.3224  0.1007  0.0038
 1562SOL     OW16147   2.410   3.859   3.057  0.0133 -0.3803 -0.5421
 1562SOL    HW116148   2.451   3.933   3.013  0.3852 -0.3225 -0.0980
 1562SOL    HW216149   2.390   3.807   2.979 -1.3465  1.2280 -1.2779
 1563SOL     OW16150   1.370   2.654  11.381 -0.3480 -0.5471  0.0793
 1563SOL    HW116151   1.326   2.628  11.300  1.5343  1.6127 -1.6393
 1563SOL    HW216152   1.365   2.570  11.426 -2.1741 -0.4805  0.0030
 1564SOL     OW16153   1.600   2.453   2.754 -0.3494 -0.0221 -0.5475
 1564SOL    HW116154   1.674   2.465   2.695 -1.3077  3.3084 -1.0826
 1564SOL    HW216155   1.639   2.436   2.840 -1.7557 -0.6942 -0.0396
 1565SOL     OW16156   0.253   1.103  14.935  0.4379  0.5021  0.2843
 1565SOL    HW116157   0.333   1.051  14.927  2.3413  3.1393  2.1687
 1565SOL    HW216158   0.223   1.086  14.846 -0.7394  3.0729  0.1967
 1566SOL     OW16159   1.163   1.805  12.713  0.1292  0.3208  0.2986
 1566SOL    HW116160   1.141   1.886  12.668 -0.9431 -1.4185 -2.3392
 1566SOL    HW216161   1.079   1.784  12.754 -0.0833  1.2547  0.3458
 1567SOL     OW16162   4.490   3.011  13.460  0.3795 -0.7052  0.0636
 1567SOL    HW116163   4.480   3.106  13.466 -0.8490 -0.6801 -2.4113
 1567SOL    HW216164   4.399   2.983  13.469 -0.3907  1.1877 -1.7615
 1568SOL     OW16165   3.919   1.974  11.556  0.0335 -0.4951  0.0664
 1568SOL    HW116166   3.932   1.901  11.497 -1.8797 -1.1600  0.4672
 1568SOL    HW216167   3.939   2.051  11.502 -1.0318 -0.4447 -0.2556
 1569SOL     OW16168   1.823   4.664  15.234  0.1025 -0.4623  0.0012
 1569SOL    HW116169   1.856   0.026  15.254  4.0932 -1.5149 -2.1240
 1569SOL    HW216170   1.788   4.673  15.146  1.4088 -0.4764 -0.5166
 1570SOL     OW16171   2.864   3.355  10.813 -0.3323 -0.5113 -0.2392
 1570SOL    HW116172   2.851   3.381  10.904 -1.4210 -0.1238 -0.5009
 1570SOL    HW216173   2.927   3.282  10.816 -0.0616 -0.3613 -2.2342
 1571SOL     OW16174   2.281   1.816   3.177  0.0790 -0.4617  0.7882
 1571SOL    HW116175   2.312   1.839   3.089 -1.6153 -1.7724 -0.1520
 1571SOL    HW216176   2.351   1.837   3.239  0.8363 -2.2016  0.5214
 1572SOL     OW16177   2.020   0.495  10.033 -0.5086  0.5688  0.4117
 1572SOL    HW116178   2.091   0.468  10.091  0.2482  2.2746  0.2800
 1572SOL    HW216179   2.066   0.499   9.949  0.4518 -4.4961  0.6508
 1573SOL     OW16180   1.302   1.945  11.143  0.1370 -0.4621 -0.1130
 1573SOL    HW116181   1.234   1.943  11.076 -0.3818  0.1961  0.3964
 1573SOL    HW216182   1.264   1.907  11.222  2.4090  0.7385  1.5669
 1574SOL     OW16183   4.196   4.534  12.528  0.0895  0.6923  0.5472
 1574SOL    HW116184   4.209   4.456  12.474 -2.7173  1.2033 -0.8854
 1574SOL    HW216185   4.201   4.596  12.454 -1.7595 -1.9115 -1.7590
 1575SOL     OW16186   0.306   3.258   3.710 -0.3084 -0.2667 -0.5922
 1575SOL    HW116187   0.325   3.340   3.755 -1.4174 -0.1097 -0.4220
 1575SOL    HW216188   0.390   3.224   3.677  0.4352  0.7615  0.2349
 1576SOL     OW16189   1.762   0.844  10.388  0.3211  0.5730  0.1936
 1576SOL    HW116190   1.717   0.815  10.309  1.7960  0.7710 -0.7191
 1576SOL    HW216191   1.845   0.802  10.366  0.8943  2.2924 -0.9342
 1577SOL     OW16192   3.014   4.642  13.528 -0.0132  0.1445 -0.6019
 1577SOL    HW116193   3.088   4.628  13.587  0.9484  2.9997 -1.1458
 1577SOL    HW216194   2.952   4.693  13.580  1.3039 -0.4802  1.5764
 1578SOL     OW16195   2.497   0.094   7.163  0.0600  0.4786 -0.3488
 1578SOL    HW116196   2.591   0.086   7.179  0.0569 -1.4323 -1.3371
 1578SOL    HW216197   2.473   0.114   7.253 -1.9781  0.4496 -0.8887
 1579SOL     OW16198   4.189   0.476   1.684  0.5180  0.3472 -0.5360
 1579SOL    HW116199   4.187   0.567   1.714  0.2089  1.0331 -2.6398
 1579SOL    HW216200   4.215   0.471   1.592  2.0423 -0.1929 -0.0678
 1580SOL     OW16201   2.055   2.676   7.248 -0.3714 -0.1280  0.2830
 1580SOL    HW116202   2.103   2.596   7.226 -1.0137 -0.1376 -1.0911
 1580SOL    HW216203   2.112   2.701   7.321 -0.5113  0.5862  0.1464
 1581SOL     OW16204   1.406   1.970   9.087  0.4045  0.3153  0.3471
 1581SOL    HW116205   1.484   2.007   9.044  0.5501 -1.2239 -0.7190
 1581SOL    HW216206   1.409   1.883   9.048 -0.7731  0.1291  0.6609
 1582SOL     OW16207   2.515   3.563   1.954  0.7825 -0.9967  0.2500
 1582SOL    HW116208   2.442   3.624   1.948  2.5482  1.0622 -0.2571
 1582SOL    HW216209   2.467   3.486   1.986  0.7420 -1.2147 -0.3373
 1583SOL     OW16210   2.298   2.073  14.327 -0.0138  0.4384 -0.0169
 1583SOL    HW116211   2.300   2.047  14.235  0.6417 -0.7414  0.3253
 1583SOL    HW216212   2.275   1.988  14.365 -1.2499  0.2358 -1.2046
 1584SOL     OW16213   3.487   1.765   4.291 -0.0093  0.6246  0.3705
 1584SOL    HW116214   3.521   1.676   4.295 -0.6942  0.4271  1.6850
 1584SOL    HW216215   3.393   1.747   4.281 -0.4385  3.8198 -1.3380
 1585SOL     OW16216   1.247   0.225   6.874  0.4446 -0.0014 -0.0281
 1585SOL    HW116217   1.284   0.243   6.788 -0.4774 -1.0152 -0.6350
 1585SOL    HW216218   1.245   0.307   6.925 -1.6991  0.5390 -0.9582
 1586SOL     OW16219   3.426   1.353   4.552  0.0600  0.5155  0.7010
 1586SOL    HW116220   3.340   1.369   4.588  0.3058 -1.6999  2.2700
 1586SOL    HW216221   3.481   1.361   4.630 -0.1848  0.0175  0.9225
 1587SOL     OW16222   1.836   0.909   8.918  0.2321 -0.1747 -0.2280
 1587SOL    HW116223   1.862   0.993   8.956 -0.4608 -0.6451  1.2686
 1587SOL    HW216224   1.865   0.857   8.993 -0.2060  2.1011  1.5289
 1588SOL     OW16225   3.129   2.129   3.381  0.1972  0.3091  0.0470
 1588SOL    HW116226   3.216   2.094   3.360  0.9465  1.4091  1.3022
 1588SOL    HW216227   3.111   2.076   3.459 -1.0407  0.3536 -0.2128
 1589SOL     OW16228   1.314   3.978   0.108  0.0330  0.0699 -0.2255
 1589SOL    HW116229   1.367   3.963   0.030 -0.6621  5.2741 -1.6349
 1589SOL    HW216230   1.370   3.942   0.177  3.4900  1.6609 -2.2232
 1590SOL     OW16231   2.705   2.038   4.635  0.0956 -0.1614  0.1874
 1590SOL    HW116232   2.670   2.085   4.560  1.0081  0.9797  0.4846
 1590SOL    HW216233   2.730   2.117   4.683  1.1199  0.6103 -1.6251
 1591SOL     OW16234   0.054   1.796   9.269 -0.5414  0.2190 -0.1415
 1591SOL    HW116235   0.057   1.889   9.292  0.2534  0.6364 -1.9199
 1591SOL    HW216236   0.125   1.802   9.205 -0.7384 -0.7241 -0.4447
 1592SOL     OW16237   1.366   3.412   2.219 -0.4093 -0.3418  0.4416
 1592SOL    HW116238   1.412   3.332   2.193 -0.1102  0.6110 -1.9396
 1592SOL    HW216239   1.321   3.441   2.140 -0.8747  1.5467  1.4047
 1593SOL     OW16240   2.329   0.478   2.797 -0.2440 -0.5183 -0.9064
 1593SOL    HW116241   2.391   0.551   2.788  0.2661 -0.8138  0.2433
 1593SOL    HW216242   2.286   0.512   2.875 -0.1622 -1.9128 -0.2673
 1594SOL     OW16243   3.820   4.647   8.277  0.5507  0.5826 -0.5167
 1594SOL    HW116244   3.767   4.652   8.198 -1.4839  1.4775  0.9038
 1594SOL    HW216245   3.910   4.646   8.244  0.2223 -2.3983 -1.2854
 1595SOL     OW16246   2.951   3.954  11.774  0.3055 -0.1924  0.3070
 1595SOL    HW116247   2.924   3.863  11.776  0.1933 -0.1539  0.4872
 1595SOL    HW216248   3.047   3.954  11.769  0.3017 -1.9353  0.3587
 1596SOL     OW16249   0.699   1.839   7.877 -0.7198 -0.0988 -0.0360
 1596SOL    HW116250   0.740   1.758   7.847 -2.3459 -1.2913  0.9279
 1596SOL    HW216251   0.731   1.907   7.818 -0.2600 -1.6054 -1.5524
 1597SOL     OW16252   3.719   0.177  13.346  0.3672 -0.3206  0.2824
 1597SOL    HW116253   3.790   0.213  13.400 -0.8473 -2.0552  2.9974
 1597SOL    HW216254   3.741   0.205  13.257  3.6875  1.3153  1.6039
 1598SOL     OW16255   0.848   2.526   2.647 -0.3921 -0.2633  0.3537
 1598SOL    HW116256   0.867   2.558   2.559 -1.8519 -0.0250  0.1325
 1598SOL    HW216257   0.908   2.452   2.658  0.0139  0.3531  2.3849
 1599SOL     OW16258   2.319   2.035   0.154 -0.0562  0.0780 -0.2835
 1599SOL    HW116259   2.313   1.960   0.212 -0.3647 -0.2384 -0.7236
 1599SOL    HW216260   2.320   1.983   0.073 -0.4420  0.3005 -0.4337
 1600SOL     OW16261   4.007   4.509   2.939  0.0517  0.1726 -0.0734
 1600SOL    HW116262   4.032   4.509   2.846  0.0768  0.3017 -0.0675
 1600SOL    HW216263   4.035   4.597   2.965 -0.7445  0.2173  0.6271
 1601SOL     OW16264   1.822   0.329   8.086  0.2349 -0.3089  0.2267
 1601SOL    HW116265   1.771   0.350   8.164  0.2549 -1.2095  0.4804
 1601SOL    HW216266   1.879   0.403   8.065  0.1044 -0.1376  0.4811
 1602SOL     OW16267   2.229   1.507   8.086 -0.0158 -0.2504 -0.0092
 1602SOL    HW116268   2.191   1.573   8.029 -0.6754  0.2357  0.9811
 1602SOL    HW216269   2.322   1.507   8.062  0.0228 -1.3393  0.1311
 1603SOL     OW16270   0.828   2.237   6.646 -0.6344 -0.0838  0.0865
 1603SOL    HW116271   0.900   2.244   6.583 -0.9709  0.3716 -0.2488
 1603SOL    HW216272   0.876   2.208   6.724  0.3270 -1.3797 -0.9713
 1604SOL     OW16273   3.319   3.739   2.087  0.4956  0.0184  0.3102
 1604SOL    HW116274   3.407   3.763   2.117  0.1203  1.7675  0.0532
 1604SOL    HW216275   3.330   3.658   2.039  0.3512 -0.2144  0.6697
 1605SOL     OW16276   3.485   3.590   8.316 -1.2383  0.1481  0.0022
 1605SOL    HW116277   3.579   3.582   8.336 -0.9924  0.5917 -0.9743
 1605SOL    HW216278   3.479   3.527   8.245 -1.4975  1.3337 -1.0279
 1606SOL     OW16279   4.373   0.956  12.049  0.3081 -0.4282 -0.0915
 1606SOL    HW116280   4.462   0.927  12.026  0.3951 -0.9617  0.8894
 1606SOL    HW216281   4.382   0.955  12.145 -3.2643  0.6580  0.2392
 1607SOL     OW16282   3.655   3.935   3.471 -0.1980 -0.0949  0.1223
 1607SOL    HW116283   3.680   3.853   3.428  0.3212  0.1621 -0.0526
 1607SOL    HW216284   3.622   3.896   3.552 -1.2768 -1.7317 -1.0977
 1608SOL     OW16285   1.444   4.140  11.535 -0.0593 -0.0887 -0.2782
 1608SOL    HW116286   1.380   4.152  11.605 -1.1523  2.4263 -1.6940
 1608SOL    HW216287   1.409   4.061  11.493 -2.7657  0.7303  0.4328
 1609SOL     OW16288   1.811   2.171   6.537 -0.1299  0.2549 -0.0833
 1609SOL    HW116289   1.829   2.143   6.627  0.8274 -1.7675 -0.8871
 1609SOL    HW216290   1.824   2.264   6.551  0.1094 -0.1274  2.2195
 1610SOL     OW16291   1.326   3.600   7.631  0.2669 -0.1576 -0.2923
 1610SOL    HW116292   1.237   3.627   7.656  0.9727  1.3623  0.6040
 1610SOL    HW216293   1.337   3.510   7.661 -1.7671 -0.2058  0.3548
 1611SOL     OW16294   3.117   2.009   2.177 -0.4119 -0.4784  0.0996
 1611SOL    HW116295   3.047   1.951   2.205 -1.1423 -0.9760 -2.6883
 1611SOL    HW216296   3.066   2.065   2.118  0.1500 -1.2406 -1.1038
 1612SOL     OW16297   1.185   4.027   8.669 -0.7929 -0.9571 -0.6755
 1612SOL    HW116298   1.211   4.102   8.616  2.4617 -1.7238 -0.1333
 1612SOL    HW216299   1.144   3.978   8.597 -1.0634 -0.3296 -0.9482
 1613SOL     OW16300   2.475   0.363   1.314 -0.4278  0.4179 -0.3499
 1613SOL    HW116301   2.511   0.304   1.248 -2.6546 -0.3192 -0.8915
 1613SOL    HW216302   2.550   0.381   1.370 -1.1969 -2.2176  1.4927
 1614SOL     OW16303   0.536   4.332  13.447  0.1680 -0.1736  0.0000
 1614SOL    HW116304   0.560   4.239  13.455  0.4945 -0.2998 -2.4731
 1614SOL    HW216305   0.610   4.371  13.400 -0.2570  1.1647  0.4424
 1615SOL     OW16306   0.938   3.503   1.769 -1.1960  0.0451  0.0315
 1615SOL    HW116307   0.954   3.540   1.683  1.1169  1.6859  1.1664
 1615SOL    HW216308   0.880   3.435   1.736  0.8268 -1.9213  0.4583
 1616SOL     OW16309   1.825   3.991   7.047  0.4233 -0.1570 -0.1941
 1616SOL    HW116310   1.784   4.028   6.969 -1.2767 -0.9095  0.3402
 1616SOL    HW216311   1.844   3.899   7.030  1.0637  0.1691 -1.2383
 1617SOL     OW16312   0.346   4.655   1.983 -0.3020  0.1896  0.3992
 1617SOL    HW116313   0.262   4.673   2.026 -0.3584  0.5251  0.1469
 1617SOL    HW216314   0.333   4.724   1.918 -0.8424  0.0899  0.4048
 1618SOL     OW16315   4.362   1.498   4.138 -0.1676 -0.1145  0.3647
 1618SOL    HW116316   4.372   1.425   4.199  1.4321 -1.0739 -1.0627
 1618SOL    HW216317   4.268   1.512   4.132 -0.0420 -0.4913 -2.1633
 1619SOL     OW16318   4.602   2.988  14.450 -0.0847  0.0250 -0.3410
 1619SOL    HW116319   4.582   2.917  14.389  0.0825  1.4379 -2.0243
 1619SOL    HW216320   4.679   2.959  14.500  0.6671  0.3973 -1.2941
 1620SOL     OW16321   3.008   0.099   7.741  0.7372  0.2946  0.2056
 1620SOL    HW116322   2.915   0.115   7.757  0.3641 -0.0472 -1.5949
 1620SOL    HW216323   3.028   0.031   7.805 -3.1826  0.7714  1.9118
 1621SOL     OW16324   4.717   2.948   6.065  0.0253  0.1129  0.3294
 1621SOL    HW116325   0.071   2.983   6.105 -0.1048  0.3696  0.3582
 1621SOL    HW216326   0.013   2.984   5.979 -1.5624  0.1534 -0.0540
 1622SOL     OW16327   4.690   2.820  14.670 -0.4029 -0.4701  0.6897
 1622SOL    HW116328   4.722   2.752  14.610 -1.9645  0.0890 -0.7872
 1622SOL    HW216329   0.042   2.863  14.707  0.6731  0.3134 -2.5162
 1623SOL     OW16330   4.304   2.884   2.922  0.5990 -0.0748  0.3192
 1623SOL    HW116331   4.265   2.818   2.978  0.0456  0.2572  0.3301
 1623SOL    HW216332   4.384   2.917   2.962 -0.0093  1.3722  0.3660
 1624SOL     OW16333   3.802   2.203   9.825 -0.0496  0.5229  0.5835
 1624SOL    HW116334   3.735   2.245   9.772  2.1715  2.1942 -0.8947
 1624SOL    HW216335   3.872   2.268   9.833  2.4689 -2.1189 -0.0082
 1625SOL     OW16336   4.547   4.307   4.507  0.6142  0.3110 -0.1714
 1625SOL    HW116337   4.552   4.325   4.600 -0.9498  1.2253 -0.2556
 1625SOL    HW216338   4.472   4.363   4.486  1.5305  1.7659  0.4611
 1626SOL     OW16339   1.819   0.143   9.345 -0.4798  0.0442  0.1395
 1626SOL    HW116340   1.846   0.224   9.390  1.6722 -0.1225 -0.8366
 1626SOL    HW216341   1.800   0.095   9.426 -2.5783 -0.7720 -0.8483
 1627SOL     OW16342   0.047   3.876  13.268  0.1791  0.2679 -0.0716
 1627SOL    HW116343   4.720   3.954  13.250  1.3981  0.7627 -1.4371
 1627SOL    HW216344   0.056   3.886  13.363  3.7309 -1.9361 -0.1378
 1628SOL     OW16345   1.386   3.711  13.420 -0.0747 -0.5102 -0.2052
 1628SOL    HW116346   1.370   3.618  13.403 -2.0607 -0.0621 -0.6862
 1628SOL    HW216347   1.341   3.758  13.351  0.3083  1.0276  0.5883
 1629SOL     OW16348   1.282   3.754   1.726 -0.2063 -0.0759 -0.3496
 1629SOL    HW116349   1.374   3.781   1.719  0.0103 -0.2409  1.9775
 1629SOL    HW216350   1.303   3.674   1.775  1.3798  0.9515  0.6324
 1630SOL     OW16351   3.699   0.689   4.836  0.4565  0.3709  0.1564
 1630SOL    HW116352   3.790   0.662   4.824  0.3512 -0.7691  1.9272
 1630SOL    HW216353   3.681   0.655   4.923 -2.5529 -3.3071 -1.9286
 1631SOL     OW16354   4.601   3.051  11.315  0.2675  0.1635 -0.1711
 1631SOL    HW116355   4.601   2.959  11.339 -0.4221  0.0451 -0.6233
 1631SOL    HW216356   4.585   3.100  11.396 -4.1211  0.0978 -0.9803
 1632SOL     OW16357   0.406   3.053  12.868 -0.2687  0.0925  0.0547
 1632SOL    HW116358   0.480   3.103  12.902 -1.5270  2.4736 -0.7170
 1632SOL    HW216359   0.450   2.989  12.810  1.5219  0.4221  1.0503
 1633SOL     OW16360   1.787   2.590   4.112  0.1620 -0.2225  0.0778
 1633SOL    HW116361   1.795   2.607   4.206  0.2981 -0.7457  0.1618
 1633SOL    HW216362   1.698   2.621   4.097  0.1314  0.2256  1.1603
 1634SOL     OW16363   4.425   0.949   0.268 -0.3798  0.3335  0.2531
 1634SOL    HW116364   4.371   0.910   0.337 -0.8786 -0.3243 -0.5194
 1634SOL    HW216365   4.474   0.874   0.236  1.1319  1.2304  0.4524
 1635SOL     OW16366   3.964   0.747   0.591  0.5348  0.1245 -0.3269
 1635SOL    HW116367   4.042   0.710   0.549 -1.8520 -2.6523 -2.2626
 1635SOL    HW216368   3.937   0.673   0.645  1.0368  0.8726  0.9509
 1636SOL     OW16369   2.278   1.371   4.141  0.5136 -0.1913  0.4118
 1636SOL    HW116370   2.281   1.367   4.046 -1.7963  0.2816  0.3259
 1636SOL    HW216371   2.272   1.276   4.153 -0.6154  0.1493  2.4906
 1637SOL     OW16372   1.164   1.692   5.270  0.2639 -0.0885  0.0643
 1637SOL    HW116373   1.136   1.759   5.208 -0.4065 -1.2546 -0.8963
 1637SOL    HW216374   1.211   1.649   5.199  2.5198  0.6391  1.1106
 1638SOL     OW16375   4.000   4.015   4.705 -0.3564  0.4607 -0.0991
 1638SOL    HW116376   4.077   4.066   4.730 -1.5382  0.4437  3.4640
 1638SOL    HW216377   3.946   4.003   4.783 -0.5424  2.5364  0.0924
 1639SOL     OW16378   0.819   4.131   2.202 -0.2847 -0.7473  0.3344
 1639SOL    HW116379   0.885   4.087   2.148  0.3372  0.4767  0.0967
 1639SOL    HW216380   0.867   4.213   2.212  1.0088 -1.4524 -0.0609
 1640SOL     OW16381   4.145   4.420   5.038  0.0670 -0.1060  0.0745
 1640SOL    HW116382   4.110   4.426   4.949 -2.2453 -1.7698  0.8694
 1640SOL    HW216383   4.175   4.329   5.037  0.9865  0.1966 -0.0756
 1641SOL     OW16384   4.655   2.753  13.788 -0.2795  0.1904 -0.0029
 1641SOL    HW116385   0.012   2.713  13.757 -0.2639  0.1886  0.0403
 1641SOL    HW216386   4.626   2.801  13.711  0.0980 -0.1338 -0.3472
 1642SOL     OW16387   3.824   3.261   3.615 -0.1228 -0.0235 -0.3972
 1642SOL    HW116388   3.771   3.286   3.540 -0.2476  0.2801 -0.2097
 1642SOL    HW216389   3.812   3.332   3.678 -1.3376 -1.3970  0.9300
 1643SOL     OW16390   2.172   4.583   2.737 -0.0726 -0.3900 -0.0086
 1643SOL    HW116391   2.259   4.569   2.697  0.5886  3.6461  0.0722
 1643SOL    HW216392   2.191   4.622   2.822  0.9107  1.3848 -1.0521
 1644SOL     OW16393   0.745   0.466   7.412 -0.3951  0.1659  0.1587
 1644SOL    HW116394   0.731   0.488   7.504 -0.6704  2.3483 -0.3952
 1644SOL    HW216395   0.840   0.459   7.404 -0.6411 -1.9108 -0.8596
 1645SOL     OW16396   0.576   1.072   2.931  0.1099  0.0682 -0.1433
 1645SOL    HW116397   0.565   1.052   3.025 -0.9562  0.0145 -0.2752
 1645SOL    HW216398   0.665   1.039   2.920 -0.2779 -0.4452 -1.6262
 1646SOL     OW16399   2.410   1.129   8.412  0.3536 -0.3251  0.1762
 1646SOL    HW116400   2.489   1.077   8.424  0.7335 -0.3587 -2.5301
 1646SOL    HW216401   2.377   1.076   8.340 -0.5158 -0.5450  0.7299
 1647SOL     OW16402   4.074   1.786   6.523  0.3118 -0.3464  0.0504
 1647SOL    HW116403   4.133   1.726   6.568 -0.9974 -1.2444  0.5473
 1647SOL    HW216404   3.994   1.771   6.573  0.1913 -2.1779 -0.6921
 1648SOL     OW16405   1.634   1.852   3.345  0.4290  0.6956 -0.6361
 1648SOL    HW116406   1.624   1.932   3.295  0.6915  1.4676  0.5400
 1648SOL    HW216407   1.722   1.869   3.379  0.7456  0.8149 -1.5375
 1649SOL     OW16408   2.972   3.328   8.223  0.3808  0.2718 -0.1270
 1649SOL    HW116409   2.948   3.237   8.236 -1.9457  1.2385  2.3380
 1649SOL    HW216410   2.915   3.360   8.153  1.7903  2.1102 -0.4312
 1650SOL     OW16411   0.466   3.265   6.019 -0.8876 -0.3717 -0.4560
 1650SOL    HW116412   0.404   3.300   5.954  1.2716  3.4208 -0.5268
 1650SOL    HW216413   0.500   3.186   5.978 -1.9935 -1.1032  0.0293
 1651SOL     OW16414   1.395   2.604   1.673  0.1170  0.3443  0.8984
 1651SOL    HW116415   1.481   2.625   1.638  0.2084 -3.0090 -0.9227
 1651SOL    HW216416   1.411   2.520   1.715  1.2522  1.1179  1.9842
 1652SOL     OW16417   3.237   0.952   5.931 -0.0520  0.2149  0.0518
 1652SOL    HW116418   3.177   0.880   5.914 -1.6986  1.6976 -0.3635
 1652SOL    HW216419   3.325   0.919   5.952 -0.0942 -0.0169 -0.1386
 1653SOL     OW16420   3.658   3.848   1.611  0.6761  0.2637  0.2178
 1653SOL    HW116421   3.614   3.790   1.550  0.6636  1.4223 -0.8893
 1653SOL    HW216422   3.699   3.899   1.541  1.5755 -1.2123 -0.3191
 1654SOL     OW16423   3.649   4.327   6.186  0.3323 -0.0954 -0.1648
 1654SOL    HW116424   3.704   4.319   6.264  0.5122 -0.4826 -0.3312
 1654SOL    HW216425   3.574   4.373   6.224 -0.6363 -0.2368 -1.9115
 1655SOL     OW16426   0.128   2.225   6.570 -0.7670  0.1560 -0.2028
 1655SOL    HW116427   0.196   2.204   6.634 -2.8856  0.5044  2.1549
 1655SOL    HW216428   0.113   2.146   6.518  1.5686  1.2056 -2.4904
 1656SOL     OW16429   0.784   0.691   6.007 -0.4757 -0.5903 -0.2772
 1656SOL    HW116430   0.767   0.617   5.949  2.4951 -0.1775 -1.6608
 1656SOL    HW216431   0.718   0.747   5.967  0.4953 -0.8637 -2.2426
 1657SOL     OW16432   3.758   0.043   8.499  0.2057 -0.0729 -0.4081
 1657SOL    HW116433   3.830   0.057   8.561  0.3048  0.7507 -0.7035
 1657SOL    HW216434   3.806   0.020   8.420 -0.1042  1.1631 -0.9599
 1658SOL     OW16435   1.146   2.764   8.387  0.2975 -0.1864 -0.3624
 1658SOL    HW116436   1.158   2.700   8.457  1.6432  0.7631  0.2796
 1658SOL    HW216437   1.227   2.746   8.339  1.3357 -0.2271  1.3767
 1659SOL     OW16438   1.917   2.450   3.911  0.5280  0.3599 -0.0754
 1659SOL    HW116439   1.880   2.513   3.972 -1.9532 -1.2601  0.1175
 1659SOL    HW216440   1.849   2.383   3.921 -0.3004  1.5206  1.9139
 1660SOL     OW16441   4.262   3.914  14.823  0.2908  0.5385  0.9413
 1660SOL    HW116442   4.235   3.922  14.731 -0.6856 -0.0461  1.1714
 1660SOL    HW216443   4.355   3.894  14.813  0.4827  2.7335 -1.6702
 1661SOL     OW16444   0.999   0.702   0.425 -0.4367 -0.4868 -0.0074
 1661SOL    HW116445   1.017   0.660   0.509 -2.1880 -2.6483 -0.7210
 1661SOL    HW216446   0.905   0.713   0.435 -0.5652 -1.4400 -0.1643
 1662SOL     OW16447   1.522   0.220  11.862  0.4961 -0.7366  0.0069
 1662SOL    HW116448   1.519   0.316  11.854  0.6312 -0.6682  0.8492
 1662SOL    HW216449   1.580   0.205  11.936  0.7423 -0.8700 -0.2169
 1663SOL     OW16450   2.460   3.795   6.068  0.0537  0.0651 -0.4625
 1663SOL    HW116451   2.450   3.701   6.049 -0.5142  1.0969 -5.3531
 1663SOL    HW216452   2.509   3.798   6.150 -0.5313  0.8922 -0.1460
 1664SOL     OW16453   3.255   3.475   2.308  0.6628 -0.3866  0.4305
 1664SOL    HW116454   3.195   3.496   2.379 -1.6149 -0.3131 -1.5159
 1664SOL    HW216455   3.226   3.548   2.254  0.8007  0.3502  1.3562
 1665SOL     OW16456   2.637   4.169  16.955 -0.2257 -0.1505 -0.1976
 1665SOL    HW116457   2.568   4.221  16.996  0.7597  0.6433  0.4577
 1665SOL    HW216458   2.689   4.243  16.923 -0.8931 -0.1872 -1.3514
 1666SOL     OW16459   2.574   3.166   3.689  0.1386  0.2853 -0.5882
 1666SOL    HW116460   2.587   3.179   3.595  0.4114 -0.5311 -0.6662
 1666SOL    HW216461   2.636   3.095   3.707 -1.0622 -1.0647 -1.8645
 1667SOL     OW16462   1.716   4.561  13.298 -0.1331  0.3571  0.5387
 1667SOL    HW116463   1.747   4.645  13.332  1.7441 -0.2500  0.2893
 1667SOL    HW216464   1.660   4.597  13.229  0.5175  2.2986  1.0234
 1668SOL     OW16465   1.621   1.229   6.145 -0.4550  0.5998 -0.1385
 1668SOL    HW116466   1.581   1.239   6.059  0.6424 -1.2622 -0.8708
 1668SOL    HW216467   1.573   1.278   6.212 -0.8955  1.1811 -0.8763
 1669SOL     OW16468   0.406   0.750   1.127 -0.1771  0.0506 -0.2976
 1669SOL    HW116469   0.404   0.840   1.095  0.2956  0.1524 -0.0381
 1669SOL    HW216470   0.388   0.756   1.221  0.5671 -0.4106 -0.1277
 1670SOL     OW16471   3.063   3.233  16.720 -0.2554  0.1352 -0.4846
 1670SOL    HW116472   2.982   3.188  16.742 -0.2290  0.3937  0.1275
 1670SOL    HW216473   3.063   3.316  16.767 -0.6074 -0.5818  0.7901
 1671SOL     OW16474   2.271   3.772   5.783  0.2717 -0.5119  0.9130
 1671SOL    HW116475   2.352   3.728   5.759 -0.4757 -2.0984  1.3394
 1671SOL    HW216476   2.284   3.865   5.766 -0.3100 -0.8626 -1.4262
 1672SOL     OW16477   0.298   2.546   3.770 -0.3967  0.4970 -0.5503
 1672SOL    HW116478   0.250   2.520   3.691 -0.0460  0.7433 -0.8449
 1672SOL    HW216479   0.383   2.577   3.740 -0.8641  0.8616 -1.4889
 1673SOL     OW16480   2.608   4.306   0.486 -0.0086 -0.6333 -0.1749
 1673SOL    HW116481   2.661   4.306   0.566 -1.3699 -1.9521  0.7284
 1673SOL    HW216482   2.541   4.358   0.529 -0.5796 -1.2397 -0.3323
 1674SOL     OW16483   0.712   1.354   4.875  0.4078  0.0686  0.4422
 1674SOL    HW116484   0.640   1.342   4.814  0.7014  0.0265  0.1045
 1674SOL    HW216485   0.763   1.425   4.837 -0.9689  0.8804  0.1142
 1675SOL     OW16486   3.238   2.060   9.845  0.2211 -0.0242 -0.3015
 1675SOL    HW116487   3.320   2.108   9.838 -0.2515  0.9106  0.5409
 1675SOL    HW216488   3.173   2.124   9.813  0.7087  0.0520 -1.1271
 1676SOL     OW16489   3.597   3.764   2.362 -0.0527  0.1185  0.3957
 1676SOL    HW116490   3.615   3.736   2.273 -0.2123 -0.5131  0.5629
 1676SOL    HW216491   3.682   3.781   2.402  0.4537  1.4520 -1.2742
 1677SOL     OW16492   1.737   1.550  15.197  0.0985  0.5548 -0.2387
 1677SOL    HW116493   1.648   1.568  15.165 -0.5476 -0.1033  1.1866
 1677SOL    HW216494   1.783   1.547  15.113  0.3324 -2.1987 -0.0147
 1678SOL     OW16495   0.954   2.483   8.578 -0.8801  0.5599 -0.0504
 1678SOL    HW116496   0.885   2.424   8.610 -1.0780  1.1841  0.6927
 1678SOL    HW216497   1.028   2.426   8.597  0.4128  1.5062 -2.3297
 1679SOL     OW16498   0.237   1.954   4.967  0.3361  0.2682  0.1213
 1679SOL    HW116499   0.256   2.048   4.963 -0.4480  0.3903 -1.0948
 1679SOL    HW216500   0.156   1.950   4.915 -0.0124  0.5745  0.6339
 1680SOL     OW16501   3.775   1.784  12.087  0.0626  0.3077 -0.1843
 1680SOL    HW116502   3.703   1.734  12.048  0.5204  0.4384 -1.1846
 1680SOL    HW216503   3.841   1.736  12.038  0.1837 -1.0895  1.3492
 1681SOL     OW16504   0.969   0.721   8.909 -0.3467  0.1799  0.0848
 1681SOL    HW116505   0.974   0.691   9.000 -2.5992  0.6788  0.3808
 1681SOL    HW216506   1.012   0.648   8.865  0.5302  0.5144  0.3763
 1682SOL     OW16507   1.542   0.319   2.673 -0.0529  0.6610  0.2242
 1682SOL    HW116508   1.627   0.343   2.636 -1.9898  2.6298 -2.9389
 1682SOL    HW216509   1.480   0.367   2.618 -0.3887  2.0814  1.8605
 1683SOL     OW16510   4.304   1.889   2.367  0.0720  0.4528  0.0569
 1683SOL    HW116511   4.262   1.915   2.449  0.5031  1.2070  0.0377
 1683SOL    HW216512   4.301   1.793   2.368 -0.1384  0.4591  0.1710
 1684SOL     OW16513   0.410   1.860  12.518  0.6167 -0.4475  0.1278
 1684SOL    HW116514   0.413   1.832  12.610  0.1998 -2.0009 -0.3275
 1684SOL    HW216515   0.501   1.836  12.497 -1.0098 -4.6566 -2.1056
 1685SOL     OW16516   1.399   1.709   9.027 -0.1006 -0.1717  0.0872
 1685SOL    HW116517   1.347   1.677   9.101 -3.2055 -0.9416 -2.4030
 1685SOL    HW216518   1.459   1.636   9.011 -0.3908 -0.0505 -1.5208
 1686SOL     OW16519   2.759   2.912   4.596 -0.0360  0.2944 -0.6923
 1686SOL    HW116520   2.770   2.881   4.506  3.9278 -1.4405  0.3862
 1686SOL    HW216521   2.664   2.904   4.600 -0.0008 -0.7752 -2.1524
 1687SOL     OW16522   2.770   0.986   6.817  0.1633 -0.8712 -0.2677
 1687SOL    HW116523   2.705   1.009   6.751  1.1699  0.9112 -0.6428
 1687SOL    HW216524   2.748   1.044   6.890  0.6268  1.9917 -2.3899
 1688SOL     OW16525   3.263   1.992   7.284  0.5395 -0.3690 -0.5292
 1688SOL    HW116526   3.255   1.926   7.216  0.9454 -0.4432 -0.5074
 1688SOL    HW216527   3.202   1.961   7.351  2.2635  0.7965  1.5808
 1689SOL     OW16528   1.761   2.339  14.210  0.2061 -0.6042  0.1312
 1689SOL    HW116529   1.788   2.253  14.176 -0.2888 -0.5229 -0.4785
 1689SOL    HW216530   1.699   2.309  14.277 -0.0588 -0.0802  0.1200
 1690SOL     OW16531   2.513   1.228   4.787 -0.2576  0.6052 -0.5285
 1690SOL    HW116532   2.440   1.244   4.847 -0.5559  0.8051 -0.9513
 1690SOL    HW216533   2.562   1.169   4.844  0.2863  1.7847  0.2337
 1691SOL     OW16534   4.676   4.118   7.025 -0.1258 -0.1253  0.2207
 1691SOL    HW116535   0.038   4.084   7.005 -0.3385  0.5756 -1.8367
 1691SOL    HW216536   4.658   4.047   7.086  1.2997 -1.4284 -0.8751
 1692SOL     OW16537   2.378   4.224   1.054  0.0381 -0.1597  0.0662
 1692SOL    HW116538   2.395   4.248   0.963 -0.5304  3.2513  0.8383
 1692SOL    HW216539   2.288   4.255   1.063  0.0465 -0.0154 -0.3205
 1693SOL     OW16540   1.038   3.191   7.227  0.2399  0.1182  0.6642
 1693SOL    HW116541   1.082   3.266   7.266  0.3456  1.0777 -1.3135
 1693SOL    HW216542   0.957   3.232   7.197  0.1517 -2.1528 -2.2103
 1694SOL     OW16543   1.694   4.424   6.613  0.1438 -0.0370  0.6001
 1694SOL    HW116544   1.734   4.452   6.530 -0.3081  0.0928  0.4262
 1694SOL    HW216545   1.609   4.466   6.603 -0.1656 -1.1372 -1.5713
 1695SOL     OW16546   0.724   2.096  10.509  0.0173  0.2179  0.3761
 1695SOL    HW116547   0.692   2.006  10.500 -1.9237  0.7533  1.8634
 1695SOL    HW216548   0.648   2.147  10.481 -1.2869 -1.4171  0.9298
 1696SOL     OW16549   3.116   3.651   9.124  0.1892  0.0482 -0.1698
 1696SOL    HW116550   3.141   3.626   9.213  2.1205 -1.2161 -1.0848
 1696SOL    HW216551   3.027   3.616   9.127 -0.3533  1.2651 -2.1318
 1697SOL     OW16552   3.836   2.665   2.566  0.2403 -0.3682 -0.1733
 1697SOL    HW116553   3.887   2.613   2.628  0.5375  0.5465  0.3453
 1697SOL    HW216554   3.767   2.703   2.620  0.1395  2.2519 -2.1219
 1698SOL     OW16555   3.082   0.622   2.118  0.4721 -0.0583 -0.2138
 1698SOL    HW116556   3.010   0.645   2.059  0.6697 -2.0132 -1.2070
 1698SOL    HW216557   3.097   0.533   2.086 -2.5314 -0.8069  0.5070
 1699SOL     OW16558   2.937   4.216   0.548 -0.5226 -0.3834  0.0526
 1699SOL    HW116559   2.900   4.128   0.538  1.3623 -1.0668 -0.8372
 1699SOL    HW216560   2.883   4.262   0.612  0.2894  0.5370  0.0889
 1700SOL     OW16561   2.732   3.731  16.753  0.0313  0.4832 -0.1558
 1700SOL    HW116562   2.807   3.777  16.714  1.9985 -3.0909 -0.5529
 1700SOL    HW216563   2.769   3.723  16.841  0.6140  1.4449 -0.3055
 1701SOL     OW16564   3.806   1.264   4.037  0.3643 -0.0398 -0.1067
 1701SOL    HW116565   3.729   1.220   4.003 -0.6729  1.6169  0.1145
 1701SOL    HW216566   3.770   1.353   4.045  0.9926 -0.0095  2.3447
 1702SOL     OW16567   4.079   3.186  15.646  0.0326 -0.3930  0.7280
 1702SOL    HW116568   4.047   3.111  15.596  0.0233  0.9100 -1.2649
 1702SOL    HW216569   4.149   3.152  15.701  0.1663  2.1703  2.1755
 1703SOL     OW16570   1.053   0.086  14.247 -0.1940 -0.3505 -0.1547
 1703SOL    HW116571   1.072   0.174  14.212  0.3649 -0.7798 -0.9435
 1703SOL    HW216572   0.974   0.069  14.196  2.0361 -0.4253 -3.6788
 1704SOL     OW16573   0.491   4.343   8.039  0.4381  0.2372  0.1003
 1704SOL    HW116574   0.434   4.280   8.082  0.4416 -0.4022 -0.8279
 1704SOL    HW216575   0.451   4.337   7.952  1.1596 -0.6847 -0.1710
 1705SOL     OW16576   3.328   1.133   4.727 -0.0469 -0.0165  0.2924
 1705SOL    HW116577   3.295   1.165   4.811  1.9986  0.5696  0.8540
 1705SOL    HW216578   3.307   1.208   4.671  1.9776  0.7035  0.5135
 1706SOL     OW16579   3.856   3.041   4.963 -0.2027 -0.0582  0.1460
 1706SOL    HW116580   3.844   3.000   4.877  0.6988  0.1570 -0.0849
 1706SOL    HW216581   3.827   3.131   4.955 -1.7529 -0.6278 -0.7885
 1707SOL     OW16582   1.468   2.408   6.970  0.3715 -0.3734  0.0866
 1707SOL    HW116583   1.479   2.319   6.938  0.8814 -0.4513  0.4731
 1707SOL    HW216584   1.376   2.391   6.991  0.8982  0.9816  3.4189
 1708SOL     OW16585   0.674   0.105  11.409 -0.4662 -0.1351 -0.3928
 1708SOL    HW116586   0.706   0.015  11.407  0.9495  0.3658  0.0464
 1708SOL    HW216587   0.591   0.089  11.364 -0.9902 -0.6030  0.7370
 1709SOL     OW16588   1.971   1.111   9.048 -0.1796  0.1680  0.0880
 1709SOL    HW116589   1.918   1.178   9.091  0.7908  0.6713  0.5093
 1709SOL    HW216590   2.060   1.140   9.068  0.5821 -1.9756 -0.2170
 1710SOL     OW16591   3.248   1.504   6.468 -0.5222  0.0403 -0.7855
 1710SOL    HW116592   3.210   1.475   6.385 -1.4694 -0.2941 -0.2322
 1710SOL    HW216593   3.283   1.421   6.499  0.6606 -0.1416 -2.6033
 1711SOL     OW16594   1.770   1.847   7.968  0.1809  0.1547 -0.5379
 1711SOL    HW116595   1.762   1.835   7.874  0.1807 -0.1763 -0.4957
 1711SOL    HW216596   1.786   1.942   7.965  0.2508  0.1297 -0.9196
 1712SOL     OW16597   3.210   4.480   5.303 -0.4759 -0.1593 -0.3887
 1712SOL    HW116598   3.176   4.421   5.235 -2.3998 -0.4330  0.8200
 1712SOL    HW216599   3.302   4.457   5.313 -1.0524 -2.5467 -0.5515
 1713SOL     OW16600   3.811   1.043  14.211 -0.1616 -0.6716  0.1455
 1713SOL    HW116601   3.766   0.960  14.196  1.0173 -1.1555 -0.7177
 1713SOL    HW216602   3.880   1.053  14.145 -0.8436  2.5669 -0.0779
 1714SOL     OW16603   1.346   1.555  12.735 -0.2322  0.1637  0.5877
 1714SOL    HW116604   1.279   1.493  12.707 -0.0785 -0.7216  2.1755
 1714SOL    HW216605   1.292   1.633  12.725 -3.3152 -1.7281  2.6990
 1715SOL     OW16606   0.342   4.344  14.979 -0.2125 -0.3409 -0.0399
 1715SOL    HW116607   0.265   4.344  14.922  1.4058 -1.7749 -2.2453
 1715SOL    HW216608   0.408   4.296  14.928  1.8342  1.6417  0.7973
 1716SOL     OW16609   4.083   2.507   8.679 -0.5971  0.4465  0.0686
 1716SOL    HW116610   4.052   2.533   8.766 -1.0056 -0.5568  0.2206
 1716SOL    HW216611   4.025   2.557   8.622 -2.5744 -1.0473  0.7781
 1717SOL     OW16612   1.206   2.689   0.228  0.0696  0.4158 -0.3188
 1717SOL    HW116613   1.244   2.620   0.174  2.3314  1.5499 -0.1864
 1717SOL    HW216614   1.175   2.641   0.305  0.6093 -1.3192 -1.2100
 1718SOL     OW16615   3.269   2.590   8.627  0.0213  0.0336 -0.4806
 1718SOL    HW116616   3.363   2.588   8.640  0.0154 -1.6763 -0.6269
 1718SOL    HW216617   3.263   2.684   8.609  1.1575 -0.2266 -2.1979
 1719SOL     OW16618   0.358   0.170  11.487  0.2973 -0.1956  0.3653
 1719SOL    HW116619   0.368   0.198  11.396  1.7844 -1.1289  0.2436
 1719SOL    HW216620   0.401   0.084  11.492 -0.1539 -0.4338  0.1457
 1720SOL     OW16621   2.730   0.285   8.882  0.5065  0.2782 -0.2994
 1720SOL    HW116622   2.813   0.287   8.930  1.2006 -1.9868 -1.3987
 1720SOL    HW216623   2.692   0.363   8.922  1.9190  2.5758 -3.4407
 1721SOL     OW16624   4.659   4.588   3.616  0.1594 -0.3559 -0.0254
 1721SOL    HW116625   4.568   4.581   3.586  0.2628 -0.7822 -0.2445
 1721SOL    HW216626   4.696   4.504   3.588 -0.2149 -1.1623  1.8957
 1722SOL     OW16627   1.201   2.253  11.595  0.4918  0.1046 -0.0320
 1722SOL    HW116628   1.239   2.173  11.631  1.0806  0.0465 -0.7910
 1722SOL    HW216629   1.233   2.317  11.659 -3.6404  1.2087  0.9554
 1723SOL     OW16630   1.928   4.434   9.150  0.0564  0.3710  0.5554
 1723SOL    HW116631   1.986   4.472   9.084 -1.5599  0.9305 -0.5530
 1723SOL    HW216632   1.860   4.502   9.150 -0.5205 -0.2101  0.9145
 1724SOL     OW16633   2.831   4.096   6.919 -0.3044 -0.2460 -0.2405
 1724SOL    HW116634   2.829   4.120   7.011 -1.2465 -0.4200 -0.2118
 1724SOL    HW216635   2.850   4.002   6.928  0.6444  0.0459  0.7255
 1725SOL     OW16636   3.467   0.510  12.152 -0.3083  0.5218 -0.1361
 1725SOL    HW116637   3.412   0.577  12.193  0.2928 -0.4188  2.2019
 1725SOL    HW216638   3.397   0.469  12.101  1.0437 -0.2021 -1.4419
 1726SOL     OW16639   1.916   2.275  13.169 -0.2883 -0.0568  0.3441
 1726SOL    HW116640   1.910   2.246  13.260 -0.5402 -1.2252 -0.0406
 1726SOL    HW216641   1.979   2.346  13.174 -0.5855  0.1659  0.9174
 1727SOL     OW16642   1.971   0.660   1.758 -0.3133 -0.6186 -0.1155
 1727SOL    HW116643   1.934   0.634   1.674  0.5617  2.7788 -1.5282
 1727SOL    HW216644   2.065   0.669   1.741  0.4355 -1.7249  3.3006
 1728SOL     OW16645   3.942   3.097   0.885 -0.2104 -0.1926 -0.4481
 1728SOL    HW116646   3.922   3.035   0.815 -0.8475 -0.5536  0.0493
 1728SOL    HW216647   3.927   3.178   0.838 -0.6930  0.7236  1.2637
 1729SOL     OW16648   2.061   3.645  12.582  0.2533  0.3183  0.0169
 1729SOL    HW116649   1.997   3.674  12.517  1.2693 -1.0253 -1.5657
 1729SOL    HW216650   2.031   3.555  12.586  1.1997  0.0261  0.3793
 1730SOL     OW16651   0.215   3.003   8.345  0.1593  0.1948  0.1169
 1730SOL    HW116652   0.198   3.022   8.437 -1.4555  1.4112 -0.4273
 1730SOL    HW216653   0.303   3.036   8.332  0.6563 -2.4580 -3.2062
 1731SOL     OW16654   3.022   2.171   5.456 -0.0006 -0.2669  0.0262
 1731SOL    HW116655   3.091   2.167   5.390  1.9809 -3.0356  2.2590
 1731SOL    HW216656   3.053   2.233   5.522  1.2911 -0.8333 -0.0491
 1732SOL     OW16657   3.612   3.855  12.796  0.1019  0.2393 -0.4708
 1732SOL    HW116658   3.544   3.909  12.756 -0.3892 -0.3387 -0.4161
 1732SOL    HW216659   3.688   3.905  12.767  0.5014 -0.4042 -0.5284
 1733SOL     OW16660   3.756   0.079   9.437 -0.7554  0.1607 -0.7489
 1733SOL    HW116661   3.824   0.011   9.434 -1.2578 -0.3524 -0.5913
 1733SOL    HW216662   3.783   0.120   9.519 -0.5442  0.6224 -1.0529
 1734SOL     OW16663   1.071   1.730   5.509 -0.1040 -0.1004 -0.3127
 1734SOL    HW116664   1.149   1.739   5.563 -0.1186 -1.0924 -0.1346
 1734SOL    HW216665   1.111   1.722   5.422  0.4742  0.2802 -0.0808
 1735SOL     OW16666   2.935   1.877   4.685 -0.2408  0.4089 -0.1924
 1735SOL    HW116667   2.986   1.936   4.628 -1.7172  1.6367 -0.2373
 1735SOL    HW216668   2.848   1.915   4.671 -0.5069  0.1781  0.8798
 1736SOL     OW16669   0.096   4.542   6.637 -0.0312  0.0948  0.5942
 1736SOL    HW116670   0.020   4.581   6.680  0.8868  0.2620  2.0577
 1736SOL    HW216671   0.085   4.571   6.546  1.8613 -1.9694 -0.2872
 1737SOL     OW16672   4.457   0.439   5.308  0.1747  0.1287 -0.2573
 1737SOL    HW116673   4.502   0.360   5.277  1.3239  0.5888  0.2182
 1737SOL    HW216674   4.495   0.454   5.395 -2.1740  0.7112  0.6485
 1738SOL     OW16675   2.496   3.892  12.882 -0.1006  0.2656 -0.1360
 1738SOL    HW116676   2.590   3.891  12.900 -0.0509 -3.0756 -0.7179
 1738SOL    HW216677   2.483   3.987  12.887 -1.2796  0.0412  0.7637
 1739SOL     OW16678   0.038   0.634   4.637 -0.4448 -0.8269 -0.9128
 1739SOL    HW116679   0.052   0.544   4.611  0.5114 -0.3257 -2.1087
 1739SOL    HW216680   0.080   0.671   4.559 -0.8675  0.0461 -0.7319
 1740SOL     OW16681   0.342   3.334  11.982 -0.0307 -0.0445  0.1485
 1740SOL    HW116682   0.348   3.409  12.040  1.2134  0.6081 -0.8347
 1740SOL    HW216683   0.271   3.359  11.923 -0.9188 -0.4752  1.0302
 1741SOL     OW16684   0.398   3.174  11.763  0.3280  0.0206  0.0702
 1741SOL    HW116685   0.388   3.246  11.826 -1.7172 -1.9685  2.0373
 1741SOL    HW216686   0.332   3.115  11.798 -0.2918  0.8947  0.3911
 1742SOL     OW16687   1.505   1.742   2.188  0.0314  0.0063 -0.7834
 1742SOL    HW116688   1.420   1.785   2.196  0.1102 -0.1195  0.6858
 1742SOL    HW216689   1.552   1.770   2.266  1.0166 -1.5243 -0.8265
 1743SOL     OW16690   0.484   4.261  10.477 -0.2968  0.5455  0.2329
 1743SOL    HW116691   0.548   4.269  10.406  0.4997 -0.8504  0.7999
 1743SOL    HW216692   0.534   4.309  10.543  0.0975 -0.1015  0.4020
 1744SOL     OW16693   0.437   2.289  17.000 -0.4240 -0.2926 -0.0197
 1744SOL    HW116694   0.425   2.281  16.905  1.2061  3.8089 -0.5993
 1744SOL    HW216695   0.352   2.327  17.025  0.6287  2.0506  0.0299
 1745SOL     OW16696   0.049   0.232   2.359  0.1323 -0.2686 -0.7533
 1745SOL    HW116697   4.682   0.213   2.338 -0.8047  1.3654  1.9408
 1745SOL    HW216698   0.042   0.291   2.434 -2.2397 -1.0343 -0.3840
 1746SOL     OW16699   0.099   0.332   6.809 -0.0771  0.9053  0.3621
 1746SOL    HW116700   0.112   0.271   6.882 -0.6356 -0.6051 -0.7971
 1746SOL    HW216701   0.088   0.415   6.856 -2.0181 -0.3086  2.0517
 1747SOL     OW16702   4.219   4.706   2.478  0.2291 -0.0526  0.3495
 1747SOL    HW116703   4.311   4.722   2.501  0.7977 -2.2129 -0.4215
 1747SOL    HW216704   4.209   0.041   2.403 -0.3824  0.3687  0.7683
 1748SOL     OW16705   1.479   4.411   4.516  0.3563  0.3990 -0.2633
 1748SOL    HW116706   1.571   4.396   4.494  0.0898 -0.8942 -0.5390
 1748SOL    HW216707   1.430   4.402   4.434  0.0282 -1.4636  0.1262
 1749SOL     OW16708   0.458   0.015   0.006  0.0922 -0.1110  0.3523
 1749SOL    HW116709   0.510   0.095  17.701 -1.0717  0.5798 -0.3454
 1749SOL    HW216710   0.381   0.028  17.652 -0.3484  0.1134  1.0185
 1750SOL     OW16711   2.705   0.574   0.285 -0.0116  0.6065 -0.0993
 1750SOL    HW116712   2.638   0.527   0.334 -0.6121  0.0884 -1.4000
 1750SOL    HW216713   2.669   0.561   0.197 -2.4605  1.1836  0.8171
 1751SOL     OW16714   1.216   1.198   4.854  0.0304 -0.0807  0.0638
 1751SOL    HW116715   1.277   1.239   4.916 -1.5284  3.7475 -0.9031
 1751SOL    HW216716   1.129   1.198   4.893  0.7744  0.6729  1.7333
 1752SOL     OW16717   2.387   1.879   0.368  0.1927 -0.1161 -0.5557
 1752SOL    HW116718   2.483   1.885   0.369  0.0468  2.0965  1.0225
 1752SOL    HW216719   2.374   1.960   0.416  2.0085 -0.1572  0.0143
 1753SOL     OW16720   3.418   3.892   4.593  0.2721  0.3047 -0.5688
 1753SOL    HW116721   3.404   3.808   4.548  0.9461  0.6412 -1.4125
 1753SOL    HW216722   3.405   3.866   4.684 -0.8151 -1.4193 -1.2230
 1754SOL     OW16723   3.312   2.905  11.815 -0.1056 -0.0563  0.5225
 1754SOL    HW116724   3.285   2.823  11.773  0.6955 -1.3591  2.5655
 1754SOL    HW216725   3.260   2.964  11.760  2.2899  0.5896 -1.0697
 1755SOL     OW16726   3.474   2.979   2.206  0.6863  0.2164 -0.3952
 1755SOL    HW116727   3.465   3.051   2.143 -0.2400  2.5869  2.4056
 1755SOL    HW216728   3.390   2.934   2.199  0.7423 -0.0501  0.6826
 1756SOL     OW16729   2.163   2.087   1.599  0.6027 -0.0175  0.1958
 1756SOL    HW116730   2.231   2.072   1.534  0.4290  0.6341 -0.1425
 1756SOL    HW216731   2.098   2.126   1.540  0.5529  2.1756  1.6845
 1757SOL     OW16732   2.212   2.578  11.915 -0.2753  0.0545 -0.3338
 1757SOL    HW116733   2.232   2.503  11.859  0.6498  0.8548 -1.0817
 1757SOL    HW216734   2.223   2.652  11.855 -3.7214  1.7489  1.0965
 1758SOL     OW16735   0.542   2.212   0.077 -0.2763  0.0646  0.5432
 1758SOL    HW116736   0.617   2.192   0.021 -1.3148  0.1670 -0.9162
 1758SOL    HW216737   0.474   2.228   0.010 -1.5363 -1.2374  1.5105
 1759SOL     OW16738   4.197   4.610   6.281  0.1469  0.5276 -0.1433
 1759SOL    HW116739   4.251   4.624   6.359  0.5783  1.0341 -0.5295
 1759SOL    HW216740   4.201   4.700   6.249 -1.2175 -0.4292 -3.0471
 1760SOL     OW16741   2.791   3.769   9.014  0.3987  0.4439  0.1417
 1760SOL    HW116742   2.819   3.729   9.096  1.4723  0.6840 -0.1066
 1760SOL    HW216743   2.852   3.713   8.966 -0.1687  0.9010 -1.1015
 1761SOL     OW16744   3.869   3.579   2.078  0.3433 -0.3947  0.1498
 1761SOL    HW116745   3.953   3.559   2.036  0.2935 -0.1144 -0.0829
 1761SOL    HW216746   3.893   3.671   2.084 -1.5446 -0.1082  2.7907
 1762SOL     OW16747   3.358   4.008   5.943  0.3493  0.1437  0.3761
 1762SOL    HW116748   3.291   3.942   5.958  0.0295  0.2048 -0.8021
 1762SOL    HW216749   3.374   3.994   5.850 -0.3567  0.0803  0.2648
 1763SOL     OW16750   4.575   4.466   2.174 -0.1372 -0.2428  0.0695
 1763SOL    HW116751   4.588   4.560   2.191  1.0442 -0.4701  0.4632
 1763SOL    HW216752   4.548   4.422   2.254 -0.1684  0.1037  0.2517
 1764SOL     OW16753   0.908   1.187  11.207  0.2366  0.1874  0.0062
 1764SOL    HW116754   0.890   1.211  11.298  2.0079  1.0579  0.1361
 1764SOL    HW216755   0.934   1.266  11.160  0.2696  1.4754  2.2200
 1765SOL     OW16756   2.458   4.228   7.704 -0.0311  0.2337  0.2316
 1765SOL    HW116757   2.427   4.300   7.649 -0.7755 -1.7250 -1.8848
 1765SOL    HW216758   2.406   4.240   7.783 -1.6676  0.7161 -0.9157
 1766SOL     OW16759   2.920   2.723  13.228  0.5857 -0.4807 -0.2239
 1766SOL    HW116760   2.855   2.682  13.171 -0.0064 -1.0247  0.8323
 1766SOL    HW216761   2.962   2.647  13.268  2.1747  0.2647 -0.5007
 1767SOL     OW16762   0.328   1.398   4.169 -0.0647  0.1416  0.2692
 1767SOL    HW116763   0.253   1.425   4.116  1.4662  0.4607 -1.7345
 1767SOL    HW216764   0.400   1.413   4.107 -0.8967 -0.3065 -0.8198
 1768SOL     OW16765   2.268   4.202   6.038  0.3566  0.1857  0.1602
 1768SOL    HW116766   2.234   4.123   6.080 -0.6931  0.7328  0.3237
 1768SOL    HW216767   2.338   4.174   5.979 -0.3167 -3.0446  0.9187
 1769SOL     OW16768   2.090   4.666   7.563  0.3550  0.3032 -0.4608
 1769SOL    HW116769   2.012   4.621   7.529  0.2294  0.1811 -0.0095
 1769SOL    HW216770   2.135   4.592   7.604  0.7888  0.5943 -0.4126
 1770SOL     OW16771   4.318   0.810  15.243 -0.1590 -0.2360  0.6177
 1770SOL    HW116772   4.409   0.792  15.219 -0.0334  1.3937 -0.1230
 1770SOL    HW216773   4.327   0.855  15.327  1.2819 -0.2704  0.4881
 1771SOL     OW16774   2.532   1.311   3.494 -0.0834 -0.2822  0.1645
 1771SOL    HW116775   2.607   1.317   3.434  0.4580 -2.9012  0.5867
 1771SOL    HW216776   2.508   1.219   3.480 -0.4781  0.0607 -1.3970
 1772SOL     OW16777   1.045   1.297  16.861  0.3700 -0.6233 -0.4431
 1772SOL    HW116778   0.992   1.339  16.929  1.6118 -1.2522  0.9102
 1772SOL    HW216779   1.111   1.364  16.844 -2.5563  2.7050  1.2469
 1773SOL     OW16780   2.228   2.525   5.697 -0.0886 -0.0878  0.3306
 1773SOL    HW116781   2.317   2.491   5.694 -0.3948 -0.9127  0.6559
 1773SOL    HW216782   2.179   2.451   5.660 -1.7346  0.6417  1.0158
 1774SOL     OW16783   3.108   3.246   3.423 -1.0951  0.3187 -0.5319
 1774SOL    HW116784   3.094   3.151   3.418 -0.6490  0.4255 -3.4582
 1774SOL    HW216785   3.072   3.271   3.508  2.4913 -2.2921  1.7431
 1775SOL     OW16786   1.845   2.121   1.596 -0.2282  0.2384 -0.0272
 1775SOL    HW116787   1.884   2.161   1.518  0.0256 -0.3827 -0.2135
 1775SOL    HW216788   1.891   2.160   1.671  0.9245  0.6871 -0.9588
 1776SOL     OW16789   4.283   0.996   3.557 -0.0165  0.1480  0.3339
 1776SOL    HW116790   4.241   1.020   3.475 -1.2325 -1.4223  0.4743
 1776SOL    HW216791   4.207   0.997   3.615 -0.1958 -2.5034  0.1504
 1777SOL     OW16792   2.691   2.323   9.861 -0.2015 -0.2132  0.1547
 1777SOL    HW116793   2.611   2.356   9.820 -1.3996  0.6135  3.1374
 1777SOL    HW216794   2.661   2.324   9.952 -1.2657 -3.6262 -0.1805
 1778SOL     OW16795   2.428   1.814   8.047 -0.0981  0.1999 -0.1887
 1778SOL    HW116796   2.485   1.826   8.123  0.5483  0.2812 -0.6825
 1778SOL    HW216797   2.345   1.796   8.091  0.1223  2.1276  1.0595
 1779SOL     OW16798   1.068   2.663  11.282 -0.2971 -0.0436  0.0310
 1779SOL    HW116799   1.040   2.751  11.256 -1.1090 -0.4893 -0.6158
 1779SOL    HW216800   1.052   2.610  11.203  2.3439  0.3818 -0.7936
 1780SOL     OW16801   2.683   0.784   7.253 -0.5846 -0.2378  0.1192
 1780SOL    HW116802   2.738   0.790   7.175 -1.1679  0.3183 -0.2499
 1780SOL    HW216803   2.641   0.699   7.238  2.3558 -1.3104 -2.1810
 1781SOL     OW16804   0.505   4.488   7.278  0.2573  0.1693 -0.5456
 1781SOL    HW116805   0.480   4.448   7.195  2.0290 -0.4680 -0.7813
 1781SOL    HW216806   0.563   4.561   7.256 -2.0707  1.8774 -1.0205
 1782SOL     OW16807   0.168   0.651   7.283  0.2233  0.0369  0.5179
 1782SOL    HW116808   0.121   0.734   7.278  0.0001 -0.1479 -0.5511
 1782SOL    HW216809   0.097   0.591   7.261  0.5151 -0.5901  1.2776
 1783SOL     OW16810   4.182   1.104   7.795  0.8753 -0.2925  0.0762
 1783SOL    HW116811   4.219   1.190   7.773  2.4075 -0.7183  0.9745
 1783SOL    HW216812   4.232   1.047   7.737  0.6767 -0.6937  0.2996
 1784SOL     OW16813   4.573   0.892   4.270 -0.3215 -0.4277  0.1150
 1784SOL    HW116814   4.664   0.894   4.301  0.3417  0.0449 -1.8885
 1784SOL    HW216815   4.565   0.973   4.220  0.9349  0.2819  1.0718
 1785SOL     OW16816   4.604   1.393  13.706 -0.2460 -0.1178  0.2305
 1785SOL    HW116817   4.680   1.401  13.648  2.4312  0.3977  3.7946
 1785SOL    HW216818   4.546   1.331  13.662 -0.4582  1.4493 -1.7366
 1786SOL     OW16819   4.432   0.380  14.936 -0.1023  0.5689 -0.8210
 1786SOL    HW116820   4.336   0.376  14.934 -0.0610 -0.4707 -0.7374
 1786SOL    HW216821   4.446   0.454  14.877 -0.8475  2.1831  1.0246
 1787SOL     OW16822   3.927   3.344   6.408 -0.2448 -0.1553  0.0425
 1787SOL    HW116823   4.012   3.361   6.367 -0.0561 -0.2904  0.3860
 1787SOL    HW216824   3.918   3.249   6.408  0.7168 -0.2215  3.2019
 1788SOL     OW16825   4.468   0.356   2.109  0.6448  0.1520 -0.0429
 1788SOL    HW116826   4.506   0.299   2.042  1.1677 -0.5428  0.8423
 1788SOL    HW216827   4.388   0.383   2.062  0.2853  1.1078  1.1086
 1789SOL     OW16828   2.617   4.407  15.564 -0.6743  0.5080 -0.1557
 1789SOL    HW116829   2.590   4.316  15.577  2.2045 -0.3490 -0.0465
 1789SOL    HW216830   2.664   4.419  15.647 -0.3152  0.1626 -0.3063
 1790SOL     OW16831   4.309   2.891  10.176  0.2801  0.1524 -0.2087
 1790SOL    HW116832   4.237   2.944  10.141  0.9238  0.4412 -1.1255
 1790SOL    HW216833   4.299   2.811  10.124 -1.4401  0.5666 -0.5159
 1791SOL     OW16834   2.959   2.548   8.172  0.4946  0.0059  0.4301
 1791SOL    HW116835   2.982   2.595   8.252  1.0566  0.6870 -0.1303
 1791SOL    HW216836   2.868   2.575   8.162  0.2403 -1.2179 -0.5397
 1792SOL     OW16837   0.807   3.823   5.126  0.3846  0.4306 -0.2034
 1792SOL    HW116838   0.826   3.849   5.035  0.4191 -1.6917 -0.8119
 1792SOL    HW216839   0.848   3.896   5.173  0.9376 -0.4382  0.6688
 1793SOL     OW16840   4.281   2.558   1.428 -0.3253  0.2764 -0.1993
 1793SOL    HW116841   4.370   2.577   1.457 -0.1278  0.4876 -0.9429
 1793SOL    HW216842   4.230   2.612   1.488  2.2556  0.1311  2.1138
 1794SOL     OW16843   2.324   1.365   7.003  0.6572  0.2402 -0.2464
 1794SOL    HW116844   2.357   1.453   7.020 -0.9293  1.1685 -1.9508
 1794SOL    HW216845   2.313   1.366   6.908 -1.4949  1.4623  0.0290
 1795SOL     OW16846   0.844   2.121   9.013  0.0200 -0.5757  0.1707
 1795SOL    HW116847   0.860   2.032   8.982 -1.4947 -0.6226 -0.4903
 1795SOL    HW216848   0.764   2.140   8.964  1.6584  3.8191 -0.8416
 1796SOL     OW16849   2.001   0.822   1.991  0.1658 -0.1338  0.0447
 1796SOL    HW116850   1.971   0.770   1.916  1.2798 -0.6822 -0.0363
 1796SOL    HW216851   2.096   0.813   1.982  0.4153  3.6356 -1.0319
 1797SOL     OW16852   3.146   1.896  17.060  0.0131 -0.6327  0.0787
 1797SOL    HW116853   3.137   1.867  16.969 -0.5579 -0.1322 -0.0216
 1797SOL    HW216854   3.089   1.973  17.054  1.1882  0.3533  1.5165
 1798SOL     OW16855   2.472   2.708   5.352  0.6556  0.4861 -0.2168
 1798SOL    HW116856   2.499   2.635   5.408 -1.3056 -0.7394 -0.8458
 1798SOL    HW216857   2.378   2.707   5.372  1.1140 -1.3048  1.8234
 1799SOL     OW16858   2.031   1.133   0.056  0.3691 -0.3959 -0.2516
 1799SOL    HW116859   2.058   1.128   0.147  1.8049  1.9210 -0.5431
 1799SOL    HW216860   2.004   1.222   0.034  1.8353  0.1611  0.2011
 1800SOL     OW16861   0.191   0.019   2.697  0.1725  0.1008 -0.3835
 1800SOL    HW116862   0.179   4.667   2.641  1.2085  2.1645 -3.4494
 1800SOL    HW216863   0.230   4.703   2.774 -0.2984 -2.2716 -1.4233
 1801SOL     OW16864   2.199   1.361  10.162  0.5549 -0.7349 -0.2111
 1801SOL    HW116865   2.240   1.432  10.112  1.8624  0.7164  2.8852
 1801SOL    HW216866   2.110   1.394  10.153  1.3511  1.7307  0.7001
 1802SOL     OW16867   4.440   3.350   0.261  0.0123  0.3367  0.1160
 1802SOL    HW116868   4.505   3.420   0.270  1.4683 -1.0405  0.4170
 1802SOL    HW216869   4.398   3.378   0.180 -0.2154 -0.5219 -0.0651
 1803SOL     OW16870   3.845   0.374  13.153  0.1581 -0.6447  0.1214
 1803SOL    HW116871   3.938   0.354  13.161  0.3471  0.5567  0.9654
 1803SOL    HW216872   3.837   0.439  13.223  1.0776  0.9994 -1.2902
 1804SOL     OW16873   2.043   2.164   5.327  0.0481 -0.0968  0.2499
 1804SOL    HW116874   2.058   2.208   5.411  0.5080  2.6317 -1.2541
 1804SOL    HW216875   2.129   2.148   5.290  0.6172  0.5850  1.2684
 1805SOL     OW16876   0.359   1.274   6.692 -0.3052  0.3261  0.0253
 1805SOL    HW116877   0.320   1.344   6.745  2.2606  2.7053 -1.2537
 1805SOL    HW216878   0.293   1.205   6.700 -2.4508  2.3573 -0.3192
 1806SOL     OW16879   4.142   2.065   3.500  0.2362  0.0459  0.4810
 1806SOL    HW116880   4.213   2.046   3.438 -0.1178 -0.6719  0.3007
 1806SOL    HW216881   4.186   2.079   3.584 -1.3457  1.5389  1.0576
 1807SOL     OW16882   1.474   4.437  11.981  0.8932 -0.2064  0.2640
 1807SOL    HW116883   1.446   4.404  12.066 -0.6818 -0.1462 -0.2372
 1807SOL    HW216884   1.558   4.401  11.953  1.5531  0.3791  1.4596
 1808SOL     OW16885   2.897   3.332   6.416  0.2000  0.1035 -0.3229
 1808SOL    HW116886   2.972   3.277   6.439  0.8305  0.7859 -0.7529
 1808SOL    HW216887   2.884   3.380   6.498 -1.0735  1.5391 -1.3788
 1809SOL     OW16888   2.389   4.556   8.930 -0.3117  0.5479 -0.1349
 1809SOL    HW116889   2.452   4.626   8.948  1.6445 -1.6300  1.3873
 1809SOL    HW216890   2.371   4.573   8.837 -0.2872 -0.3939 -0.3134
 1810SOL     OW16891   0.982   0.792   1.891  0.3231  0.1288 -0.6516
 1810SOL    HW116892   1.027   0.725   1.942 -0.1989  0.1439 -0.1715
 1810SOL    HW216893   0.943   0.848   1.957 -0.3242 -0.1253 -0.8112
 1811SOL     OW16894   1.862   3.039   6.991  0.2876 -0.0460 -0.1385
 1811SOL    HW116895   1.923   3.040   7.065  0.2371 -2.7968 -0.0593
 1811SOL    HW216896   1.807   3.115   7.013  0.3002  0.0337 -0.3780
 1812SOL     OW16897   0.147   0.208   8.872  0.5690  0.0206 -0.1995
 1812SOL    HW116898   0.210   0.279   8.881  0.3279  0.3335 -0.9896
 1812SOL    HW216899   0.115   0.182   8.958 -0.4183  0.2128 -0.5035
 1813SOL     OW16900   1.504   1.971   5.384 -0.1453  0.2050 -0.9021
 1813SOL    HW116901   1.480   1.963   5.477  0.9170  0.3303 -0.6141
 1813SOL    HW216902   1.574   2.036   5.389 -1.3191  1.4572 -0.6619
 1814SOL     OW16903   4.384   4.604   3.585  0.7698 -0.4271 -0.2137
 1814SOL    HW116904   4.401   4.692   3.551 -0.2736  0.0566  0.4859
 1814SOL    HW216905   4.303   4.581   3.538  1.3163  0.5034 -1.5949
 1815SOL     OW16906   3.991   0.334   4.992 -0.0811  0.7606  0.0754
 1815SOL    HW116907   4.056   0.281   5.038  0.2954  0.0096 -1.3354
 1815SOL    HW216908   3.972   0.401   5.058  0.6722  1.0480 -0.0117
 1816SOL     OW16909   3.817   1.989  14.428 -0.0568 -0.3285  0.2351
 1816SOL    HW116910   3.838   2.051  14.499  1.0467 -0.8836  0.3913
 1816SOL    HW216911   3.809   1.911  14.482 -0.9036 -1.8721 -2.1467
 1817SOL     OW16912   3.782   1.374  13.639 -0.1525 -0.0754  0.8193
 1817SOL    HW116913   3.840   1.412  13.573 -0.9190 -0.9296 -0.3420
 1817SOL    HW216914   3.728   1.448  13.668 -1.6727 -1.4294  1.4282
 1818SOL     OW16915   0.215   0.064  17.094 -0.3663  0.4635  0.1685
 1818SOL    HW116916   0.254   0.009  17.027 -0.1648  0.6298  0.1476
 1818SOL    HW216917   0.280   0.044  17.162 -0.8801  0.0046  0.5213
 1819SOL     OW16918   2.328   4.027   6.646 -0.2200 -0.5665  0.4339
 1819SOL    HW116919   2.359   3.941   6.620  1.2734  0.4068 -1.0543
 1819SOL    HW216920   2.411   4.069   6.669 -1.0742  1.0662  0.5696
 1820SOL     OW16921   0.074   3.361   4.209 -0.9859 -0.2779 -0.0484
 1820SOL    HW116922   4.710   3.372   4.176 -1.0053 -1.0900 -0.2810
 1820SOL    HW216923   0.129   3.371   4.131 -2.1062  1.2646 -0.6199
 1821SOL     OW16924   4.629   3.881   5.247 -0.1508  0.5530 -0.4323
 1821SOL    HW116925   4.670   3.839   5.323  1.4548  0.7725 -1.1811
 1821SOL    HW216926   4.540   3.861   5.276  0.3011 -1.8508 -0.6962
 1822SOL     OW16927   0.951   2.247   4.704 -0.2668 -0.0056 -0.4966
 1822SOL    HW116928   1.042   2.275   4.707 -0.1199 -0.6893  1.1329
 1822SOL    HW216929   0.914   2.278   4.787  0.0330 -3.0590  0.7668
 1823SOL     OW16930   1.835   2.982  10.074  0.0300 -0.3137  0.3540
 1823SOL    HW116931   1.750   2.972  10.032 -1.0470  0.2654  2.3738
 1823SOL    HW216932   1.837   3.075  10.096  0.8546 -0.1813 -0.2868
 1824SOL     OW16933   0.424   2.629   6.667 -0.3974 -0.3211 -0.1651
 1824SOL    HW116934   0.507   2.583   6.655 -0.2319 -0.0123 -0.1942
 1824SOL    HW216935   0.369   2.573   6.722  0.0976  0.2703  0.9487
 1825SOL     OW16936   3.000   2.086   0.078 -0.7439 -0.0371  0.3689
 1825SOL    HW116937   2.982   2.163   0.026 -0.9608 -1.6709 -1.9721
 1825SOL    HW216938   3.096   2.086   0.081 -0.7764 -0.2158  1.3685
 1826SOL     OW16939   3.022   1.083   5.365 -0.0012  0.0881 -0.3000
 1826SOL    HW116940   3.062   1.006   5.405  2.2991  0.7436 -1.3299
 1826SOL    HW216941   3.082   1.158   5.365 -0.6659  0.6296 -0.7595
 1827SOL     OW16942   3.444   2.909  17.459 -0.0207  0.5457  0.1027
 1827SOL    HW116943   3.458   3.002  17.445  0.4521  0.3855 -0.5057
 1827SOL    HW216944   3.502   2.902  17.535  0.0202  1.0329  0.1143
 1828SOL     OW16945   0.491   2.681   8.042 -0.4398 -0.0360 -0.4178
 1828SOL    HW116946   0.429   2.613   8.069 -1.4359  1.1068  0.1457
 1828SOL    HW216947   0.431   2.754   8.029 -0.9675 -0.5641 -0.9344
 1829SOL     OW16948   2.693   2.459   7.947 -0.1497  0.4283 -0.4951
 1829SOL    HW116949   2.600   2.467   7.926  0.1854  0.3272 -1.9726
 1829SOL    HW216950   2.681   2.466   8.042  0.5711 -1.1038 -0.2964
 1830SOL     OW16951   0.463   2.220   3.089  0.1082  0.2902 -0.3845
 1830SOL    HW116952   0.511   2.180   3.017 -0.2725  1.8783 -1.5084
 1830SOL    HW216953   0.433   2.302   3.050 -0.1583  0.4094  0.0691
 1831SOL     OW16954   0.625   4.562  13.586  0.1189  0.2186 -0.0453
 1831SOL    HW116955   0.546   4.603  13.619  1.5044  2.3558  0.5696
 1831SOL    HW216956   0.598   4.478  13.547  0.2126 -0.8524  2.1730
 1832SOL     OW16957   0.334   2.209   4.956  0.8018 -0.3952  0.1075
 1832SOL    HW116958   0.409   2.202   5.014  0.6201 -0.3232  0.3526
 1832SOL    HW216959   0.377   2.249   4.880 -1.3150 -2.8092 -2.3510
 1833SOL     OW16960   2.531   4.693   6.522  0.2074 -0.2606  0.2834
 1833SOL    HW116961   2.581   4.644   6.456  0.2439  0.7856 -0.4860
 1833SOL    HW216962   2.553   0.060   6.506 -0.0291 -0.2536  0.0051
 1834SOL     OW16963   3.589   3.068  12.519 -0.4437 -0.0395  0.4406
 1834SOL    HW116964   3.587   3.127  12.594  1.5068 -1.3905  1.5652
 1834SOL    HW216965   3.497   3.068  12.496 -0.1755  1.5244 -0.6001
 1835SOL     OW16966   2.583   2.310   8.517 -0.0379 -1.0752  0.6372
 1835SOL    HW116967   2.600   2.229   8.566 -0.9162 -1.4863  0.2826
 1835SOL    HW216968   2.664   2.353   8.540 -0.1253 -1.4102  1.5858
 1836SOL     OW16969   1.614   4.169   3.018  0.0691 -0.0596 -0.4028
 1836SOL    HW116970   1.551   4.138   3.082  2.2168 -0.8055  1.3541
 1836SOL    HW216971   1.611   4.263   3.036 -1.8585  0.0605 -1.3243
 1837SOL     OW16972   1.683   3.949   4.447 -0.6250 -0.1716 -0.4622
 1837SOL    HW116973   1.593   3.969   4.424 -0.6050  0.7473  0.2544
 1837SOL    HW216974   1.695   3.883   4.379 -1.2408 -0.7184 -0.0451
 1838SOL     OW16975   3.556   0.166   7.332  0.2771  0.0538 -0.5607
 1838SOL    HW116976   3.646   0.135   7.319  1.0168  1.8769  0.1166
 1838SOL    HW216977   3.516   0.104   7.392 -0.4467  1.1073  0.0502
 1839SOL     OW16978   0.824   4.000   7.307  0.3100 -0.6120 -0.1498
 1839SOL    HW116979   0.914   4.027   7.287 -0.9006  0.5579 -4.0133
 1839SOL    HW216980   0.835   3.905   7.308 -0.7517 -0.7298  0.0837
 1840SOL     OW16981   2.003   0.105   7.306 -0.1217 -0.1865  0.1266
 1840SOL    HW116982   2.061   0.031   7.323 -0.5640 -0.5296  0.1296
 1840SOL    HW216983   2.009   0.120   7.212  0.4388  1.4480  0.4229
 1841SOL     OW16984   3.760   1.350   8.692 -0.4566  0.2513 -0.2587
 1841SOL    HW116985   3.685   1.349   8.752  0.4563  0.1511  0.8862
 1841SOL    HW216986   3.822   1.326   8.761  0.0121  0.8760 -0.4619
 1842SOL     OW16987   4.721   3.832  12.881  0.3711 -0.3609 -0.1980
 1842SOL    HW116988   0.049   3.756  12.857  1.0784  0.5142 -1.4263
 1842SOL    HW216989   4.725   3.824  12.976 -1.8714  0.6928 -0.0330
 1843SOL     OW16990   2.956   2.260  14.254  1.4324  0.2359  0.7214
 1843SOL    HW116991   2.970   2.166  14.266  1.4545  0.0438 -0.7817
 1843SOL    HW216992   2.876   2.282  14.301  1.0900  0.2696  0.1238
 1844SOL     OW16993   4.337   3.094  13.068 -0.2819 -0.0593  0.6563
 1844SOL    HW116994   4.275   3.164  13.088 -1.2819 -0.6748 -0.3351
 1844SOL    HW216995   4.322   3.034  13.140  2.9425  1.3542  2.5211
 1845SOL     OW16996   3.675   3.557   8.993  0.2077  0.2916  0.1919
 1845SOL    HW116997   3.746   3.507   9.034  0.0482  0.3293  0.5166
 1845SOL    HW216998   3.660   3.618   9.066  1.7494 -0.3026  1.0202
 1846SOL     OW16999   3.910   0.239   7.803  0.8739 -0.0841  0.2645
 1846SOL    HW117000   3.937   0.207   7.717  0.4320  0.3969 -0.0499
 1846SOL    HW217001   3.856   0.164   7.826  0.7688 -0.0347  0.1720
 1847SOL     OW17002   2.334   3.858   7.862 -0.3212 -0.0252 -0.2810
 1847SOL    HW117003   2.265   3.828   7.802  0.7633 -2.0265 -0.5232
 1847SOL    HW217004   2.389   3.901   7.796  0.2613  3.0283  2.1885
 1848SOL     OW17005   4.288   0.131   5.531 -0.3790 -0.1949  0.3232
 1848SOL    HW117006   4.295   0.042   5.566  0.4443 -0.0965  0.4118
 1848SOL    HW217007   4.306   0.116   5.438  0.1558 -2.5606  0.7935
 1849SOL     OW17008   0.701   0.613   3.643  0.3945  0.2093  0.2166
 1849SOL    HW117009   0.745   0.672   3.705  0.7512  0.4673 -0.2711
 1849SOL    HW217010   0.678   0.678   3.576  2.4555  1.2462  0.4814
 1850SOL     OW17011   0.731   0.101   7.407  0.0977  0.0752  0.2206
 1850SOL    HW117012   0.793   0.159   7.363  0.4176 -1.1512 -0.9442
 1850SOL    HW217013   0.694   0.159   7.473 -1.1045  0.1669 -0.5367
 1851SOL     OW17014   0.997   2.832   2.208  0.4744  0.0312 -0.0992
 1851SOL    HW117015   1.007   2.896   2.137 -2.8855  1.1513  0.4476
 1851SOL    HW217016   1.019   2.878   2.289 -0.1427  0.3739 -0.1291
 1852SOL     OW17017   2.435   2.402   7.004  0.4830  0.0841 -0.0169
 1852SOL    HW117018   2.382   2.391   6.926  0.7365 -0.2304 -0.1462
 1852SOL    HW217019   2.508   2.453   6.968  0.3586  1.2942  1.4287
 1853SOL     OW17020   0.010   1.611   2.310  0.3530 -1.3491 -0.1571
 1853SOL    HW117021   4.684   1.540   2.351 -0.3954 -1.3945 -1.1812
 1853SOL    HW217022   0.023   1.680   2.375  0.1884 -2.1548  0.7468
 1854SOL     OW17023   1.139   0.275   2.148  0.1984  0.0250 -0.0553
 1854SOL    HW117024   1.185   0.276   2.064 -0.2043 -2.5741 -0.2982
 1854SOL    HW217025   1.153   0.188   2.185  1.7038 -0.5249 -1.8979
 1855SOL     OW17026   3.788   0.936   4.682  0.5346 -0.0878 -0.5771
 1855SOL    HW117027   3.756   0.866   4.739  0.8912  0.0492 -0.2040
 1855SOL    HW217028   3.707   0.984   4.664 -0.1399 -0.9108  0.2801
 1856SOL     OW17029   2.476   1.023  16.148  0.2207  0.3559 -0.1543
 1856SOL    HW117030   2.452   0.931  16.139 -2.3620  0.9549  0.8105
 1856SOL    HW217031   2.401   1.067  16.108  0.4425  0.8706 -0.0142
 1857SOL     OW17032   3.208   0.993  13.690 -0.5001  0.6952  0.0234
 1857SOL    HW117033   3.217   1.032  13.777  3.1210 -2.3800  1.0356
 1857SOL    HW217034   3.150   0.919  13.709  1.1396  0.0593  2.5956
 1858SOL     OW17035   3.968   2.260   1.734  0.3449 -0.2780  0.1849
 1858SOL    HW117036   3.900   2.233   1.673  3.0655  0.9199 -3.4015
 1858SOL    HW217037   4.036   2.277   1.668 -0.2940  0.6375 -0.2470
 1859SOL     OW17038   1.831   4.447   4.800 -0.6373 -0.0356 -0.7508
 1859SOL    HW117039   1.780   4.425   4.722  1.1454  2.5390 -2.6729
 1859SOL    HW217040   1.828   4.366   4.851  1.6977 -0.4974 -1.3575
 1860SOL     OW17041   1.915   2.450  13.502  0.3559  0.0713  0.6512
 1860SOL    HW117042   1.944   2.498  13.424  1.3135  1.8263  2.0897
 1860SOL    HW217043   1.928   2.363  13.466 -1.8167 -0.1996  0.5314
 1861SOL     OW17044   1.043   2.585   6.509  0.1957  0.0469  0.0408
 1861SOL    HW117045   1.097   2.662   6.491  1.4325 -0.9793 -0.5549
 1861SOL    HW217046   0.960   2.615   6.471 -0.1201 -0.7113  0.1218
 1862SOL     OW17047   2.728   1.906  17.574  0.1468  0.0497  1.0762
 1862SOL    HW117048   2.721   1.834  17.637  0.8833 -0.8799  0.0912
 1862SOL    HW217049   2.663   1.881  17.508 -0.3572 -2.0139  2.3314
 1863SOL     OW17050   1.919   3.904  10.942 -0.2180 -0.2750  0.3420
 1863SOL    HW117051   1.949   3.829  10.995 -1.7918  0.5490  2.4225
 1863SOL    HW217052   1.847   3.926  11.002  0.7839  0.7208  1.1875
 1864SOL     OW17053   4.493   1.772   3.594  0.3885 -0.0179  0.0116
 1864SOL    HW117054   4.493   1.806   3.684  0.6524  1.7270 -0.6568
 1864SOL    HW217055   4.561   1.824   3.551  1.0494 -0.8436  0.0568
 1865SOL     OW17056   1.340   3.442  13.479 -0.3429 -0.1056 -0.2329
 1865SOL    HW117057   1.377   3.381  13.416 -0.4560  1.8909 -2.2102
 1865SOL    HW217058   1.408   3.427  13.546 -2.8619  0.5567  2.4866
 1866SOL     OW17059   1.794   3.623  11.336  0.0237  0.0039 -0.3083
 1866SOL    HW117060   1.862   3.660  11.393 -0.6948  0.1075  0.4992
 1866SOL    HW217061   1.719   3.681  11.350  0.0363 -0.0615  0.0374
 1867SOL     OW17062   4.222   3.981  14.569 -0.2954  0.2604  0.8417
 1867SOL    HW117063   4.286   4.053  14.564  1.0676 -0.8378  2.5168
 1867SOL    HW217064   4.159   4.003  14.501  0.5109  3.0374  0.9764
 1868SOL     OW17065   1.139   2.019   9.041  0.0369  0.4103  0.7238
 1868SOL    HW117066   1.235   2.017   9.037 -0.0951 -1.5655 -1.6628
 1868SOL    HW217067   1.114   2.033   8.949 -1.5309  1.2048  1.2683
 1869SOL     OW17068   4.530   1.404   2.448 -0.1629 -0.3208 -0.2913
 1869SOL    HW117069   4.602   1.349   2.476  0.2781  0.7366  0.6613
 1869SOL    HW217070   4.513   1.362   2.364 -1.2555 -0.7857  0.1606
 1870SOL     OW17071   2.008   1.590  16.301 -0.2731  0.5953  0.7313
 1870SOL    HW117072   1.994   1.685  16.306  0.2570  0.5398  3.0210
 1870SOL    HW217073   1.991   1.566  16.210  1.4533  1.2951  0.2237
 1871SOL     OW17074   3.111   2.420   0.181 -0.3226  0.1991  0.4626
 1871SOL    HW117075   3.150   2.397   0.097  1.1052  0.2433  1.0986
 1871SOL    HW217076   3.125   2.514   0.175 -0.8465  0.2124 -0.5482
 1872SOL     OW17077   0.589   3.758   4.312 -0.2097  0.2738  0.0916
 1872SOL    HW117078   0.647   3.807   4.254  0.3260  0.7910  1.0649
 1872SOL    HW217079   0.513   3.817   4.321 -0.9341 -0.7087  0.4068
 1873SOL     OW17080   4.452   3.209   8.407  0.1595 -0.4425  0.1977
 1873SOL    HW117081   4.472   3.178   8.318 -1.7174 -1.0129 -0.0327
 1873SOL    HW217082   4.470   3.135   8.464  0.4201  0.8943  1.8293
 1874SOL     OW17083   1.821   4.239   3.310 -0.2956 -0.4639  0.2576
 1874SOL    HW117084   1.726   4.234   3.299 -0.5567  0.9639  1.7993
 1874SOL    HW217085   1.827   4.175   3.382  0.4245 -1.3079 -0.5588
 1875SOL     OW17086   0.193   0.624   3.655 -0.1785  0.1922 -0.1346
 1875SOL    HW117087   0.110   0.671   3.667 -0.1005 -0.2900  2.2543
 1875SOL    HW217088   0.158   0.547   3.610  2.4948  0.3992 -2.5559
 1876SOL     OW17089   2.857   2.830   7.590 -0.4223 -0.2331  0.2981
 1876SOL    HW117090   2.858   2.782   7.673  0.6879  1.5202  1.2838
 1876SOL    HW217091   2.815   2.913   7.613 -1.0966 -0.7337  0.8931
 1877SOL     OW17092   4.557   3.592   4.950 -0.3654 -0.3193 -0.0155
 1877SOL    HW117093   4.523   3.513   4.992  0.2285 -2.0066 -2.6609
 1877SOL    HW217094   4.571   3.643   5.029  0.9764  0.9321 -1.0651
 1878SOL     OW17095   0.624   2.336  10.420 -0.4730  0.0856 -0.2647
 1878SOL    HW117096   0.718   2.334  10.400 -0.2272 -1.1537  1.0834
 1878SOL    HW217097   0.582   2.305  10.340 -2.1174  1.3818  0.1106
 1879SOL     OW17098   0.459   1.574   7.984  0.1530 -0.1800  0.4727
 1879SOL    HW117099   0.545   1.558   7.945  0.0156  2.4270 -0.8963
 1879SOL    HW217100   0.412   1.504   7.938  0.7288 -0.3017  0.0655
 1880SOL     OW17101   4.671   2.028   2.784 -0.4388  0.3437  0.0825
 1880SOL    HW117102   4.599   1.964   2.786 -2.4970  2.6701  0.4332
 1880SOL    HW217103   4.618   2.101   2.816  2.0021  1.7140  1.0388
 1881SOL     OW17104   4.469   1.087   2.972  0.7411 -0.3352  0.0591
 1881SOL    HW117105   4.419   1.050   2.898 -0.1543 -1.0033  0.9954
 1881SOL    HW217106   4.483   1.179   2.951 -2.1761  0.1740  0.3615
 1882SOL     OW17107   1.128   1.652  10.181  0.7628 -0.0354  0.0031
 1882SOL    HW117108   1.107   1.713  10.111 -1.1000  1.5365  1.9356
 1882SOL    HW217109   1.040   1.651  10.219  0.1608  2.5185 -1.3450
 1883SOL     OW17110   4.691   1.672   9.821 -0.1755 -0.0606  0.1002
 1883SOL    HW117111   4.660   1.598   9.768  0.6963  0.3325 -0.9690
 1883SOL    HW217112   0.046   1.698   9.775 -1.0165  1.4375 -0.5148
 1884SOL     OW17113   3.880   1.700   5.353 -0.1186  0.7506  0.0711
 1884SOL    HW117114   3.796   1.681   5.394 -0.6913  1.3324 -0.8183
 1884SOL    HW217115   3.869   1.656   5.268  1.3064 -0.8671  0.7227
 1885SOL     OW17116   2.206   2.502   0.968  0.3801  0.0318  0.1524
 1885SOL    HW117117   2.163   2.468   0.890  0.3594  1.9340 -0.6562
 1885SOL    HW217118   2.184   2.593   0.947 -1.2161 -0.4709 -0.3039
 1886SOL     OW17119   2.811   3.687  17.005  0.1260 -0.3295  0.1025
 1886SOL    HW117120   2.739   3.683  17.068 -0.5888  0.5546 -0.6558
 1886SOL    HW217121   2.886   3.667  17.060  1.2831  1.5714 -0.7793
 1887SOL     OW17122   0.356   0.757   2.061 -0.4314  0.3905  0.0370
 1887SOL    HW117123   0.264   0.750   2.037  0.3349 -0.8714 -2.4891
 1887SOL    HW217124   0.392   0.821   2.000 -0.4145 -1.2699 -1.7166
 1888SOL     OW17125   0.609   2.639   5.997  0.2949 -0.1226 -0.5405
 1888SOL    HW117126   0.529   2.621   6.045  2.0176  1.4270  2.8670
 1888SOL    HW217127   0.662   2.665   6.072 -0.0142 -1.5561  0.1603
 1889SOL     OW17128   3.984   1.666  12.973 -0.3684 -0.2688 -0.4966
 1889SOL    HW117129   3.936   1.642  12.894  0.8502 -0.6058 -1.1336
 1889SOL    HW217130   4.077   1.650  12.955 -0.2737  0.5590 -0.7399
 1890SOL     OW17131   2.072   2.964   1.938  0.3944  0.0168  0.4439
 1890SOL    HW117132   2.078   3.020   1.860  0.1453 -1.1247 -0.3860
 1890SOL    HW217133   2.028   2.884   1.909  0.8911 -0.5174  1.1955
 1891SOL     OW17134   4.294   4.628  12.777 -0.1148  0.0561 -0.3364
 1891SOL    HW117135   4.320   4.564  12.843  0.5880  3.2549  2.4747
 1891SOL    HW217136   4.282   4.574  12.699  2.0069  0.4392 -0.9245
 1892SOL     OW17137   1.500   0.475  10.923  0.3033  0.8163  0.5325
 1892SOL    HW117138   1.492   0.382  10.943  1.2509  0.4549 -0.7839
 1892SOL    HW217139   1.580   0.495  10.973  0.2139 -0.6478  1.2766
 1893SOL     OW17140   1.191   1.589   8.488 -0.3396 -0.1656 -0.3242
 1893SOL    HW117141   1.124   1.529   8.520 -1.8171  2.1250  0.8377
 1893SOL    HW217142   1.271   1.537   8.486 -0.9705 -1.1841  1.3609
 1894SOL     OW17143   1.414   2.113   8.538  0.7736  0.4941 -0.2370
 1894SOL    HW117144   1.466   2.158   8.605  1.2986  0.3749 -0.5660
 1894SOL    HW217145   1.473   2.087   8.467  1.2310 -1.1337  0.7347
 1895SOL     OW17146   3.342   2.608   4.503 -0.0833 -0.3809  0.0947
 1895SOL    HW117147   3.256   2.613   4.461  0.9559  1.2691 -1.8494
 1895SOL    HW217148   3.323   2.645   4.590  2.1275 -0.4100  0.5995
 1896SOL     OW17149   0.230   0.401   4.198 -0.0274  0.1273  0.0074
 1896SOL    HW117150   0.209   0.439   4.113  1.2502  2.0871  0.5754
 1896SOL    HW217151   0.281   0.322   4.178  1.5062  0.8322  1.0781
 1897SOL     OW17152   0.605   3.198   1.891  0.1382  0.0660  0.4098
 1897SOL    HW117153   0.602   3.213   1.986  4.1429  0.1069  0.5299
 1897SOL    HW217154   0.514   3.224   1.876  0.0361  0.4440  1.6021
 1898SOL     OW17155   1.139   0.463   5.485 -0.0465 -0.2824 -0.1736
 1898SOL    HW117156   1.073   0.398   5.462  0.2046 -0.3677 -0.6530
 1898SOL    HW217157   1.183   0.487   5.403 -0.9594  0.1918 -0.5224
 1899SOL     OW17158   1.968   3.880  13.396 -0.3210  0.0605  0.2544
 1899SOL    HW117159   1.979   3.797  13.350 -1.9777 -1.0511  1.8686
 1899SOL    HW217160   1.932   3.931  13.323 -1.4121  0.7554  1.2659
 1900SOL     OW17161   0.656   0.431   8.128  0.2559  0.9091 -0.2963
 1900SOL    HW117162   0.735   0.422   8.181 -1.4987 -1.2649  1.9645
 1900SOL    HW217163   0.608   0.499   8.176  0.1893  0.5856  0.0924
 1901SOL     OW17164   4.074   2.356   8.294  0.3230 -0.0109 -0.3872
 1901SOL    HW117165   4.103   2.304   8.369 -2.2732 -0.1047  0.5495
 1901SOL    HW217166   4.020   2.425   8.332 -1.9565 -0.7799 -2.2563
 1902SOL     OW17167   1.412   0.218  12.130  0.1202 -0.0770  0.0397
 1902SOL    HW117168   1.351   0.264  12.188 -0.4041 -2.0027  1.0113
 1902SOL    HW217169   1.376   0.235  12.043  0.1140 -0.5286 -0.0423
 1903SOL     OW17170   0.550   2.177   8.472  0.6289  0.2725  0.3296
 1903SOL    HW117171   0.523   2.140   8.388  0.4734  0.9155  0.0918
 1903SOL    HW217172   0.556   2.096   8.524 -0.9345  0.3195  0.5910
 1904SOL     OW17173   4.049   0.620   3.782  0.2821 -0.7808  0.3487
 1904SOL    HW117174   3.955   0.636   3.770  0.5721  1.0605  0.6265
 1904SOL    HW217175   4.070   0.685   3.848 -0.1839 -0.8836  0.6018
 1905SOL     OW17176   0.416   0.432   3.514  0.4674  0.2195 -0.6389
 1905SOL    HW117177   0.328   0.411   3.485 -0.2462 -0.5751  2.0846
 1905SOL    HW217178   0.440   0.473   3.431 -0.0380  1.5862 -0.1140
 1906SOL     OW17179   4.019   0.017   0.356  0.3533  0.3583  0.4613
 1906SOL    HW117180   4.072   4.664   0.372  0.1525 -0.2384 -1.8196
 1906SOL    HW217181   3.982   0.043   0.440  1.2425  0.3448  0.8537
 1907SOL     OW17182   2.839   2.678   6.402  0.1585  0.4090  0.1039
 1907SOL    HW117183   2.756   2.637   6.379 -0.3785 -1.1523  4.6903
 1907SOL    HW217184   2.840   2.758   6.350  0.6525  0.3310 -0.0097
 1908SOL     OW17185   3.800   1.833   5.728  0.5323  0.3162 -0.2692
 1908SOL    HW117186   3.796   1.894   5.802  0.1329  0.7309 -0.6295
 1908SOL    HW217187   3.873   1.860   5.672  1.2247 -0.5824  0.1961
 1909SOL     OW17188   0.050   3.634   2.860  0.2131  0.2045  0.0997
 1909SOL    HW117189   0.017   3.678   2.938 -0.6941 -2.1185  1.0100
 1909SOL    HW217190   4.705   3.657   2.799  0.4352 -0.7445 -0.5160
 1910SOL     OW17191   1.536   4.224   4.706  0.0201  0.4981  0.3600
 1910SOL    HW117192   1.614   4.187   4.664 -1.2667 -0.8146 -0.9034
 1910SOL    HW217193   1.508   4.284   4.636  0.2645  0.4409  0.2126
 1911SOL     OW17194   1.073   2.147  13.132 -0.2909  0.3405  0.2982
 1911SOL    HW117195   1.007   2.100  13.181 -0.1891 -0.7304 -0.5952
 1911SOL    HW217196   1.129   2.072  13.114  0.3827  1.2729 -1.5587
 1912SOL     OW17197   3.924   3.347  14.517  0.6564  0.7389 -0.4408
 1912SOL    HW117198   3.846   3.294  14.533  0.5144  1.2388  0.5213
 1912SOL    HW217199   3.931   3.335  14.422 -1.6340 -1.5380 -0.3081
 1913SOL     OW17200   1.935   2.581   5.832 -0.0037 -0.0962  0.3717
 1913SOL    HW117201   1.852   2.602   5.790  0.7605  0.4355 -0.8790
 1913SOL    HW217202   1.925   2.487   5.844 -0.6417  0.3867  3.6627
 1914SOL     OW17203   2.638   3.879   0.028  0.2845  0.3054  0.1710
 1914SOL    HW117204   2.634   3.851   0.119  2.7659 -2.7718 -0.6977
 1914SOL    HW217205   2.671   3.969   0.030  1.2005  0.0476 -3.6397
 1915SOL     OW17206   4.707   0.516   1.783  0.0231 -0.4428  0.0246
 1915SOL    HW117207   4.624   0.472   1.805 -0.0285  0.3660  1.4449
 1915SOL    HW217208   4.686   0.608   1.795 -0.7495 -0.1147 -3.7853
 1916SOL     OW17209   2.803   3.099  10.198  0.2501 -0.0392 -1.0606
 1916SOL    HW117210   2.728   3.153  10.222  0.7801 -0.3146  1.2286
 1916SOL    HW217211   2.843   3.147  10.126  0.2287 -0.3107 -1.2536
 1917SOL     OW17212   2.362   2.622   3.933  0.4457  0.0641 -0.1847
 1917SOL    HW117213   2.340   2.542   3.981 -1.2054  0.4642 -0.2640
 1917SOL    HW217214   2.297   2.619   3.863  0.8435  2.4481 -0.6607
 1918SOL     OW17215   1.496   1.081   5.351  0.6287  0.0791 -0.1541
 1918SOL    HW117216   1.538   1.164   5.372  0.5713  0.1727 -0.4171
 1918SOL    HW217217   1.403   1.101   5.357  1.2309  1.9493  2.7606
 1919SOL     OW17218   4.553   3.474   2.387  0.0858 -0.4120  0.3232
 1919SOL    HW117219   4.506   3.557   2.385 -2.1490 -1.6793  0.3862
 1919SOL    HW217220   4.645   3.500   2.394 -0.6266  2.4244 -0.8061
 1920SOL     OW17221   2.843   2.341   3.039  0.2767  0.2076  0.2681
 1920SOL    HW117222   2.809   2.270   2.985  0.8156  0.0308  0.1580
 1920SOL    HW217223   2.838   2.302   3.126  0.6949 -2.9650 -1.1025
 1921SOL     OW17224   0.024   2.763   1.354 -0.0046  0.1197  0.1979
 1921SOL    HW117225   0.046   2.849   1.317 -0.2538  0.0829 -0.0370
 1921SOL    HW217226   0.024   2.701   1.281 -0.5519 -0.0640  0.3583
 1922SOL     OW17227   3.884   0.142  10.597 -0.3426 -0.9339 -0.0461
 1922SOL    HW117228   3.874   0.080  10.670 -1.8066 -0.8921 -0.2219
 1922SOL    HW217229   3.970   0.112  10.566 -0.8362 -2.5750  0.1529
 1923SOL     OW17230   0.019   2.475   6.591 -0.1484 -0.0055  0.3912
 1923SOL    HW117231   4.700   2.464   6.676  1.3179  0.5307  1.2240
 1923SOL    HW217232   0.045   2.383   6.581 -0.0095 -0.0127  0.8068
 1924SOL     OW17233   2.386   0.913   4.974 -0.5244  0.3182  0.6216
 1924SOL    HW117234   2.467   0.960   4.959 -0.1954 -0.2813  0.4969
 1924SOL    HW217235   2.354   0.894   4.886  0.4776  2.4952 -0.2069
 1925SOL     OW17236   1.705   1.821   8.906  0.2701 -0.1023 -0.2299
 1925SOL    HW117237   1.688   1.911   8.934 -1.2398  0.1131 -1.8232
 1925SOL    HW217238   1.666   1.812   8.819 -2.0477 -0.5797  0.8652
 1926SOL     OW17239   1.016   3.482  15.588 -0.2306  0.5517 -0.4877
 1926SOL    HW117240   1.046   3.572  15.577  1.1720  0.1177 -0.0792
 1926SOL    HW217241   1.027   3.445  15.500  3.0318  3.4174 -1.2892
 1927SOL     OW17242   4.640   1.502   3.488  0.3219 -0.5939 -0.1828
 1927SOL    HW117243   4.595   1.582   3.462 -1.5444 -1.1044  1.4900
 1927SOL    HW217244   4.573   1.458   3.541 -1.2219  1.6838 -0.2473
 1928SOL     OW17245   3.314   4.222  10.948 -0.2886 -0.3036  0.5072
 1928SOL    HW117246   3.294   4.307  10.908  1.5338 -1.1272 -2.1048
 1928SOL    HW217247   3.250   4.169  10.901 -0.5083 -0.2984  0.7933
 1929SOL     OW17248   4.006   0.008   7.620 -0.2441  0.9234  0.0235
 1929SOL    HW117249   4.098   0.009   7.595 -0.5138  1.7495 -0.9740
 1929SOL    HW217250   3.963   0.053   7.547  0.1435  1.6716  0.2530
 1930SOL     OW17251   3.697   2.187   5.147 -0.2598  0.3187 -0.1434
 1930SOL    HW117252   3.785   2.210   5.118  0.7031  0.0995  2.6923
 1930SOL    HW217253   3.699   2.098   5.183  1.6182  0.6862  0.6248
 1931SOL     OW17254   3.644   0.145   4.268 -0.0864 -0.2205 -0.3979
 1931SOL    HW117255   3.585   0.079   4.304  0.7926  0.0386  1.5507
 1931SOL    HW217256   3.580   0.216   4.258 -0.1463  0.1157  2.2530
 1932SOL     OW17257   0.617   1.684  12.466 -0.0144 -0.5117  0.0049
 1932SOL    HW117258   0.642   1.684  12.373 -0.2103  2.4238 -0.0652
 1932SOL    HW217259   0.708   1.687  12.496 -0.6912 -1.2111  2.1465
 1933SOL     OW17260   1.002   0.492   6.357  0.1855 -0.0908 -0.1234
 1933SOL    HW117261   0.968   0.538   6.434 -0.4552 -0.3306 -0.2627
 1933SOL    HW217262   1.020   0.562   6.294  3.3533 -1.1048 -0.3603
 1934SOL     OW17263   2.704   3.331   8.955 -0.0661 -0.1531  0.5558
 1934SOL    HW117264   2.772   3.277   8.917 -1.3654 -1.8149  0.5982
 1934SOL    HW217265   2.674   3.385   8.881  0.8764  2.0409  1.7758
 1935SOL     OW17266   2.219   1.725   3.637  0.3542  0.2176  0.7571
 1935SOL    HW117267   2.262   1.672   3.570 -1.4988 -0.3454  0.0149
 1935SOL    HW217268   2.157   1.776   3.584  0.9477  1.4951  1.2977
 1936SOL     OW17269   4.326   3.827  10.466 -0.0094 -0.2294 -0.0445
 1936SOL    HW117270   4.240   3.833  10.508 -0.3732  2.3421 -1.1421
 1936SOL    HW217271   4.385   3.800  10.536  0.9776  1.0834 -0.3677
 1937SOL     OW17272   0.546   1.140   4.511 -1.0148  0.6738 -0.3106
 1937SOL    HW117273   0.625   1.168   4.557 -2.5576  1.9549  1.5479
 1937SOL    HW217274   0.573   1.050   4.492 -4.2977 -0.5792  1.0261
 1938SOL     OW17275   3.302   0.907   2.019 -0.0024  0.0609  0.6671
 1938SOL    HW117276   3.316   0.842   2.089  2.0244  0.8442  0.9803
 1938SOL    HW217277   3.207   0.894   2.018  0.3334 -2.2758 -0.8530
 1939SOL     OW17278   0.804   2.654  14.055  0.2007 -0.0618  0.6130
 1939SOL    HW117279   0.853   2.736  14.047  0.1841 -0.2257 -1.1063
 1939SOL    HW217280   0.856   2.623  14.129  1.3470 -1.6999 -0.9000
 1940SOL     OW17281   3.289   2.196   7.970  0.1430  0.5293  0.0976
 1940SOL    HW117282   3.203   2.212   7.930  0.0257  0.1457  0.1995
 1940SOL    HW217283   3.261   2.203   8.061 -1.1202 -0.4459 -0.2083
 1941SOL     OW17284   0.876   1.454  11.001 -0.6699  0.0300 -0.1118
 1941SOL    HW117285   0.914   1.491  10.921  0.6939 -2.3027 -0.5293
 1941SOL    HW217286   0.801   1.404  10.969 -0.8090 -2.2653  3.8667
 1942SOL     OW17287   3.507   0.146  16.296  0.0565  0.1099  0.1169
 1942SOL    HW117288   3.545   0.200  16.366  0.5170 -0.2805  0.1702
 1942SOL    HW217289   3.576   0.109  16.241  0.1304 -0.7539  0.7870
 1943SOL     OW17290   4.445   3.975  12.239  0.4136  0.0578  0.1369
 1943SOL    HW117291   4.507   3.966  12.311 -1.0873 -0.0155  1.4095
 1943SOL    HW217292   4.438   3.885  12.206 -3.2438  0.4210 -0.0145
 1944SOL     OW17293   1.029   4.342   9.081 -0.1997  0.1178 -0.1656
 1944SOL    HW117294   1.098   4.288   9.043  0.4097  0.6711  0.1588
 1944SOL    HW217295   0.943   4.308   9.054 -0.7447  0.8048  0.6823
 1945SOL     OW17296   4.091   4.167  11.637 -0.2373 -0.3887  0.0417
 1945SOL    HW117297   4.126   4.163  11.548 -2.9253  1.0490 -1.1106
 1945SOL    HW217298   4.078   4.074  11.652 -6.1161  0.8214  2.7443
 1946SOL     OW17299   2.952   2.881  12.511  0.4309  0.1889  0.1478
 1946SOL    HW117300   2.868   2.865  12.555  1.2627 -4.5441  0.0857
 1946SOL    HW217301   2.980   2.959  12.558 -2.1140  1.8834 -1.1603
 1947SOL     OW17302   2.436   1.066   3.437  0.2984  0.4463  0.2992
 1947SOL    HW117303   2.465   0.979   3.411 -0.8031  0.0639  0.3256
 1947SOL    HW217304   2.341   1.053   3.440  0.0826  1.8237 -0.8950
 1948SOL     OW17305   0.687   1.838   6.535 -0.7753  0.1889  0.0778
 1948SOL    HW117306   0.690   1.803   6.446 -2.0652  1.6499 -0.5334
 1948SOL    HW217307   0.778   1.855   6.561 -0.6585 -0.2355 -0.0524
 1949SOL     OW17308   1.719   4.153  14.715  0.3239  0.5790  0.3573
 1949SOL    HW117309   1.696   4.221  14.778 -0.7231  0.6791 -0.1233
 1949SOL    HW217310   1.737   4.072  14.763 -2.1074 -2.2645 -3.5732
 1950SOL     OW17311   3.875   1.306   2.147 -0.3037 -0.1410 -0.5204
 1950SOL    HW117312   3.810   1.283   2.081  0.3894 -3.1560 -0.1132
 1950SOL    HW217313   3.942   1.339   2.087 -0.1732  1.2640  0.3945
 1951SOL     OW17314   0.600   0.409   4.053 -0.4179  0.6048 -0.3411
 1951SOL    HW117315   0.575   0.431   3.964  0.7260  1.1318 -0.5357
 1951SOL    HW217316   0.517   0.373   4.085  0.0414 -1.2738 -1.3081
 1952SOL     OW17317   0.164   1.099   6.713  0.5286 -0.4599  0.8502
 1952SOL    HW117318   0.152   1.072   6.804  0.9455 -1.4626  0.6058
 1952SOL    HW217319   0.083   1.061   6.679  0.1180  1.1506  0.0154
 1953SOL     OW17320   0.017   2.578   3.324  1.2461 -0.2577 -0.6269
 1953SOL    HW117321   0.086   2.540   3.269  1.0145 -1.4253 -0.1098
 1953SOL    HW217322   0.043   2.670   3.315 -0.2312  0.2297  0.0805
 1954SOL     OW17323   4.249   4.198   5.356  0.5777 -0.2419 -0.4124
 1954SOL    HW117324   4.269   4.169   5.267  0.2345 -0.2326 -0.4899
 1954SOL    HW217325   4.155   4.215   5.350  0.9464  2.1359  0.2627
 1955SOL     OW17326   0.173   2.083   4.073  0.1639 -0.6228 -0.1997
 1955SOL    HW117327   0.149   1.993   4.094  0.0913 -0.8882 -1.3769
 1955SOL    HW217328   0.268   2.085   4.082  0.0098  0.5780  1.1685
 1956SOL     OW17329   3.850   2.848   6.699 -0.0540  0.4353 -0.3049
 1956SOL    HW117330   3.942   2.835   6.725  0.1757 -1.9483 -2.2712
 1956SOL    HW217331   3.829   2.756   6.681  2.9712  0.0756 -2.0792
 1957SOL     OW17332   3.640   2.622   1.224  0.7693 -0.5770  0.1048
 1957SOL    HW117333   3.733   2.642   1.225  0.3577  1.5230 -3.0187
 1957SOL    HW217334   3.602   2.710   1.219  1.1305 -0.3683  1.1426
 1958SOL     OW17335   2.223   4.264  10.836  0.0731  0.3130 -0.4915
 1958SOL    HW117336   2.251   4.317  10.762  0.2770  0.7437 -0.1092
 1958SOL    HW217337   2.149   4.220  10.794  1.9539 -2.8163 -0.4352
 1959SOL     OW17338   3.133   1.103   3.653 -0.5845  0.3769 -0.3074
 1959SOL    HW117339   3.207   1.163   3.659  0.7144 -0.8980 -3.5306
 1959SOL    HW217340   3.065   1.159   3.616  0.3534  1.7057 -0.0029
 1960SOL     OW17341   2.519   2.646   8.414  0.0650  0.5604  0.2549
 1960SOL    HW117342   2.586   2.667   8.348 -0.2615 -1.4652 -0.7342
 1960SOL    HW217343   2.571   2.630   8.493 -0.7703 -4.2851 -0.1384
 1961SOL     OW17344   2.543   2.217   4.874  0.7710 -0.3577 -0.4706
 1961SOL    HW117345   2.617   2.245   4.821  0.1210  0.7792 -0.7936
 1961SOL    HW217346   2.563   2.277   4.946  1.3943 -0.3681 -0.6360
 1962SOL     OW17347   3.281   3.400   0.766  0.7475  0.3712 -0.0224
 1962SOL    HW117348   3.225   3.428   0.838  3.1510 -1.0133  2.3897
 1962SOL    HW217349   3.343   3.345   0.814 -1.1586  0.3305  2.3529
 1963SOL     OW17350   0.528   4.081   3.404 -0.7301  0.6145  0.0601
 1963SOL    HW117351   0.512   4.124   3.488 -0.8397 -1.4691  1.1015
 1963SOL    HW217352   0.612   4.039   3.426 -0.1320  2.4417  1.3228
 1964SOL     OW17353   0.787   3.988   3.451 -0.1474 -0.3014 -0.1268
 1964SOL    HW117354   0.834   3.952   3.376  0.1909  0.5580 -0.3272
 1964SOL    HW217355   0.866   4.023   3.492 -0.9789 -0.0157  1.2126
 1965SOL     OW17356   2.361   0.864   0.623 -0.1238  0.0345  0.2076
 1965SOL    HW117357   2.443   0.824   0.652 -0.6985 -1.5570 -0.3295
 1965SOL    HW217358   2.359   0.824   0.536  1.4940 -0.2694  0.3069
 1966SOL     OW17359   2.164   2.002   2.809  0.1020  0.2297  0.2422
 1966SOL    HW117360   2.211   2.012   2.726  1.3087  2.3098  1.1765
 1966SOL    HW217361   2.226   1.949   2.859 -0.8233  1.2979  2.5481
 1967SOL     OW17362   2.638   2.801   9.079  0.4597 -0.1230  0.3223
 1967SOL    HW117363   2.598   2.793   9.166  0.4163 -1.3189  0.1857
 1967SOL    HW217364   2.730   2.819   9.098  0.4030  1.1249 -0.5906
 1968SOL     OW17365   3.602   1.399  16.392 -0.2934 -0.2332  0.2157
 1968SOL    HW117366   3.672   1.446  16.346  1.0672 -1.2370  1.2487
 1968SOL    HW217367   3.606   1.316  16.344  1.2492 -0.9474  1.5625
 1969SOL     OW17368   1.142   4.491   6.191 -0.3062 -0.1445 -0.0241
 1969SOL    HW117369   1.233   4.461   6.187 -0.2825  0.0918 -1.2364
 1969SOL    HW217370   1.118   4.464   6.102 -1.1695  1.0532 -0.1523
 1970SOL     OW17371   3.602   4.655   8.884  0.3848  0.2099 -0.0709
 1970SOL    HW117372   3.619   0.023   8.870 -0.0358  0.6462  2.2251
 1970SOL    HW217373   3.692   4.623   8.889  0.1780 -0.8559 -2.9649
 1971SOL     OW17374   1.187   0.132  11.048 -0.0378 -0.1202  0.0643
 1971SOL    HW117375   1.273   0.172  11.057 -0.8525  2.0452 -1.8815
 1971SOL    HW217376   1.142   0.151  11.130  1.3051  0.2065  0.7250
 1972SOL     OW17377   3.151   3.140  13.159 -0.0498 -0.7127 -0.1546
 1972SOL    HW117378   3.150   3.046  13.177  4.4921 -0.7848 -0.3082
 1972SOL    HW217379   3.212   3.169  13.227  0.0179 -0.6772 -0.2312
 1973SOL     OW17380   1.327   3.091   4.712 -0.3111 -0.6228  0.5161
 1973SOL    HW117381   1.344   2.997   4.724 -1.9533 -0.8897  0.7370
 1973SOL    HW217382   1.380   3.131   4.780 -0.0678  1.3201 -0.8369
 1974SOL     OW17383   0.902   1.629   3.132 -0.1596  0.4212  0.6817
 1974SOL    HW117384   0.979   1.663   3.177 -0.1399  0.7157  0.4257
 1974SOL    HW217385   0.941   1.600   3.049  0.4641 -0.6315  1.3447
 1975SOL     OW17386   0.829   0.958  16.331  0.1321  0.1856  0.5288
 1975SOL    HW117387   0.832   0.979  16.424  1.6619  2.0158  0.0744
 1975SOL    HW217388   0.793   1.042  16.304 -1.4486 -0.9354 -0.8833
 1976SOL     OW17389   0.982   4.270   9.521 -0.4407 -0.3243  0.0990
 1976SOL    HW117390   1.046   4.250   9.590 -1.5872  0.0845  1.2787
 1976SOL    HW217391   1.047   4.274   9.451  0.4739  0.1745  0.9724
 1977SOL     OW17392   0.058   0.721  16.109  0.4187 -0.0060 -0.1319
 1977SOL    HW117393   4.699   0.678  16.127  0.5413  0.7148  2.2024
 1977SOL    HW217394   0.124   0.664  16.149  0.4703  0.7538  0.8694
 1978SOL     OW17395   4.289   2.616   2.205  0.5258  0.4942 -0.0538
 1978SOL    HW117396   4.241   2.544   2.163  0.3783 -0.1859  1.2752
 1978SOL    HW217397   4.308   2.573   2.288  1.6026  3.1659  1.0673
 1979SOL     OW17398   2.246   0.673   9.690 -0.9271 -0.2560  0.1883
 1979SOL    HW117399   2.258   0.600   9.629  0.7948  0.0532  0.1647
 1979SOL    HW217400   2.259   0.751   9.636 -1.1023 -0.0634  0.4244
 1980SOL     OW17401   3.427   3.998   2.362  0.5125  0.0676  0.3982
 1980SOL    HW117402   3.438   4.052   2.284 -1.4022  1.3977  1.0371
 1980SOL    HW217403   3.492   3.929   2.350  0.3820 -0.1691  1.0221
 1981SOL     OW17404   2.898   0.791  13.140  0.6842  0.5332  0.7674
 1981SOL    HW117405   2.920   0.793  13.233  1.2165 -2.6601  0.7217
 1981SOL    HW217406   2.912   0.885  13.129 -0.5679  0.5162 -0.8551
 1982SOL     OW17407   4.049   1.675   1.599  0.2893  0.2608 -0.2310
 1982SOL    HW117408   4.035   1.767   1.621  2.1571  0.2354  1.0601
 1982SOL    HW217409   4.142   1.670   1.623  0.1011  2.0945  0.9161
 1983SOL     OW17410   1.179   3.994   9.709  0.0748 -0.2577 -0.0789
 1983SOL    HW117411   1.194   4.005   9.615  1.6819  1.2810  0.3642
 1983SOL    HW217412   1.246   4.048   9.750 -1.0951  1.8406 -0.8973
 1984SOL     OW17413   2.619   1.472   0.197 -0.4963  0.4151 -0.5222
 1984SOL    HW117414   2.531   1.490   0.231 -0.4669  2.2924 -1.3966
 1984SOL    HW217415   2.656   1.424   0.270 -4.7338  1.1162  2.0841
 1985SOL     OW17416   1.415   3.511   3.104 -0.3949 -0.1943 -0.3003
 1985SOL    HW117417   1.459   3.582   3.056  0.0933  0.7024  1.4614
 1985SOL    HW217418   1.429   3.429   3.056  1.3646  0.4453 -0.8941
 1986SOL     OW17419   2.581   1.631   7.601  0.1092 -0.2072  0.3282
 1986SOL    HW117420   2.505   1.655   7.548  0.8089  2.8152  0.7353
 1986SOL    HW217421   2.572   1.685   7.680  0.2074 -1.3088  1.0952
 1987SOL     OW17422   3.484   1.678   6.521  0.3142  0.0613  0.5787
 1987SOL    HW117423   3.414   1.612   6.516  1.0963 -0.8466  1.6017
 1987SOL    HW217424   3.436   1.760   6.515  0.6552  0.2316  0.1513
 1988SOL     OW17425   4.502   1.087   1.199  0.1059 -0.6105  0.3281
 1988SOL    HW117426   4.530   1.012   1.251  0.2060 -0.8155 -0.0212
 1988SOL    HW217427   4.562   1.157   1.224  0.5197 -0.0458 -2.2195
 1989SOL     OW17428   3.307   2.371   2.474  0.6183 -0.0543  0.0236
 1989SOL    HW117429   3.326   2.391   2.565 -2.1389  1.2076  0.3149
 1989SOL    HW217430   3.271   2.458   2.456  1.4578 -0.0418 -1.6543
 1990SOL     OW17431   1.291   3.907   7.040  0.4859 -0.0243 -0.0086
 1990SOL    HW117432   1.233   3.980   7.020  0.1332 -0.1738  0.4644
 1990SOL    HW217433   1.234   3.837   7.011  3.2141 -2.0397 -0.4906
 1991SOL     OW17434   2.547   2.777   2.360 -0.2888 -0.2839 -0.1280
 1991SOL    HW117435   2.566   2.697   2.312 -0.6985 -1.0650  1.0074
 1991SOL    HW217436   2.545   2.839   2.288 -2.1580  0.0029  0.1648
 1992SOL     OW17437   2.373   0.969   8.194 -1.0087  0.3766  0.4414
 1992SOL    HW117438   2.332   0.886   8.168  0.5283 -0.2198 -0.1035
 1992SOL    HW217439   2.400   1.006   8.110  3.1877 -1.4200  1.0193
 1993SOL     OW17440   4.366   3.888  16.385 -0.2952  0.0443 -0.0037
 1993SOL    HW117441   4.419   3.826  16.334  0.3436 -0.7270  1.5823
 1993SOL    HW217442   4.427   3.951  16.424 -1.2543  0.5073  0.7409
 1994SOL     OW17443   0.127   0.171   7.040 -0.6708  0.1798  0.0832
 1994SOL    HW117444   0.078   0.097   7.004 -1.0163  0.4999 -0.1105
 1994SOL    HW217445   0.204   0.116   7.052  1.3385  3.3260  1.5539
 1995SOL     OW17446   1.079   1.564   4.428 -0.4615  0.1373 -0.0653
 1995SOL    HW117447   1.108   1.518   4.507  1.7686  1.3733 -0.1674
 1995SOL    HW217448   1.075   1.656   4.454 -0.4223  0.3839 -0.9147
 1996SOL     OW17449   1.262   2.570   8.661 -0.0210 -0.2359  0.1570
 1996SOL    HW117450   1.227   2.481   8.667  0.6655 -0.5532 -0.3899
 1996SOL    HW217451   1.356   2.551   8.659  0.4410  1.9753  1.0381
 1997SOL     OW17452   4.378   3.298  10.961 -0.6237  0.4286  0.8113
 1997SOL    HW117453   4.426   3.373  10.925 -0.0817 -0.2228  0.1638
 1997SOL    HW217454   4.399   3.290  11.053  0.4918  2.2733  0.7224
 1998SOL     OW17455   3.492   0.074  13.824 -0.7881 -0.0653  0.6502
 1998SOL    HW117456   3.449   0.012  13.882  0.7359 -1.0176  0.7752
 1998SOL    HW217457   3.416   0.119  13.787 -1.2651 -1.6161 -0.2593
 1999SOL     OW17458   0.566   1.023   0.336 -0.7478 -0.0515  0.1618
 1999SOL    HW117459   0.534   1.006   0.248  0.1284 -0.1671 -0.1326
 1999SOL    HW217460   0.619   0.943   0.338 -0.2431  0.3056  1.3774
 2000SOL     OW17461   1.021   3.996   2.057  0.8995 -0.0250  0.2389
 2000SOL    HW117462   1.099   4.011   2.004 -0.6461 -0.0603 -2.0695
 2000SOL    HW217463   1.052   3.988   2.147  1.9553  0.6391 -0.0660
 2001SOL     OW17464   4.186   4.217   1.214 -0.0283 -0.3115  0.4495
 2001SOL    HW117465   4.180   4.273   1.291  0.9231 -0.4110  0.5947
 2001SOL    HW217466   4.195   4.129   1.253  2.0011  0.2453  1.2741
 2002SOL     OW17467   2.209   4.704   4.429  0.4725 -0.6149 -0.0575
 2002SOL    HW117468   2.124   4.692   4.388 -0.7497  3.5928  1.2557
 2002SOL    HW217469   2.244   0.049   4.375  0.7888  0.1798  1.1618
 2003SOL     OW17470   1.639   0.537   3.340 -0.0412 -0.4749  0.1201
 2003SOL    HW117471   1.608   0.487   3.415  1.5101  0.0512  1.1022
 2003SOL    HW217472   1.727   0.501   3.329 -0.8700 -2.7952  1.1616
 2004SOL     OW17473   1.921   0.586  10.316  0.1737 -0.4812  0.0530
 2004SOL    HW117474   2.001   0.587  10.263 -0.2067 -1.8353 -0.5557
 2004SOL    HW217475   1.869   0.522  10.267  0.9457 -3.0018  2.4763
 2005SOL     OW17476   3.871   2.745   1.230  0.5243  0.7067 -0.6119
 2005SOL    HW117477   3.951   2.741   1.177  0.7246  1.1864 -0.3513
 2005SOL    HW217478   3.897   2.818   1.286 -0.5155 -0.8138  1.8407
 2006SOL     OW17479   4.548   2.560   5.707 -0.0995  0.5667 -0.0488
 2006SOL    HW117480   4.643   2.572   5.708  0.1037 -1.1785  1.5721
 2006SOL    HW217481   4.524   2.600   5.790 -2.0155 -0.2659 -0.1980
 2007SOL     OW17482   1.683   0.013  11.736  0.1614  0.8548  0.0168
 2007SOL    HW117483   1.752   0.063  11.691 -0.5691  1.3330 -0.5730
 2007SOL    HW217484   1.617   0.079  11.757 -2.0115 -1.1998 -0.3788
 2008SOL     OW17485   3.946   3.843   2.719 -0.1393 -0.6194  0.4155
 2008SOL    HW117486   3.912   3.832   2.631 -0.0170 -1.9018  0.5312
 2008SOL    HW217487   3.969   3.754   2.744 -1.1630 -1.1927 -0.7083
 2009SOL     OW17488   0.032   4.403   5.816 -0.2371  0.3913 -0.2379
 2009SOL    HW117489   0.065   4.343   5.883 -1.0354 -0.6047 -0.7405
 2009SOL    HW217490   0.022   4.341   5.745  0.9008 -0.5102  0.3893
 2010SOL     OW17491   3.155   3.577   1.259  0.3834 -0.2982  0.2045
 2010SOL    HW117492   3.177   3.488   1.287  2.7424  0.6534  1.4373
 2010SOL    HW217493   3.175   3.627   1.339 -2.1728 -2.5880  2.2700
 2011SOL     OW17494   4.691   2.391  13.538  0.3959 -0.6037  0.3288
 2011SOL    HW117495   4.695   2.471  13.485  2.0720 -0.2581  1.0058
 2011SOL    HW217496   4.644   2.333  13.477 -0.3628  1.0614 -0.6876
 2012SOL     OW17497   3.850   3.070   6.504 -0.7257 -0.4580 -0.0804
 2012SOL    HW117498   3.853   2.986   6.549  2.1175 -1.4311 -2.0879
 2012SOL    HW217499   3.811   3.043   6.420 -1.6438 -1.2128  0.5816
 2013SOL     OW17500   0.848   3.434  10.599  0.0492 -0.4099 -0.0193
 2013SOL    HW117501   0.847   3.448  10.694  3.8350  3.4259 -0.5481
 2013SOL    HW217502   0.780   3.367  10.586  0.5298 -0.8116 -0.4693
 2014SOL     OW17503   1.508   4.544   5.355 -0.2925  0.5267 -0.3887
 2014SOL    HW117504   1.436   4.548   5.293 -0.5370  0.7909 -0.0885
 2014SOL    HW217505   1.588   4.540   5.302 -1.2529 -0.0172 -1.7871
 2015SOL     OW17506   1.835   1.134   2.523 -0.3194 -0.3422 -0.0065
 2015SOL    HW117507   1.746   1.168   2.529 -0.0274  0.6696 -1.4756
 2015SOL    HW217508   1.872   1.158   2.608  0.8322 -1.2870 -0.2409
 2016SOL     OW17509   2.024   1.911   5.427  0.4176 -0.1042 -0.4002
 2016SOL    HW117510   2.028   2.006   5.417  0.3758 -0.0836 -0.2192
 2016SOL    HW217511   1.930   1.893   5.424  0.7501 -1.7144 -1.0939
 2017SOL     OW17512   3.674   4.018  13.523  0.2403  0.0556 -0.6367
 2017SOL    HW117513   3.664   3.951  13.456 -0.8059 -1.3772  0.9578
 2017SOL    HW217514   3.597   4.075  13.515  1.0677  1.1968 -0.4561
 2018SOL     OW17515   4.369   2.385   2.440  0.2775  0.2683 -0.5906
 2018SOL    HW117516   4.324   2.314   2.487  1.3349 -0.0768 -0.0949
 2018SOL    HW217517   4.425   2.342   2.375 -0.2924  1.2445 -1.7258
 2019SOL     OW17518   1.309   3.357   8.667 -0.0021 -0.1867  0.0588
 2019SOL    HW117519   1.224   3.316   8.648  0.0472 -0.3170  0.1140
 2019SOL    HW217520   1.307   3.423   8.598  0.6917  0.9216  1.1064
 2020SOL     OW17521   1.470   0.510   5.858 -0.0893  0.1284 -0.1473
 2020SOL    HW117522   1.542   0.514   5.795 -0.0377  1.2933 -0.0277
 2020SOL    HW217523   1.503   0.568   5.927  0.2295 -1.4581  1.0392
 2021SOL     OW17524   3.070   2.184  12.293  0.1409 -0.6263 -0.0153
 2021SOL    HW117525   3.099   2.111  12.347 -0.1635 -0.1661  0.7628
 2021SOL    HW217526   3.130   2.256  12.313 -0.9283  0.0389  0.8180
 2022SOL     OW17527   1.590   4.434   0.170 -0.0311  0.6348  0.3613
 2022SOL    HW117528   1.631   4.487   0.101  0.6740  0.9927  1.0637
 2022SOL    HW217529   1.595   4.357   0.113 -2.3270 -0.3136  1.4680
 2023SOL     OW17530   2.116   3.357  15.987 -0.0936  0.7336  0.1638
 2023SOL    HW117531   2.198   3.396  15.957 -0.7697  0.9887 -1.2969
 2023SOL    HW217532   2.095   3.407  16.066 -1.4464 -0.5940  0.6632
 2024SOL     OW17533   2.500   3.540   6.334 -0.0967  0.4554 -0.1709
 2024SOL    HW117534   2.490   3.505   6.245 -0.6881  0.8290 -0.2437
 2024SOL    HW217535   2.553   3.618   6.317 -0.1191  1.0030  2.3329
 2025SOL     OW17536   3.359   0.971   8.217 -0.1715 -0.2078 -0.4948
 2025SOL    HW117537   3.313   0.957   8.300 -0.5929 -1.0628 -0.8687
 2025SOL    HW217538   3.405   1.050   8.245 -0.4563 -0.6253  1.1154
 2026SOL     OW17539   2.917   2.980  16.347 -0.1632 -0.1746  0.3316
 2026SOL    HW117540   3.009   3.008  16.346 -0.3895  0.4005 -2.6338
 2026SOL    HW217541   2.915   2.896  16.301 -0.3297  0.7451 -1.3462
 2027SOL     OW17542   2.407   4.378   6.353 -0.6518  0.1282 -0.0176
 2027SOL    HW117543   2.386   4.435   6.427 -1.0120 -1.8464  1.4181
 2027SOL    HW217544   2.348   4.302   6.362 -0.8291  0.4986  2.0065
 2028SOL     OW17545   2.416   1.426  14.619  0.7120 -0.2408 -0.6346
 2028SOL    HW117546   2.411   1.332  14.604 -2.5338  0.1307 -1.8902
 2028SOL    HW217547   2.352   1.427  14.689  1.7865 -0.3285  0.3463
 2029SOL     OW17548   4.196   0.254  11.793  0.5034  0.2174 -0.3291
 2029SOL    HW117549   4.171   0.322  11.731 -1.8154 -1.3785 -1.1479
 2029SOL    HW217550   4.264   0.208  11.744 -1.0267 -1.5654 -0.7844
 2030SOL     OW17551   2.990   0.802   6.463  0.0895  0.6352  0.0704
 2030SOL    HW117552   2.989   0.795   6.558 -0.1515  0.0602  0.0298
 2030SOL    HW217553   2.956   0.715   6.441  1.0139  0.1307  0.6306
 2031SOL     OW17554   3.924   3.691   8.428 -0.4775 -0.0837 -0.0400
 2031SOL    HW117555   3.940   3.725   8.517  0.3994 -2.1362  0.6078
 2031SOL    HW217556   4.009   3.654   8.404  0.2820  0.7053  1.4058
 2032SOL     OW17557   3.864   0.035   9.985 -0.1598  0.3233  0.0069
 2032SOL    HW117558   3.952   0.075   9.987 -0.1323  0.2498  0.2755
 2032SOL    HW217559   3.831   0.079   9.907 -1.0778  1.1389  0.8507
 2033SOL     OW17560   4.609   2.481   3.881  0.3024 -0.4365  0.0785
 2033SOL    HW117561   4.677   2.458   3.945  0.4940 -2.1505 -0.7255
 2033SOL    HW217562   4.646   2.558   3.837 -0.8287  0.0405 -0.0133
 2034SOL     OW17563   0.127   2.285   3.901 -0.5212  0.2941 -0.2202
 2034SOL    HW117564   0.152   2.355   3.962  1.7670 -0.5474 -0.1989
 2034SOL    HW217565   0.112   2.205   3.952 -0.1107 -0.8193 -1.8574
 2035SOL     OW17566   2.887   3.273   7.917  0.0585  0.0756  0.6022
 2035SOL    HW117567   2.937   3.349   7.946 -0.6488  0.5125  0.6764
 2035SOL    HW217568   2.954   3.215   7.883  1.1988  1.6156  0.2251
 2036SOL     OW17569   1.669   3.646   8.758 -0.2483 -0.4655 -0.0807
 2036SOL    HW117570   1.621   3.705   8.816  1.0500  0.6537 -0.1288
 2036SOL    HW217571   1.706   3.587   8.823  0.2187  0.2644  0.3132
 2037SOL     OW17572   3.724   3.254  12.392 -0.9569  0.0373  0.1921
 2037SOL    HW117573   3.685   3.169  12.416 -1.5684 -0.5303 -2.7642
 2037SOL    HW217574   3.651   3.314  12.378 -1.5204 -0.5442  0.6250
 2038SOL     OW17575   2.135   3.648  13.659 -0.2083 -0.0320 -0.3121
 2038SOL    HW117576   2.150   3.561  13.620 -0.2700 -0.2668  0.1875
 2038SOL    HW217577   2.197   3.692  13.602 -1.7647 -0.0297 -2.0163
 2039SOL     OW17578   3.818   2.143   4.081  0.2231 -0.7139  0.1286
 2039SOL    HW117579   3.864   2.223   4.109 -4.1768  0.9567  2.5793
 2039SOL    HW217580   3.732   2.181   4.065  0.4670 -1.1608 -2.2629
 2040SOL     OW17581   2.089   1.386  14.595 -0.2732 -0.1642 -0.2500
 2040SOL    HW117582   2.129   1.419  14.675 -2.8943  1.3281  0.4132
 2040SOL    HW217583   2.155   1.320  14.573  1.1013  1.2527 -0.3726
 2041SOL     OW17584   0.592   2.734   3.799 -0.3729 -0.1531  0.1794
 2041SOL    HW117585   0.592   2.658   3.742  1.0447  0.7228 -0.9772
 2041SOL    HW217586   0.595   2.695   3.886 -3.2422 -0.4650  0.1359
 2042SOL     OW17587   0.001   2.383   8.400 -0.3270 -0.1512  0.4749
 2042SOL    HW117588   0.078   2.326   8.405  0.8314  1.6226  2.8994
 2042SOL    HW217589   0.012   2.434   8.481  1.3882  0.1537  0.0509
 2043SOL     OW17590   1.124   2.157  12.832 -0.1517  0.3884 -0.2442
 2043SOL    HW117591   1.193   2.222  12.845  0.6629 -0.7135  0.9662
 2043SOL    HW217592   1.069   2.179  12.908 -0.2481  0.5090 -0.3480
 2044SOL     OW17593   2.606   2.543  14.162  0.2638 -0.3986 -0.7661
 2044SOL    HW117594   2.555   2.612  14.120 -0.4271 -0.3404  0.1457
 2044SOL    HW217595   2.597   2.471  14.100  0.7360 -0.8621 -0.2960
 2045SOL     OW17596   1.336   2.982   6.092  0.2244  0.1120 -0.0250
 2045SOL    HW117597   1.400   2.965   6.023  1.2607 -0.5689  1.0802
 2045SOL    HW217598   1.260   2.937   6.055  1.0529 -1.8147  0.5737
 2046SOL     OW17599   1.166   2.152  14.114 -0.1471 -0.0425 -0.4712
 2046SOL    HW117600   1.097   2.112  14.061 -1.7268  0.8074  0.9545
 2046SOL    HW217601   1.131   2.239  14.132  3.5484  1.2282  0.4885
 2047SOL     OW17602   1.083   2.344   2.368  0.0145 -0.0313  0.2118
 2047SOL    HW117603   1.158   2.285   2.360  0.9585  1.1496  0.3130
 2047SOL    HW217604   1.020   2.292   2.417  0.4047 -0.1147  0.6245
 2048SOL     OW17605   2.395   2.039  14.076 -0.8244  0.1897  0.7783
 2048SOL    HW117606   2.372   2.031  13.983  2.1742  2.7519 -0.2131
 2048SOL    HW217607   2.489   2.027  14.087 -1.1427  0.4298  3.7087
 2049SOL     OW17608   1.710   2.857   7.781 -0.5231  0.2094 -0.9992
 2049SOL    HW117609   1.645   2.800   7.739 -1.7110 -1.2262  2.7181
 2049SOL    HW217610   1.674   2.945   7.767  2.8152  2.0263  2.0200
 2050SOL     OW17611   0.256   1.701   5.087  0.3288 -0.0088  0.2024
 2050SOL    HW117612   0.301   1.674   5.006  0.7308  0.4695  0.2615
 2050SOL    HW217613   0.220   1.785   5.057 -0.5179 -0.0314  1.1655
 2051SOL     OW17614   2.285   1.365  16.558  0.1453  0.7778  0.2416
 2051SOL    HW117615   2.229   1.343  16.633 -0.2285  0.5602 -0.0984
 2051SOL    HW217616   2.364   1.329  16.598  0.7418  0.6477 -1.0283
 2052SOL     OW17617   3.301   4.567   5.997 -0.2090 -0.2529  0.0399
 2052SOL    HW117618   3.322   4.565   6.091  1.8365 -1.8807 -0.4781
 2052SOL    HW217619   3.316   4.661   5.984  0.9085 -0.3430  0.6764
 2053SOL     OW17620   2.036   1.008  14.377 -0.3694  0.1131 -0.3153
 2053SOL    HW117621   2.096   0.961  14.319 -1.3452 -0.4329 -0.8703
 2053SOL    HW217622   2.103   1.054  14.428 -1.5403 -0.0204  1.3356
 2054SOL     OW17623   0.466   2.966   5.359  0.4588  0.1432  0.2198
 2054SOL    HW117624   0.464   2.943   5.452  1.2344 -1.6760 -0.2251
 2054SOL    HW217625   0.552   2.926   5.343  1.9713  2.4644  2.5251
 2055SOL     OW17626   3.800   2.087   3.149 -0.6084 -0.8594  0.4330
 2055SOL    HW117627   3.795   2.029   3.225  0.8723 -0.5569  0.7603
 2055SOL    HW217628   3.894   2.090   3.132 -1.0011  0.2005 -1.5409
 2056SOL     OW17629   3.778   2.123  11.945  0.1596  0.1980 -0.2596
 2056SOL    HW117630   3.844   2.093  11.883 -0.8287 -0.8616 -0.8012
 2056SOL    HW217631   3.744   2.035  11.963  1.1815  0.0177  0.7825
 2057SOL     OW17632   1.169   1.887  12.986 -0.0600  0.5502  1.3184
 2057SOL    HW117633   1.079   1.862  12.968  0.5332  1.9836 -3.7157
 2057SOL    HW217634   1.186   1.951  12.917 -0.1154 -0.0580  0.7468
 2058SOL     OW17635   1.195   1.366   7.536 -0.1513 -0.2171 -0.3075
 2058SOL    HW117636   1.146   1.316   7.601  0.5568 -0.3147  0.1524
 2058SOL    HW217637   1.284   1.330   7.536 -0.2710 -0.5294 -1.5350
 2059SOL     OW17638   2.850   3.517   7.487  1.0513  0.1482  1.0866
 2059SOL    HW117639   2.768   3.505   7.535  0.8037 -1.4924  0.2618
 2059SOL    HW217640   2.860   3.444   7.425 -2.0020  1.3977 -0.8755
 2060SOL     OW17641   0.354   3.507   4.341  0.4064  0.3094 -0.2884
 2060SOL    HW117642   0.305   3.502   4.259 -1.7980  0.8744  0.9889
 2060SOL    HW217643   0.351   3.598   4.370  0.8416 -0.2101  1.4128
 2061SOL     OW17644   0.143   4.306   3.889 -0.2877  0.1953 -0.1673
 2061SOL    HW117645   0.151   4.228   3.943  0.6642 -0.1365 -0.7920
 2061SOL    HW217646   0.108   4.272   3.806 -0.7152 -2.0211  0.9331
 2062SOL     OW17647   2.220   2.896   6.975  0.5803  0.0713 -0.2379
 2062SOL    HW117648   2.255   2.871   7.060  1.9809 -0.8720 -1.1018
 2062SOL    HW217649   2.261   2.982   6.966 -0.3783  0.5451 -0.0830
 2063SOL     OW17650   3.245   1.673   7.612 -1.0073 -0.2240 -0.2714
 2063SOL    HW117651   3.257   1.730   7.688 -0.8876 -1.2354  0.4751
 2063SOL    HW217652   3.246   1.588   7.656 -1.7195  0.5148  1.1857
 2064SOL     OW17653   2.618   4.384   2.591  0.3860 -0.4587 -0.0987
 2064SOL    HW117654   2.688   4.325   2.620  1.0538 -0.0162 -0.7852
 2064SOL    HW217655   2.544   4.327   2.608  1.5392 -1.5736  1.2626
 2065SOL     OW17656   1.520   4.485   9.036 -0.0746  0.0013 -0.2775
 2065SOL    HW117657   1.478   4.567   9.011  0.5842  0.5711  0.5103
 2065SOL    HW217658   1.439   4.445   9.069 -0.1018 -0.2286 -0.6173
 2066SOL     OW17659   1.429   2.997   2.354 -0.5954  0.1938  0.7672
 2066SOL    HW117660   1.385   3.029   2.433 -2.1843  0.4167 -0.2123
 2066SOL    HW217661   1.516   2.969   2.384 -0.3458 -0.2603 -0.3768
 2067SOL     OW17662   3.741   3.987  16.062 -0.5948  0.0643  0.2171
 2067SOL    HW117663   3.799   3.978  16.138 -1.3740  0.4801  0.8548
 2067SOL    HW217664   3.727   4.079  16.042 -0.4944  0.0075 -0.1299
 2068SOL     OW17665   3.720   4.344  10.060  0.0183  0.3072 -0.2232
 2068SOL    HW117666   3.684   4.374   9.976  3.5267  0.3514 -1.7018
 2068SOL    HW217667   3.766   4.265  10.032 -0.0450  0.4196 -0.6465
 2069SOL     OW17668   2.328   1.411   0.465 -0.3407 -0.0372  0.0380
 2069SOL    HW117669   2.352   1.490   0.416 -2.3066  1.2536  1.1402
 2069SOL    HW217670   2.315   1.449   0.552  0.5386  3.6662 -1.4337
 2070SOL     OW17671   1.227   3.444   1.633 -0.2014 -0.2105 -0.4019
 2070SOL    HW117672   1.272   3.471   1.713  1.0055 -0.9703 -0.8132
 2070SOL    HW217673   1.271   3.368   1.594 -0.3076 -0.9114  0.8604
 2071SOL     OW17674   2.164   2.123   6.824 -0.0560 -0.2971  0.2177
 2071SOL    HW117675   2.193   2.214   6.826 -0.5681 -0.1762  2.4383
 2071SOL    HW217676   2.075   2.120   6.861 -1.1482  0.2309 -2.3183
 2072SOL     OW17677   0.064   1.287   2.863 -0.0718 -0.0457 -0.3327
 2072SOL    HW117678   0.052   1.333   2.946  0.9625 -0.6947  0.1718
 2072SOL    HW217679   0.134   1.228   2.890 -0.3130  1.1004  2.8051
 2073SOL     OW17680   4.399   0.521   8.087 -0.8248 -0.1530 -0.3628
 2073SOL    HW117681   4.323   0.539   8.142  1.8998  3.2997  2.2905
 2073SOL    HW217682   4.428   0.447   8.141  0.2360 -0.6419 -1.5901
 2074SOL     OW17683   3.550   0.883   6.458 -0.3050 -0.0291  0.2855
 2074SOL    HW117684   3.480   0.912   6.517 -1.0308  1.1879 -1.1667
 2074SOL    HW217685   3.595   0.828   6.522 -1.1023 -1.1615 -0.1184
 2075SOL     OW17686   4.009   4.669   7.889  0.1873 -0.1016  0.4600
 2075SOL    HW117687   3.915   4.687   7.882  0.0013 -0.3732  2.0621
 2075SOL    HW217688   4.027   4.700   7.800  0.5072 -2.3025 -0.2234
 2076SOL     OW17689   3.703   1.158  14.899 -0.2474 -0.0531 -0.1999
 2076SOL    HW117690   3.712   1.200  14.984  1.7904  0.4341 -0.6648
 2076SOL    HW217691   3.644   1.083  14.912 -1.6240  0.6698 -2.2523
 2077SOL     OW17692   1.116   2.251  13.617  0.1713 -0.4970  0.0904
 2077SOL    HW117693   1.065   2.320  13.575  2.3283  2.0853  1.7526
 2077SOL    HW217694   1.066   2.170  13.605 -2.0177  0.7265  0.7571
 2078SOL     OW17695   0.054   3.327   2.066 -0.3867  0.1873  0.4300
 2078SOL    HW117696   0.056   3.369   2.152  1.2126 -0.0603  0.5167
 2078SOL    HW217697   0.061   3.406   2.012  2.3882 -0.0225  0.4689
 2079SOL     OW17698   3.069   1.868  12.335  0.1679 -0.2980  0.0881
 2079SOL    HW117699   3.145   1.904  12.379 -0.4189 -1.7037  2.2526
 2079SOL    HW217700   3.021   1.831  12.409 -0.1019 -1.0459 -0.4512
 2080SOL     OW17701   0.359   3.791   3.748 -0.4097  0.5186  0.0709
 2080SOL    HW117702   0.387   3.840   3.826  2.0733  2.0202 -1.7785
 2080SOL    HW217703   0.429   3.800   3.684 -1.0476  0.3249 -0.6449
 2081SOL     OW17704   0.711   0.501   5.756  0.1061  0.1189 -0.1979
 2081SOL    HW117705   0.686   0.441   5.685 -0.9801 -2.1755  2.1594
 2081SOL    HW217706   0.728   0.441   5.828 -1.4524 -1.1383 -0.8693
 2082SOL     OW17707   4.594   3.576   6.251 -0.0693 -0.0104 -0.2433
 2082SOL    HW117708   4.507   3.565   6.289  0.1558 -0.2428  0.1965
 2082SOL    HW217709   4.609   3.492   6.208 -1.5218  0.6414 -2.0277
 2083SOL     OW17710   2.139   4.329  16.593 -0.2289  0.1518  0.4655
 2083SOL    HW117711   2.202   4.270  16.552 -1.0908  0.1417 -0.8133
 2083SOL    HW217712   2.188   4.410  16.577 -0.4974  0.0475 -0.8218
 2084SOL     OW17713   0.540   4.335   2.714  0.0692  0.2749 -0.1628
 2084SOL    HW117714   0.581   4.269   2.659  0.2554 -0.5750  0.9801
 2084SOL    HW217715   0.584   4.326   2.799 -1.4841 -1.6434  0.4298
 2085SOL     OW17716   1.878   4.497  12.647 -0.0591  0.0286 -0.4679
 2085SOL    HW117717   1.820   4.425  12.622  0.1135  0.4638 -2.0757
 2085SOL    HW217718   1.944   4.460  12.706 -0.8558 -0.6758 -0.0060
 2086SOL     OW17719   2.628   0.969   8.916 -0.0253 -0.1235 -0.4111
 2086SOL    HW117720   2.639   0.874   8.919  3.7442  0.3058 -0.9906
 2086SOL    HW217721   2.715   0.997   8.888 -0.0147  2.0280  1.7853
 2087SOL     OW17722   2.532   3.430   4.289  0.2533 -0.0438  0.2088
 2087SOL    HW117723   2.611   3.462   4.332  0.1572  0.7382 -0.1839
 2087SOL    HW217724   2.485   3.395   4.365 -0.5237  0.5840  0.0240
 2088SOL     OW17725   0.913   4.263   6.279  0.4215  0.3330 -0.1613
 2088SOL    HW117726   0.988   4.314   6.310  1.3790 -1.6312  0.7670
 2088SOL    HW217727   0.844   4.323   6.304  1.0033  0.3548  1.3662
 2089SOL     OW17728   1.064   3.601   4.595 -0.3821  0.1152 -0.0325
 2089SOL    HW117729   1.067   3.678   4.537  0.8109  0.2926  0.2516
 2089SOL    HW217730   1.104   3.634   4.675  2.1346 -3.9264  0.3720
 2090SOL     OW17731   3.739   3.030   0.552  0.0616  0.2338 -0.0501
 2090SOL    HW117732   3.696   2.951   0.520 -0.6313  1.0201 -1.0478
 2090SOL    HW217733   3.812   2.998   0.605  0.1069 -0.2839 -0.4164
 2091SOL     OW17734   0.848   1.253   1.324  0.3681 -0.1872  0.4673
 2091SOL    HW117735   0.820   1.228   1.236 -0.0704 -1.6948  1.0377
 2091SOL    HW217736   0.942   1.257   1.305  0.3686  1.8345  0.8108
 2092SOL     OW17737   0.515   1.128   6.495  0.0511 -0.1294 -1.0308
 2092SOL    HW117738   0.448   1.138   6.427 -1.8348 -2.1111  0.5088
 2092SOL    HW217739   0.475   1.180   6.565  0.7598 -0.5186 -0.3376
 2093SOL     OW17740   3.586   3.624  10.025  0.3868 -0.3666  0.0084
 2093SOL    HW117741   3.564   3.713  10.055 -0.5596 -0.5020 -0.2832
 2093SOL    HW217742   3.518   3.604   9.961  0.9851 -1.0216 -0.4251
 2094SOL     OW17743   3.415   0.050   5.548 -0.5344  0.6643  0.1366
 2094SOL    HW117744   3.335   0.063   5.599 -0.8089  1.6134 -0.5330
 2094SOL    HW217745   3.391   0.091   5.465  0.0088  2.5964  0.9340
 2095SOL     OW17746   1.867   1.649   0.433 -0.3933 -0.0719  0.1273
 2095SOL    HW117747   1.861   1.562   0.473  1.9924 -0.6654 -0.7731
 2095SOL    HW217748   1.900   1.616   0.349 -0.0239  0.5385  0.0318
 2096SOL     OW17749   1.832   1.184   8.117  0.6392 -0.1849  0.3108
 2096SOL    HW117750   1.815   1.102   8.163 -1.3607  0.2381  0.3254
 2096SOL    HW217751   1.922   1.213   8.125  0.5937 -0.2910  1.1565
 2097SOL     OW17752   3.142   0.095   8.590  0.0791  0.0211 -0.3220
 2097SOL    HW117753   3.116   0.047   8.668  0.5578 -1.4170 -1.0434
 2097SOL    HW217754   3.117   0.187   8.601  1.8159  0.5958 -0.9705
 2098SOL     OW17755   1.822   2.286  13.716 -0.0487  0.4611  0.7828
 2098SOL    HW117756   1.794   2.342  13.643  0.9102  0.9825  0.8180
 2098SOL    HW217757   1.894   2.333  13.757 -1.2934  3.4392 -0.4889
 2099SOL     OW17758   4.164   2.715   6.532 -0.5506  0.3452  0.4140
 2099SOL    HW117759   4.126   2.628   6.545 -0.8949  0.6614  1.5609
 2099SOL    HW217760   4.151   2.745   6.622 -2.1300  0.9713 -0.0241
 2100SOL     OW17761   1.016   3.387   5.507  0.4368  0.0859  0.2234
 2100SOL    HW117762   1.010   3.480   5.530  1.5394  0.5174 -1.2718
 2100SOL    HW217763   0.922   3.367   5.501  0.1189  0.5720  3.3751
 2101SOL     OW17764   0.399   3.586  16.571 -0.0165  1.1059  0.0151
 2101SOL    HW117765   0.494   3.596  16.578  0.1354  0.4303 -1.0156
 2101SOL    HW217766   0.384   3.492  16.580 -1.2490  1.3025 -0.0068
 2102SOL     OW17767   2.378   3.434   6.828  0.3259 -0.2874  0.3176
 2102SOL    HW117768   2.363   3.384   6.748  2.0962  0.7052 -0.6354
 2102SOL    HW217769   2.287   3.461   6.843  0.0399 -0.9467 -0.2285
 2103SOL     OW17770   1.291   1.179   8.955  0.4668  0.2593  0.1349
 2103SOL    HW117771   1.243   1.228   8.888 -1.2645 -2.0687 -0.3267
 2103SOL    HW217772   1.220   1.147   9.011  0.3887  1.7582  0.8696
 2104SOL     OW17773   1.710   2.348   7.348 -0.3122  0.0558 -0.1762
 2104SOL    HW117774   1.628   2.359   7.396 -0.9722  2.0173 -1.7691
 2104SOL    HW217775   1.747   2.435   7.360  0.2772 -0.3509  0.9871
 2105SOL     OW17776   3.404   2.399   4.074 -0.2997  0.4077 -0.4373
 2105SOL    HW117777   3.357   2.420   3.993 -2.3794 -0.9293  0.4357
 2105SOL    HW217778   3.408   2.482   4.120  1.0190  0.1479 -0.0730
 2106SOL     OW17779   2.978   0.913   5.661 -0.4260  0.5812 -0.1112
 2106SOL    HW117780   3.057   0.908   5.607  0.2207  0.1815  0.8848
 2106SOL    HW217781   2.931   0.833   5.639  0.9535  0.0555 -1.1235
 2107SOL     OW17782   0.288   1.750   2.458 -0.3862  0.3511  0.3749
 2107SOL    HW117783   0.307   1.676   2.516 -1.4737 -0.3004 -0.0913
 2107SOL    HW217784   0.240   1.811   2.514  0.5877  3.0534 -1.7964
 2108SOL     OW17785   1.605   1.944   3.976  0.0635 -0.0519  0.5715
 2108SOL    HW117786   1.585   1.931   4.069  2.1535  0.6529  1.1133
 2108SOL    HW217787   1.690   1.903   3.961 -0.8684 -1.9836  0.7086
 2109SOL     OW17788   0.783   0.090   4.389 -0.1368  0.8971 -0.0372
 2109SOL    HW117789   0.786   0.153   4.461  1.6248  0.8284 -0.0584
 2109SOL    HW217790   0.829   0.011   4.419 -1.5590  0.2111  0.3669
 2110SOL     OW17791   0.408   4.396  12.613 -0.6576 -0.0204 -0.2913
 2110SOL    HW117792   0.486   4.369  12.662 -0.6352 -1.1638 -0.9515
 2110SOL    HW217793   0.442   4.485  12.605 -1.1201  0.0129 -1.9098
 2111SOL     OW17794   3.605   4.058   2.684 -0.4065  0.3801 -0.3685
 2111SOL    HW117795   3.591   4.031   2.775  2.4959 -1.7410 -0.5229
 2111SOL    HW217796   3.574   3.983   2.633 -0.7197 -0.5720  1.2379
 2112SOL     OW17797   2.257   2.973   3.236  0.0813  0.3410 -0.1645
 2112SOL    HW117798   2.217   2.893   3.202 -2.9220  2.0403 -0.6019
 2112SOL    HW217799   2.326   2.937   3.291 -1.2393  1.6029  2.3249
 2113SOL     OW17800   4.617   3.285  12.656 -0.1281  0.4580  1.2059
 2113SOL    HW117801   4.560   3.232  12.711 -0.8739 -1.2422 -1.1998
 2113SOL    HW217802   4.676   3.216  12.626 -1.4272 -0.4442  0.7371
 2114SOL     OW17803   4.634   2.075   0.114  0.4866 -0.4435  0.0174
 2114SOL    HW117804   4.635   2.027   0.032  0.9235  0.3791 -0.4554
 2114SOL    HW217805   4.573   2.146   0.094  0.9536 -0.1788 -0.4579
 2115SOL     OW17806   4.347   2.857   1.053  0.1944  0.0752  0.1639
 2115SOL    HW117807   4.302   2.940   1.064  0.7413  0.2792  0.8359
 2115SOL    HW217808   4.280   2.803   1.009  0.0701  0.7185 -0.4298
 2116SOL     OW17809   4.075   3.342   3.593 -1.0188 -1.0840  0.0455
 2116SOL    HW117810   3.983   3.317   3.606 -0.8780 -0.8978  1.3942
 2116SOL    HW217811   4.082   3.328   3.499  3.5328 -1.3958  0.4714
 2117SOL     OW17812   0.735   2.876   7.683 -0.4013 -0.4889  0.5724
 2117SOL    HW117813   0.639   2.882   7.677 -0.0963  3.2765 -0.5224
 2117SOL    HW217814   0.728   2.851   7.775  1.1992  0.0061  0.8224
 2118SOL     OW17815   4.072   3.980   6.323 -0.9167 -0.6030  0.0876
 2118SOL    HW117816   4.054   4.068   6.290  2.2183 -0.6094 -1.6492
 2118SOL    HW217817   4.094   3.996   6.415 -0.0279 -0.2480 -0.1886
 2119SOL     OW17818   3.257   2.088  17.531  0.7023 -0.3565 -0.2498
 2119SOL    HW117819   3.254   2.026  17.458 -0.2588 -1.1824  0.4993
 2119SOL    HW217820   3.351   2.107  17.530  0.6813 -0.2636 -0.9475
 2120SOL     OW17821   1.695   2.928  14.663  0.2411  0.1866  0.0638
 2120SOL    HW117822   1.740   2.876  14.597 -0.6999  1.7777 -1.8075
 2120SOL    HW217823   1.680   3.008  14.612 -0.4406  1.3060  1.9923
 2121SOL     OW17824   4.612   2.348   6.191  0.2533 -0.0257 -0.6759
 2121SOL    HW117825   4.681   2.299   6.148  0.2675 -1.5314  1.0343
 2121SOL    HW217826   4.565   2.268   6.214  0.0936  0.1679 -0.3203
 2122SOL     OW17827   4.082   2.659   6.245 -0.5829 -0.1450 -0.4714
 2122SOL    HW117828   4.144   2.632   6.176  0.6820  0.8020  0.2924
 2122SOL    HW217829   4.136   2.658   6.324 -0.5774  1.6690 -0.4560
 2123SOL     OW17830   3.727   2.554  11.736 -0.5206 -0.1328  0.7256
 2123SOL    HW117831   3.786   2.491  11.695 -1.0786  0.3444 -0.7937
 2123SOL    HW217832   3.790   2.585  11.801  1.4545  1.4638 -1.9390
 2124SOL     OW17833   3.039   0.344   2.010 -0.2941  0.1988  0.3982
 2124SOL    HW117834   3.070   0.340   1.919 -2.9365  1.6612 -0.5900
 2124SOL    HW217835   2.978   0.270   2.007  2.1451 -1.8086 -0.2170
 2125SOL     OW17836   1.535   1.747   7.518 -0.2161  0.3746  0.0654
 2125SOL    HW117837   1.564   1.703   7.438  0.7309  1.3276 -0.1040
 2125SOL    HW217838   1.510   1.831   7.481 -0.0783 -0.4541 -1.8902
 2126SOL     OW17839   2.068   4.337  14.359  0.4126 -0.5782 -0.1174
 2126SOL    HW117840   2.027   4.302  14.438 -2.6872  0.1789 -1.3634
 2126SOL    HW217841   2.131   4.402  14.390  0.6020 -1.1709  0.7194
 2127SOL     OW17842   0.617   2.268   2.411 -0.3069  0.1604 -0.2863
 2127SOL    HW117843   0.712   2.265   2.425 -0.2157  2.7474 -0.3534
 2127SOL    HW217844   0.612   2.296   2.319  0.5742  1.0414 -0.0671
 2128SOL     OW17845   2.049   3.150   3.263 -0.4470 -0.3858 -0.6002
 2128SOL    HW117846   2.119   3.093   3.230 -0.4221 -2.7684  3.6577
 2128SOL    HW217847   2.026   3.201   3.185 -0.2343  1.8470  0.7978
 2129SOL     OW17848   4.112   3.975   4.090  0.4606  0.0848  0.1043
 2129SOL    HW117849   4.107   3.891   4.044  0.1374  0.2263 -0.1241
 2129SOL    HW217850   4.199   3.965   4.128 -0.5980 -0.3687  2.3732
 2130SOL     OW17851   4.118   1.921  16.876 -0.1913 -0.0660  0.5728
 2130SOL    HW117852   4.059   1.896  16.806 -0.9973  1.0279  0.8644
 2130SOL    HW217853   4.103   2.015  16.888  0.0346  0.1397 -0.7478
 2131SOL     OW17854   0.503   1.127   3.192  0.1690 -0.3822 -0.4229
 2131SOL    HW117855   0.598   1.129   3.208 -0.1853 -0.7286  1.7087
 2131SOL    HW217856   0.472   1.103   3.279  0.0053  1.9693  0.1776
 2132SOL     OW17857   3.035   1.971   7.988 -0.1601 -0.2858 -0.2388
 2132SOL    HW117858   3.123   1.933   7.978 -0.0182 -0.0194 -0.0001
 2132SOL    HW217859   3.039   2.030   7.913 -1.1594 -0.8598 -0.7353
 2133SOL     OW17860   0.563   1.051   5.499 -0.0237 -0.7454 -0.0513
 2133SOL    HW117861   0.546   1.142   5.477  2.7444  0.2774  2.1168
 2133SOL    HW217862   0.493   1.020   5.556 -0.9762  2.8511  0.7099
 2134SOL     OW17863   1.216   2.317   6.931  0.1074  0.1002  0.1395
 2134SOL    HW117864   1.185   2.242   6.981 -1.5939  1.6746  1.4209
 2134SOL    HW217865   1.141   2.320   6.871  1.5753 -3.1820 -1.8813
 2135SOL     OW17866   3.288   4.157   1.164  0.5166 -0.4415 -0.1042
 2135SOL    HW117867   3.264   4.072   1.201 -0.3488  0.4840  1.4456
 2135SOL    HW217868   3.221   4.221   1.185  0.4338 -1.3845  2.4895
 2136SOL     OW17869   3.589   1.615   6.000 -0.3021  0.8700 -0.0542
 2136SOL    HW117870   3.620   1.587   5.914 -0.5489  1.8706 -0.4645
 2136SOL    HW217871   3.576   1.708   5.984  0.5786  0.8793 -0.6920
 2137SOL     OW17872   2.262   1.335   3.879  0.1895  0.3927 -0.2126
 2137SOL    HW117873   2.234   1.255   3.834  0.0961  1.5808 -2.2513
 2137SOL    HW217874   2.345   1.348   3.832 -0.2065  1.1797 -0.6893
 2138SOL     OW17875   2.098   1.394   6.351  0.1017  0.5529 -0.1066
 2138SOL    HW117876   2.024   1.441   6.313  0.2926 -0.1079 -1.3158
 2138SOL    HW217877   2.056   1.313   6.378 -0.9603  0.3690 -2.2924
 2139SOL     OW17878   4.566   0.171   4.252 -0.4169 -0.2731 -0.6966
 2139SOL    HW117879   4.561   0.240   4.319 -1.9451  0.0498 -1.1615
 2139SOL    HW217880   4.606   0.212   4.175  0.2677  0.2195 -0.0873
 2140SOL     OW17881   3.481   0.447   8.106  0.4037  0.2491  0.3151
 2140SOL    HW117882   3.469   0.391   8.183 -0.2014  0.2268  0.2109
 2140SOL    HW217883   3.435   0.527   8.132 -1.0691 -0.0105 -1.5101
 2141SOL     OW17884   0.718   1.954  11.479  0.0570 -0.0062 -0.0503
 2141SOL    HW117885   0.769   1.999  11.547  0.5539  0.8986 -1.0056
 2141SOL    HW217886   0.653   2.021  11.458  0.8016  0.4084 -1.1003
 2142SOL     OW17887   1.509   4.189  10.731  0.1306  0.0155 -0.3785
 2142SOL    HW117888   1.451   4.123  10.693 -0.9562 -0.0822  1.4586
 2142SOL    HW217889   1.512   4.167  10.824 -0.3052 -0.0186 -0.3727
 2143SOL     OW17890   0.581   3.862  16.975 -0.1823 -0.0906  0.8424
 2143SOL    HW117891   0.599   3.803  17.048  3.5748  0.8681  0.7026
 2143SOL    HW217892   0.575   3.941  17.029 -0.5928 -0.3373  1.1534
 2144SOL     OW17893   3.605   4.332   8.037  0.3755 -0.2732 -0.2536
 2144SOL    HW117894   3.645   4.408   8.081  0.9313 -1.2472  0.9419
 2144SOL    HW217895   3.556   4.291   8.109 -2.3482  1.0841 -1.3488
 2145SOL     OW17896   4.529   3.728   1.080  0.1504 -0.7253 -0.2166
 2145SOL    HW117897   4.589   3.723   1.005  0.1942 -0.6728 -0.1852
 2145SOL    HW217898   4.502   3.820   1.077 -0.8951 -1.0031  0.7566
 2146SOL     OW17899   4.493   3.599   3.648 -0.1388 -0.3603  0.2031
 2146SOL    HW117900   4.460   3.663   3.584  1.4406 -0.1534 -0.4129
 2146SOL    HW217901   4.467   3.520   3.601  0.9686 -0.1623 -0.7612
 2147SOL     OW17902   0.047   4.090   3.703  0.0269 -1.2079  1.0075
 2147SOL    HW117903   0.041   4.065   3.795 -2.1093 -0.8727  0.9390
 2147SOL    HW217904   0.029   4.005   3.663  3.0167 -0.4976 -1.8928
 2148SOL     OW17905   2.770   2.096   2.377  0.1755  0.4053 -0.0949
 2148SOL    HW117906   2.749   2.121   2.287 -1.7103  1.6657  0.6767
 2148SOL    HW217907   2.689   2.055   2.410  1.9577 -1.6332  1.7164
 2149SOL     OW17908   2.948   0.549   7.166 -0.2438  0.1779  0.1941
 2149SOL    HW117909   2.979   0.534   7.256  1.7257 -0.4951 -0.5926
 2149SOL    HW217910   2.928   0.642   7.165  0.1643  0.2625  0.1165
 2150SOL     OW17911   2.974   3.890   4.356 -0.2213 -0.0653  0.1931
 2150SOL    HW117912   3.022   3.878   4.274  2.8002  2.1573  1.6503
 2150SOL    HW217913   3.043   3.935   4.403 -0.2278 -0.2310  0.3626
 2151SOL     OW17914   2.564   4.065  10.621 -0.8164 -0.9117 -0.9297
 2151SOL    HW117915   2.659   4.057  10.631 -0.6159 -0.7380 -2.7360
 2151SOL    HW217916   2.540   4.018  10.701  0.2327 -0.2871 -0.2525
 2152SOL     OW17917   0.894   4.011   3.937 -0.0911 -0.8255  0.0646
 2152SOL    HW117918   0.851   4.095   3.924 -0.6482 -0.6608  2.9221
 2152SOL    HW217919   0.963   4.031   4.001  1.4917 -0.3380 -1.7884
 2153SOL     OW17920   1.260   1.158  17.620  0.1400 -0.0054 -0.4920
 2153SOL    HW117921   1.213   1.240  17.604  0.5796  0.1982 -0.7564
 2153SOL    HW217922   1.184   1.103  17.638  0.9226 -0.1183  2.4332
 2154SOL     OW17923   1.146   2.523  15.634  0.1661  0.0925  0.2274
 2154SOL    HW117924   1.161   2.442  15.684  1.3447  0.3703  0.3183
 2154SOL    HW217925   1.114   2.577  15.706  0.6590  3.1314 -1.8408
 2155SOL     OW17926   4.094   1.862   7.522 -0.0752  0.4913  0.3830
 2155SOL    HW117927   4.103   1.875   7.616 -0.3224 -0.9521  0.6109
 2155SOL    HW217928   4.185   1.875   7.494  0.4966 -1.4849  1.3635
 2156SOL     OW17929   1.672   2.947   5.398 -0.2064 -0.1603 -0.6791
 2156SOL    HW117930   1.690   2.909   5.312 -1.9321  0.0348 -1.1230
 2156SOL    HW217931   1.705   3.037   5.397 -1.1451  0.1318 -3.5230
 2157SOL     OW17932   4.113   1.997  15.575  0.2520  0.0730  0.3409
 2157SOL    HW117933   4.129   2.008  15.482 -1.3538 -0.6077 -0.0134
 2157SOL    HW217934   4.178   1.934  15.607 -2.1581 -3.3387 -1.4282
 2158SOL     OW17935   0.396   4.448   3.183 -0.0533 -0.4806  0.0852
 2158SOL    HW117936   0.307   4.450   3.150  0.3871  0.3869 -1.0712
 2158SOL    HW217937   0.433   4.369   3.145 -2.6846 -1.4747 -0.3266
 2159SOL     OW17938   2.942   3.822   9.694  0.1528 -0.9136 -0.1723
 2159SOL    HW117939   3.037   3.833   9.698 -0.1926  1.9829  0.2119
 2159SOL    HW217940   2.933   3.852   9.604  1.7141 -1.1883 -0.4180
 2160SOL     OW17941   1.776   2.524   3.259  0.0486  0.1649 -0.3363
 2160SOL    HW117942   1.833   2.586   3.213 -0.5698  1.1863  0.2753
 2160SOL    HW217943   1.753   2.580   3.334 -0.1157  0.4848 -0.6217
 2161SOL     OW17944   1.415   4.073   3.180 -0.1585 -0.0192  0.1698
 2161SOL    HW117945   1.415   4.150   3.237  0.7832  2.0358 -2.6025
 2161SOL    HW217946   1.353   4.018   3.228  0.5719 -1.6674 -0.7578
 2162SOL     OW17947   4.601   1.759   5.333  0.3915 -0.0334 -0.4315
 2162SOL    HW117948   4.596   1.776   5.239 -0.9921  1.5464 -0.0634
 2162SOL    HW217949   4.519   1.711   5.331 -0.4376  1.3547  0.3705
 2163SOL     OW17950   0.731   3.639   5.631 -0.3703 -0.5135  0.2488
 2163SOL    HW117951   0.793   3.661   5.700 -0.9939  1.6828  0.1014
 2163SOL    HW217952   0.656   3.691   5.661  1.5633  0.9556  2.5179
 2164SOL     OW17953   3.559   3.430   1.758  0.0112  0.6185  0.4068
 2164SOL    HW117954   3.471   3.427   1.797 -0.9941 -0.3961 -1.9131
 2164SOL    HW217955   3.604   3.378   1.824  0.2145  1.5039  0.9771
 2165SOL     OW17956   4.368   0.316  16.798  0.2884 -0.5978 -0.8430
 2165SOL    HW117957   4.287   0.323  16.749  1.2661  1.0899 -2.2245
 2165SOL    HW217958   4.379   0.411  16.803  3.2302 -1.0309  1.1698
 2166SOL     OW17959   2.312   3.120   2.955 -0.0209 -0.7777 -0.3655
 2166SOL    HW117960   2.323   3.068   3.035 -1.8481 -1.5777 -0.6285
 2166SOL    HW217961   2.394   3.170   2.953  1.4526 -3.1337  0.5011
 2167SOL     OW17962   1.332   0.713   4.976 -0.0356  0.4925  0.1042
 2167SOL    HW117963   1.372   0.664   5.048  1.1814  0.9475 -0.2578
 2167SOL    HW217964   1.253   0.744   5.020 -0.5631  0.8717 -1.1195
 2168SOL     OW17965   0.440   3.155   3.157 -0.4324 -0.3404  0.1465
 2168SOL    HW117966   0.431   3.244   3.189  1.1599  0.4679 -1.6440
 2168SOL    HW217967   0.450   3.165   3.062  0.8418  0.6578  0.3904
 2169SOL     OW17968   2.377   3.731  10.675 -0.1745  0.2779 -0.1024
 2169SOL    HW117969   2.415   3.729  10.587 -0.2001  0.1415 -0.1113
 2169SOL    HW217970   2.313   3.799  10.654 -1.0309 -0.5049 -0.0240
 2170SOL     OW17971   1.514   2.725   6.082  0.8678  0.1728  0.1492
 2170SOL    HW117972   1.553   2.766   6.159 -1.7967  1.7226  0.6639
 2170SOL    HW217973   1.462   2.656   6.123 -0.9791  0.7166 -1.2859
 2171SOL     OW17974   3.307   4.363  13.334 -0.2432 -0.0079  0.0123
 2171SOL    HW117975   3.298   4.434  13.271  1.8726 -0.6581 -1.0293
 2171SOL    HW217976   3.238   4.379  13.398  0.0646  2.7987 -0.3605
 2172SOL     OW17977   3.872   0.461   1.664 -0.1102 -0.6630  0.3094
 2172SOL    HW117978   3.820   0.385   1.640 -0.5042 -0.2059 -0.2577
 2172SOL    HW217979   3.962   0.428   1.670  0.8678  1.4802 -2.8461
 2173SOL     OW17980   1.787   2.774   2.711 -0.2893 -0.7287 -0.4965
 2173SOL    HW117981   1.784   2.684   2.679 -2.7887 -1.9647  3.2938
 2173SOL    HW217982   1.773   2.761   2.805  0.0752  1.9881 -0.0757
 2174SOL     OW17983   2.727   1.557   8.451 -0.0550  0.1514 -0.5590
 2174SOL    HW117984   2.709   1.627   8.389  1.0756 -0.2914 -1.3942
 2174SOL    HW217985   2.698   1.599   8.531 -0.6814 -0.0017 -0.7035
 2175SOL     OW17986   0.397   4.056   7.823 -0.2748  0.1713 -0.5702
 2175SOL    HW117987   0.314   4.048   7.777  0.8024 -2.5908 -2.0843
 2175SOL    HW217988   0.382   4.142   7.862  0.7653 -0.4532  1.1826
 2176SOL     OW17989   1.955   2.535   5.448  0.0060 -0.6587  0.2675
 2176SOL    HW117990   1.874   2.521   5.399  0.7522 -2.2615 -0.5312
 2176SOL    HW217991   1.922   2.615   5.488 -1.6313 -1.7779  1.1480
 2177SOL     OW17992   3.085   0.090   8.313  0.1925 -0.3688 -0.0080
 2177SOL    HW117993   3.116   0.113   8.401 -1.3979 -0.0038  0.4611
 2177SOL    HW217994   2.994   0.103   8.340  0.7014  1.5804  0.7387
 2178SOL     OW17995   3.912   4.269   5.456 -0.4588  0.0118 -0.3279
 2178SOL    HW117996   3.843   4.238   5.398  0.9311 -1.2594 -1.2970
 2178SOL    HW217997   3.876   4.352   5.490  1.3746  0.1548  1.2781
 2179SOL     OW17998   4.122   4.517   4.746  0.4853  0.0927 -0.2640
 2179SOL    HW117999   4.111   4.453   4.676 -0.4577  0.4173 -0.4124
 2179SOL    HW218000   4.213   4.545   4.744  0.1281  1.2224 -0.9125
 2180SOL     OW18001   2.995   2.335   3.580 -0.5782  0.4720 -0.2287
 2180SOL    HW118002   3.020   2.302   3.494  1.6989  0.3430  0.4871
 2180SOL    HW218003   2.911   2.380   3.564 -0.6854  0.1544 -0.5638
 2181SOL     OW18004   2.836   3.378   4.085 -0.0764  0.6061  0.1928
 2181SOL    HW118005   2.864   3.292   4.116  2.5243  1.4254  0.1562
 2181SOL    HW218006   2.743   3.367   4.067  0.5052 -0.7528 -1.9568
 2182SOL     OW18007   3.207   0.465  10.686  0.0843  0.5370  0.5899
 2182SOL    HW118008   3.120   0.504  10.684 -0.8310 -1.6758 -3.8008
 2182SOL    HW218009   3.265   0.539  10.666 -0.1753 -0.2251 -2.9943
 2183SOL     OW18010   3.103   0.045   7.181  0.3069  0.3428 -0.3337
 2183SOL    HW118011   3.133   0.131   7.210 -0.5558  1.0768 -1.6653
 2183SOL    HW218012   3.155   4.718   7.243  1.5958  0.2937 -1.4502
 2184SOL     OW18013   3.646   2.170  12.397  0.4326  0.1194 -0.0672
 2184SOL    HW118014   3.606   2.214  12.322 -0.8273  2.1105  1.7797
 2184SOL    HW218015   3.725   2.132  12.357 -0.1307 -0.2476 -0.8168
 2185SOL     OW18016   3.937   1.236   8.864 -0.0606 -0.3664 -0.1276
 2185SOL    HW118017   3.873   1.248   8.934 -1.2296  0.4047 -1.3418
 2185SOL    HW218018   3.986   1.157   8.887 -1.1313 -1.0077 -0.0751
 2186SOL     OW18019   1.043   0.555   4.130 -0.4102 -0.9332  0.0818
 2186SOL    HW118020   1.080   0.594   4.209 -0.1733  0.9561 -0.9590
 2186SOL    HW218021   0.971   0.501   4.165 -2.5341  2.2148  0.5298
 2187SOL     OW18022   0.063   0.559  15.301  0.5191  0.7287  0.3253
 2187SOL    HW118023   4.723   0.490  15.290  0.0116  1.2138  0.3151
 2187SOL    HW218024   0.147   0.511  15.303  1.7860  2.8570 -2.1848
 2188SOL     OW18025   4.498   1.833   2.787 -0.3148 -0.0671  0.5794
 2188SOL    HW118026   4.455   1.804   2.867 -0.5239 -3.8987 -0.9576
 2188SOL    HW218027   4.481   1.760   2.728 -1.5659  2.1021 -1.7479
 2189SOL     OW18028   2.089   1.970   6.534 -0.4980  0.2185  0.3479
 2189SOL    HW118029   2.065   1.878   6.538 -1.7094  0.5978  1.7840
 2189SOL    HW218030   2.101   1.989   6.627  1.0986 -2.5281  0.6861
 2190SOL     OW18031   3.896   0.282   3.694 -0.5428 -0.0652 -0.0641
 2190SOL    HW118032   3.960   0.294   3.765  0.7147  0.4366 -1.2829
 2190SOL    HW218033   3.843   0.357   3.721  0.9476  0.5205  1.2521
 2191SOL     OW18034   2.926   3.174  11.243  0.1805  0.3583 -0.2406
 2191SOL    HW118035   2.991   3.244  11.229  1.3386 -0.7571 -0.4687
 2191SOL    HW218036   2.988   3.104  11.261  0.6569  0.2178 -2.4862
 2192SOL     OW18037   1.890   0.730   6.494  0.2069  0.1056 -0.5961
 2192SOL    HW118038   1.932   0.797   6.548  1.8010 -1.2165 -0.1592
 2192SOL    HW218039   1.804   0.761   6.469  0.2416 -0.4734 -1.4101
 2193SOL     OW18040   1.778   4.658   9.173 -0.0150  0.2183 -0.0021
 2193SOL    HW118041   1.795   0.004   9.235  1.3383 -1.6525  1.7872
 2193SOL    HW218042   1.783   4.701   9.087  0.3864 -0.9265 -0.5571
 2194SOL     OW18043   0.819   2.146   8.297 -0.1270  0.4071 -0.2706
 2194SOL    HW118044   0.794   2.068   8.247 -1.1670  0.8218 -0.3966
 2194SOL    HW218045   0.757   2.217   8.279 -0.5548  0.6655  2.2908
 2195SOL     OW18046   0.479   3.915   1.304  0.4106  0.1251  0.2158
 2195SOL    HW118047   0.458   3.822   1.315  0.2584 -0.0357 -1.4614
 2195SOL    HW218048   0.527   3.944   1.382 -0.2304 -1.6196  1.2812
 2196SOL     OW18049   4.654   2.612   8.926  0.0437 -0.6512  0.0539
 2196SOL    HW118050   4.680   2.556   8.999 -0.0551 -0.1289  0.4917
 2196SOL    HW218051   0.001   2.675   8.934  0.8610 -1.4046 -1.2877
 2197SOL     OW18052   2.323   3.456   4.917  0.1052  0.3149 -0.7651
 2197SOL    HW118053   2.298   3.417   4.833 -0.3885  2.2890 -1.5203
 2197SOL    HW218054   2.247   3.454   4.976  3.1155 -0.9589  3.1334
 2198SOL     OW18055   2.664   2.795  14.338  0.0528  0.3140  0.2730
 2198SOL    HW118056   2.594   2.831  14.283  1.0349 -0.0316 -1.1872
 2198SOL    HW218057   2.613   2.718  14.367 -0.2061 -0.2728 -1.7529
 2199SOL     OW18058   2.160   3.789  17.500 -0.4053  0.3285  0.1859
 2199SOL    HW118059   2.253   3.766  17.492  0.4268  3.3834  1.3275
 2199SOL    HW218060   2.146   3.843  17.422 -0.0012  0.9479  0.5479
 2200SOL     OW18061   3.299   3.037  12.372  0.2680  0.4848  0.0846
 2200SOL    HW118062   3.238   3.100  12.409 -1.0771 -0.2239 -0.9336
 2200SOL    HW218063   3.310   2.980  12.448 -0.5501  1.1682  0.7076
 2201SOL     OW18064   3.841   1.348   3.642 -0.1494  0.4630 -0.0881
 2201SOL    HW118065   3.846   1.253   3.652  1.5153  0.4538 -1.0017
 2201SOL    HW218066   3.902   1.372   3.712  1.3591  1.5425 -1.7555
 2202SOL     OW18067   3.811   1.933   9.912 -0.0465 -0.3343  0.2250
 2202SOL    HW118068   3.743   1.933   9.979 -0.5911  0.4905 -0.3158
 2202SOL    HW218069   3.816   2.027   9.892 -0.1988 -0.2848  0.4244
 2203SOL     OW18070   3.521   1.902   6.793 -0.0825 -0.6064 -0.3480
 2203SOL    HW118071   3.499   1.942   6.709  0.6888  2.0466  0.6844
 2203SOL    HW218072   3.456   1.943   6.850  3.3773  3.1301  0.9755
 2204SOL     OW18073   4.082   0.618   8.166 -0.0949  0.4245  0.6439
 2204SOL    HW118074   4.014   0.595   8.230  0.0455  0.4317  0.7947
 2204SOL    HW218075   4.058   0.568   8.087 -1.4744  0.8844  0.7594
 2205SOL     OW18076   0.185   1.901   4.276  0.5260 -0.1537  0.0480
 2205SOL    HW118077   0.157   1.820   4.233 -0.1724  0.8874 -1.4864
 2205SOL    HW218078   0.127   1.909   4.351 -0.5128 -1.9197 -0.5724
 2206SOL     OW18079   0.023   4.035   6.017  0.4059  1.0165  0.0960
 2206SOL    HW118080   4.709   3.991   6.092  0.6675  0.9108  0.1687
 2206SOL    HW218081   0.001   3.970   5.951  2.1939  1.2204 -0.7034
 2207SOL     OW18082   2.606   1.091   9.179 -0.2330 -0.2118 -0.5891
 2207SOL    HW118083   2.512   1.102   9.172 -0.2251 -0.6038 -1.3908
 2207SOL    HW218084   2.623   1.044   9.097  2.4660  2.5541 -1.5953
 2208SOL     OW18085   1.231   0.611   8.755 -0.5996  0.2098 -0.2749
 2208SOL    HW118086   1.296   0.604   8.685  0.8644  1.9380  0.9584
 2208SOL    HW218087   1.289   0.646   8.822  2.2958 -0.3619 -2.4794
 2209SOL     OW18088   3.879   1.359   4.557 -0.2051 -0.0962  0.3151
 2209SOL    HW118089   3.858   1.275   4.517  0.9548 -0.5283  0.6170
 2209SOL    HW218090   3.930   1.334   4.634  0.6215 -1.5449 -0.7140
 2210SOL     OW18091   2.585   1.745   7.848 -0.2390  0.6408  0.4755
 2210SOL    HW118092   2.644   1.816   7.871 -0.0532  0.6505 -0.0320
 2210SOL    HW218093   2.529   1.762   7.925  0.3792 -1.2368  1.3498
 2211SOL     OW18094   3.359   3.645   0.648  0.3722  0.8361  0.7449
 2211SOL    HW118095   3.385   3.630   0.558 -1.3429  1.4100  0.1494
 2211SOL    HW218096   3.338   3.562   0.690 -1.1454 -0.0570 -1.7973
 2212SOL     OW18097   2.972   0.436  16.050  0.0718 -0.0642 -0.3214
 2212SOL    HW118098   3.043   0.379  16.022 -0.1537 -1.0182  1.0496
 2212SOL    HW218099   3.009   0.471  16.131  0.2218  0.4974 -0.6319
 2213SOL     OW18100   4.692   2.598  11.730  0.1030  0.2501 -0.6293
 2213SOL    HW118101   4.675   2.534  11.662  0.4976  0.5204 -0.9781
 2213SOL    HW218102   4.616   2.577  11.784  1.3027 -0.4267  0.8342
 2214SOL     OW18103   3.802   2.985   9.972 -0.5666  0.2781  0.1762
 2214SOL    HW118104   3.851   3.033   9.905 -2.9881 -0.1450 -1.9024
 2214SOL    HW218105   3.833   2.895   9.959  2.1863  0.9872  1.9346
 2215SOL     OW18106   4.123   2.786   6.820  0.1559 -0.0437 -0.0310
 2215SOL    HW118107   4.177   2.784   6.899 -1.7950  1.9828  1.3277
 2215SOL    HW218108   4.165   2.858   6.773 -1.7135  1.6533  0.9243
 2216SOL     OW18109   3.517   2.135  17.560  0.3138  0.1178 -0.1189
 2216SOL    HW118110   3.552   2.183  17.485  0.6174 -0.1723 -0.1648
 2216SOL    HW218111   3.491   2.211  17.613 -0.9627  0.2531 -0.9507
 2217SOL     OW18112   3.327   0.878   7.069 -0.0844  0.3057  0.5273
 2217SOL    HW118113   3.345   0.848   7.159  0.3439  1.3222  0.7804
 2217SOL    HW218114   3.259   0.945   7.077  1.2706  2.1150 -3.3063
 2218SOL     OW18115   2.617   0.294  16.804 -0.2535  0.2463 -0.3200
 2218SOL    HW118116   2.603   0.257  16.892 -0.0685  3.3035  0.9726
 2218SOL    HW218117   2.675   0.228  16.766 -0.0218 -0.2848  0.9297
 2219SOL     OW18118   2.087   0.858  10.378  0.6333  0.1516  0.0489
 2219SOL    HW118119   2.099   0.826  10.467  1.7356 -4.3165 -1.7221
 2219SOL    HW218120   2.139   0.796  10.327 -0.4927  0.4282 -1.4513
 2220SOL     OW18121   0.328   4.382  17.617  0.4670  0.2080  0.6692
 2220SOL    HW118122   0.401   4.443  17.610 -0.2520  1.0512  0.5267
 2220SOL    HW218123   0.364   4.309  17.668  3.2383  1.7771  0.9417
 2221SOL     OW18124   3.204   0.289   3.713 -0.0616 -0.4157  0.4301
 2221SOL    HW118125   3.122   0.249   3.684 -1.3552  2.5483  0.0194
 2221SOL    HW218126   3.261   0.214   3.697 -0.2310 -0.4332 -0.1034
 2222SOL     OW18127   2.658   4.573   2.377 -0.7269 -0.0077  0.3956
 2222SOL    HW118128   2.667   4.522   2.457  1.1105 -2.8854 -1.6035
 2222SOL    HW218129   2.747   4.607   2.366 -1.0049  0.3503 -0.7276
 2223SOL     OW18130   4.115   2.316  13.442  0.5225  0.2492  0.1071
 2223SOL    HW118131   4.082   2.273  13.520 -1.0611  2.4107  0.6533
 2223SOL    HW218132   4.069   2.400  13.439 -1.4317 -0.8069  0.6093
 2224SOL     OW18133   3.949   4.653   3.562 -0.0870 -0.3744 -0.1785
 2224SOL    HW118134   3.986   4.656   3.651  0.6067  0.9500 -0.5106
 2224SOL    HW218135   4.013   4.601   3.515  0.2222  0.4670 -0.6893
 2225SOL     OW18136   0.910   0.669   6.523  0.7446  0.2669  0.0415
 2225SOL    HW118137   0.955   0.698   6.602  2.0884 -0.3415 -0.5087
 2225SOL    HW218138   0.818   0.668   6.552  1.5055 -0.4185  2.4742
 2226SOL     OW18139   2.495   4.145   8.066 -0.1182 -0.7623 -0.0665
 2226SOL    HW118140   2.409   4.143   8.023 -0.2563  2.4474  0.0418
 2226SOL    HW218141   2.470   4.185   8.149  1.0911 -3.8176  1.7787
 2227SOL     OW18142   0.405   2.597   1.426  0.1397 -0.1607  0.5494
 2227SOL    HW118143   0.467   2.602   1.354  0.4097 -0.2094  0.7820
 2227SOL    HW218144   0.413   2.510   1.464 -1.5782  0.0765  1.4860
 2228SOL     OW18145   0.179   1.652   5.831  0.2854  0.5777  0.3815
 2228SOL    HW118146   0.087   1.678   5.832 -0.1308 -0.8628 -0.2463
 2228SOL    HW218147   0.231   1.725   5.797  0.3434 -0.1782 -1.1707
 2229SOL     OW18148   2.671   4.661   8.728 -0.1635  0.7133  0.7113
 2229SOL    HW118149   2.644   0.012   8.676 -0.0651  0.7113  0.6577
 2229SOL    HW218150   2.660   4.689   8.819 -0.2223  2.5097  0.1635
 2230SOL     OW18151   1.430   3.116  13.688 -0.0981  0.0018  0.0849
 2230SOL    HW118152   1.369   3.175  13.644  2.0072 -0.4281 -3.3691
 2230SOL    HW218153   1.493   3.087  13.622  0.1392  0.8632 -0.0660
 2231SOL     OW18154   3.654   0.866   8.132 -0.3752  0.1599 -0.8675
 2231SOL    HW118155   3.610   0.950   8.121  0.2845  0.4509 -1.2367
 2231SOL    HW218156   3.662   0.863   8.227  1.7663 -1.8184 -1.1026
 2232SOL     OW18157   4.299   1.419  10.643  0.7424  0.8719 -0.2406
 2232SOL    HW118158   4.235   1.435  10.574  0.3843 -1.5854 -0.4753
 2232SOL    HW218159   4.288   1.327  10.667 -1.0751  0.6974 -1.7680
 2233SOL     OW18160   0.845   1.711   5.044  0.1767  0.1271 -0.3914
 2233SOL    HW118161   0.773   1.750   4.994  0.9530  0.7757 -1.0100
 2233SOL    HW218162   0.912   1.701   4.976  0.0299  1.6182 -0.7647
 2234SOL     OW18163   3.562   2.393  11.018 -0.4306 -0.4026  0.5678
 2234SOL    HW118164   3.506   2.315  11.012  1.8097 -1.8387 -1.5022
 2234SOL    HW218165   3.546   2.424  10.929 -1.0493 -0.8431  0.5267
 2235SOL     OW18166   3.861   0.567   0.771  0.0844 -0.0626 -0.3889
 2235SOL    HW118167   3.924   0.505   0.806  0.1395 -0.0460 -0.4582
 2235SOL    HW218168   3.799   0.507   0.730  1.0389 -0.0180 -1.8999
 2236SOL     OW18169   3.092   3.248   2.219  0.0386 -0.2027  0.2510
 2236SOL    HW118170   3.016   3.266   2.275  0.8257  0.0548  1.2425
 2236SOL    HW218171   3.143   3.329   2.223 -0.7625  0.2258  1.8814
 2237SOL     OW18172   1.030   2.528   1.975 -0.3824 -0.3635  0.3571
 2237SOL    HW118173   1.086   2.513   2.051  0.1273  0.1739  0.0799
 2237SOL    HW218174   0.954   2.575   2.010  0.6886  0.7454  1.2005
 2238SOL     OW18175   3.052   3.336  17.290  0.2835  0.9643 -0.0925
 2238SOL    HW118176   3.084   3.305  17.375  0.6335 -1.0896 -0.9521
 2238SOL    HW218177   3.018   3.259  17.244  0.0697  1.3570 -0.5888
 2239SOL     OW18178   3.815   4.515   2.346 -0.0778  0.0315  0.2514
 2239SOL    HW118179   3.745   4.576   2.326  1.7572  2.1484  0.2287
 2239SOL    HW218180   3.837   4.537   2.437  0.2816  0.4423  0.0661
 2240SOL     OW18181   1.477   2.568  14.255 -0.7349  0.2692 -0.2892
 2240SOL    HW118182   1.564   2.606  14.262 -0.4311 -0.6093  0.6408
 2240SOL    HW218183   1.427   2.637  14.297 -0.2760  0.1176  0.4945
 2241SOL     OW18184   0.716   4.255  17.447 -0.0569  0.4382 -0.4900
 2241SOL    HW118185   0.708   4.208  17.364 -0.7161 -0.4427  0.0770
 2241SOL    HW218186   0.664   4.195  17.500  0.1533 -1.4311 -2.3714
 2242SOL     OW18187   0.842   0.240   8.707 -0.2863 -0.6395  0.2429
 2242SOL    HW118188   0.935   0.251   8.723 -0.7224  2.9044  0.3315
 2242SOL    HW218189   0.822   0.248   8.801  0.2121  1.3266  0.1901
 2243SOL     OW18190   0.667   1.967   7.320 -0.2993 -0.6068  0.2334
 2243SOL    HW118191   0.724   1.983   7.244 -0.8781 -0.8740 -0.2598
 2243SOL    HW218192   0.583   2.007   7.298  0.5522  0.6228 -0.8258
 2244SOL     OW18193   3.109   1.797   8.408  0.0694 -0.2330  0.0836
 2244SOL    HW118194   3.176   1.738   8.375  1.7639  1.6003  0.2183
 2244SOL    HW218195   3.160   1.876   8.425  0.2109 -0.6062  1.4091
 2245SOL     OW18196   1.909   0.053   8.739 -0.1086 -0.4758  0.2325
 2245SOL    HW118197   1.862   0.037   8.821 -0.4914  1.0426  0.3069
 2245SOL    HW218198   1.842   0.030   8.674  0.0924 -0.3208 -0.0275
 2246SOL     OW18199   1.629   2.076   3.187  0.2985 -0.2391  0.1186
 2246SOL    HW118200   1.660   2.117   3.107  0.3005 -0.2239  0.1272
 2246SOL    HW218201   1.671   2.142   3.242  0.4768 -0.3585  0.1262
 2247SOL     OW18202   0.273   0.151   6.511 -0.4444  0.2602 -0.5029
 2247SOL    HW118203   0.345   0.119   6.566 -0.2194 -0.2116 -1.0721
 2247SOL    HW218204   0.293   0.115   6.425  1.4660  1.8360 -0.7205
 2248SOL     OW18205   2.261   1.829  14.453 -0.3476 -0.2013 -0.4607
 2248SOL    HW118206   2.299   1.766  14.515 -0.4590  0.2094  0.0229
 2248SOL    HW218207   2.209   1.764  14.404 -2.3043  1.5994 -0.7878
 2249SOL     OW18208   4.485   4.416   2.439 -0.3617 -0.1963 -0.1832
 2249SOL    HW118209   4.460   4.382   2.525 -1.4544 -4.3025 -2.1130
 2249SOL    HW218210   4.491   4.509   2.461 -0.7026 -0.0857 -0.5538
 2250SOL     OW18211   3.681   4.453   1.563  0.3249  0.0371  0.3814
 2250SOL    HW118212   3.765   4.411   1.543  0.1896 -0.3206  0.5677
 2250SOL    HW218213   3.659   4.409   1.645 -1.9454  0.2791 -0.1181
 2251SOL     OW18214   1.785   3.844   7.284 -0.3790 -0.0988  0.2205
 2251SOL    HW118215   1.709   3.801   7.247  0.0594 -0.7927  0.1238
 2251SOL    HW218216   1.766   3.925   7.238 -1.6265 -1.6126 -1.9082
 2252SOL     OW18217   1.992   4.666   2.284 -0.1714 -0.6088  0.2090
 2252SOL    HW118218   2.079   4.633   2.308  0.8596  2.9095  1.2957
 2252SOL    HW218219   1.995   0.026   2.329  0.6639 -0.7414  0.4006
 2253SOL     OW18220   3.454   4.469   3.882  0.1545  0.0372  0.0090
 2253SOL    HW118221   3.548   4.484   3.891  0.3070 -0.4429 -0.7624
 2253SOL    HW218222   3.441   4.411   3.957 -0.0145  0.0745  0.0094
 2254SOL     OW18223   0.227   1.981   4.564 -0.1978 -0.1640  0.2671
 2254SOL    HW118224   0.158   2.003   4.626 -1.1530  1.9508 -1.5308
 2254SOL    HW218225   0.271   1.914   4.617  1.8953  2.2676  1.5805
 2255SOL     OW18226   3.871   2.501   8.385  0.0971 -0.0300 -0.0742
 2255SOL    HW118227   3.816   2.545   8.319 -0.4311 -1.0525 -0.3211
 2255SOL    HW218228   3.877   2.571   8.450  0.0492 -2.1915  2.2585
 2256SOL     OW18229   0.004   3.479   4.635 -0.2159 -0.1474  0.6556
 2256SOL    HW118230   4.634   3.473   4.624 -0.1804  0.5828 -0.0862
 2256SOL    HW218231   0.035   3.502   4.547  0.2510  0.6208  1.0174
 2257SOL     OW18232   1.568   1.898  16.956  0.1969 -0.5603  0.1583
 2257SOL    HW118233   1.602   1.984  16.932 -0.0881  0.1380  2.2694
 2257SOL    HW218234   1.512   1.921  17.030  0.8532 -1.0594  0.8028
 2258SOL     OW18235   4.123   4.402  13.776 -0.2752  0.2580  0.0232
 2258SOL    HW118236   4.086   4.480  13.816  0.6934  0.2744  0.8829
 2258SOL    HW218237   4.127   4.429  13.684  2.0644  1.8394  0.5817
 2259SOL     OW18238   3.807   0.731   8.637 -0.4923 -0.2029 -0.0711
 2259SOL    HW118239   3.783   0.804   8.693  1.0605 -0.1525  0.5382
 2259SOL    HW218240   3.731   0.679   8.660 -0.6534  0.5394  1.0485
 2260SOL     OW18241   3.475   3.537  12.966 -0.4885 -0.0880  0.0819
 2260SOL    HW118242   3.539   3.537  12.895  0.0725  0.4622  0.5884
 2260SOL    HW218243   3.395   3.560  12.920  0.1064 -0.4126 -1.1224
 2261SOL     OW18244   3.811   1.303   6.156 -0.1005 -0.0372  0.1818
 2261SOL    HW118245   3.769   1.381   6.193 -1.0061 -0.7056  0.5482
 2261SOL    HW218246   3.742   1.237   6.168 -0.2602  0.3140  1.1959
 2262SOL     OW18247   2.670   0.192  14.068 -0.0716 -0.1769 -0.9685
 2262SOL    HW118248   2.608   0.194  13.995  0.5835  0.1763 -1.5207
 2262SOL    HW218249   2.657   0.280  14.102  0.3548 -0.1030 -0.9896
 2263SOL     OW18250   3.765   4.350   2.935  0.2440 -0.1515 -0.4080
 2263SOL    HW118251   3.844   4.400   2.958 -0.7969  1.5377 -0.4678
 2263SOL    HW218252   3.775   4.343   2.840  0.2346 -2.3926 -0.2385
 2264SOL     OW18253   4.305   3.348  16.570 -0.4818  0.2158 -0.0047
 2264SOL    HW118254   4.264   3.358  16.485  1.2152 -0.7285 -0.9296
 2264SOL    HW218255   4.276   3.434  16.602 -0.6152  0.3110 -0.3841
 2265SOL     OW18256   4.086   0.288   2.547 -0.2273 -0.4697 -0.1479
 2265SOL    HW118257   4.133   0.276   2.465  1.3562 -1.5910  0.9306
 2265SOL    HW218258   3.997   0.257   2.526 -0.4401 -1.2933  1.9768
 2266SOL     OW18259   3.635   3.832  11.745  0.2793  0.1564  0.1618
 2266SOL    HW118260   3.600   3.822  11.834  0.0950  0.2609  0.0998
 2266SOL    HW218261   3.687   3.751  11.743 -0.1820 -0.1836  1.7379
 2267SOL     OW18262   3.848   0.090   5.574  0.3287 -0.3224  0.4216
 2267SOL    HW118263   3.820   0.159   5.514 -0.6964 -0.1822  1.0655
 2267SOL    HW218264   3.785   0.116   5.640 -0.1626 -2.5419  0.8113
 2268SOL     OW18265   3.774   3.029   5.771  0.3221  0.4350 -0.0184
 2268SOL    HW118266   3.807   2.940   5.779  0.3012  0.4889  0.6545
 2268SOL    HW218267   3.746   3.033   5.680 -0.5109  1.8697  0.3020
 2269SOL     OW18268   2.194   3.329   3.717  0.0390  0.3142  0.4016
 2269SOL    HW118269   2.183   3.244   3.676 -0.2038 -0.3722  1.9016
 2269SOL    HW218270   2.256   3.369   3.656 -0.9874 -0.4269 -1.1200
 2270SOL     OW18271   0.883   2.812  14.414  0.2298  0.1747 -0.3358
 2270SOL    HW118272   0.951   2.871  14.381  0.1812  0.5911  0.3065
 2270SOL    HW218273   0.870   2.839  14.505  0.4175  0.4419 -0.3884
 2271SOL     OW18274   3.091   0.214   3.168 -0.0552 -0.5757 -0.0261
 2271SOL    HW118275   3.075   0.178   3.081  2.3659  1.8347 -1.4912
 2271SOL    HW218276   3.153   0.152   3.207  0.1911  0.3121  1.0156
 2272SOL     OW18277   4.572   2.977   8.799 -0.2976  0.0763  0.0255
 2272SOL    HW118278   4.558   2.971   8.894  0.8018  0.1078  0.1901
 2272SOL    HW218279   4.595   3.069   8.788 -0.7929 -0.0811 -2.2204
 2273SOL     OW18280   0.371   1.990   2.790 -0.2574 -0.5429  0.0922
 2273SOL    HW118281   0.321   1.986   2.871 -0.5790  3.3333  0.0867
 2273SOL    HW218282   0.298   1.975   2.729 -0.1260 -2.3981  0.4064
 2274SOL     OW18283   3.198   4.120   7.983 -0.0205 -0.4938  0.3285
 2274SOL    HW118284   3.191   4.066   8.062 -1.9399 -1.1978 -0.3494
 2274SOL    HW218285   3.291   4.144   7.989 -0.0343 -0.2542 -0.4990
 2275SOL     OW18286   0.622   3.857  15.643 -0.2639 -1.1516  0.9032
 2275SOL    HW118287   0.667   3.781  15.606 -1.8079 -0.4073 -2.4851
 2275SOL    HW218288   0.696   3.916  15.656  0.8262 -2.5839  1.2133
 2276SOL     OW18289   0.040   2.297   1.180 -0.0059 -0.2168 -0.0305
 2276SOL    HW118290   0.006   2.349   1.107 -1.7168  1.0588  1.6785
 2276SOL    HW218291   0.109   2.356   1.209 -0.6210 -0.5353  2.0632
 2277SOL     OW18292   2.497   2.485  10.348 -0.5607  0.3240  0.0661
 2277SOL    HW118293   2.521   2.559  10.404  0.8152 -2.0093  2.5996
 2277SOL    HW218294   2.563   2.475  10.281  0.0831  0.4150  0.6849
 2278SOL     OW18295   4.548   2.449  10.353 -0.0544  0.2080  0.0766
 2278SOL    HW118296   4.624   2.393  10.336  0.2286  0.4084  0.6837
 2278SOL    HW218297   4.571   2.481  10.440 -0.5652  1.1825 -0.1487
 2279SOL     OW18298   1.980   2.078   1.997 -0.3617  0.4875  0.0141
 2279SOL    HW118299   2.022   2.017   1.936  1.1379  1.4384  0.1041
 2279SOL    HW218300   2.019   2.052   2.080  0.4431  1.2665 -0.1211
 2280SOL     OW18301   2.577   3.001   5.035 -0.0918  0.2748  0.0171
 2280SOL    HW118302   2.534   3.084   5.015 -1.3001 -0.2266  0.4954
 2280SOL    HW218303   2.647   3.012   4.971  0.5144  0.1805  0.6561
 2281SOL     OW18304   2.637   1.819   3.022 -0.0800  0.8355 -0.5324
 2281SOL    HW118305   2.722   1.798   2.983 -0.4741 -1.3037 -0.2577
 2281SOL    HW218306   2.618   1.741   3.074 -2.3831  0.4431 -1.9415
 2282SOL     OW18307   2.707   2.407   6.630  0.0847 -0.8078  0.3223
 2282SOL    HW118308   2.785   2.367   6.592  1.6460  2.2128  0.3010
 2282SOL    HW218309   2.668   2.434   6.547  0.6898 -1.0526 -0.0367
 2283SOL     OW18310   4.029   3.024   2.929  0.1449 -0.3039 -0.5518
 2283SOL    HW118311   4.055   3.041   3.019 -1.5535  1.1207 -0.3239
 2283SOL    HW218312   4.060   2.934   2.916 -0.8387 -0.4442 -2.0083
 2284SOL     OW18313   1.645   2.095   5.875  0.2108 -0.5643 -0.0183
 2284SOL    HW118314   1.679   2.110   5.963  1.2588  0.1129 -0.5358
 2284SOL    HW218315   1.616   2.184   5.857 -0.9685 -0.7751  0.9111
 2285SOL     OW18316   0.523   2.690   4.592  0.2425  0.0473  0.5324
 2285SOL    HW118317   0.463   2.693   4.518  0.0407  2.3097  0.7865
 2285SOL    HW218318   0.574   2.771   4.585 -1.0790  0.5946 -2.7497
 2286SOL     OW18319   4.022   2.240   3.312  0.2085  0.1216 -0.0850
 2286SOL    HW118320   3.930   2.240   3.340  0.2847 -1.0111  0.1428
 2286SOL    HW218321   4.066   2.188   3.379 -1.8926 -0.5456  0.7996
 2287SOL     OW18322   4.715   0.460   0.470 -0.3669  0.4536 -0.3639
 2287SOL    HW118323   0.073   0.419   0.446  0.6372  0.8402  2.4682
 2287SOL    HW218324   0.005   0.487   0.560 -0.2816 -0.9028  0.0351
 2288SOL     OW18325   0.244   1.866   5.679  0.4483 -0.0902 -0.7716
 2288SOL    HW118326   0.275   1.904   5.597 -4.0809  2.1831 -1.4058
 2288SOL    HW218327   0.174   1.821   5.631  0.0721 -0.3486  0.0057
 2289SOL     OW18328   1.089   1.027   1.800 -0.2305 -0.7392  0.0306
 2289SOL    HW118329   1.092   1.008   1.706  2.0997  1.3058 -0.3085
 2289SOL    HW218330   1.045   0.945   1.822  0.3847 -1.3880 -1.1588
 2290SOL     OW18331   2.552   4.312   6.772 -0.4287 -0.0508  0.3155
 2290SOL    HW118332   2.556   4.326   6.867 -1.0989 -2.1070  0.6546
 2290SOL    HW218333   2.554   4.216   6.762 -2.0003 -0.0945  0.4655
 2291SOL     OW18334   2.457   2.892   8.271  0.4313  0.7801 -0.0312
 2291SOL    HW118335   2.476   2.867   8.180  2.3604 -1.1190  0.8817
 2291SOL    HW218336   2.539   2.939   8.289  0.3848  0.8292  0.0519
 2292SOL     OW18337   0.211   1.043  14.658 -0.3162 -0.1924  0.2115
 2292SOL    HW118338   0.164   0.991  14.593 -1.1260  1.3910 -0.4731
 2292SOL    HW218339   0.253   1.107  14.601  0.3069 -0.6803  0.1189
 2293SOL     OW18340   3.018   1.710  15.288 -0.1288  0.3917  0.3043
 2293SOL    HW118341   2.977   1.773  15.229 -0.5433  1.6385  1.9231
 2293SOL    HW218342   3.043   1.637  15.231  0.1080 -0.0918  1.0353
 2294SOL     OW18343   2.771   4.337   0.286 -0.4099 -0.5782  0.2592
 2294SOL    HW118344   2.857   4.335   0.327 -0.4023  0.8597  0.3382
 2294SOL    HW218345   2.717   4.303   0.357 -2.2605  0.1117 -0.8157
 2295SOL     OW18346   1.601   0.492   6.724  0.1991 -0.5340  0.3398
 2295SOL    HW118347   1.608   0.568   6.783 -0.4929 -0.5726  0.4798
 2295SOL    HW218348   1.692   0.490   6.697 -0.4177 -1.2124 -1.6619
 2296SOL     OW18349   0.819   3.653   7.626 -0.1554  0.1315 -0.0892
 2296SOL    HW118350   0.835   3.728   7.569  3.7797  0.4881  1.5383
 2296SOL    HW218351   0.725   3.654   7.605  0.0406 -2.4980 -1.2010
 2297SOL     OW18352   1.353   0.480  15.412 -0.2618  0.2418 -0.6344
 2297SOL    HW118353   1.276   0.477  15.470 -0.5881  2.6578 -0.9410
 2297SOL    HW218354   1.355   0.571  15.382 -0.6491 -0.0071 -1.4127
 2298SOL     OW18355   0.633   3.302  12.313 -0.0067 -0.0743 -0.1409
 2298SOL    HW118356   0.652   3.394  12.292 -0.1537 -0.1455 -0.5901
 2298SOL    HW218357   0.543   3.289  12.281 -0.8769 -0.7753  2.6088
 2299SOL     OW18358   0.544   1.741   5.383 -0.0300 -0.1473  0.2529
 2299SOL    HW118359   0.589   1.821   5.356 -0.0441 -0.6919 -1.3550
 2299SOL    HW218360   0.620   1.706   5.430  1.0020  0.7762 -0.7416
 2300SOL     OW18361   1.214   2.715  12.276 -0.0057  0.3278  0.0353
 2300SOL    HW118362   1.290   2.769  12.294  0.4327 -0.6043  0.9756
 2300SOL    HW218363   1.157   2.776  12.323  0.9403  0.6351  0.7833
 2301SOL     OW18364   2.832   1.824   0.909  0.3794 -0.0664 -0.6171
 2301SOL    HW118365   2.911   1.860   0.949 -2.3701  2.2693  2.6558
 2301SOL    HW218366   2.847   1.730   0.923 -0.1513 -0.0818 -0.1588
 2302SOL     OW18367   2.188   4.626  15.465 -0.4265  0.1774  0.4519
 2302SOL    HW118368   2.258   4.601  15.525 -0.3843 -1.5737 -0.3206
 2302SOL    HW218369   2.185   4.722  15.475  0.8901 -0.0162  2.6207
 2303SOL     OW18370   3.697   2.327   9.215  0.4068  0.3596 -0.2160
 2303SOL    HW118371   3.754   2.259   9.178 -1.4178 -0.5921 -1.2951
 2303SOL    HW218372   3.740   2.403   9.174  0.9932  0.1469  0.0111
 2304SOL     OW18373   2.713   0.177   2.739  0.0266 -0.1492  0.1011
 2304SOL    HW118374   2.620   0.162   2.719  0.6838 -1.0445 -2.2825
 2304SOL    HW218375   2.736   0.101   2.792  0.3222 -0.4403 -0.4469
 2305SOL     OW18376   3.762   0.231   5.323  0.0773 -0.0955 -0.1272
 2305SOL    HW118377   3.787   0.163   5.260 -0.2954  0.2547 -0.6534
 2305SOL    HW218378   3.834   0.294   5.311  1.5990 -1.7220  0.4023
 2306SOL     OW18379   1.085   3.469   7.833 -0.3399 -0.0866 -0.2542
 2306SOL    HW118380   1.036   3.410   7.776  0.9400 -1.6174  0.2102
 2306SOL    HW218381   1.008   3.508   7.874 -0.9842 -0.5452 -1.0426
 2307SOL     OW18382   1.736   0.096   5.864  0.0125 -0.2145 -0.1127
 2307SOL    HW118383   1.748   0.156   5.790  0.6533  4.1494  3.4654
 2307SOL    HW218384   1.691   0.029   5.814 -1.3946 -0.3429  1.3335
 2308SOL     OW18385   1.023   2.986  15.166 -0.4140 -0.4762 -0.1737
 2308SOL    HW118386   1.072   3.033  15.099 -0.6999  0.8155  0.5350
 2308SOL    HW218387   1.083   2.992  15.240 -1.5389  0.5782  0.6564
 2309SOL     OW18388   2.615   4.028   5.041 -0.0362 -0.3084 -0.1391
 2309SOL    HW118389   2.675   3.955   5.052 -0.3189 -0.5195 -0.0150
 2309SOL    HW218390   2.672   4.100   5.014  0.8015 -0.8981  0.0893
 2310SOL     OW18391   1.865   0.518   9.264  0.4182  0.1054  0.0229
 2310SOL    HW118392   1.936   0.475   9.216 -0.2753  0.2931 -1.1742
 2310SOL    HW218393   1.855   0.464   9.342  1.0368  0.2228  0.1856
 2311SOL     OW18394   3.944   0.451  16.699 -0.0794 -0.0082  0.2634
 2311SOL    HW118395   3.973   0.395  16.771 -0.0069 -1.5698 -0.9957
 2311SOL    HW218396   3.954   0.397  16.621 -1.2502  0.2935 -0.1079
 2312SOL     OW18397   2.977   1.727   6.767  0.2121 -0.3973 -0.1010
 2312SOL    HW118398   3.020   1.646   6.792  0.6672  0.1307  0.8319
 2312SOL    HW218399   3.012   1.797   6.823  3.4220 -3.9269  2.3215
 2313SOL     OW18400   1.332   3.238  14.553 -0.3699 -0.0656  0.1195
 2313SOL    HW118401   1.397   3.182  14.509 -1.9757  0.5593 -3.0664
 2313SOL    HW218402   1.363   3.247  14.643 -0.3865 -1.5222  0.2779
 2314SOL     OW18403   2.498   2.888   4.605  0.0808 -0.7441  0.0050
 2314SOL    HW118404   2.487   2.862   4.696  0.5299  2.7031  1.0558
 2314SOL    HW218405   2.421   2.942   4.586  0.7305 -1.0184 -3.3363
 2315SOL     OW18406   4.698   1.354   7.447  0.0395 -0.3847  0.2695
 2315SOL    HW118407   4.716   1.345   7.541  2.4597 -0.8318 -0.2553
 2315SOL    HW218408   4.659   1.441   7.445 -0.8373 -0.7875 -0.1547
 2316SOL     OW18409   4.369   1.319   6.173 -0.2737  0.1313 -0.5447
 2316SOL    HW118410   4.413   1.260   6.113 -2.5503 -0.9837 -1.1311
 2316SOL    HW218411   4.278   1.297   6.150  0.8464 -1.8989 -3.0022
 2317SOL     OW18412   0.231   1.565   3.031 -0.0261 -0.0590  0.1908
 2317SOL    HW118413   0.279   1.483   3.037 -0.7505 -0.6780 -2.3148
 2317SOL    HW218414   0.146   1.533   3.059 -0.8217 -0.9659 -3.3149
 2318SOL     OW18415   0.268   0.004   9.236 -0.1492 -0.0670  0.0351
 2318SOL    HW118416   0.320   4.698   9.161 -1.0191 -0.1250 -0.5456
 2318SOL    HW218417   0.184   0.027   9.197 -0.4221  0.7746  1.1399
 2319SOL     OW18418   3.041   4.199  14.219 -0.0947  0.2451 -0.5621
 2319SOL    HW118419   3.078   4.177  14.305  2.1415  1.2719 -1.2736
 2319SOL    HW218420   3.023   4.111  14.185  0.2514  0.0773 -0.3122
 2320SOL     OW18421   1.921   0.825   5.345 -0.5821  0.3253  0.4138
 2320SOL    HW118422   1.860   0.856   5.277 -0.0962 -0.3734 -0.3437
 2320SOL    HW218423   1.941   0.900   5.401 -0.0751  1.5918 -1.4529
 2321SOL     OW18424   4.034   1.594   4.803  0.4672  0.1085 -0.1218
 2321SOL    HW118425   3.972   1.523   4.794 -1.2540  1.6275 -0.2224
 2321SOL    HW218426   4.111   1.556   4.845 -0.7678 -2.4784 -0.1999
 2322SOL     OW18427   1.009   1.836   3.769  0.2984 -0.0166 -0.0970
 2322SOL    HW118428   1.052   1.911   3.729 -1.3668  0.9127 -0.1600
 2322SOL    HW218429   0.917   1.862   3.769  0.0891 -0.7438 -1.0224
 2323SOL     OW18430   4.470   1.305  15.168 -0.0002  0.0531  0.0662
 2323SOL    HW118431   4.428   1.384  15.203 -0.1453  0.3832 -0.8430
 2323SOL    HW218432   4.477   1.328  15.075 -0.8664 -0.8030 -0.2108
 2324SOL     OW18433   0.145   4.137   2.262  0.2013 -0.6675  0.5909
 2324SOL    HW118434   0.124   4.215   2.313  1.7975  0.4050 -0.3849
 2324SOL    HW218435   0.064   4.087   2.274 -0.8705  1.2719  1.4663
 2325SOL     OW18436   2.613   2.543   4.096  0.2392  0.1388  0.6694
 2325SOL    HW118437   2.532   2.496   4.113  0.2778 -0.0619  0.2897
 2325SOL    HW218438   2.592   2.628   4.057  0.2296 -0.2383 -0.1413
 2326SOL     OW18439   4.060   4.290   7.731 -0.8577 -0.2298  0.2485
 2326SOL    HW118440   4.002   4.311   7.657  1.4881  0.2492 -1.4784
 2326SOL    HW218441   4.072   4.197   7.712 -0.5474 -0.1312 -0.0584
 2327SOL     OW18442   1.087   0.255  16.481  0.2358  0.5450  0.1706
 2327SOL    HW118443   1.109   0.325  16.419  0.7108  0.3691  0.1436
 2327SOL    HW218444   0.997   0.233  16.454  0.5136 -0.2721 -0.0809
 2328SOL     OW18445   0.462   3.622   1.270  0.3706 -0.0306 -0.6441
 2328SOL    HW118446   0.402   3.593   1.339  0.3230  2.4638  0.3695
 2328SOL    HW218447   0.402   3.631   1.195 -1.6325 -4.1114  0.4365
 2329SOL     OW18448   0.639   1.299   5.144 -0.3973 -0.8294 -0.7447
 2329SOL    HW118449   0.685   1.314   5.061 -0.6242 -0.1945 -0.7577
 2329SOL    HW218450   0.560   1.352   5.131  0.0111  0.1982  0.9722
 2330SOL     OW18451   0.359   0.333   8.294 -0.0015 -0.5145  0.2787
 2330SOL    HW118452   0.385   0.424   8.284  0.5807 -0.6187  0.8378
 2330SOL    HW218453   0.387   0.312   8.383  3.0345  0.1328 -0.5452
 2331SOL     OW18454   3.804   3.689   3.718 -0.0638  0.1893 -0.5448
 2331SOL    HW118455   3.836   3.609   3.759  0.8919  0.3250 -1.0366
 2331SOL    HW218456   3.853   3.681   3.636  1.9479  1.6480  0.4929
 2332SOL     OW18457   1.526   1.179   9.086 -0.1832  0.0865 -0.5662
 2332SOL    HW118458   1.543   1.085   9.084  1.4430  0.3412  1.1996
 2332SOL    HW218459   1.442   1.195   9.044 -0.1120 -1.8593 -1.4433
 2333SOL     OW18460   1.005   2.067   8.485 -0.1893 -0.0296  0.1332
 2333SOL    HW118461   0.936   2.086   8.421  2.0681  0.7127 -2.0541
 2333SOL    HW218462   1.036   1.982   8.452  1.1043  0.1269  0.9604
 2334SOL     OW18463   0.324   4.470   9.056  0.5615  0.0383 -0.5942
 2334SOL    HW118464   0.404   4.428   9.088 -0.0681 -0.3020  0.5145
 2334SOL    HW218465   0.261   4.439   9.120  1.6448 -1.5661 -0.3143
 2335SOL     OW18466   3.575   4.615   9.346  0.6144  0.5002  0.0097
 2335SOL    HW118467   3.610   4.683   9.403  0.3507 -1.0629  2.0162
 2335SOL    HW218468   3.534   4.663   9.274 -1.5187 -0.5789  0.4849
 2336SOL     OW18469   1.618   3.588   7.629  0.5542 -0.1989 -0.2475
 2336SOL    HW118470   1.540   3.612   7.580  0.9931  0.1493 -0.7800
 2336SOL    HW218471   1.576   3.580   7.715 -2.6494 -1.4824 -1.9221
 2337SOL     OW18472   2.732   4.150   0.091 -0.4990  0.8394 -0.1728
 2337SOL    HW118473   2.815   4.130   0.050 -1.5929 -1.9307 -1.0042
 2337SOL    HW218474   2.767   4.215   0.152 -1.0060  2.2259 -1.3643
 2338SOL     OW18475   2.482   1.874  17.394  0.4431 -0.0513  0.9682
 2338SOL    HW118476   2.406   1.930  17.412 -0.6399 -0.7197 -1.5551
 2338SOL    HW218477   2.457   1.829  17.314 -3.4616  2.1469  0.9648
 2339SOL     OW18478   3.882   1.123   9.267  0.7180  0.7765  0.1968
 2339SOL    HW118479   3.963   1.172   9.251  0.6324  0.6345 -0.6415
 2339SOL    HW218480   3.879   1.058   9.198  0.1604 -0.1847  1.1193
 2340SOL     OW18481   2.735   0.072   7.799  0.4592  0.3691  0.8887
 2340SOL    HW118482   2.697   0.144   7.749  1.4725  0.6960  0.5910
 2340SOL    HW218483   2.668   0.055   7.866 -0.5417  2.9113  0.5019
 2341SOL     OW18484   1.322   2.275  16.678  0.2044 -0.0013  0.8516
 2341SOL    HW118485   1.321   2.215  16.603  1.3235  3.4435 -1.8949
 2341SOL    HW218486   1.376   2.345  16.640  2.0025 -1.3949  0.7910
 2342SOL     OW18487   4.596   1.256   2.225  0.1750  0.2895 -0.6324
 2342SOL    HW118488   4.655   1.229   2.295 -2.7513 -0.3467  1.5931
 2342SOL    HW218489   4.646   1.237   2.146  0.5270 -0.6904 -0.1624
 2343SOL     OW18490   3.578   4.235   9.165  0.3634  0.4304  0.4566
 2343SOL    HW118491   3.671   4.256   9.153  0.9120 -2.4442 -0.5779
 2343SOL    HW218492   3.534   4.283   9.095  0.8267  0.5163  0.2221
 2344SOL     OW18493   4.400   2.026  13.141 -0.2533 -0.6053 -0.4737
 2344SOL    HW118494   4.332   2.031  13.208  0.8161 -0.6349  0.6102
 2344SOL    HW218495   4.446   2.110  13.140 -1.1878 -0.0855 -0.2037
 2345SOL     OW18496   0.466   3.528   3.964 -0.1301 -0.1609 -0.5937
 2345SOL    HW118497   0.454   3.521   3.869  0.0936  0.1838 -0.6460
 2345SOL    HW218498   0.555   3.561   3.974 -0.5832  1.0722 -0.6211
 2346SOL     OW18499   4.143   4.646   7.225  0.2267  0.1548  0.1272
 2346SOL    HW118500   4.157   4.701   7.303  0.8160 -1.3406  1.0697
 2346SOL    HW218501   4.235   4.639   7.199  0.2361 -0.1587  0.2500
 2347SOL     OW18502   1.412   4.673  11.832 -0.2981 -0.3645 -0.6287
 2347SOL    HW118503   1.454   4.616  11.897 -3.1130  0.4177  1.8612
 2347SOL    HW218504   1.372   0.010  11.892  1.0168 -1.1425  1.0640
 2348SOL     OW18505   1.303   1.148   1.619  0.0387 -0.2593 -0.1993
 2348SOL    HW118506   1.274   1.137   1.709  1.2495  1.6874  0.4390
 2348SOL    HW218507   1.387   1.102   1.618 -0.3099 -0.8971 -0.0801
 2349SOL     OW18508   3.843   4.564   8.784  0.2262 -0.2440  0.0543
 2349SOL    HW118509   3.898   4.550   8.707  0.5513  0.6166  0.1197
 2349SOL    HW218510   3.851   4.482   8.833  1.4716  0.1016  0.4269
 2350SOL     OW18511   2.153   2.786   5.841 -0.0497 -0.0105  0.1915
 2350SOL    HW118512   2.204   2.726   5.786  1.0752 -0.9414  2.2567
 2350SOL    HW218513   2.074   2.732   5.849  0.7839 -1.5232 -1.8566
 2351SOL     OW18514   0.214   2.004   3.668 -0.3153 -0.1749 -0.1429
 2351SOL    HW118515   0.190   1.962   3.750  0.1871  0.7180  0.4649
 2351SOL    HW218516   0.306   2.019   3.688 -0.4935  0.6108  0.1059
 2352SOL     OW18517   2.192   1.286   0.740  0.3920  0.0791 -0.1937
 2352SOL    HW118518   2.117   1.237   0.707 -0.7659  1.0766  0.9550
 2352SOL    HW218519   2.193   1.372   0.698  1.1247 -0.2025 -0.7629
 2353SOL     OW18520   3.188   0.841   5.453 -0.3529  0.0230 -0.1448
 2353SOL    HW118521   3.160   0.751   5.470 -1.5405  0.0938 -1.7721
 2353SOL    HW218522   3.283   0.840   5.466 -0.4155  0.0113  0.3130
 2354SOL     OW18523   2.628   0.480   3.470 -0.4648 -0.3921  0.2289
 2354SOL    HW118524   2.662   0.393   3.449  0.6833  0.1745 -0.2483
 2354SOL    HW218525   2.694   0.544   3.442 -2.0088  0.2720 -1.8573
 2355SOL     OW18526   0.964   4.499   5.678  0.3624 -0.0820  0.3974
 2355SOL    HW118527   0.959   4.546   5.761  0.1624  0.2133  0.2190
 2355SOL    HW218528   1.058   4.487   5.665  0.2197  0.0655 -0.7537
 2356SOL     OW18529   0.796   3.047   3.514  0.3307 -0.6666  0.2708
 2356SOL    HW118530   0.835   3.092   3.589  0.5677 -0.1812 -0.1435
 2356SOL    HW218531   0.871   3.039   3.456  0.7405 -2.2306  1.0161
 2357SOL     OW18532   0.351   2.797   7.417 -0.1067  0.2617  0.5133
 2357SOL    HW118533   0.279   2.841   7.371  2.0869  1.0950 -2.1482
 2357SOL    HW218534   0.327   2.705   7.410  1.5035  0.0414 -2.3491
 2358SOL     OW18535   0.744   4.254   3.965  0.5985 -0.2940 -0.0287
 2358SOL    HW118536   0.654   4.277   3.985  1.3903  0.6671  2.4243
 2358SOL    HW218537   0.773   4.328   3.912  1.0206  0.1080  0.7727
 2359SOL     OW18538   4.300   3.226   8.745  0.1673  0.6882  0.4829
 2359SOL    HW118539   4.219   3.263   8.710  0.7904  0.0342 -1.6695
 2359SOL    HW218540   4.348   3.306   8.766  2.8119 -1.1505  1.4371
 2360SOL     OW18541   4.475   3.510   5.404  0.0739 -0.1532 -0.3104
 2360SOL    HW118542   4.457   3.604   5.409  0.3523 -0.2550  3.1226
 2360SOL    HW218543   4.565   3.509   5.370  0.2276  3.0438 -0.0160
 2361SOL     OW18544   1.142   3.873   2.329 -0.1564  0.3783  0.3556
 2361SOL    HW118545   1.059   3.833   2.356  0.1176 -0.0605  0.5561
 2361SOL    HW218546   1.166   3.817   2.255 -1.2037 -1.0258  1.0493
 2362SOL     OW18547   1.934   1.495  13.440  0.2142 -0.0926  0.0733
 2362SOL    HW118548   1.892   1.440  13.507 -1.3020 -2.5451 -2.9307
 2362SOL    HW218549   1.922   1.581  13.482  2.8927  1.1557 -1.7411
 2363SOL     OW18550   4.532   1.032   5.424  0.2571  0.5921  0.1839
 2363SOL    HW118551   4.504   0.951   5.381  1.8058 -0.0283  0.3499
 2363SOL    HW218552   4.507   1.013   5.514  0.3700  1.8097  0.4716
 2364SOL     OW18553   2.490   2.788   4.873  1.2295  0.7180  0.2348
 2364SOL    HW118554   2.581   2.759   4.864  1.0583  0.4102 -0.4754
 2364SOL    HW218555   2.503   2.866   4.927 -0.3313  1.1559 -0.0163
 2365SOL     OW18556   4.335   2.049  11.089  0.2884 -0.0747  0.2073
 2365SOL    HW118557   4.322   2.104  11.167 -1.1245 -1.9915  1.3345
 2365SOL    HW218558   4.253   2.001  11.102 -1.2104  2.0215 -1.4185
 2366SOL     OW18559   2.484   0.966   2.198  0.2826 -0.1301 -0.4165
 2366SOL    HW118560   2.497   0.948   2.106  0.8967 -1.5978 -0.0339
 2366SOL    HW218561   2.524   1.053   2.202 -0.5658  0.2646 -0.3907
 2367SOL     OW18562   2.628   1.621   5.684  0.0474 -0.2041  0.6145
 2367SOL    HW118563   2.565   1.671   5.631  1.2617  1.5778  0.8721
 2367SOL    HW218564   2.660   1.556   5.622 -0.0581  0.0676  0.2717
 2368SOL     OW18565   1.122   0.882  16.489  0.1941 -0.0183 -0.1605
 2368SOL    HW118566   1.168   0.801  16.512 -0.7931 -0.7737 -0.8873
 2368SOL    HW218567   1.036   0.843  16.500  0.7595 -0.4248  2.7112
 2369SOL     OW18568   1.717   4.318  14.307  0.1578 -0.4111  0.4415
 2369SOL    HW118569   1.630   4.345  14.337  1.0618  1.5977  1.2667
 2369SOL    HW218570   1.719   4.230  14.343  0.8071 -0.9795 -0.9735
 2370SOL     OW18571   2.410   0.751   7.516  0.3485 -0.3655  0.1057
 2370SOL    HW118572   2.363   0.714   7.591 -0.1225 -0.3025 -0.1526
 2370SOL    HW218573   2.470   0.678   7.501  0.5391 -0.2058  0.0888
 2371SOL     OW18574   4.590   1.898   5.093 -0.7147  0.1290 -0.3507
 2371SOL    HW118575   4.653   1.968   5.075 -0.0551 -0.9200 -2.1470
 2371SOL    HW218576   4.541   1.875   5.014 -0.7745  2.3741 -0.9575
 2372SOL     OW18577   1.819   2.664   4.381  0.3758  0.5048 -0.4812
 2372SOL    HW118578   1.833   2.747   4.336  0.1722  0.1666 -1.1711
 2372SOL    HW218579   1.843   2.692   4.469  0.1778  1.9168 -0.8764
 2373SOL     OW18580   2.189   3.942  12.870  0.2381  0.5233 -0.1247
 2373SOL    HW118581   2.278   3.915  12.893 -0.3194 -2.3910 -1.3675
 2373SOL    HW218582   2.207   4.029  12.835  0.8410  1.2852  2.0296
 2374SOL     OW18583   1.685   4.201   2.370  0.8664  0.6661  0.1410
 2374SOL    HW118584   1.596   4.238   2.373  0.5878  0.1380 -2.1404
 2374SOL    HW218585   1.716   4.257   2.441 -2.0419  1.9511  0.4199
 2375SOL     OW18586   4.072   2.078   5.867  0.3916  0.7226 -0.2587
 2375SOL    HW118587   4.038   2.167   5.878 -0.6210  0.8139 -4.2032
 2375SOL    HW218588   4.093   2.058   5.958  0.1798  0.5518 -0.2493
 2376SOL     OW18589   2.112   1.625  14.323 -0.1512  0.0692  0.4234
 2376SOL    HW118590   2.064   1.546  14.300 -3.2616  2.8403 -2.7106
 2376SOL    HW218591   2.062   1.688  14.271 -0.3178  0.3499  0.9214
 2377SOL     OW18592   2.050   0.189   7.684 -0.1833  0.5802  0.0051
 2377SOL    HW118593   2.061   0.105   7.641  3.8256  0.5173  1.1673
 2377SOL    HW218594   1.983   0.165   7.748 -0.5972  2.1389  0.1715
 2378SOL     OW18595   3.323   1.714   2.474 -0.0836 -0.0673 -0.1291
 2378SOL    HW118596   3.407   1.734   2.516  0.5052  0.7894 -1.7104
 2378SOL    HW218597   3.344   1.624   2.449 -1.0983  0.3176 -2.3763
 2379SOL     OW18598   4.666   0.681   0.327  0.3193  0.1307  0.0474
 2379SOL    HW118599   4.678   0.614   0.394  0.3625  2.6480  2.5498
 2379SOL    HW218600   4.586   0.649   0.284 -0.3018 -2.5943  3.2362
 2380SOL     OW18601   4.677   2.080   1.988 -0.0835  0.0685 -0.1650
 2380SOL    HW118602   4.671   2.033   2.071 -1.4615  0.3069 -0.1305
 2380SOL    HW218603   4.585   2.108   1.989  0.4220  1.4960  3.3049
 2381SOL     OW18604   3.272   3.716   1.474  0.0088  0.3302 -0.3573
 2381SOL    HW118605   3.275   3.685   1.565  2.5760 -1.5480 -1.0723
 2381SOL    HW218606   3.365   3.702   1.457 -0.5533 -1.8837 -1.6028
 2382SOL     OW18607   3.885   2.685   8.576 -0.4193  0.9015 -0.0202
 2382SOL    HW118608   3.891   2.725   8.663 -2.3461 -1.1682  1.0557
 2382SOL    HW218609   3.820   2.740   8.532  0.1587  2.1328  0.6587
 2383SOL     OW18610   3.461   0.681   8.318 -0.2201 -0.1267  0.0409
 2383SOL    HW118611   3.456   0.610   8.382  0.0650 -0.4445 -0.2879
 2383SOL    HW218612   3.460   0.758   8.376 -1.4652 -0.1828  0.0843
 2384SOL     OW18613   2.973   1.180   6.383  0.2063 -0.4654  0.2922
 2384SOL    HW118614   3.051   1.232   6.401  0.6805 -1.0718  0.0280
 2384SOL    HW218615   2.995   1.093   6.417  0.6643 -0.9328 -1.1612
 2385SOL     OW18616   4.124   4.036   2.719  0.1290  0.5559  0.7851
 2385SOL    HW118617   4.096   4.093   2.647 -1.5426 -0.9001  0.2641
 2385SOL    HW218618   4.053   3.971   2.716 -0.1353  0.7529  3.0608
 2386SOL     OW18619   1.745   3.420   8.006  0.3876  0.2485  0.3701
 2386SOL    HW118620   1.708   3.336   8.031 -0.6104  1.1537  1.9492
 2386SOL    HW218621   1.672   3.460   7.957  0.3355  0.6653  0.7864
 2387SOL     OW18622   0.865   2.168   2.446 -0.2492  0.1824 -0.0086
 2387SOL    HW118623   0.793   2.106   2.435 -0.8580  0.8608  0.1207
 2387SOL    HW218624   0.941   2.116   2.422  1.0126  2.1237 -0.2194
 2388SOL     OW18625   1.324   0.161   1.334  0.5863 -0.0020 -0.3626
 2388SOL    HW118626   1.296   0.080   1.375  0.1961  0.5986  0.5633
 2388SOL    HW218627   1.286   0.150   1.247  1.8440 -0.9983 -0.7813
 2389SOL     OW18628   2.674   1.819   0.325 -0.4097  0.2232 -0.0207
 2389SOL    HW118629   2.702   1.781   0.408  2.7640  2.5855 -0.0452
 2389SOL    HW218630   2.714   1.905   0.326 -0.3768  0.2219 -1.5100
 2390SOL     OW18631   3.274   0.352  15.845  0.2754 -0.5238  0.3992
 2390SOL    HW118632   3.194   0.320  15.802  0.3684  0.6986 -0.6816
 2390SOL    HW218633   3.253   0.445  15.852  0.2115 -0.6995  2.5371
 2391SOL     OW18634   3.631   2.379   1.334 -0.1376 -0.2060  0.2720
 2391SOL    HW118635   3.645   2.459   1.283  2.3862  0.1385  1.5424
 2391SOL    HW218636   3.537   2.366   1.345 -0.0616  0.3855  1.6224
 2392SOL     OW18637   3.643   0.186   8.807 -0.0382  0.0947 -0.7424
 2392SOL    HW118638   3.589   0.255   8.844 -0.3509 -1.0009  0.8605
 2392SOL    HW218639   3.672   0.228   8.726  1.0458 -0.6372 -0.7406
 2393SOL     OW18640   2.552   3.647  15.771  0.8371  1.0808  0.1274
 2393SOL    HW118641   2.580   3.634  15.681 -3.4253  1.4512 -1.2330
 2393SOL    HW218642   2.612   3.593  15.822  1.9573  1.0957 -1.1769
 2394SOL     OW18643   3.810   3.575   4.741  0.2657  0.2924  0.1230
 2394SOL    HW118644   3.813   3.580   4.645  0.2761  2.2710  0.2395
 2394SOL    HW218645   3.900   3.591   4.769  0.7543 -0.6120 -0.8985
 2395SOL     OW18646   4.142   0.478  11.415 -0.4038  0.6192 -0.3470
 2395SOL    HW118647   4.234   0.469  11.391 -0.6006  3.5238 -2.0576
 2395SOL    HW218648   4.100   0.459  11.332 -0.1123 -0.8580 -0.1571
 2396SOL     OW18649   0.072   4.313   0.755  0.6875 -0.6445 -0.1085
 2396SOL    HW118650   0.046   4.403   0.736 -0.6398 -0.8268  0.7969
 2396SOL    HW218651   0.154   4.324   0.803  0.4532 -0.9036  0.3479
 2397SOL     OW18652   2.096   4.369  13.759 -0.1019 -0.5280 -0.1256
 2397SOL    HW118653   2.152   4.421  13.702 -0.6432 -0.6143 -0.7490
 2397SOL    HW218654   2.023   4.350  13.700  0.0035  2.5203 -1.2280
 2398SOL     OW18655   4.547   0.258  15.140  0.3476 -0.2112 -0.3066
 2398SOL    HW118656   4.556   0.322  15.211 -0.3364 -1.7637  1.1938
 2398SOL    HW218657   4.502   0.305  15.071  2.1584 -1.0127 -2.0498
 2399SOL     OW18658   2.827   1.564  17.131  0.5112 -0.2443 -0.5099
 2399SOL    HW118659   2.740   1.524  17.133  0.7095 -0.7233 -1.0443
 2399SOL    HW218660   2.853   1.562  17.223  1.4916 -0.2166 -0.7877
 2400SOL     OW18661   0.296   1.239  17.453  0.2911 -0.5638 -0.2763
 2400SOL    HW118662   0.322   1.152  17.485 -1.6374 -0.4170  1.6363
 2400SOL    HW218663   0.283   1.286  17.535 -1.8936 -2.3822  0.4382
 2401SOL     OW18664   1.993   0.962  10.898  0.2265  0.0770 -0.0368
 2401SOL    HW118665   2.004   0.906  10.821 -0.1228 -1.8748  1.3321
 2401SOL    HW218666   1.899   0.951  10.916  0.2265 -1.7654 -1.1339
 2402SOL     OW18667   0.933   2.882  14.007  0.4026 -0.2131 -0.3050
 2402SOL    HW118668   0.943   2.929  13.925  1.2537  0.0719 -0.0384
 2402SOL    HW218669   0.907   2.948  14.071  0.9322 -0.0104 -0.2919
 2403SOL     OW18670   3.270   3.640   1.745 -0.0324 -0.0153  0.2872
 2403SOL    HW118671   3.203   3.676   1.803 -0.3375  1.4259 -0.9540
 2403SOL    HW218672   3.244   3.554   1.713 -0.9785  0.9848 -1.6523
 2404SOL     OW18673   0.507   1.902   2.463 -0.4647  0.1221 -0.0757
 2404SOL    HW118674   0.426   1.851   2.454  1.4412 -2.7647 -1.1696
 2404SOL    HW218675   0.532   1.875   2.552 -1.4279 -1.8751 -0.3978
 2405SOL     OW18676   2.165   2.594   4.385 -0.1362 -0.2223 -0.5715
 2405SOL    HW118677   2.254   2.628   4.392 -0.5196  0.5201  0.5813
 2405SOL    HW218678   2.137   2.578   4.475  1.3249 -2.9386 -0.5722
 2406SOL     OW18679   3.478   0.393  15.094  0.6654 -0.2117 -0.0212
 2406SOL    HW118680   3.466   0.298  15.097  1.7814 -0.3413  0.1774
 2406SOL    HW218681   3.566   0.398  15.056  1.1343 -3.4695  0.5998
 2407SOL     OW18682   4.321   2.793   2.471  0.4769  0.4146  0.6175
 2407SOL    HW118683   4.361   2.826   2.391  0.2716  0.3685  0.4942
 2407SOL    HW218684   4.229   2.780   2.446  1.0118  0.8021 -1.4977
 2408SOL     OW18685   2.725   3.330  15.039  0.5537 -0.2300 -0.4187
 2408SOL    HW118686   2.794   3.326  14.973  0.9293  0.1735 -0.0418
 2408SOL    HW218687   2.659   3.373  14.984 -0.0775  0.5814  0.9863
 2409SOL     OW18688   4.179   0.991   2.101 -0.0256 -0.2018 -0.4906
 2409SOL    HW118689   4.239   1.061   2.076  1.5959 -1.2639  0.3597
 2409SOL    HW218690   4.128   0.989   2.021  0.1714  1.7518 -0.6522
 2410SOL     OW18691   3.614   0.007   5.102  0.0454 -1.2331  0.2054
 2410SOL    HW118692   3.527   4.725   5.141 -1.0617  2.0210 -1.6741
 2410SOL    HW218693   3.602   0.065   5.027 -1.0443 -0.7815  0.7147
 2411SOL     OW18694   3.524   2.294   2.324  0.7414  0.0440 -0.0060
 2411SOL    HW118695   3.574   2.368   2.359 -0.6563 -0.3485  2.8053
 2411SOL    HW218696   3.440   2.315   2.364  0.8259 -1.2868  0.8768
 2412SOL     OW18697   1.482   2.039  13.754  0.0577  0.1242 -0.9078
 2412SOL    HW118698   1.420   2.096  13.800 -0.1840 -1.2541  0.4984
 2412SOL    HW218699   1.440   1.958  13.725 -2.0133 -0.1097  2.7365
 2413SOL     OW18700   4.087   1.338   6.114 -0.3789  0.0340 -0.1831
 2413SOL    HW118701   4.062   1.429   6.129 -1.3168 -0.3324  0.4527
 2413SOL    HW218702   4.015   1.288   6.152  1.1986 -1.8061  0.4686
 2414SOL     OW18703   0.889   0.241   7.235 -0.4648  0.0362 -0.2689
 2414SOL    HW118704   0.939   0.314   7.272  1.0868 -1.8798  1.4305
 2414SOL    HW218705   0.942   0.207   7.162  0.4646  0.5193  0.1787
 2415SOL     OW18706   1.320   1.040   3.686 -0.0903  0.1762 -1.0869
 2415SOL    HW118707   1.321   1.124   3.732  1.0100 -1.1680  1.3488
 2415SOL    HW218708   1.290   1.072   3.601 -0.8833  0.0680 -0.8506
 2416SOL     OW18709   4.698   3.180   5.620 -0.1182 -0.3212  0.2852
 2416SOL    HW118710   4.629   3.231   5.664 -0.8894 -0.4135 -0.8120
 2416SOL    HW218711   0.051   3.215   5.662  0.2193 -0.3872 -0.2963
 2417SOL     OW18712   1.476   0.466  11.691 -0.4722  0.0362  0.5468
 2417SOL    HW118713   1.476   0.375  11.664 -1.6244  0.3731 -0.5868
 2417SOL    HW218714   1.559   0.511  11.671 -0.5003 -1.6315 -3.2723
 2418SOL     OW18715   2.573   1.455  17.194  0.2338  0.2929  0.5736
 2418SOL    HW118716   2.654   1.441  17.242  0.9190 -0.4484 -0.7823
 2418SOL    HW218717   2.529   1.371  17.207 -0.5937  0.4928 -0.8616
 2419SOL     OW18718   1.425   2.573  14.547  0.0170 -0.0607 -0.1939
 2419SOL    HW118719   1.513   2.549  14.577 -0.2356  1.0205  1.4151
 2419SOL    HW218720   1.419   2.652  14.601 -4.8598  0.9231 -2.2066
 2420SOL     OW18721   0.252   1.614   9.434  0.5373  0.7390  0.3984
 2420SOL    HW118722   0.171   1.575   9.400  0.9826 -1.2345  1.5619
 2420SOL    HW218723   0.261   1.673   9.360 -0.5278 -1.2117 -1.2828
 2421SOL     OW18724   1.522   3.590   5.157 -0.4864 -0.0341 -0.1987
 2421SOL    HW118725   1.560   3.549   5.079 -0.3698 -1.7920  0.7668
 2421SOL    HW218726   1.602   3.608   5.206  1.0740 -0.9702 -2.3793
 2422SOL     OW18727   0.492   2.420  11.659  0.1504 -0.3532 -0.7990
 2422SOL    HW118728   0.562   2.357  11.642  1.9248  1.4330 -0.1127
 2422SOL    HW218729   0.525   2.492  11.605  1.2742 -0.5414 -0.3601
 2423SOL     OW18730   2.672   0.443  14.399  0.1428  0.2601 -0.8704
 2423SOL    HW118731   2.629   0.466  14.317  0.3218  3.0472 -0.2100
 2423SOL    HW218732   2.710   0.362  14.366 -1.0883 -0.6429 -0.0471
 2424SOL     OW18733   0.611   4.649   3.091  0.9572  0.0034  0.3407
 2424SOL    HW118734   0.663   4.693   3.159  0.8917  1.6032 -0.6649
 2424SOL    HW218735   0.545   4.594   3.135  0.0488 -0.4372 -1.5976
 2425SOL     OW18736   1.574   0.944   7.386 -0.3102  0.0860 -1.1136
 2425SOL    HW118737   1.564   0.891   7.466  1.3561  0.4418 -0.6573
 2425SOL    HW218738   1.668   0.962   7.387 -0.6414  1.7443  0.9901
 2426SOL     OW18739   0.023   1.847  13.905 -0.3221  0.5288 -0.2398
 2426SOL    HW118740   0.039   1.901  13.983 -0.0160  1.9577 -1.2990
 2426SOL    HW218741   0.115   1.832  13.881 -0.9152 -1.8715 -0.9414
 2427SOL     OW18742   0.365   0.782   0.081  0.2569  1.0674 -0.5752
 2427SOL    HW118743   0.400   0.800   0.168 -0.5107 -1.0437  0.1892
 2427SOL    HW218744   0.332   0.694   0.099  2.1383  0.7275  1.2376
 2428SOL     OW18745   3.347   3.308   5.834  0.1332  0.1454 -0.0285
 2428SOL    HW118746   3.277   3.267   5.885  0.7603 -2.1297 -1.0060
 2428SOL    HW218747   3.294   3.352   5.767 -0.6698 -1.1298 -0.2340
 2429SOL     OW18748   3.707   4.177   7.253  0.8358  0.0365  0.2979
 2429SOL    HW118749   3.729   4.112   7.187  0.8878 -0.6432  0.9881
 2429SOL    HW218750   3.692   4.258   7.203 -2.0783 -1.3274 -1.0021
 2430SOL     OW18751   4.381   2.787   9.650  0.1691 -0.8247  0.5415
 2430SOL    HW118752   4.411   2.748   9.732 -1.5791 -0.9719  1.1182
 2430SOL    HW218753   4.466   2.796   9.608 -0.2364 -0.3311 -0.1863
 2431SOL     OW18754   0.017   0.066   0.529 -0.2280 -0.0063 -0.3061
 2431SOL    HW118755   4.706   0.141   0.481  0.5282 -1.2880 -2.9081
 2431SOL    HW218756   0.108   0.059   0.500 -0.8248 -1.3464 -1.8814
 2432SOL     OW18757   1.923   2.766   6.246 -0.2398  0.4139  0.9066
 2432SOL    HW118758   1.928   2.813   6.163  0.5796 -0.2045  0.6189
 2432SOL    HW218759   2.014   2.777   6.273 -0.4753 -1.7238  2.5502
 2433SOL     OW18760   3.432   1.112  14.697 -0.0506  0.6287  0.1835
 2433SOL    HW118761   3.437   1.091  14.790 -0.2491 -0.8931 -0.1561
 2433SOL    HW218762   3.461   1.204  14.695  1.9834 -0.0122  0.1443
 2434SOL     OW18763   1.508   3.417   3.700 -0.3244 -0.5825  0.3461
 2434SOL    HW118764   1.600   3.442   3.699 -0.1423 -1.2749 -3.0134
 2434SOL    HW218765   1.506   3.342   3.760 -0.2238  0.6191  1.8347
 2435SOL     OW18766   4.261   4.188   8.602 -0.0424 -0.1738 -0.1886
 2435SOL    HW118767   4.230   4.141   8.679 -1.4446 -0.9555 -1.2197
 2435SOL    HW218768   4.258   4.281   8.625 -0.5124  0.0852 -1.2488
 2436SOL     OW18769   2.601   4.329   8.884 -0.0613 -0.4843 -0.5276
 2436SOL    HW118770   2.547   4.400   8.919 -0.7375 -0.1250 -2.3040
 2436SOL    HW218771   2.683   4.379   8.883 -0.0289 -0.6348 -3.8984
 2437SOL     OW18772   2.178   2.737   3.140  0.2700 -0.3028  0.4768
 2437SOL    HW118773   2.159   2.684   3.063 -0.1001  0.3670  0.1082
 2437SOL    HW218774   2.157   2.670   3.205 -2.2481  1.0422  1.0499
 2438SOL     OW18775   1.221   0.024   6.172 -0.7612 -0.6922  0.3404
 2438SOL    HW118776   1.218   0.085   6.246 -0.8631 -0.7904  0.4177
 2438SOL    HW218777   1.173   4.670   6.198  0.9475 -1.6712  0.4981
 2439SOL     OW18778   3.066   3.708   4.711 -0.2864 -0.2100  0.0639
 2439SOL    HW118779   3.123   3.781   4.738 -0.1914  0.8388 -2.9499
 2439SOL    HW218780   3.119   3.633   4.739  0.1325 -0.4947 -1.5079
 2440SOL     OW18781   4.018   4.607   5.461  0.2136  0.2610  0.2368
 2440SOL    HW118782   3.971   4.536   5.505 -0.7380  0.0066 -1.2116
 2440SOL    HW218783   3.988   4.686   5.507 -1.3570  0.1111 -0.5513
 2441SOL     OW18784   2.931   2.548   2.308  0.0871 -0.0893 -0.3379
 2441SOL    HW118785   2.979   2.535   2.226  1.5624  0.1462  0.5032
 2441SOL    HW218786   2.977   2.615   2.358 -1.7549  1.6285 -0.9047
 2442SOL     OW18787   3.834   0.052   4.058  0.1581 -0.8262  0.0257
 2442SOL    HW118788   3.760   0.067   4.117  1.2852 -1.7669  1.6608
 2442SOL    HW218789   3.833   4.682   4.059 -0.1511 -0.8161  2.5333
 2443SOL     OW18790   2.964   2.602   6.964  0.0803  0.4523 -0.0887
 2443SOL    HW118791   2.989   2.582   6.873 -2.7092 -0.8042 -0.5826
 2443SOL    HW218792   2.933   2.515   6.989 -0.8749  0.7879 -0.1025
 2444SOL     OW18793   2.901   3.669  11.778  0.7306  0.0538  0.2422
 2444SOL    HW118794   2.937   3.625  11.855  3.7513 -0.2563 -1.3321
 2444SOL    HW218795   2.940   3.611  11.712  0.2326 -2.1352  1.8866
 2445SOL     OW18796   1.795   4.078   0.029 -0.1696  0.0478 -0.6991
 2445SOL    HW118797   1.847   4.049   0.104 -0.8270  0.3256 -0.1423
 2445SOL    HW218798   1.710   4.045   0.056  0.4895  0.0032  1.3485
 2446SOL     OW18799   3.424   0.708  16.269  0.2988 -0.5392 -0.3673
 2446SOL    HW118800   3.491   0.770  16.297 -1.6396  0.4831  1.9592
 2446SOL    HW218801   3.458   0.627  16.308  0.6110 -1.1674 -1.9390
 2447SOL     OW18802   1.819   4.169   4.946 -0.8738  0.2330 -0.5099
 2447SOL    HW118803   1.785   4.135   4.863  1.6274 -1.3884 -0.8652
 2447SOL    HW218804   1.745   4.170   5.006 -1.7289  0.1620 -1.5503
 2448SOL     OW18805   0.918   0.808  13.318  0.5283 -0.7967  0.7920
 2448SOL    HW118806   0.849   0.797  13.383 -1.6958  0.3878 -1.3898
 2448SOL    HW218807   0.867   0.796  13.238  1.5097  0.0500  0.0390
 2449SOL     OW18808   1.470   0.596  11.325  0.0540  0.2622  0.0183
 2449SOL    HW118809   1.562   0.576  11.309 -0.1717 -1.5686  1.0281
 2449SOL    HW218810   1.434   0.508  11.312  0.4467 -0.0345  0.9324
 2450SOL     OW18811   3.725   0.948   9.072  0.0213 -0.3734 -0.7551
 2450SOL    HW118812   3.639   0.907   9.081  0.0823 -0.5108 -0.7889
 2450SOL    HW218813   3.763   0.889   9.137 -0.8208 -1.7183 -1.4851
 2451SOL     OW18814   1.389   2.212  11.978 -0.0379 -0.2827 -0.0538
 2451SOL    HW118815   1.466   2.177  12.023  0.4898 -0.0423 -0.7802
 2451SOL    HW218816   1.327   2.211  12.052 -0.3548  0.9348 -0.3055
 2452SOL     OW18817   2.424   1.472   2.170 -0.3461 -0.0497 -0.1588
 2452SOL    HW118818   2.516   1.463   2.148 -0.2632  0.1625  0.0923
 2452SOL    HW218819   2.405   1.557   2.211  0.5664  0.6850 -1.2517
 2453SOL     OW18820   2.559   2.207   9.210  0.2723  0.1255  0.0393
 2453SOL    HW118821   2.635   2.168   9.169  0.1820 -0.3190  0.2997
 2453SOL    HW218822   2.567   2.301   9.192  0.4005  0.0022 -0.5253
 2454SOL     OW18823   1.862   3.666  12.407  0.4663  0.0524  0.1765
 2454SOL    HW118824   1.837   3.696  12.319 -0.0167 -1.2865 -0.1376
 2454SOL    HW218825   1.811   3.585  12.401 -0.4281  0.5769  0.6326
 2455SOL     OW18826   1.655   1.059   2.247 -0.1641 -0.1278  0.3089
 2455SOL    HW118827   1.698   1.027   2.167  0.1926 -1.0143  0.8618
 2455SOL    HW218828   1.597   0.984   2.258  0.2522 -0.4847  0.0472
 2456SOL     OW18829   3.558   1.933   9.706  0.5663 -0.2155  0.1530
 2456SOL    HW118830   3.481   1.896   9.750 -0.7322  2.3065  0.0443
 2456SOL    HW218831   3.608   1.852   9.701  1.0889  0.0806  0.6682
 2457SOL     OW18832   4.299   1.635  10.244 -0.3944  0.4796  0.0040
 2457SOL    HW118833   4.230   1.645  10.178 -1.3763  1.0944  1.1176
 2457SOL    HW218834   4.295   1.708  10.306 -0.0838 -1.3454  2.1751
 2458SOL     OW18835   3.853   1.085   5.746  0.5416  0.0887  0.3261
 2458SOL    HW118836   3.839   1.175   5.776 -0.0139  0.0072  0.3095
 2458SOL    HW218837   3.925   1.060   5.804  0.2663  0.4994  0.8528
 2459SOL     OW18838   1.476   4.626   2.319 -0.0155  0.4611  0.7021
 2459SOL    HW118839   1.532   4.553   2.292 -1.3912 -0.1485 -0.4879
 2459SOL    HW218840   1.504   4.641   2.409  0.5465 -1.2247  0.8139
 2460SOL     OW18841   1.769   4.448  15.411 -0.4520  0.0195  0.2640
 2460SOL    HW118842   1.800   4.499  15.336  4.1007  0.0738  2.1994
 2460SOL    HW218843   1.851   4.408  15.440  0.0610  1.1080  0.3093
 2461SOL     OW18844   2.364   2.219   7.679 -0.2033  0.2338  0.0272
 2461SOL    HW118845   2.368   2.143   7.620  0.6639  0.0178  0.3629
 2461SOL    HW218846   2.373   2.168   7.760 -0.5109  0.2687  0.0843
 2462SOL     OW18847   1.406   3.792   3.505 -0.0762  0.0011 -0.3130
 2462SOL    HW118848   1.444   3.879   3.516  1.4223 -0.8641  1.2088
 2462SOL    HW218849   1.470   3.743   3.556 -1.5604  0.9100  2.4479
 2463SOL     OW18850   3.492   4.402   4.717 -0.0861 -0.2945 -0.7507
 2463SOL    HW118851   3.546   4.481   4.714  0.8008 -0.8685  0.3203
 2463SOL    HW218852   3.541   4.352   4.782  0.1076  0.9532  0.0624
 2464SOL     OW18853   4.480   4.379   3.228  0.4378  0.6831 -0.5395
 2464SOL    HW118854   4.497   4.356   3.137 -3.6632 -0.3159 -1.0216
 2464SOL    HW218855   4.432   4.460   3.214 -3.4103 -1.8550 -1.7265
 2465SOL     OW18856   1.638   3.203  14.509 -0.0748  0.3687 -0.2493
 2465SOL    HW118857   1.663   3.267  14.576 -0.0857 -0.2410  0.3371
 2465SOL    HW218858   1.655   3.251  14.428 -0.0721 -0.9009 -0.9914
 2466SOL     OW18859   1.836   1.178   3.286 -0.2213  0.2784 -0.4213
 2466SOL    HW118860   1.792   1.101   3.251 -0.1887 -0.0905  0.3433
 2466SOL    HW218861   1.789   1.253   3.250 -1.0811  1.1380  2.4151
 2467SOL     OW18862   0.311   4.408  11.200  0.0027 -0.3666 -0.1195
 2467SOL    HW118863   0.379   4.474  11.212 -0.2608  0.2047 -1.7222
 2467SOL    HW218864   0.243   4.462  11.238 -0.1795 -1.0263  0.4808
 2468SOL     OW18865   1.923   2.041  12.991 -0.4434 -0.6335 -0.6106
 2468SOL    HW118866   1.894   2.114  13.047  1.9443  0.3035 -0.6058
 2468SOL    HW218867   1.846   1.986  13.010  0.2968 -1.0400  1.1845
 2469SOL     OW18868   0.367   2.388   2.910  0.3589  0.7709  0.2090
 2469SOL    HW118869   0.279   2.425   2.901 -0.5358 -0.4575  3.8043
 2469SOL    HW218870   0.388   2.360   2.822  1.4943  1.4137  0.2720
 2470SOL     OW18871   3.404   2.814   0.246  0.4635 -0.2358 -0.2549
 2470SOL    HW118872   3.363   2.734   0.213 -3.4851  1.4746  0.4556
 2470SOL    HW218873   3.476   2.779   0.298  0.0481  1.3504  1.3964
 2471SOL     OW18874   4.507   0.636   2.707  0.0544 -0.2549  0.6163
 2471SOL    HW118875   4.476   0.680   2.628 -0.1798 -1.5076 -0.0020
 2471SOL    HW218876   4.552   0.708   2.749  0.4623 -0.3566  0.3558
 2472SOL     OW18877   0.828   4.482  14.328 -0.3983 -0.2441 -0.0975
 2472SOL    HW118878   0.783   4.415  14.381 -3.1826  1.6822 -0.0421
 2472SOL    HW218879   0.917   4.460  14.355 -1.1824 -0.2916  2.4437
 2473SOL     OW18880   0.930   0.846   3.568 -0.4605  0.2756  0.6557
 2473SOL    HW118881   0.967   0.931   3.591  1.8739 -1.1807  2.2021
 2473SOL    HW218882   1.007   0.798   3.598  1.1018  0.6815 -2.6732
 2474SOL     OW18883   4.326   3.626   8.940 -0.1070  1.3721 -0.0684
 2474SOL    HW118884   4.307   3.720   8.936 -1.5635  1.0409 -0.8111
 2474SOL    HW218885   4.278   3.595   9.016  1.2102 -0.5958 -0.0455
 2475SOL     OW18886   1.331   0.758   6.822  0.1082  0.0931  0.3786
 2475SOL    HW118887   1.390   0.815   6.773  0.6746 -1.2610 -0.4940
 2475SOL    HW218888   1.252   0.765   6.770 -2.0439  0.4056  3.6845
 2476SOL     OW18889   4.324   1.262  11.406 -0.3939  1.0418  0.6127
 2476SOL    HW118890   4.279   1.290  11.326  1.8334  2.7656 -0.0345
 2476SOL    HW218891   4.372   1.188  11.369  0.2214  1.4846  0.5339
 2477SOL     OW18892   3.308   3.713   4.397  0.3562  0.1173 -0.0734
 2477SOL    HW118893   3.247   3.755   4.337  1.1606  2.0127  0.4286
 2477SOL    HW218894   3.263   3.631   4.415  2.6100 -0.7023  1.8367
 2478SOL     OW18895   2.291   3.250   6.196  0.2651  0.1353  0.0370
 2478SOL    HW118896   2.297   3.205   6.280 -1.9529  0.2475  0.2624
 2478SOL    HW218897   2.202   3.233   6.164  0.5106  0.2726 -0.7209
 2479SOL     OW18898   3.764   2.677   4.941 -0.2198  0.3098 -0.3052
 2479SOL    HW118899   3.685   2.654   4.892  0.5988 -0.5732 -1.2264
 2479SOL    HW218900   3.800   2.736   4.875 -2.0410 -0.1980 -1.7381
 2480SOL     OW18901   2.039   3.090   4.633 -0.1113 -0.4458  0.2336
 2480SOL    HW118902   1.959   3.142   4.627 -1.2796 -2.0741  1.8814
 2480SOL    HW218903   2.043   3.067   4.726 -1.4368 -0.1899  0.3565
 2481SOL     OW18904   2.939   3.567  10.397 -0.1174 -0.2464  0.7319
 2481SOL    HW118905   2.861   3.589  10.348 -0.6419  1.8925  2.5021
 2481SOL    HW218906   2.911   3.491  10.449  1.7873 -1.6645 -0.3191
 2482SOL     OW18907   1.840   0.704   9.593 -0.2694  0.3538 -0.2993
 2482SOL    HW118908   1.856   0.717   9.686 -2.7673  3.8341 -0.3782
 2482SOL    HW218909   1.798   0.617   9.598 -1.6815  1.0336 -0.2999
 2483SOL     OW18910   0.849   1.114   6.559 -0.4952  0.3413  0.0554
 2483SOL    HW118911   0.783   1.095   6.493 -0.1156 -1.7917  0.2842
 2483SOL    HW218912   0.839   1.033   6.609 -0.2018  0.4665  0.3235
 2484SOL     OW18913   1.545   4.419   2.763 -0.4432  0.2509 -0.3976
 2484SOL    HW118914   1.508   4.334   2.788  0.1107  0.1138 -0.0449
 2484SOL    HW218915   1.570   4.452   2.849 -1.6094  0.4890 -0.1401
 2485SOL     OW18916   3.328   4.297  13.612 -0.4340 -0.3637  0.4481
 2485SOL    HW118917   3.243   4.340  13.623  0.4107  0.6165  3.4491
 2485SOL    HW218918   3.318   4.221  13.668 -2.7562 -0.9508 -0.7936
 2486SOL     OW18919   1.609   2.742  10.072  0.2882  0.3983 -0.0352
 2486SOL    HW118920   1.606   2.786  10.157  0.8126 -2.2488  1.3600
 2486SOL    HW218921   1.704   2.736  10.083  0.5196 -0.3437 -2.4130
 2487SOL     OW18922   0.160   1.209  13.774 -0.4123  0.4689 -0.0405
 2487SOL    HW118923   0.117   1.197  13.690 -0.8487 -3.5660  0.7426
 2487SOL    HW218924   0.247   1.174  13.756  0.4536  1.8649  1.3894
 2488SOL     OW18925   4.450   3.263   6.021  0.0512  0.7821 -0.0162
 2488SOL    HW118926   4.516   3.324   6.055  0.1855 -0.4614  1.9553
 2488SOL    HW218927   4.436   3.223   6.106 -0.7239  3.4046  1.0794
 2489SOL     OW18928   0.016   4.041   2.913 -0.0735  0.1934  0.1125
 2489SOL    HW118929   4.701   4.122   2.882 -2.4521 -0.1952  2.1388
 2489SOL    HW218930   0.075   4.018   2.842 -0.9741 -2.1319  0.1028
 2490SOL     OW18931   0.852   1.592  16.538  0.6150  0.5496  0.2785
 2490SOL    HW118932   0.888   1.530  16.476 -0.9234  0.6166 -0.6818
 2490SOL    HW218933   0.926   1.590  16.599 -0.6661 -1.0945  1.8047
 2491SOL     OW18934   0.156   1.974   3.295  0.1161  0.3527  0.0481
 2491SOL    HW118935   0.173   2.059   3.336  2.0077  0.5464 -1.1177
 2491SOL    HW218936   0.189   1.982   3.205 -0.8840  1.8630 -0.1985
 2492SOL     OW18937   0.945   4.226   2.681  0.2344  0.1331 -0.0247
 2492SOL    HW118938   1.008   4.155   2.669  1.6893  1.0342  2.3696
 2492SOL    HW218939   0.877   4.192   2.622  0.5620  1.9525 -1.4746
 2493SOL     OW18940   0.900   4.311   7.079  0.6269  0.1755 -0.1532
 2493SOL    HW118941   0.844   4.320   7.003 -1.2519 -0.6536  1.1286
 2493SOL    HW218942   0.986   4.303   7.037  1.0634 -1.3496  1.0163
 2494SOL     OW18943   3.379   0.803  17.000  0.0726 -0.8994 -0.0443
 2494SOL    HW118944   3.323   0.826  16.927  0.7857  0.5759 -0.1302
 2494SOL    HW218945   3.457   0.778  16.950 -1.7216 -4.2414 -1.1451
 2495SOL     OW18946   2.139   2.085  14.604 -0.5020 -0.0221 -0.1173
 2495SOL    HW118947   2.204   2.140  14.647 -1.8876  3.4120 -2.4157
 2495SOL    HW218948   2.191   2.059  14.529  0.9049 -0.0977  0.8813
 2496SOL     OW18949   1.396   4.321   5.940 -0.0756  0.5167 -0.0834
 2496SOL    HW118950   1.408   4.262   5.865 -0.9323  2.6139 -1.8345
 2496SOL    HW218951   1.362   4.258   6.004 -0.5196  0.2350 -0.6080
 2497SOL     OW18952   3.210   2.295  11.216 -0.5010  0.1592  0.1720
 2497SOL    HW118953   3.158   2.376  11.218  0.5093  0.8517 -2.1793
 2497SOL    HW218954   3.142   2.232  11.242 -0.1189  1.6160  4.6578
 2498SOL     OW18955   3.097   4.632   3.260  0.0630 -0.3262 -0.3071
 2498SOL    HW118956   3.066   4.557   3.210  0.5735 -2.2279  2.2446
 2498SOL    HW218957   3.185   4.609   3.290 -0.0769 -1.5614 -0.8861
 2499SOL     OW18958   2.103   3.753   8.808 -0.0576 -0.7405 -0.0335
 2499SOL    HW118959   2.133   3.844   8.801  2.7449 -1.5677  1.1785
 2499SOL    HW218960   2.021   3.780   8.850 -0.3754 -0.2992 -0.9326
 2500SOL     OW18961   2.991   0.679   2.371 -0.6535 -0.8463  0.4997
 2500SOL    HW118962   2.969   0.589   2.394 -3.2229 -0.3997 -0.2331
 2500SOL    HW218963   3.030   0.670   2.284 -1.8285 -3.4938  0.2570
 2501SOL     OW18964   4.418   0.462   3.877  0.5201 -0.4514  0.6641
 2501SOL    HW118965   4.460   0.517   3.942  0.5025  1.4146 -0.9109
 2501SOL    HW218966   4.330   0.443   3.908  0.0001  3.7250  1.6750
 2502SOL     OW18967   4.551   0.807   8.536 -0.3944  0.2714  0.4440
 2502SOL    HW118968   4.467   0.811   8.580  0.1297 -1.5916  1.6312
 2502SOL    HW218969   4.545   0.720   8.496 -0.1500 -0.1020  1.2180
 2503SOL     OW18970   0.569   2.062   1.575 -0.4553 -0.2627  0.2390
 2503SOL    HW118971   0.620   1.990   1.611  0.6415 -0.0525 -0.9194
 2503SOL    HW218972   0.573   2.050   1.480  3.6100  0.7847  0.3097
 2504SOL     OW18973   1.618   0.051  12.224 -0.6334 -0.0935  0.0044
 2504SOL    HW118974   1.696   0.093  12.188 -1.5011  1.9992  0.6029
 2504SOL    HW218975   1.545   0.107  12.196 -2.1282 -1.6241  0.8705
 2505SOL     OW18976   0.869   3.981  15.621  0.2642 -0.2427 -0.1882
 2505SOL    HW118977   0.908   4.004  15.705  0.1241  0.4462 -0.3083
 2505SOL    HW218978   0.892   4.043  15.552 -0.6273  1.1778  0.7898
 2506SOL     OW18979   1.491   1.073   4.150 -0.0198 -0.1170  0.9602
 2506SOL    HW118980   1.524   1.050   4.063 -0.0454 -1.1206  1.2216
 2506SOL    HW218981   1.514   0.992   4.196 -1.0101 -1.2053 -0.4547
 2507SOL     OW18982   2.514   4.295   9.931  0.2431 -0.7310  0.0113
 2507SOL    HW118983   2.448   4.231   9.903 -0.3096  0.2305 -0.8853
 2507SOL    HW218984   2.559   4.244   9.998  0.1323  0.5091  1.0404
 2508SOL     OW18985   3.520   2.049   5.681  0.3341 -0.6648 -0.3358
 2508SOL    HW118986   3.539   2.136   5.717 -0.8629 -0.3162 -0.5300
 2508SOL    HW218987   3.446   2.025   5.738  0.6475 -2.1784 -0.5816
 2509SOL     OW18988   3.150   4.531   2.201  0.3035  0.2840  0.4321
 2509SOL    HW118989   3.073   4.475   2.202 -0.7114  1.6906  1.8591
 2509SOL    HW218990   3.109   4.617   2.191  2.0046  1.1749  0.9564
 2510SOL     OW18991   1.468   2.656  11.968 -0.0969  0.1393  0.2224
 2510SOL    HW118992   1.540   2.687  11.914  0.6762 -2.0395  0.0060
 2510SOL    HW218993   1.508   2.625  12.049  2.0481 -2.0737 -1.6926
 2511SOL     OW18994   4.497   1.197  12.270  0.4429  0.0954 -0.0691
 2511SOL    HW118995   4.559   1.162  12.333  0.9236  2.2961  0.7067
 2511SOL    HW218996   4.552   1.188  12.193  2.5546 -1.3082  1.6150
 2512SOL     OW18997   0.047   3.021   6.522 -0.3614  0.1797 -0.2919
 2512SOL    HW118998   0.045   2.959   6.595 -0.8524 -0.2061 -0.6324
 2512SOL    HW218999   0.139   3.019   6.497 -0.5882  0.2978 -1.1334
 2513SOL     OW19000   4.525   3.421   1.326 -0.3287  0.5043  0.1916
 2513SOL    HW119001   4.570   3.407   1.409 -0.2126  0.0838  0.0569
 2513SOL    HW219002   4.533   3.335   1.286 -0.2675  0.2260  0.8081
 2514SOL     OW19003   3.971   0.544   7.495 -0.2881 -0.3014  0.1456
 2514SOL    HW119004   3.931   0.600   7.562 -2.0813  0.6923 -1.7632
 2514SOL    HW219005   3.918   0.555   7.416  1.8570 -0.5169 -1.3075
 2515SOL     OW19006   0.801   3.794   1.440 -0.2802 -0.0257  0.3566
 2515SOL    HW119007   0.800   3.825   1.531 -0.9414  1.3795 -0.1240
 2515SOL    HW219008   0.812   3.880   1.398  0.6464  0.0275  0.6982
 2516SOL     OW19009   3.135   2.193   3.754  0.3647  0.4399  0.4637
 2516SOL    HW119010   3.084   2.246   3.693 -0.8625  0.3822  1.4342
 2516SOL    HW219011   3.067   2.137   3.792 -0.6896  0.9498 -0.6616
 2517SOL     OW19012   0.833   0.278   2.147 -0.5651 -0.1112 -0.0518
 2517SOL    HW119013   0.810   0.371   2.150  0.1765  0.1466 -2.9518
 2517SOL    HW219014   0.926   0.267   2.130 -1.0445 -2.6735 -1.0100
 2518SOL     OW19015   3.770   4.554  16.424  0.3127 -0.3300  0.2004
 2518SOL    HW119016   3.849   4.607  16.427  1.6890 -2.5294  2.8313
 2518SOL    HW219017   3.705   4.617  16.456 -0.7679 -0.9123 -0.8413
 2519SOL     OW19018   1.120   0.358   7.670 -0.4300 -0.4284 -0.3047
 2519SOL    HW119019   1.151   0.412   7.743  0.9282 -0.1376 -1.0928
 2519SOL    HW219020   1.044   0.315   7.709  0.0854 -1.4771 -0.4731
 2520SOL     OW19021   3.603   2.704   9.319 -0.1371 -0.5275 -0.1578
 2520SOL    HW119022   3.530   2.765   9.324 -0.2608 -0.8890  2.3233
 2520SOL    HW219023   3.667   2.762   9.360  0.2934 -1.3225  0.2805
 2521SOL     OW19024   2.685   4.229   3.559  0.6300 -0.2948 -0.5517
 2521SOL    HW119025   2.680   4.169   3.484 -0.6657  0.7453 -1.3077
 2521SOL    HW219026   2.776   4.249   3.580  1.0720 -0.4400 -2.3366
 2522SOL     OW19027   2.429   4.550   7.227  0.1176 -0.1798 -0.1870
 2522SOL    HW119028   2.341   4.540   7.191 -0.6950  1.7706  1.2233
 2522SOL    HW219029   2.457   4.628   7.180 -1.4123 -0.2754 -1.2629
 2523SOL     OW19030   4.573   1.037   1.974 -0.3138 -0.3901  0.5387
 2523SOL    HW119031   4.561   0.946   1.999  0.4026 -0.6425 -0.0381
 2523SOL    HW219032   4.553   1.025   1.881  0.2475  1.2883  0.1924
 2524SOL     OW19033   1.155   3.796   6.505  0.1702  0.1059  0.1467
 2524SOL    HW119034   1.190   3.727   6.562 -3.4193 -2.4860 -0.7635
 2524SOL    HW219035   1.155   3.871   6.563 -0.6606  0.7219 -0.6542
 2525SOL     OW19036   0.636   1.709  10.697  0.0432 -0.9573 -0.3603
 2525SOL    HW119037   0.671   1.621  10.686 -0.5018 -1.2482  0.2270
 2525SOL    HW219038   0.642   1.716  10.792  1.6833  0.4383 -0.5813
 2526SOL     OW19039   4.518   4.249   5.181  0.1711  0.0796 -0.2195
 2526SOL    HW119040   4.607   4.219   5.204 -0.0310 -1.2506 -1.1856
 2526SOL    HW219041   4.487   4.286   5.264 -1.1800 -0.3968 -0.5162
 2527SOL     OW19042   2.002   4.315   6.759  0.0643 -0.1105 -0.6078
 2527SOL    HW119043   2.004   4.410   6.753  1.1643 -0.0996 -0.0729
 2527SOL    HW219044   2.094   4.290   6.759  0.2127  0.4233  2.8529
 2528SOL     OW19045   2.679   3.385   2.223 -0.2856  0.0952  0.5140
 2528SOL    HW119046   2.674   3.322   2.151 -2.3483  3.1354 -1.9675
 2528SOL    HW219047   2.669   3.324   2.296  0.6887 -3.0547 -2.0132
 2529SOL     OW19048   0.886   3.630   7.980  0.1904  0.5708  0.3846
 2529SOL    HW119049   0.833   3.567   7.931  2.2066  0.6754 -1.9618
 2529SOL    HW219050   0.885   3.590   8.067  1.8267 -2.6571 -1.0880
 2530SOL     OW19051   1.470   1.618   0.282 -0.3300  0.2598  0.0455
 2530SOL    HW119052   1.377   1.622   0.260 -0.7249  3.2184  2.4187
 2530SOL    HW219053   1.465   1.667   0.363  1.6583  0.1454  0.2447
 2531SOL     OW19054   3.661   0.917   7.175 -0.0336  0.5127  0.4126
 2531SOL    HW119055   3.577   0.899   7.216 -0.0484  2.2895  1.1721
 2531SOL    HW219056   3.714   0.839   7.191 -1.8120 -0.7361  0.2362
 2532SOL     OW19057   3.959   1.478  13.467 -0.4549  0.5826 -0.2426
 2532SOL    HW119058   3.957   1.500  13.374 -0.5201  0.0608 -0.3667
 2532SOL    HW219059   4.037   1.527  13.492 -0.8322  0.7403  0.6513
 2533SOL     OW19060   3.671   2.413   7.197 -0.1575 -0.0346  0.2529
 2533SOL    HW119061   3.589   2.439   7.238 -0.4634  2.2518 -1.7916
 2533SOL    HW219062   3.690   2.334   7.248 -0.0285 -1.2407 -1.6236
 2534SOL     OW19063   4.601   0.295   4.665 -0.1523  0.5212 -0.3118
 2534SOL    HW119064   4.633   0.329   4.582 -1.1949  0.3477 -0.7885
 2534SOL    HW219065   4.670   0.230   4.673 -0.5272  0.2553  0.7427
 2535SOL     OW19066   4.001   1.338   4.221  0.5105 -0.5990 -0.2282
 2535SOL    HW119067   4.020   1.287   4.299 -1.0064 -0.3442  0.3005
 2535SOL    HW219068   3.911   1.307   4.209 -0.0851  0.8613  0.4664
 2536SOL     OW19069   0.805   3.859  13.392 -0.0113  0.5787  0.4237
 2536SOL    HW119070   0.836   3.932  13.445  2.3275  0.2605 -0.5156
 2536SOL    HW219071   0.735   3.899  13.340 -1.9495  0.4832  2.9507
 2537SOL     OW19072   3.992   3.422   9.638 -0.0951 -0.1685 -0.0537
 2537SOL    HW119073   4.055   3.362   9.598 -0.2051 -0.0384 -0.4260
 2537SOL    HW219074   4.043   3.482   9.693 -1.7011  1.0484  0.1355
 2538SOL     OW19075   1.476   3.018   4.228 -0.0833  0.3498 -0.0755
 2538SOL    HW119076   1.418   3.074   4.176  0.3238  1.0198  0.1960
 2538SOL    HW219077   1.414   2.959   4.271  1.1146 -2.3233 -2.0239
 2539SOL     OW19078   1.999   0.698   5.866  0.4639 -0.3088  0.0989
 2539SOL    HW119079   1.974   0.751   5.942 -1.9394 -0.2041 -0.7537
 2539SOL    HW219080   2.070   0.744   5.821 -0.9805 -0.3600 -2.2218
 2540SOL     OW19081   3.873   2.560   7.118  0.5198 -0.6133  0.2123
 2540SOL    HW119082   3.847   2.642   7.160 -3.1847 -1.2759 -0.8053
 2540SOL    HW219083   3.811   2.494   7.150  0.9960 -0.9198  0.4966
 2541SOL     OW19084   4.217   4.485   8.287  0.0059 -0.1222  0.5532
 2541SOL    HW119085   4.263   4.542   8.348 -0.2382  1.9733 -1.2199
 2541SOL    HW219086   4.154   4.543   8.243  2.7033  1.4915 -1.1782
 2542SOL     OW19087   0.611   4.634   7.556  0.2178 -0.9421 -0.4842
 2542SOL    HW119088   0.639   4.698   7.490 -0.3397 -0.8722 -0.6486
 2542SOL    HW219089   0.671   4.657   7.627 -0.6974  1.6208 -0.5619
 2543SOL     OW19090   1.179   2.315   7.824 -0.2051  0.5273 -0.2831
 2543SOL    HW119091   1.098   2.311   7.772 -0.1273  2.3112 -0.5147
 2543SOL    HW219092   1.145   2.289   7.910  0.5494 -1.7188 -0.6645
 2544SOL     OW19093   0.688   4.506   4.733 -0.3916 -0.2162 -0.0392
 2544SOL    HW119094   0.778   4.472   4.730 -0.2084  0.2991 -0.4078
 2544SOL    HW219095   0.697   4.571   4.663  1.6608  0.3627  0.7622
 2545SOL     OW19096   0.695   3.969   2.375 -0.4259  0.3934  0.1139
 2545SOL    HW119097   0.763   4.017   2.328  0.1477 -0.7538 -0.2179
 2545SOL    HW219098   0.615   4.004   2.336 -2.2840 -3.8578  0.0923
 2546SOL     OW19099   0.494   1.014   8.389  0.1031 -0.1435 -0.3325
 2546SOL    HW119100   0.497   1.091   8.331 -0.0830  1.4610  1.8078
 2546SOL    HW219101   0.416   1.031   8.442  1.9914 -2.3725  3.1561
 2547SOL     OW19102   1.333   3.040   7.401  0.3903  0.0606 -0.3987
 2547SOL    HW119103   1.378   3.031   7.318  0.3777  3.0343 -0.7077
 2547SOL    HW219104   1.382   3.105   7.451  1.4172 -1.2629  0.3111
 2548SOL     OW19105   0.973   4.525  12.504  0.5545 -0.4789 -0.0485
 2548SOL    HW119106   1.040   4.513  12.436 -0.6661  0.8268 -1.4766
 2548SOL    HW219107   0.935   4.606  12.469  2.8521  0.7362  0.2215
 2549SOL     OW19108   0.509   2.360   0.297 -0.5539  0.0438 -0.1882
 2549SOL    HW119109   0.538   2.321   0.214  0.0327 -0.3266  0.1926
 2549SOL    HW219110   0.509   2.453   0.273  0.0517  0.3165  0.8892
 2550SOL     OW19111   0.381   2.019   9.688  0.2175  0.1133  0.0538
 2550SOL    HW119112   0.394   1.985   9.599 -0.7210 -0.0578 -0.0222
 2550SOL    HW219113   0.349   2.108   9.668 -1.5679 -0.6547 -0.5334
 2551SOL     OW19114   0.968   2.120   6.864  0.5642 -0.3536  0.1963
 2551SOL    HW119115   1.034   2.090   6.801 -0.5211  0.9214 -1.5623
 2551SOL    HW219116   0.916   2.041   6.881  1.7531 -1.1309  0.1999
 2552SOL     OW19117   4.648   3.881   5.739  0.4961 -0.3395 -0.4422
 2552SOL    HW119118   4.596   3.961   5.727  1.7006  0.3264 -1.2711
 2552SOL    HW219119   4.586   3.825   5.786  1.7310  0.6210  2.3109
 2553SOL     OW19120   3.267   0.579   7.244  0.0591  0.3054  0.5202
 2553SOL    HW119121   3.230   0.556   7.158  0.0445  0.0175  0.6025
 2553SOL    HW219122   3.361   0.561   7.235  0.2542  1.5213  0.0891
 2554SOL     OW19123   4.590   1.398  16.685  0.6473 -0.9775 -0.3162
 2554SOL    HW119124   4.684   1.380  16.673  0.7488  0.2200 -1.3502
 2554SOL    HW219125   4.550   1.338  16.622 -1.9235  0.1239  0.3058
 2555SOL     OW19126   0.068   0.095  11.551  0.0383  0.5392 -0.3874
 2555SOL    HW119127   0.130   0.148  11.500 -0.0727  2.5849  1.6254
 2555SOL    HW219128   0.123   0.033  11.598 -1.3129 -0.2284  0.1765
 2556SOL     OW19129   1.630   2.470   8.484  0.2357 -0.0367 -0.4048
 2556SOL    HW119130   1.687   2.523   8.429  0.5219  0.4415  0.3488
 2556SOL    HW219131   1.582   2.537   8.532 -0.0014 -0.2218 -0.3843
 2557SOL     OW19132   4.659   3.201   6.844 -0.3667  0.7144 -0.1564
 2557SOL    HW119133   4.696   3.289   6.843  1.9671 -0.2445  0.9204
 2557SOL    HW219134   4.563   3.203   6.840 -0.3991 -0.3387  0.0339
 2558SOL     OW19135   1.394   3.882  16.172  0.0200 -0.6132 -0.0523
 2558SOL    HW119136   1.465   3.946  16.168 -0.6004  0.2262  2.7406
 2558SOL    HW219137   1.362   3.884  16.262  0.9632 -1.2010  0.2849
 2559SOL     OW19138   0.724   1.682   7.221 -0.7783  0.2179 -0.0860
 2559SOL    HW119139   0.800   1.722   7.264 -0.8387 -0.7009  0.8857
 2559SOL    HW219140   0.654   1.710   7.280  0.2221  1.8990  0.3094
 2560SOL     OW19141   2.170   1.187  16.705 -0.4476  0.1694  0.3893
 2560SOL    HW119142   2.075   1.175  16.697 -0.3106 -2.2680  2.3405
 2560SOL    HW219143   2.201   1.099  16.683 -0.2017  0.6318 -1.1290
 2561SOL     OW19144   2.281   2.246  16.701 -0.5120 -0.2551 -0.2311
 2561SOL    HW119145   2.336   2.212  16.771  2.0506 -0.8970 -2.5352
 2561SOL    HW219146   2.253   2.163  16.663  0.2195 -0.3623 -0.5308
 2562SOL     OW19147   3.348   2.829   8.245  0.0264  0.3341 -0.0336
 2562SOL    HW119148   3.355   2.889   8.170  1.7919  1.8467  1.3565
 2562SOL    HW219149   3.333   2.752   8.189 -0.3580  1.1031 -0.9955
 2563SOL     OW19150   2.011   2.564   2.964  0.0587  0.0587 -0.3514
 2563SOL    HW119151   1.932   2.617   2.953  0.7527  1.0230 -0.6675
 2563SOL    HW219152   1.991   2.489   2.906 -0.3766 -0.4204  0.4166
 2564SOL     OW19153   3.946   2.549   8.932  0.6614 -1.1233  0.5107
 2564SOL    HW119154   3.861   2.560   8.973  0.0266 -0.0966 -1.0665
 2564SOL    HW219155   3.988   2.630   8.964  0.6488 -0.3928 -1.3125
 2565SOL     OW19156   4.528   0.945   2.289 -0.6026 -0.1806 -0.8541
 2565SOL    HW119157   4.459   0.988   2.237 -1.0202  0.9008  0.6020
 2565SOL    HW219158   4.596   0.990   2.238 -0.1528  1.4330  1.1742
 2566SOL     OW19159   1.570   2.825  10.335  0.5636 -0.5746 -1.0400
 2566SOL    HW119160   1.539   2.764  10.402  0.8666 -1.5365 -1.7546
 2566SOL    HW219161   1.537   2.907  10.371  2.6609 -0.9511  1.7450
 2567SOL     OW19162   1.198   1.202   4.198 -0.0729  0.5973 -0.2112
 2567SOL    HW119163   1.270   1.229   4.255 -1.0298 -0.2499  1.3829
 2567SOL    HW219164   1.247   1.146   4.137 -2.3114 -0.5173 -0.9898
 2568SOL     OW19165   4.154   2.089   8.002  0.0108 -0.0613  0.0555
 2568SOL    HW119166   4.138   2.183   8.007 -1.7783 -0.4458  1.3242
 2568SOL    HW219167   4.210   2.075   8.078  0.5310  0.0330 -0.3089
 2569SOL     OW19168   1.596   0.212   1.934 -0.0510  0.4000  0.4324
 2569SOL    HW119169   1.665   0.173   1.988  0.2993  1.9952  1.1272
 2569SOL    HW219170   1.635   0.299   1.921 -2.8957  1.9998  2.5950
 2570SOL     OW19171   2.205   3.663   3.755 -0.0809 -0.1390 -0.8449
 2570SOL    HW119172   2.248   3.647   3.671  0.2580 -1.2209 -0.4538
 2570SOL    HW219173   2.270   3.726   3.788  0.2501  0.0217 -1.7961
 2571SOL     OW19174   0.982   2.723  15.046  0.1617 -0.3820 -0.0014
 2571SOL    HW119175   1.005   2.796  15.104  0.5082  0.7421 -1.5479
 2571SOL    HW219176   1.055   2.737  14.986 -1.1351 -0.7473 -1.6594
 2572SOL     OW19177   1.299   3.706  12.988  0.1862  0.0314 -0.6929
 2572SOL    HW119178   1.371   3.719  12.926 -0.5055 -0.7729 -1.6531
 2572SOL    HW219179   1.347   3.663  13.059 -0.9356  0.1396  0.1263
 2573SOL     OW19180   1.945   0.901   6.013 -0.1291 -0.3270 -0.1541
 2573SOL    HW119181   1.975   0.991   6.004  1.1267 -0.7291 -0.1176
 2573SOL    HW219182   1.882   0.904   6.084 -1.7139 -2.0665 -1.4875
 2574SOL     OW19183   1.233   3.013  10.161  0.3292 -0.0041 -0.6434
 2574SOL    HW119184   1.156   3.035  10.108 -0.5167  0.0532  0.6096
 2574SOL    HW219185   1.209   2.923  10.181 -2.2256  0.6227 -0.9025
 2575SOL     OW19186   0.860   1.348   6.103  0.7162 -0.5756 -0.0774
 2575SOL    HW119187   0.914   1.390   6.036  0.6243 -1.2280 -0.5562
 2575SOL    HW219188   0.927   1.285   6.129  2.4050  0.9758 -0.6833
 2576SOL     OW19189   3.433   0.099   8.606  0.1191  0.4852  0.1509
 2576SOL    HW119190   3.473   0.116   8.692 -2.7111 -1.1470  1.8257
 2576SOL    HW219191   3.358   0.051   8.642  0.0422  2.2368  2.3606
 2577SOL     OW19192   3.765   2.767   7.256  0.3747  0.4943  0.3003
 2577SOL    HW119193   3.760   2.863   7.250  0.6142  0.5625  1.2667
 2577SOL    HW219194   3.672   2.744   7.255  0.0447  1.8440 -0.8093
 2578SOL     OW19195   1.516   0.252   3.193 -0.6502 -0.7015  0.1979
 2578SOL    HW119196   1.508   0.315   3.121  1.7304  1.4964  1.8328
 2578SOL    HW219197   1.605   0.258   3.227 -1.0087 -1.5505  1.2992
 2579SOL     OW19198   4.031   2.975   8.388  0.5257  0.4368  0.3543
 2579SOL    HW119199   4.009   2.905   8.326  1.1006  0.2876  0.3150
 2579SOL    HW219200   4.027   3.048   8.327  2.7497 -1.3217 -1.8936
 2580SOL     OW19201   0.351   3.434   3.134  0.1542  0.5487 -0.2141
 2580SOL    HW119202   0.379   3.445   3.225  0.1070  1.6576 -0.3255
 2580SOL    HW219203   0.424   3.483   3.098  1.2020 -0.9396 -0.1001
 2581SOL     OW19204   3.101   0.118  15.375 -0.4169  0.3213 -0.3827
 2581SOL    HW119205   3.018   0.072  15.363 -0.8739  0.8368  0.7986
 2581SOL    HW219206   3.128   0.156  15.291  0.4986  0.2246 -0.1327
 2582SOL     OW19207   1.092   0.749   7.928 -0.3957 -0.0296 -0.4825
 2582SOL    HW119208   1.041   0.693   7.987 -0.4563  1.3389  0.7838
 2582SOL    HW219209   1.110   0.688   7.856 -1.2505 -1.4208  0.4688
 2583SOL     OW19210   3.450   4.235   7.597 -0.6587  0.4112 -0.1773
 2583SOL    HW119211   3.387   4.169   7.567 -0.0267 -0.5695  0.6241
 2583SOL    HW219212   3.469   4.207   7.686 -0.2918 -2.6749 -1.2141
 2584SOL     OW19213   3.317   4.520   7.173  0.0069 -0.5988 -0.0516
 2584SOL    HW119214   3.235   4.474   7.192  0.6137 -1.7857 -0.2997
 2584SOL    HW219215   3.367   4.513   7.255  0.1804 -0.8272 -0.1758
 2585SOL     OW19216   3.284   1.636  12.517 -0.3889  0.3821 -0.3690
 2585SOL    HW119217   3.208   1.666  12.567 -0.5710  1.9529 -1.5873
 2585SOL    HW219218   3.264   1.543  12.508 -1.0335  0.5854 -1.0482
 2586SOL     OW19219   0.610   3.959  13.220  0.2113  0.4930 -0.5222
 2586SOL    HW119220   0.540   4.008  13.263 -0.6786 -1.2060 -0.0562
 2586SOL    HW219221   0.569   3.873  13.215 -0.4537  0.8437 -1.1101
 2587SOL     OW19222   3.811   1.828   4.510 -0.3606  0.4453 -0.8658
 2587SOL    HW119223   3.721   1.846   4.538 -1.1016 -1.1875 -2.2245
 2587SOL    HW219224   3.802   1.735   4.492 -0.4180 -0.0298  1.5402
 2588SOL     OW19225   2.925   0.841   3.311 -0.6066  0.1097  0.0936
 2588SOL    HW119226   2.848   0.833   3.255  0.8215 -1.6335 -1.5823
 2588SOL    HW219227   2.913   0.935   3.323 -0.1488  0.4736 -2.3823
 2589SOL     OW19228   4.312   0.648   3.655  0.3548 -0.2942  0.0204
 2589SOL    HW119229   4.228   0.667   3.697 -0.2531 -2.0578 -0.3731
 2589SOL    HW219230   4.299   0.679   3.566 -0.5140 -0.0873  0.2112
 2590SOL     OW19231   0.880   3.820  16.748 -0.2173  0.0320  0.3301
 2590SOL    HW119232   0.784   3.816  16.749 -0.1618 -1.0750  1.4518
 2590SOL    HW219233   0.898   3.836  16.841  0.8659 -1.5121  0.3765
 2591SOL     OW19234   3.936   4.483   9.902 -0.1285  0.3572 -0.2096
 2591SOL    HW119235   3.925   4.522   9.989 -2.3986  1.7181 -1.1279
 2591SOL    HW219236   3.855   4.433   9.891  1.4665 -1.8333 -2.1081
 2592SOL     OW19237   1.329   2.565   8.293  0.0131  0.0220  0.4147
 2592SOL    HW119238   1.294   2.499   8.352  1.7676 -0.3548  1.0252
 2592SOL    HW219239   1.316   2.530   8.205  1.3171  0.4758  0.0352
 2593SOL     OW19240   4.262   3.888   8.980  0.1019 -0.2724  0.5199
 2593SOL    HW119241   4.237   3.965   8.930 -0.1974 -0.8652 -0.2313
 2593SOL    HW219242   4.192   3.878   9.045  0.7622 -0.6779  1.1751
 2594SOL     OW19243   2.353   1.372   0.944 -0.4195 -0.0018  0.5323
 2594SOL    HW119244   2.294   1.328   0.882  1.3769 -0.2149 -1.0137
 2594SOL    HW219245   2.285   1.389   1.010 -1.4020 -4.0773  0.5851
 2595SOL     OW19246   1.148   1.442   6.219  0.3077 -0.5297 -0.0742
 2595SOL    HW119247   1.237   1.465   6.246  0.5124 -1.1245 -0.2580
 2595SOL    HW219248   1.091   1.506   6.263  0.2723 -2.0772  2.1178
 2596SOL     OW19249   3.137   2.380   4.591  0.0032  0.5478  0.0866
 2596SOL    HW119250   3.092   2.425   4.519  0.5308 -1.7567 -1.7136
 2596SOL    HW219251   3.223   2.370   4.551 -0.4140  1.1034 -0.9519
 2597SOL     OW19252   0.773   4.313   7.919 -0.0481 -0.1180 -0.2702
 2597SOL    HW119253   0.684   4.329   7.951 -0.4554  1.2130 -2.0396
 2597SOL    HW219254   0.761   4.334   7.826 -0.7721 -0.6049 -0.2908
 2598SOL     OW19255   3.989   0.100   3.204  0.1438 -0.0448  0.6924
 2598SOL    HW119256   3.925   0.170   3.191  0.4148  0.0197 -0.2716
 2598SOL    HW219257   3.982   0.091   3.299  0.2061  0.2469  0.7269
 2599SOL     OW19258   1.752   0.125   3.289  0.6766 -0.2553  0.7836
 2599SOL    HW119259   1.806   0.134   3.367  1.0477  0.9552  0.3883
 2599SOL    HW219260   1.819   0.145   3.223  0.9614  2.0208  1.7488
 2600SOL     OW19261   2.711   0.927   6.558  0.2893 -0.2069 -0.3638
 2600SOL    HW119262   2.785   0.897   6.507 -1.0583  0.0558 -2.4572
 2600SOL    HW219263   2.697   1.011   6.513  1.8176  0.1648 -0.1489
 2601SOL     OW19264   0.461   1.144   8.957 -0.3773 -0.2013 -0.0370
 2601SOL    HW119265   0.502   1.078   8.901  0.5177  1.6614 -1.5731
 2601SOL    HW219266   0.482   1.218   8.900  0.6799  1.3143  2.3321
 2602SOL     OW19267   1.032   4.424   7.791 -0.3458 -0.4241  0.2487
 2602SOL    HW119268   0.948   4.407   7.834 -0.9766  1.0736 -0.3939
 2602SOL    HW219269   1.039   4.519   7.783 -0.6897 -0.3091  1.2981
 2603SOL     OW19270   4.372   3.841   1.828  0.6439  0.0039 -0.2916
 2603SOL    HW119271   4.438   3.908   1.810 -0.3146  0.2878 -2.7681
 2603SOL    HW219272   4.292   3.889   1.849  1.0585  1.0573 -1.1423
 2604SOL     OW19273   2.199   2.687   9.606 -0.0688 -0.0081  0.2207
 2604SOL    HW119274   2.263   2.756   9.588  0.1768 -0.6770 -1.4601
 2604SOL    HW219275   2.227   2.606   9.562  1.3504 -0.2203  1.5004
 2605SOL     OW19276   3.192   4.146  15.192 -0.4667 -0.0681 -0.5433
 2605SOL    HW119277   3.216   4.057  15.168  4.1080  0.8800  0.4452
 2605SOL    HW219278   3.098   4.129  15.186 -0.3567 -1.0689  0.6873
 2606SOL     OW19279   1.321   2.402  11.026 -0.4947 -0.0013 -0.7408
 2606SOL    HW119280   1.310   2.497  11.020  0.3925  0.2265  1.1239
 2606SOL    HW219281   1.413   2.396  10.999 -0.3514 -2.6386  0.3126
 2607SOL     OW19282   0.388   0.611  16.487 -0.1320  0.0222 -0.5707
 2607SOL    HW119283   0.355   0.641  16.572  2.1371  0.0475  0.2928
 2607SOL    HW219284   0.466   0.663  16.467 -0.0306 -0.3022 -1.0216
 2608SOL     OW19285   1.127   3.395  10.557 -0.5436  0.0328  0.0115
 2608SOL    HW119286   1.031   3.398  10.561 -0.4934  0.8045  0.8090
 2608SOL    HW219287   1.145   3.489  10.561 -1.0684  0.1980 -1.7264
 2609SOL     OW19288   1.457   1.946   7.377 -0.1676 -0.2036  0.1577
 2609SOL    HW119289   1.429   1.883   7.310  0.2469  0.1761 -0.3694
 2609SOL    HW219290   1.421   2.024   7.336 -0.0554  0.4805  1.3612
 2610SOL     OW19291   0.360   2.552   8.587  0.3477 -0.5338 -0.4802
 2610SOL    HW119292   0.439   2.500   8.578 -1.2562 -3.0883  0.1511
 2610SOL    HW219293   0.365   2.618   8.517  0.3538 -0.9028 -0.8304
 2611SOL     OW19294   3.679   1.522   9.165 -0.5401 -0.0932  0.1011
 2611SOL    HW119295   3.728   1.590   9.118 -1.4987 -0.3547 -1.3047
 2611SOL    HW219296   3.718   1.446   9.122 -3.1154 -1.6079  0.3809
 2612SOL     OW19297   2.509   2.279   3.236 -0.1237  0.2706 -0.3052
 2612SOL    HW119298   2.579   2.249   3.179  0.3602  2.5083 -0.8839
 2612SOL    HW219299   2.509   2.210   3.302 -0.0975  0.1614 -0.4191
 2613SOL     OW19300   0.685   2.473   4.599 -0.0694 -0.3537  0.0233
 2613SOL    HW119301   0.659   2.455   4.509 -1.2494 -0.3118  0.3537
 2613SOL    HW219302   0.652   2.562   4.605 -0.9004 -0.6812  0.4450
 2614SOL     OW19303   3.281   3.800   5.363 -0.1160 -0.4170  0.1370
 2614SOL    HW119304   3.233   3.864   5.310  1.0348  0.6081  0.3432
 2614SOL    HW219305   3.288   3.721   5.310 -0.5964 -0.2383 -0.1991
 2615SOL     OW19306   2.548   4.408   8.588 -0.3680  0.1272  0.1121
 2615SOL    HW119307   2.550   4.467   8.663  1.4634  0.4594 -0.1932
 2615SOL    HW219308   2.637   4.423   8.558 -0.1765 -1.4615 -0.1080
 2616SOL     OW19309   4.522   3.654   1.989 -0.0095  0.3716  0.5831
 2616SOL    HW119310   4.479   3.739   1.995  0.2511  0.4127  1.9114
 2616SOL    HW219311   4.444   3.599   1.979 -0.6270  1.3772 -0.1226
 2617SOL     OW19312   2.086   3.090   5.388 -0.1813 -0.4302 -0.5731
 2617SOL    HW119313   2.092   3.078   5.483  0.6249 -2.5848 -0.8890
 2617SOL    HW219314   2.169   3.137   5.379 -0.9054  1.0912  0.5809
 2618SOL     OW19315   4.143   4.546   9.217 -0.4834  0.1342  0.1560
 2618SOL    HW119316   4.067   4.557   9.274  0.5697 -1.2235  1.8186
 2618SOL    HW219317   4.168   4.638   9.228  0.0682 -0.1372  1.2386
 2619SOL     OW19318   4.403   2.868   4.809  0.1132  0.4847  0.4837
 2619SOL    HW119319   4.476   2.925   4.781  1.4487 -1.1755  0.5742
 2619SOL    HW219320   4.339   2.918   4.758 -1.4493 -1.4290  0.6037
 2620SOL     OW19321   4.241   1.040   9.739 -0.0185  0.3464  0.5049
 2620SOL    HW119322   4.209   0.995   9.817  0.7196 -1.6863 -0.3695
 2620SOL    HW219323   4.334   1.018   9.740 -0.3150 -0.9036  0.8990
 2621SOL     OW19324   2.822   2.240   9.051  0.1326 -0.2706  0.5064
 2621SOL    HW119325   2.903   2.239   9.001 -0.1060 -1.9312  0.1572
 2621SOL    HW219326   2.768   2.271   8.978  0.3888 -1.4942 -0.2055
 2622SOL     OW19327   3.347   3.761   7.545 -0.3133 -0.0182  0.9842
 2622SOL    HW119328   3.395   3.789   7.467 -0.2968 -0.6376  0.7720
 2622SOL    HW219329   3.356   3.841   7.597 -1.4565  1.8246 -1.6679
 2623SOL     OW19330   3.508   2.202   6.108  0.3282 -0.0771  0.0937
 2623SOL    HW119331   3.545   2.283   6.143 -0.3823  0.1259  0.3714
 2623SOL    HW219332   3.590   2.168   6.071  0.7735  3.8156 -2.4961
 2624SOL     OW19333   1.088   0.322   5.728 -0.1919 -0.0634 -0.0698
 2624SOL    HW119334   1.118   0.386   5.664  2.4538 -3.1547 -1.9337
 2624SOL    HW219335   1.003   0.297   5.692 -1.2852  2.3916  0.8121
 2625SOL     OW19336   2.780   2.966   6.942  0.0404 -0.6504  0.1244
 2625SOL    HW119337   2.719   2.896   6.921  1.3176 -2.4376  2.3735
 2625SOL    HW219338   2.739   2.999   7.021 -0.5280 -0.8272 -0.0961
 2626SOL     OW19339   2.342   1.036   9.149  0.2505 -0.1891  0.2006
 2626SOL    HW119340   2.337   0.959   9.092  1.8380 -1.7643  2.1913
 2626SOL    HW219341   2.287   1.008   9.223 -1.2781  0.5518 -0.6524
 2627SOL     OW19342   4.346   4.624   8.481  0.0848 -0.7407 -0.3670
 2627SOL    HW119343   4.440   4.609   8.473  0.3090 -0.4535  1.7127
 2627SOL    HW219344   4.341   4.577   8.565  1.6719  0.1281  0.2084
 2628SOL     OW19345   1.006   1.146  16.598 -0.0461  0.2561 -0.6284
 2628SOL    HW119346   1.034   1.158  16.689  2.3996 -1.8778 -1.0986
 2628SOL    HW219347   1.051   1.064  16.580 -0.3439 -0.2892  1.0577
 2629SOL     OW19348   4.452   2.250  14.431 -0.0385  0.1314 -0.1385
 2629SOL    HW119349   4.493   2.335  14.416  1.2642 -0.6347 -0.9772
 2629SOL    HW219350   4.421   2.233  14.342 -0.5222  1.3015 -0.1798
 2630SOL     OW19351   3.725   1.094   6.799  0.2098 -0.0556 -0.2021
 2630SOL    HW119352   3.646   1.050   6.830  1.7312  0.3362  4.2075
 2630SOL    HW219353   3.795   1.048   6.846 -0.1004  0.9204  1.1989
 2631SOL     OW19354   0.444   1.415   4.686 -0.2834 -0.7442 -0.4344
 2631SOL    HW119355   0.475   1.414   4.596  0.9823 -0.8210 -0.0040
 2631SOL    HW219356   0.359   1.373   4.674 -0.3389 -0.6198 -0.4664
 2632SOL     OW19357   2.137   4.169   3.763  0.0939  0.2809 -0.0064
 2632SOL    HW119358   2.107   4.117   3.838 -1.0110  0.6443 -0.2056
 2632SOL    HW219359   2.103   4.253   3.793  0.0823  0.6344 -1.0204
 2633SOL     OW19360   1.165   0.288   4.038 -0.5521 -0.1333  0.2893
 2633SOL    HW119361   1.085   0.275   4.088 -1.0222  0.0889 -0.3947
 2633SOL    HW219362   1.168   0.384   4.030 -0.2470  0.0454  2.6634
 2634SOL     OW19363   2.373   2.864  13.783 -1.2521  0.0941  0.5727
 2634SOL    HW119364   2.455   2.823  13.809 -0.7902  0.6056 -0.0678
 2634SOL    HW219365   2.312   2.801  13.821 -0.8360 -0.3894  0.4286
 2635SOL     OW19366   1.643   2.544  13.481  0.5764  0.1615 -0.3305
 2635SOL    HW119367   1.737   2.556  13.494  0.8408 -2.1100 -0.2745
 2635SOL    HW219368   1.616   2.629  13.516 -1.6856 -0.4186 -0.6410
 2636SOL     OW19369   0.408   1.785   6.634 -0.0648 -0.5111 -0.2263
 2636SOL    HW119370   0.495   1.746   6.640  0.5344  1.0473  0.9029
 2636SOL    HW219371   0.400   1.761   6.541 -0.7835 -0.6764 -0.1225
 2637SOL     OW19372   3.603   0.467  12.879  0.1710 -0.5449  0.3168
 2637SOL    HW119373   3.622   0.427  12.793  0.7095  1.1121 -0.3306
 2637SOL    HW219374   3.590   0.385  12.927  0.9699  0.3391  2.0308
 2638SOL     OW19375   4.257   1.302   0.216 -0.0805 -0.0838  0.7264
 2638SOL    HW119376   4.278   1.396   0.208  0.9310 -0.3090  0.7082
 2638SOL    HW219377   4.166   1.286   0.195 -0.1995 -1.7243  2.4927
 2639SOL     OW19378   3.392   2.359   1.899 -0.0795 -0.0889  0.2570
 2639SOL    HW119379   3.391   2.375   1.993  1.2784  0.4653  0.1739
 2639SOL    HW219380   3.347   2.431   1.855 -1.4937 -0.5641  0.9288
 2640SOL     OW19381   1.982   0.089   5.014 -0.0152 -0.0306 -0.3865
 2640SOL    HW119382   2.046   0.037   4.967  0.5251 -0.5377  0.9136
 2640SOL    HW219383   2.037   0.163   5.042  0.6756 -1.0329  0.8653
 2641SOL     OW19384   0.086   0.234   1.470  0.6165  0.0847 -0.3209
 2641SOL    HW119385   4.723   0.203   1.451  0.4801 -0.0301  0.4976
 2641SOL    HW219386   0.120   0.235   1.380  0.8238  0.9753 -0.2360
 2642SOL     OW19387   3.407   3.524   8.616  0.1625  0.5160  0.6139
 2642SOL    HW119388   3.435   3.543   8.527  1.2849 -0.7100  0.7068
 2642SOL    HW219389   3.445   3.438   8.635 -0.0359  0.7693  2.1370
 2643SOL     OW19390   4.711   3.835   3.593  0.2854 -0.4792  0.3167
 2643SOL    HW119391   4.627   3.794   3.570  0.2667 -0.5910  0.5915
 2643SOL    HW219392   0.055   3.794   3.540  0.7448 -0.2846  0.7667
 2644SOL     OW19393   3.225   0.849   3.590  0.1191  0.3309 -0.5726
 2644SOL    HW119394   3.298   0.870   3.533 -1.1068  3.2588 -1.0801
 2644SOL    HW219395   3.198   0.936   3.620  2.2954  1.2551 -1.3119
 2645SOL     OW19396   3.082   4.483  10.015 -0.2809 -0.6367 -0.1576
 2645SOL    HW119397   3.144   4.507  10.083 -0.6677  1.3849 -0.5225
 2645SOL    HW219398   3.111   4.546   9.949  0.9063 -1.0479 -0.0381
 2646SOL     OW19399   2.184   2.830   0.610 -0.3815  0.1977 -0.2811
 2646SOL    HW119400   2.089   2.834   0.604 -0.3223  0.0416 -1.3752
 2646SOL    HW219401   2.191   2.800   0.700  0.5085 -0.1824 -0.4665
 2647SOL     OW19402   2.957   4.160   3.934  0.1758 -0.5001 -0.0671
 2647SOL    HW119403   2.972   4.242   3.887  2.6751 -0.1613  1.3306
 2647SOL    HW219404   2.902   4.201   4.001 -3.0222 -2.1777 -1.6618
 2648SOL     OW19405   1.438   2.186  12.260 -0.4487 -0.3074 -0.3203
 2648SOL    HW119406   1.361   2.218  12.307  0.3175 -0.3316  0.9424
 2648SOL    HW219407   1.428   2.091  12.258 -1.7917 -0.1681  0.0530
 2649SOL     OW19408   1.149   2.671   3.488 -0.0895  0.0700 -0.1969
 2649SOL    HW119409   1.129   2.645   3.578 -0.5940 -1.1167 -0.6492
 2649SOL    HW219410   1.240   2.695   3.503  0.3287 -1.1803 -0.6956
 2650SOL     OW19411   4.362   2.633   4.001  0.2270 -0.1641 -0.1479
 2650SOL    HW119412   4.276   2.612   4.036  1.4497  0.2373  3.1075
 2650SOL    HW219413   4.372   2.562   3.937  0.5405  0.2757 -0.5968
 2651SOL     OW19414   3.278   0.239   2.776 -0.3493  0.6763 -0.3955
 2651SOL    HW119415   3.248   0.265   2.690 -0.2925 -0.4800 -0.7715
 2651SOL    HW219416   3.300   0.325   2.810  0.9957  0.5249 -0.8926
 2652SOL     OW19417   0.027   4.363   0.351 -0.3346  0.1785 -0.3343
 2652SOL    HW119418   4.680   4.355   0.413  1.8638  1.0955  2.2945
 2652SOL    HW219419   4.711   4.415   0.282 -3.1399 -0.4996  0.7979
 2653SOL     OW19420   1.126   1.928   4.201  0.1582  0.3744 -0.0144
 2653SOL    HW119421   1.165   1.963   4.121  0.0560  2.2182  0.7270
 2653SOL    HW219422   1.193   1.953   4.265  0.6246 -1.0749  0.0591
 2654SOL     OW19423   2.909   2.466   9.783  0.4791 -0.1444  0.5451
 2654SOL    HW119424   2.821   2.429   9.784  0.8415 -1.0319 -0.5107
 2654SOL    HW219425   2.966   2.392   9.803  0.5251 -0.7891 -1.9941
 2655SOL     OW19426   1.829   0.694   2.615  0.3021  0.0814 -0.0306
 2655SOL    HW119427   1.890   0.767   2.601  1.1757 -0.7527 -0.5976
 2655SOL    HW219428   1.851   0.657   2.701 -2.0102 -0.1102  0.4607
 2656SOL     OW19429   0.836   3.977  17.279  0.5761  0.0972 -0.0080
 2656SOL    HW119430   0.848   3.947  17.369 -3.2800 -0.2400  0.3674
 2656SOL    HW219431   0.797   3.903  17.232  2.9899  0.1037 -2.0813
 2657SOL     OW19432   3.889   0.072   1.655  0.0819  0.7671 -0.0498
 2657SOL    HW119433   3.804   0.105   1.683  0.3275  0.0993  1.4853
 2657SOL    HW219434   3.859   0.060   1.565 -0.6146  0.4658  0.2249
 2658SOL     OW19435   0.828   0.644   1.410  0.4720 -0.4615  0.4567
 2658SOL    HW119436   0.745   0.665   1.369  0.2887  0.2069  1.1712
 2658SOL    HW219437   0.817   0.549   1.412 -3.2069 -0.0241 -0.0623
 2659SOL     OW19438   1.218   4.664   1.943  0.0422  0.3319 -0.2540
 2659SOL    HW119439   1.242   4.689   2.032 -1.3462  0.6362  0.0402
 2659SOL    HW219440   1.309   4.650   1.915  0.2005  1.1961 -0.1772
 2660SOL     OW19441   2.884   1.973  12.716 -0.3497  0.0591  0.0671
 2660SOL    HW119442   2.959   1.940  12.666 -0.3529 -0.0246  0.1179
 2660SOL    HW219443   2.842   1.891  12.741  2.7827 -1.7941 -0.7034
 2661SOL     OW19444   1.629   0.785   7.607  0.3387  0.4935  0.2517
 2661SOL    HW119445   1.588   0.808   7.691  3.5425  2.4354  1.2928
 2661SOL    HW219446   1.710   0.746   7.638  0.1725  0.0661  0.1461
 2662SOL     OW19447   3.431   4.585  11.440  0.3122 -0.2117 -0.0385
 2662SOL    HW119448   3.506   4.602  11.497  0.7209  0.6700 -0.8407
 2662SOL    HW219449   3.411   4.498  11.475 -2.0457 -0.0005 -0.8784
 2663SOL     OW19450   3.551   4.653   6.543 -0.3164 -0.0444  0.8127
 2663SOL    HW119451   3.464   4.647   6.582 -1.8049  2.8848 -2.0656
 2663SOL    HW219452   3.574   4.561   6.527 -0.1586  0.4283 -1.7649
 2664SOL     OW19453   2.981   2.058   7.178 -0.0685  0.5115 -0.5664
 2664SOL    HW119454   3.031   2.134   7.209  0.7836  0.5404 -1.9665
 2664SOL    HW219455   2.895   2.072   7.216  0.3089  0.4516  0.2968
 2665SOL     OW19456   1.318   2.794   7.112  0.7235  0.0275  0.0148
 2665SOL    HW119457   1.284   2.883   7.101  1.0739  0.1870  0.2679
 2665SOL    HW219458   1.375   2.805   7.188  1.2926  1.0570 -0.5539
 2666SOL     OW19459   4.267   3.260   2.355 -0.1494  0.2266 -0.2187
 2666SOL    HW119460   4.241   3.200   2.425  1.4273  0.4245  0.5164
 2666SOL    HW219461   4.227   3.340   2.389 -0.8459  0.0847 -0.6918
 2667SOL     OW19462   0.253   1.876   8.509  0.1693  0.0989 -0.3744
 2667SOL    HW119463   0.182   1.826   8.548  0.7864  0.7672  1.6180
 2667SOL    HW219464   0.251   1.951   8.568  1.3730 -1.0633  1.1629
 2668SOL     OW19465   2.024   0.738   8.803  0.0608  0.9880  0.0777
 2668SOL    HW119466   2.070   0.805   8.751  0.1495  1.7562  1.1563
 2668SOL    HW219467   1.938   0.777   8.812 -0.3085  0.5712 -1.5989
 2669SOL     OW19468   0.178   0.522   1.216 -0.1991  0.2293 -0.0659
 2669SOL    HW119469   0.113   0.589   1.234 -0.5735 -0.5676  1.5613
 2669SOL    HW219470   0.143   0.440   1.251  0.1428  1.0433  2.1963
 2670SOL     OW19471   1.729   0.725   3.898 -0.0236  0.3932  0.2666
 2670SOL    HW119472   1.733   0.630   3.912 -0.6737  0.5480  1.5010
 2670SOL    HW219473   1.703   0.725   3.806 -1.2735 -1.7888  0.6101
 2671SOL     OW19474   2.865   0.610   2.768  0.3797  0.3235  0.7735
 2671SOL    HW119475   2.872   0.687   2.713  1.2971 -1.3165 -1.3870
 2671SOL    HW219476   2.804   0.555   2.719  1.9557 -1.0325  0.3290
 2672SOL     OW19477   1.575   3.173   4.554 -0.3682  0.0571 -0.4862
 2672SOL    HW119478   1.487   3.166   4.517 -0.7529 -1.1711  0.6758
 2672SOL    HW219479   1.581   3.098   4.612 -3.3349  0.9490  0.9990
 2673SOL     OW19480   1.270   2.829   1.774 -0.3606  0.1381 -0.0212
 2673SOL    HW119481   1.302   2.740   1.756  0.3694  0.2050  0.9391
 2673SOL    HW219482   1.274   2.867   1.686  1.6542 -1.3280 -0.5797
 2674SOL     OW19483   3.564   0.095  10.336  0.8666 -0.4808  0.0085
 2674SOL    HW119484   3.561   0.060  10.425 -3.1756  3.6272  1.5277
 2674SOL    HW219485   3.470   0.085  10.319  1.0413 -0.4181 -0.9827
 2675SOL     OW19486   0.483   3.639   6.781  0.2884 -0.8415 -0.0664
 2675SOL    HW119487   0.408   3.654   6.723  1.1304 -0.2337 -1.0055
 2675SOL    HW219488   0.525   3.576   6.722 -0.3960  0.5469 -2.0377
 2676SOL     OW19489   1.599   0.549  16.894  0.1032  0.5081  0.3921
 2676SOL    HW119490   1.653   0.572  16.970 -0.9798  1.6137  0.8214
 2676SOL    HW219491   1.554   0.475  16.933  0.5347  0.5160  0.9068
 2677SOL     OW19492   4.120   0.897   6.720  0.1645  0.2076  0.0560
 2677SOL    HW119493   4.038   0.859   6.751  0.2519 -1.2831 -1.5016
 2677SOL    HW219494   4.101   0.991   6.722 -0.2106  0.1698 -1.1720
 2678SOL     OW19495   0.572   0.130   6.398 -0.4522 -0.1469 -0.3545
 2678SOL    HW119496   0.520   0.144   6.319 -0.7352  0.9770  0.0316
 2678SOL    HW219497   0.622   0.211   6.410 -3.4092  2.0748 -2.9129
 2679SOL     OW19498   0.500   1.975   5.095  0.0318 -0.2847  0.0427
 2679SOL    HW119499   0.561   1.929   5.037 -1.5408  0.3227 -2.0986
 2679SOL    HW219500   0.413   1.936   5.081 -0.4796  1.0185 -0.3799
 2680SOL     OW19501   1.177   1.436  11.959 -0.0119 -0.0814 -0.3267
 2680SOL    HW119502   1.147   1.479  12.039 -1.3060  1.1409 -1.4681
 2680SOL    HW219503   1.250   1.489  11.925  0.0528 -0.1289 -0.2622
 2681SOL     OW19504   4.135   0.210   2.295 -0.1075 -0.3149  0.1288
 2681SOL    HW119505   4.080   0.143   2.255 -0.8575  2.0624 -2.8562
 2681SOL    HW219506   4.158   0.260   2.217 -2.0695 -0.4345 -0.5265
 2682SOL     OW19507   1.152   4.542  15.017  0.5384  0.1687  0.6525
 2682SOL    HW119508   1.234   4.494  15.005  1.0305  1.2904 -0.4497
 2682SOL    HW219509   1.189   4.628  14.996  0.0333  0.0951 -0.5475
 2683SOL     OW19510   4.360   1.536   3.849 -0.2691  0.2418  0.8048
 2683SOL    HW119511   4.285   1.595   3.854 -0.8856 -0.5403  0.8641
 2683SOL    HW219512   4.399   1.533   3.936 -0.8284 -0.4390  1.0263
 2684SOL     OW19513   3.885   0.109   4.421 -0.4100 -0.6583 -0.2267
 2684SOL    HW119514   3.812   0.114   4.359  0.5185  1.1983 -1.1618
 2684SOL    HW219515   3.856   0.061   4.499 -0.0494 -1.4292 -0.5627
 2685SOL     OW19516   3.978   1.954   8.776  0.6002 -0.7143 -0.1298
 2685SOL    HW119517   3.963   1.985   8.865  1.8491  0.9884 -0.5053
 2685SOL    HW219518   3.983   2.039   8.732 -2.5606  0.4410  1.7579
 2686SOL     OW19519   2.784   4.197   5.550  0.0280 -0.1558  0.9606
 2686SOL    HW119520   2.721   4.214   5.620 -0.9934 -1.4013  0.3628
 2686SOL    HW219521   2.849   4.154   5.606  0.1783 -1.0219  0.1293
 2687SOL     OW19522   3.791   3.565   1.647 -0.2656  0.1528  0.3531
 2687SOL    HW119523   3.765   3.640   1.701 -0.5189  2.6567 -3.2302
 2687SOL    HW219524   3.745   3.491   1.687 -1.1036  0.9967  0.9388
 2688SOL     OW19525   0.082   3.094  10.711  0.8964  0.1257 -0.0872
 2688SOL    HW119526   0.003   3.129  10.751 -0.1174  0.6566 -2.5123
 2688SOL    HW219527   0.063   3.000  10.716 -2.4477  0.5942 -4.1865
 2689SOL     OW19528   3.555   0.466  16.312 -0.1221 -0.6343  0.2846
 2689SOL    HW119529   3.564   0.422  16.397  1.2845 -1.9493 -0.5525
 2689SOL    HW219530   3.601   0.401  16.260  0.8681  0.7022 -0.5308
 2690SOL     OW19531   2.361   4.139   0.663 -0.3216 -0.3210 -0.3205
 2690SOL    HW119532   2.281   4.184   0.635 -0.3446  0.2481  0.6540
 2690SOL    HW219533   2.364   4.063   0.605  0.9748  0.7171 -1.5981
 2691SOL     OW19534   0.866   1.840   6.862  0.5071  0.0959  0.3920
 2691SOL    HW119535   0.942   1.831   6.803 -2.0455 -1.6548 -2.6665
 2691SOL    HW219536   0.815   1.761   6.844  0.7797 -0.2229  1.0260
 2692SOL     OW19537   3.964   3.749   5.818 -0.3671 -0.2937  0.1951
 2692SOL    HW119538   3.948   3.786   5.905  0.8902  2.7095 -0.8864
 2692SOL    HW219539   3.875   3.714   5.818 -0.0027 -1.2080 -2.6786
 2693SOL     OW19540   2.950   3.460  11.598 -0.4726 -0.0838  0.0539
 2693SOL    HW119541   2.942   3.402  11.673  0.5750  0.7198  0.7886
 2693SOL    HW219542   2.864   3.457  11.557 -1.4365 -0.1893  2.1195
 2694SOL     OW19543   1.128   1.701  16.986  0.1342  0.0509 -0.1393
 2694SOL    HW119544   1.220   1.691  16.963  0.0923 -2.2639  0.7580
 2694SOL    HW219545   1.143   1.728  17.076  1.5757  0.4615 -0.5067
 2695SOL     OW19546   4.557   2.158  16.497 -0.0969 -0.7001 -0.4719
 2695SOL    HW119547   4.621   2.173  16.427 -0.2802  2.8531  0.0997
 2695SOL    HW219548   4.600   2.085  16.541 -0.0235 -0.1812  0.3250
 2696SOL     OW19549   1.537   3.267   5.197 -0.4165 -0.3112  0.1840
 2696SOL    HW119550   1.488   3.186   5.211 -0.7055 -0.3542 -1.0706
 2696SOL    HW219551   1.472   3.328   5.232 -0.6403 -0.8069  0.6400
 2697SOL     OW19552   1.099   2.833   2.468 -0.2032  0.3742 -0.3422
 2697SOL    HW119553   1.142   2.861   2.549  0.5688 -1.0542 -0.2412
 2697SOL    HW219554   1.117   2.739   2.475  1.4619  0.7743  0.7724
 2698SOL     OW19555   3.095   1.751   9.015 -0.0341 -0.3020 -0.1185
 2698SOL    HW119556   3.076   1.691   8.943  0.2674 -1.0154  0.3862
 2698SOL    HW219557   3.037   1.735   9.089 -0.3023 -2.4202 -0.7888
 2699SOL     OW19558   0.046   0.357   6.086  0.4993  0.2534 -0.5393
 2699SOL    HW119559   0.131   0.380   6.123  0.9466 -1.6143 -0.4084
 2699SOL    HW219560   4.717   0.423   6.129 -0.6900 -2.2372  1.7757
 2700SOL     OW19561   1.135   3.919   8.409  0.3980  0.5141  0.5525
 2700SOL    HW119562   1.169   4.002   8.375  0.3136 -0.6238 -2.3607
 2700SOL    HW219563   1.068   3.900   8.343  0.1191 -1.2703  1.3508
 2701SOL     OW19564   0.103   2.417   2.819 -0.5408  0.3607 -0.1557
 2701SOL    HW119565   0.016   2.449   2.798 -0.4270  1.3861  0.9209
 2701SOL    HW219566   0.140   2.397   2.732 -0.9593  0.2721 -0.3120
 2702SOL     OW19567   0.351   1.396   5.059 -0.3684  0.1094 -0.1868
 2702SOL    HW119568   0.292   1.350   5.118 -1.4452 -0.9237 -2.0595
 2702SOL    HW219569   0.403   1.452   5.117  1.4183 -2.3591  0.5846
 2703SOL     OW19570   4.551   2.678   5.431  0.3465 -0.0874  0.2770
 2703SOL    HW119571   4.527   2.625   5.507  0.1467 -0.9587 -0.3962
 2703SOL    HW219572   4.575   2.757   5.479  0.0966  0.1572 -0.0054
 2704SOL     OW19573   3.765   0.663   3.669  0.4450 -0.5506  0.0044
 2704SOL    HW119574   3.762   0.731   3.737 -0.4130  0.7350 -1.3142
 2704SOL    HW219575   3.673   0.647   3.652  0.2227 -0.6687  1.3131
 2705SOL     OW19576   1.207   2.339   6.257 -0.2528 -0.1747  0.1839
 2705SOL    HW119577   1.242   2.424   6.284 -1.9407  0.8116 -0.7596
 2705SOL    HW219578   1.257   2.275   6.309  0.4743  3.0378  3.5262
 2706SOL     OW19579   1.895   1.276   5.918  0.3639 -0.3217  0.7705
 2706SOL    HW119580   1.927   1.258   6.007  2.2888  0.6586  0.2791
 2706SOL    HW219581   1.947   1.355   5.905 -2.4343  1.1863 -1.1305
 2707SOL     OW19582   0.869   1.837   8.993 -0.3250 -0.0435  0.2871
 2707SOL    HW119583   0.798   1.773   9.000  3.5847 -4.6714 -2.2398
 2707SOL    HW219584   0.937   1.804   9.052 -1.3754 -2.7911 -0.0315
 2708SOL     OW19585   2.449   2.653   0.729  0.2723 -0.2171  0.0028
 2708SOL    HW119586   2.421   2.669   0.819  1.3201  0.9178  0.1301
 2708SOL    HW219587   2.536   2.692   0.719  0.5008 -0.9758 -1.0567
 2709SOL     OW19588   4.378   2.559   3.616 -0.0003 -0.2691  0.0143
 2709SOL    HW119589   4.473   2.561   3.602 -0.0245  1.2280  0.0384
 2709SOL    HW219590   4.362   2.484   3.674  0.7965 -0.4371  0.0239
 2710SOL     OW19591   3.033   0.348   8.600 -0.2372 -0.0019  0.5831
 2710SOL    HW119592   2.992   0.409   8.662  1.2414  0.5919  0.9822
 2710SOL    HW219593   3.003   0.384   8.517  0.9327  0.7675  0.4830
 2711SOL     OW19594   4.174   2.916   1.278 -0.2552 -0.1481 -0.3500
 2711SOL    HW119595   4.176   2.964   1.196  2.2458 -1.1755 -0.8944
 2711SOL    HW219596   4.230   2.844   1.249 -1.0045 -0.4826 -0.9696
 2712SOL     OW19597   1.050   3.004   1.977  0.1216 -0.1757 -0.2574
 2712SOL    HW119598   1.075   2.928   1.924 -1.0154 -0.8093  0.1104
 2712SOL    HW219599   1.129   3.055   1.958  0.6924 -0.8137  0.4190
 2713SOL     OW19600   1.883   3.889   3.126 -0.0629 -0.0881  0.0987
 2713SOL    HW119601   1.789   3.871   3.123 -0.0997 -0.2097  1.8094
 2713SOL    HW219602   1.924   3.828   3.187  1.3569  0.6363 -0.1518
 2714SOL     OW19603   2.739   1.782  12.255 -0.3853 -0.6937  0.2321
 2714SOL    HW119604   2.734   1.863  12.306 -0.5134  0.6322 -1.9211
 2714SOL    HW219605   2.736   1.718  12.327  2.1477 -0.1539  0.8223
 2715SOL     OW19606   2.088   2.682   7.531 -0.0775  0.5856  0.6390
 2715SOL    HW119607   2.159   2.674   7.595  0.5183  0.0883 -0.0814
 2715SOL    HW219608   2.038   2.754   7.569  0.0015  1.4425 -0.8772
 2716SOL     OW19609   3.076   3.595   2.785  0.3119  0.2162 -0.8437
 2716SOL    HW119610   3.071   3.682   2.746  0.1973  1.6053  2.2344
 2716SOL    HW219611   3.164   3.600   2.825 -0.2544  1.7472  0.2109
 2717SOL     OW19612   0.007   2.775   9.817  0.2714 -0.0870  0.8922
 2717SOL    HW119613   0.080   2.714   9.821  1.5437  1.3195 -0.9620
 2717SOL    HW219614   0.041   2.857   9.781 -1.4982  0.1724 -0.1667
 2718SOL     OW19615   3.652   2.828   6.130  0.1574  0.1268 -0.3175
 2718SOL    HW119616   3.645   2.796   6.040  1.3078 -0.4313 -0.2123
 2718SOL    HW219617   3.582   2.773   6.163  0.9763  0.5251  2.0961
 2719SOL     OW19618   1.469   3.464  17.191  0.2341  0.0162 -0.6015
 2719SOL    HW119619   1.413   3.486  17.116  0.8208 -0.1047 -1.0754
 2719SOL    HW219620   1.482   3.371  17.174 -1.1491 -0.2004 -0.4820
 2720SOL     OW19621   2.021   3.613   0.845  0.8078 -0.0629 -0.7198
 2720SOL    HW119622   2.068   3.605   0.928 -0.5325 -1.6876 -0.1307
 2720SOL    HW219623   2.071   3.680   0.799 -0.9499  1.0178 -1.0833
 2721SOL     OW19624   0.034   3.750   9.996  0.1139  0.4530  0.0745
 2721SOL    HW119625   4.712   3.709  10.069 -0.0659  2.6255  1.1770
 2721SOL    HW219626   4.680   3.793   9.964  1.3540  2.5114 -0.2180
 2722SOL     OW19627   1.815   2.017   8.311 -0.2476 -0.1957  0.2360
 2722SOL    HW119628   1.750   1.955   8.279 -0.3112  0.4645 -0.8981
 2722SOL    HW219629   1.761   2.096   8.309 -3.0010 -2.0246  2.7297
 2723SOL     OW19630   1.520   3.209   3.889 -0.8203  0.5159 -0.3592
 2723SOL    HW119631   1.461   3.272   3.929  0.6436  0.5176  1.8345
 2723SOL    HW219632   1.495   3.126   3.929  2.7164 -0.3705  0.0916
 2724SOL     OW19633   1.584   3.107   7.889 -0.5481 -0.2565 -0.3966
 2724SOL    HW119634   1.608   3.145   7.974 -0.5999 -2.5449  0.6321
 2724SOL    HW219635   1.520   3.041   7.916 -2.6826  1.7357 -0.4998
 2725SOL     OW19636   2.850   1.901   8.829 -0.6903  0.3437  0.5765
 2725SOL    HW119637   2.945   1.888   8.822 -0.9929 -1.7153  0.2373
 2725SOL    HW219638   2.850   1.984   8.876  1.7325 -0.8887  2.7546
 2726SOL     OW19639   1.275   4.331   4.026  0.2546 -0.0731  0.5658
 2726SOL    HW119640   1.359   4.332   3.980  0.6949 -0.0656  1.3835
 2726SOL    HW219641   1.241   4.419   4.007  1.4530  0.3328  0.3023
 2727SOL     OW19642   4.105   2.651   9.669  0.0024  0.1317  0.5511
 2727SOL    HW119643   4.173   2.718   9.664  2.0034 -1.9437  0.2741
 2727SOL    HW219644   4.074   2.653   9.579  0.5316  0.3070  0.3739
 2728SOL     OW19645   2.739   0.569   8.216 -0.2153  0.0647  0.1846
 2728SOL    HW119646   2.712   0.500   8.154  1.8395  0.0718 -0.7184
 2728SOL    HW219647   2.805   0.529   8.273 -0.3310 -1.2309 -0.5746
 2729SOL     OW19648   1.376   4.158   2.774  0.2917  0.2070  0.7445
 2729SOL    HW119649   1.335   4.096   2.834  0.4378 -1.6448 -1.0913
 2729SOL    HW219650   1.362   4.112   2.692 -1.1910  0.8283  0.6587
 2730SOL     OW19651   2.845   3.244   9.938  0.4386 -0.0063 -0.5319
 2730SOL    HW119652   2.790   3.200   9.874  0.7337  0.0759 -0.8448
 2730SOL    HW219653   2.892   3.311   9.888  0.6498 -1.8721 -2.8577
 2731SOL     OW19654   2.220   1.133  14.566  0.4322  0.3735 -0.0728
 2731SOL    HW119655   2.314   1.137  14.585  0.3437 -0.9193  0.6436
 2731SOL    HW219656   2.194   1.086  14.645  1.2731  1.4102  0.8106
 2732SOL     OW19657   0.947   1.574   6.550  0.2555 -1.0313  0.0195
 2732SOL    HW119658   0.927   1.569   6.643 -0.9218 -0.3794 -0.1983
 2732SOL    HW219659   1.011   1.505   6.535  1.1016  0.1957 -1.9529
 2733SOL     OW19660   3.759   0.673  13.000 -0.1728 -0.4980  0.3666
 2733SOL    HW119661   3.691   0.607  13.009 -1.3055  0.5597 -0.5040
 2733SOL    HW219662   3.774   0.694  13.092  1.6821  1.2150 -0.3232
 2734SOL     OW19663   3.962   3.559  15.554 -0.0296  0.3620 -0.5498
 2734SOL    HW119664   4.003   3.645  15.564 -1.2646  0.8766  0.0556
 2734SOL    HW219665   3.890   3.569  15.616  1.2872  3.7188  0.4509
 2735SOL     OW19666   4.630   2.668  16.247  0.2138  0.3857  0.1276
 2735SOL    HW119667   4.638   2.625  16.332  0.3138  0.3504  0.0999
 2735SOL    HW219668   4.714   2.649  16.206 -0.3744 -0.2076 -0.8275
 2736SOL     OW19669   4.607   4.721   6.663 -0.4511 -0.1380 -0.4142
 2736SOL    HW119670   4.550   4.696   6.591  0.3208  1.5724 -1.6104
 2736SOL    HW219671   4.643   0.074   6.621 -0.9466 -0.2936 -1.1197
 2737SOL     OW19672   1.221   2.313   4.760  0.1174  0.7100  0.4087
 2737SOL    HW119673   1.239   2.396   4.803  0.2988  0.6789  0.3903
 2737SOL    HW219674   1.255   2.246   4.819  1.3660  0.8503 -0.1593
 2738SOL     OW19675   0.907   0.179   3.480  0.3116  0.8263 -0.1471
 2738SOL    HW119676   0.995   0.215   3.467  0.2212  0.1419 -2.7354
 2738SOL    HW219677   0.858   0.257   3.506 -2.2004 -0.8301  0.0141
 2739SOL     OW19678   2.513   3.878  11.091  0.1308  0.3572  0.8857
 2739SOL    HW119679   2.486   3.941  11.025  0.8096 -1.0891 -0.7626
 2739SOL    HW219680   2.562   3.819  11.035 -0.4873  0.0899  0.6280
 2740SOL     OW19681   0.328   1.758   7.015 -0.3300 -0.0656  0.3702
 2740SOL    HW119682   0.270   1.685   6.994 -1.3205  1.2699 -1.4340
 2740SOL    HW219683   0.298   1.822   6.951 -2.0888 -0.9029  0.3804
 2741SOL     OW19684   0.338   2.886   5.984  0.0447 -0.5040 -0.2096
 2741SOL    HW119685   0.327   2.863   6.076  0.5706  0.4762  0.0964
 2741SOL    HW219686   0.272   2.832   5.942 -0.6362  1.5196 -1.7070
 2742SOL     OW19687   4.210   0.576  17.578 -0.0270 -0.8419 -0.4738
 2742SOL    HW119688   4.213   0.496  17.631 -2.1425  0.3095  1.3929
 2742SOL    HW219689   4.179   0.631  17.650  3.7107 -0.0808  0.5492
 2743SOL     OW19690   0.968   0.003   5.883  0.2031  0.1869  0.1899
 2743SOL    HW119691   0.931   0.047   5.805 -0.1283 -1.7014 -0.7124
 2743SOL    HW219692   0.948   0.076   5.941 -2.2990 -0.6371  0.3597
 2744SOL     OW19693   0.460   2.331   3.959  0.0527 -0.4762 -0.8061
 2744SOL    HW119694   0.480   2.239   3.979 -0.9557 -0.6695 -0.6840
 2744SOL    HW219695   0.376   2.323   3.913 -1.3294  1.2146  1.4558
 2745SOL     OW19696   1.228   1.223  15.552 -0.3632 -0.2117  0.3606
 2745SOL    HW119697   1.233   1.200  15.645 -0.7541 -2.0285 -0.0739
 2745SOL    HW219698   1.160   1.163  15.523 -1.0849  0.1563  1.3076
 2746SOL     OW19699   4.263   2.999   6.704 -0.4422  0.0637  0.0955
 2746SOL    HW119700   4.328   3.016   6.636 -0.1384 -0.6432  0.2094
 2746SOL    HW219701   4.198   3.066   6.683 -0.5063  0.4513  1.5435
 2747SOL     OW19702   1.928   2.716   1.884  0.1453  0.0908  0.3552
 2747SOL    HW119703   1.861   2.685   1.823  1.5037  0.1661 -1.1841
 2747SOL    HW219704   1.950   2.635   1.930 -0.6708 -0.3073  0.0465
 2748SOL     OW19705   4.691   0.746  15.824  0.2178  0.0237 -0.1101
 2748SOL    HW119706   0.028   0.673  15.814 -1.2365 -1.3907  1.3437
 2748SOL    HW219707   4.693   0.751  15.919  3.4007 -0.4708 -0.1227
 2749SOL     OW19708   3.754   1.602   6.641 -0.3113 -0.1931  0.5544
 2749SOL    HW119709   3.756   1.638   6.553 -0.0280 -0.8255  0.2969
 2749SOL    HW219710   3.759   1.509   6.617  3.1223  0.3925 -0.9777
 2750SOL     OW19711   4.574   0.164   7.155  0.2751  0.2622 -0.2071
 2750SOL    HW119712   4.616   0.108   7.089  2.2633  2.9020 -1.1893
 2750SOL    HW219713   4.640   0.229   7.181  2.9899 -1.4216 -2.8250
 2751SOL     OW19714   1.435   2.252  13.084  0.4040  0.1442 -0.0499
 2751SOL    HW119715   1.352   2.283  13.048 -0.2435  1.8022  2.8128
 2751SOL    HW219716   1.495   2.326  13.100  1.3331 -0.2195 -1.8734
 2752SOL     OW19717   4.182   0.481   6.413  0.0703  0.3119  0.0012
 2752SOL    HW119718   4.159   0.470   6.321 -0.1295 -0.2780  0.1225
 2752SOL    HW219719   4.137   0.404   6.447  2.9549  0.4487  4.1018
 2753SOL     OW19720   3.894   2.537  12.869  0.2867  0.3144 -0.3520
 2753SOL    HW119721   3.966   2.523  12.931 -1.1745  1.5713  1.6245
 2753SOL    HW219722   3.915   2.627  12.841  1.5128 -0.5277 -2.1534
 2754SOL     OW19723   2.163   0.591   8.985 -0.8765  0.2177 -0.3751
 2754SOL    HW119724   2.193   0.578   8.895 -0.4312  0.4954 -0.2673
 2754SOL    HW219725   2.104   0.664   8.966  1.1051  1.4853 -1.7017
 2755SOL     OW19726   3.354   2.084   6.645  0.2963 -0.3666  0.5981
 2755SOL    HW119727   3.312   2.066   6.729  1.3857  2.0695  1.6657
 2755SOL    HW219728   3.328   2.175   6.634 -2.5342 -1.1536  0.8808
 2756SOL     OW19729   2.833   2.407   8.563  0.5318  0.4833 -0.5323
 2756SOL    HW119730   2.882   2.486   8.540  1.2137  0.0665 -0.5168
 2756SOL    HW219731   2.891   2.332   8.550 -2.3415 -2.1730  2.1030
 2757SOL     OW19732   3.390   1.972   5.377  0.1824 -0.0956  0.3651
 2757SOL    HW119733   3.408   1.895   5.323  0.1461  1.1972 -1.4953
 2757SOL    HW219734   3.478   1.996   5.407  0.2807  2.4654 -2.0071
 2758SOL     OW19735   4.311   1.604   9.238  0.4950 -0.2249  0.8879
 2758SOL    HW119736   4.373   1.597   9.311  1.6022  1.4245  0.0931
 2758SOL    HW219737   4.363   1.552   9.177  0.2554  0.5238  0.0534
 2759SOL     OW19738   0.013   4.683   5.930  0.7741  0.4293  0.4091
 2759SOL    HW119739   4.665   4.710   5.986 -0.1392  0.4370 -0.7878
 2759SOL    HW219740   4.697   4.641   5.854 -2.4821  1.9577  1.2849
 2760SOL     OW19741   0.274   1.194   3.608 -0.3228  0.2793 -0.1001
 2760SOL    HW119742   0.338   1.162   3.671 -0.4966 -0.9210 -0.5519
 2760SOL    HW219743   0.187   1.188   3.649  0.4579  3.0017  2.0114
 2761SOL     OW19744   2.492   2.324   1.772 -0.4300 -0.4467  0.0060
 2761SOL    HW119745   2.481   2.245   1.825  0.3510  0.3150  1.3195
 2761SOL    HW219746   2.477   2.288   1.685 -0.5869 -2.2413  0.7838
 2762SOL     OW19747   3.144   2.919   9.029 -0.0950 -0.3925 -0.3714
 2762SOL    HW119748   3.177   3.000   9.067  2.1324 -0.7415 -1.5648
 2762SOL    HW219749   3.179   2.918   8.940 -0.0347 -1.2654 -0.3326
 2763SOL     OW19750   0.129   1.370   6.865 -0.0593 -0.0595  0.3762
 2763SOL    HW119751   0.077   1.291   6.880  1.1277 -1.1511 -1.2145
 2763SOL    HW219752   0.177   1.388   6.945  0.3783 -2.2547  0.5882
 2764SOL     OW19753   1.052   0.077   4.955 -0.3832 -0.3646  0.2689
 2764SOL    HW119754   1.095   4.718   4.973  0.4738  0.4482  2.0049
 2764SOL    HW219755   1.100   0.146   5.001  1.1682  0.2233 -2.2040
 2765SOL     OW19756   4.631   2.356   4.863  0.0489 -0.1639 -0.7905
 2765SOL    HW119757   4.692   2.397   4.924 -2.2898  0.6851  0.9506
 2765SOL    HW219758   4.643   2.404   4.780  1.4514 -1.1939 -1.1806
 2766SOL     OW19759   0.579   2.743  10.672 -0.6673  0.2897 -0.1001
 2766SOL    HW119760   0.520   2.750  10.746 -0.4179 -0.3948  0.1680
 2766SOL    HW219761   0.613   2.832  10.670  0.5117 -0.1452  0.3869
 2767SOL     OW19762   3.202   2.623   7.206  0.7773  0.0670 -0.2794
 2767SOL    HW119763   3.201   2.718   7.220 -1.0785  0.3320 -2.2854
 2767SOL    HW219764   3.201   2.582   7.293 -0.7089  1.7182  0.4786
 2768SOL     OW19765   2.542   0.067  10.654 -0.5476 -0.0500  0.2643
 2768SOL    HW119766   2.591   0.015  10.591  0.4137 -0.7124  1.5591
 2768SOL    HW219767   2.612   0.082  10.718 -0.1828  0.2463 -0.2047
 2769SOL     OW19768   1.030   2.596   7.692  0.4146  0.6715  0.3654
 2769SOL    HW119769   1.012   2.502   7.681 -0.4650  0.7605  1.0470
 2769SOL    HW219770   0.967   2.641   7.636 -0.7016 -0.5534  0.6227
 2770SOL     OW19771   0.367   4.196   1.320 -0.2063  0.0164  0.2231
 2770SOL    HW119772   0.369   4.107   1.355  2.4506 -0.3343 -0.8380
 2770SOL    HW219773   0.299   4.235   1.376  0.7431  0.7298  0.8939
 2771SOL     OW19774   4.013   0.525   7.006  0.8140 -0.1388  0.7125
 2771SOL    HW119775   4.010   0.509   6.912  0.4269  2.0319  0.3581
 2771SOL    HW219776   3.961   0.451   7.037  0.1592 -0.3309 -0.8668
 2772SOL     OW19777   1.924   2.003   2.953 -0.2085 -0.4254  0.0870
 2772SOL    HW119778   2.014   1.996   2.920  0.4940  1.3317  1.6563
 2772SOL    HW219779   1.958   1.971   3.037  0.9022 -1.0979 -0.6072
 2773SOL     OW19780   3.851   0.738   9.235  0.7826 -0.2452  0.3998
 2773SOL    HW119781   3.870   0.671   9.169 -0.1780 -0.3989  0.2884
 2773SOL    HW219782   3.888   0.698   9.313  1.2766  0.7829  0.7001
 2774SOL     OW19783   3.797   1.698   4.943 -0.0021 -0.0226 -0.5714
 2774SOL    HW119784   3.781   1.611   4.980 -2.0089  0.2100 -0.9128
 2774SOL    HW219785   3.891   1.682   4.934 -0.4520 -1.6430 -2.2481
 2775SOL     OW19786   3.788   1.667   6.372  0.0316 -0.2980  0.4313
 2775SOL    HW119787   3.860   1.707   6.323 -1.2048 -0.6988 -1.7106
 2775SOL    HW219788   3.714   1.724   6.349  0.7013 -0.2202 -1.5044
 2776SOL     OW19789   4.673   3.526  14.554 -0.1959  0.1139 -0.8804
 2776SOL    HW119790   4.592   3.569  14.527  0.8185  1.6438 -1.4468
 2776SOL    HW219791   4.699   3.499  14.466  2.2441 -1.5581  0.3585
 2777SOL     OW19792   4.203   4.224   8.223 -0.3294  0.4337 -0.1303
 2777SOL    HW119793   4.210   4.313   8.258 -1.8538  0.4336  0.1558
 2777SOL    HW219794   4.202   4.227   8.128  0.2635  2.1532 -0.0768
 2778SOL     OW19795   1.788   1.713   6.110 -0.2957 -0.1823  0.6557
 2778SOL    HW119796   1.880   1.707   6.087  0.0972  1.5173  1.8270
 2778SOL    HW219797   1.746   1.759   6.037 -0.5891  0.5161  1.2697
 2779SOL     OW19798   3.305   0.444   8.553 -0.4323 -0.1850 -0.5170
 2779SOL    HW119799   3.323   0.487   8.637  0.7708  1.4205 -1.5966
 2779SOL    HW219800   3.224   0.404   8.583  0.2788 -2.1124 -1.1529
 2780SOL     OW19801   1.360   0.913   6.083  0.5891 -0.1937 -0.1708
 2780SOL    HW119802   1.297   0.884   6.016  0.9822  1.4071 -1.2460
 2780SOL    HW219803   1.367   1.003   6.050  1.1186 -0.0529  0.3465
 2781SOL     OW19804   1.569   2.147  14.648 -0.1966  0.4893 -0.6525
 2781SOL    HW119805   1.477   2.170  14.631 -0.3551 -0.4762 -1.1175
 2781SOL    HW219806   1.610   2.178  14.567  0.5321 -2.4749 -1.4048
 2782SOL     OW19807   1.570   2.935   7.165  0.4004  0.5732 -0.2390
 2782SOL    HW119808   1.651   2.889   7.142 -0.3503 -0.0501 -1.6587
 2782SOL    HW219809   1.548   2.993   7.093 -2.2104 -0.1069  0.0122
 2783SOL     OW19810   0.761   0.955   8.874  0.3260 -0.4085 -0.8497
 2783SOL    HW119811   0.812   0.877   8.851 -0.1460 -0.5634 -1.3757
 2783SOL    HW219812   0.765   0.939   8.968  1.1638  2.6709 -0.3739
 2784SOL     OW19813   2.461   2.852   5.616  0.1366 -0.3095  0.1707
 2784SOL    HW119814   2.527   2.811   5.560 -0.2955  1.1108 -1.4196
 2784SOL    HW219815   2.506   2.933   5.640 -1.0634  0.1623  0.8072
 2785SOL     OW19816   3.098   0.832  10.486 -0.1019 -0.1832 -0.2939
 2785SOL    HW119817   3.185   0.794  10.499 -1.0820 -1.7884  1.6495
 2785SOL    HW219818   3.061   0.772  10.421  1.7558 -3.8370  2.0117
 2786SOL     OW19819   2.477   3.167   8.467  0.0820 -0.2469  0.3204
 2786SOL    HW119820   2.545   3.202   8.524  0.6552 -1.3678  0.3322
 2786SOL    HW219821   2.540   3.127   8.406 -1.4817  0.6186 -1.8762
 2787SOL     OW19822   0.366   4.317   5.303 -0.2555  0.0471  0.2131
 2787SOL    HW119823   0.359   4.222   5.312 -1.7241  0.0434 -1.1694
 2787SOL    HW219824   0.291   4.343   5.357  0.8405  0.3208  1.6102
 2788SOL     OW19825   2.100   2.518   3.317 -0.2519 -0.2057  0.4005
 2788SOL    HW119826   2.127   2.484   3.402  1.6953  2.4151  0.8265
 2788SOL    HW219827   2.129   2.441   3.267 -1.7173  0.2199 -1.1071
 2789SOL     OW19828   2.693   2.186  17.542 -0.2217 -0.0671 -0.2224
 2789SOL    HW119829   2.762   2.218  17.600 -0.3436  0.3999 -0.3317
 2789SOL    HW219830   2.703   2.091  17.553  3.8563  0.3468 -0.5756
 2790SOL     OW19831   3.859   3.273   1.403 -0.2542  0.2289  0.2372
 2790SOL    HW119832   3.813   3.247   1.324 -1.2249  0.9347  0.5717
 2790SOL    HW219833   3.922   3.201   1.414 -0.7099  0.2732  3.0905
 2791SOL     OW19834   1.517   0.246   5.650 -0.2851  0.1512  0.5350
 2791SOL    HW119835   1.509   0.154   5.625 -0.2512 -0.0511  1.2890
 2791SOL    HW219836   1.458   0.248   5.724  1.1786  0.5928  1.6956
 2792SOL     OW19837   1.339   2.600   6.295 -0.1180 -0.2668  0.2228
 2792SOL    HW119838   1.301   2.685   6.319  1.0800  0.4661 -0.4525
 2792SOL    HW219839   1.393   2.580   6.370  2.1882 -2.1232 -1.9525
 2793SOL     OW19840   1.148   1.847   7.255  0.2353  0.4565 -0.5716
 2793SOL    HW119841   1.137   1.763   7.300 -3.1911  1.9702  1.4529
 2793SOL    HW219842   1.173   1.826   7.165 -1.7277 -2.2963 -0.4631
 2794SOL     OW19843   1.108   1.757   8.117  0.0256 -0.0549 -0.3526
 2794SOL    HW119844   1.112   1.845   8.080 -0.7418 -0.0106 -0.3241
 2794SOL    HW219845   1.155   1.709   8.048 -0.3257 -0.1333 -0.5357
 2795SOL     OW19846   2.157   3.285   1.512 -0.1354  0.2553 -0.4629
 2795SOL    HW119847   2.087   3.336   1.471  0.4789  3.1226  2.1070
 2795SOL    HW219848   2.210   3.355   1.550  0.3064  0.0007 -0.5991
 2796SOL     OW19849   3.127   1.522   4.044 -0.1487  0.2098  0.1495
 2796SOL    HW119850   3.038   1.548   4.018  0.4099 -0.6000 -2.6121
 2796SOL    HW219851   3.122   1.428   4.028 -2.5236  0.4618 -0.6297
 2797SOL     OW19852   2.015   4.279  10.443  0.2947  0.2395  0.2811
 2797SOL    HW119853   1.955   4.353  10.450 -0.4348 -0.3040 -0.1632
 2797SOL    HW219854   2.089   4.306  10.497  0.0479  1.1027  0.1744
 2798SOL     OW19855   1.210   0.419   8.344  0.0815  0.0522  0.3093
 2798SOL    HW119856   1.208   0.365   8.265  0.4308 -0.7753  0.8721
 2798SOL    HW219857   1.174   0.501   8.310  0.5766  1.0748  2.2483
 2799SOL     OW19858   3.486   1.336  15.968  0.0235  0.3567  0.4026
 2799SOL    HW119859   3.403   1.341  16.016 -1.2998  0.5685 -1.9552
 2799SOL    HW219860   3.454   1.298  15.887 -1.2766  1.9608  0.1761
 2800SOL     OW19861   0.907   2.372   6.968 -0.5255  0.0200  0.0735
 2800SOL    HW119862   0.929   2.287   6.929  3.6846  0.7634  0.7956
 2800SOL    HW219863   0.929   2.434   6.899 -1.5835  0.8239  0.4538
 2801SOL     OW19864   0.926   4.678   4.747 -0.3237 -0.0180 -0.1013
 2801SOL    HW119865   0.888   0.041   4.753  0.7448  0.3866  0.8271
 2801SOL    HW219866   1.018   4.694   4.766 -0.3158  0.2187 -0.3329
 2802SOL     OW19867   2.766   3.587   4.303 -0.0876 -0.1008 -0.1604
 2802SOL    HW119868   2.772   3.519   4.237 -2.0881 -1.0645  0.6463
 2802SOL    HW219869   2.856   3.610   4.326  0.1218 -0.1196 -0.9566
 2803SOL     OW19870   2.732   0.905  13.390  0.2066  0.3526 -0.2252
 2803SOL    HW119871   2.663   0.887  13.327  0.6395 -1.5939 -0.1368
 2803SOL    HW219872   2.711   0.998  13.394 -0.8123  0.0179  1.9550
 2804SOL     OW19873   4.397   1.068   3.218  0.0830 -0.4014  0.4026
 2804SOL    HW119874   4.412   1.081   3.124 -0.3907  0.4648  0.4466
 2804SOL    HW219875   4.316   1.017   3.217 -0.1596 -0.0283  0.8958
 2805SOL     OW19876   4.097   0.383   5.629  0.6318  0.1950  0.2870
 2805SOL    HW119877   4.073   0.472   5.602  0.0045  0.0753  0.4482
 2805SOL    HW219878   4.154   0.353   5.557 -1.7996 -1.1653 -1.0724
 2806SOL     OW19879   0.295   1.614  15.227 -0.1975  0.0630 -0.5220
 2806SOL    HW119880   0.313   1.533  15.276  0.7711  0.6243  0.0433
 2806SOL    HW219881   0.210   1.596  15.187  1.0403 -0.4552 -2.9560
 2807SOL     OW19882   0.152   4.275   6.038  0.7300 -0.1473  0.0259
 2807SOL    HW119883   0.122   4.187   6.017  1.0447  0.0368 -1.2170
 2807SOL    HW219884   0.248   4.266   6.036  0.8125  1.2727 -2.6668
 2808SOL     OW19885   1.255   1.650   7.924 -0.1334 -0.1585  0.2462
 2808SOL    HW119886   1.329   1.690   7.970  1.9506 -2.6782 -0.9255
 2808SOL    HW219887   1.304   1.636   7.842  0.6070 -0.3519  0.7187
 2809SOL     OW19888   1.009   1.395   6.810  0.7025  0.2489  0.3812
 2809SOL    HW119889   0.925   1.374   6.770 -0.4224  0.3990  2.6751
 2809SOL    HW219890   0.978   1.439   6.889  3.2354 -1.7530  2.4918
 2810SOL     OW19891   3.308   4.166   4.909  0.5319  0.2873 -0.2681
 2810SOL    HW119892   3.283   4.186   4.818 -0.6990 -0.8713 -0.1789
 2810SOL    HW219893   3.402   4.147   4.914  0.3627  0.4909  3.4406
 2811SOL     OW19894   4.102   0.749   8.943  0.0513  0.5326 -0.3137
 2811SOL    HW119895   4.078   0.764   8.851  1.6401  0.4334 -0.7445
 2811SOL    HW219896   4.056   0.668   8.962  2.9701 -1.2031 -0.6950
 2812SOL     OW19897   2.056   3.038   4.891  0.3093 -0.1826 -0.3223
 2812SOL    HW119898   2.005   3.118   4.903 -0.1991 -0.4168 -0.9304
 2812SOL    HW219899   2.012   2.970   4.942 -0.0181 -0.9481 -1.6153
 2813SOL     OW19900   3.343   2.790   2.638 -0.5183 -0.6379 -0.2319
 2813SOL    HW119901   3.292   2.867   2.612 -2.1035 -1.0555  1.6107
 2813SOL    HW219902   3.303   2.764   2.721 -1.2290 -0.4729 -0.5256
 2814SOL     OW19903   1.935   1.874  13.316  0.3716 -0.2921  0.1474
 2814SOL    HW119904   1.882   1.835  13.247 -1.4411  0.2536  1.2355
 2814SOL    HW219905   2.025   1.856  13.290  1.5296  2.3323  2.3412
 2815SOL     OW19906   3.541   2.548  17.305 -0.2061 -0.3388  0.2659
 2815SOL    HW119907   3.545   2.578  17.396  1.4889  1.2276 -0.3192
 2815SOL    HW219908   3.516   2.629  17.260 -2.3102 -1.3077 -0.2784
 2816SOL     OW19909   3.606   0.489   5.690 -0.1821  0.4356  0.3858
 2816SOL    HW119910   3.668   0.539   5.638  1.2611  0.6445  2.3183
 2816SOL    HW219911   3.554   0.446   5.622  0.6790  1.4572 -0.9152
 2817SOL     OW19912   1.602   4.287  15.195 -0.3131  0.1633  0.0109
 2817SOL    HW119913   1.630   4.357  15.255 -0.2670  0.1458  0.0093
 2817SOL    HW219914   1.606   4.214  15.256 -0.8555  0.1910  0.0766
 2818SOL     OW19915   4.684   1.177   8.409 -0.0996 -0.4243  0.5701
 2818SOL    HW119916   4.600   1.140   8.437 -1.1431  1.1391 -0.5356
 2818SOL    HW219917   4.685   1.137   8.322 -2.6437  2.2444 -0.6706
 2819SOL     OW19918   1.545   2.187   4.509  0.3687 -0.2769 -0.2508
 2819SOL    HW119919   1.530   2.243   4.433 -0.4342 -0.1148  0.0191
 2819SOL    HW219920   1.628   2.226   4.534  1.4932 -2.8841  0.0687
 2820SOL     OW19921   3.120   3.772  13.911 -0.2175  0.1012  0.5478
 2820SOL    HW119922   3.158   3.694  13.871 -0.7872  0.0398  0.1228
 2820SOL    HW219923   3.111   3.835  13.839 -1.0366  1.1758  1.5766
 2821SOL     OW19924   2.607   1.136   2.541  0.4700 -0.2030  0.0070
 2821SOL    HW119925   2.678   1.107   2.484  0.0333 -0.4528 -0.4113
 2821SOL    HW219926   2.566   1.204   2.487 -1.5092 -2.0179 -0.7958
 2822SOL     OW19927   4.194   0.412   5.370 -0.1267 -0.1272  0.3618
 2822SOL    HW119928   4.169   0.504   5.385 -0.2812 -0.2307  0.7307
 2822SOL    HW219929   4.279   0.420   5.327  0.0484 -1.8318  0.4198
 2823SOL     OW19930   2.816   2.364   1.852  0.5571 -0.0255 -0.1284
 2823SOL    HW119931   2.828   2.456   1.874  1.6613 -0.5043  1.2581
 2823SOL    HW219932   2.726   2.352   1.822  0.9076 -1.2674 -0.7110
 2824SOL     OW19933   1.690   2.466  14.563  0.1797 -0.4153 -0.0524
 2824SOL    HW119934   1.714   2.500  14.649 -4.6824  0.1334  1.0378
 2824SOL    HW219935   1.748   2.390  14.556 -1.4978 -1.5589 -1.3743
 2825SOL     OW19936   0.036   4.082   1.602 -0.2175  0.1186 -0.1284
 2825SOL    HW119937   0.125   4.048   1.609 -0.3427  0.1203  1.4921
 2825SOL    HW219938   0.052   4.161   1.551  0.5348 -0.2797 -0.5088
 2826SOL     OW19939   3.903   0.683   6.518  0.0398  0.3904 -0.1638
 2826SOL    HW119940   3.852   0.644   6.447 -1.2556  2.2404 -0.2568
 2826SOL    HW219941   3.836   0.731   6.567  0.0659  0.4207 -0.1578
 2827SOL     OW19942   2.320   4.465   3.745  0.1187 -0.5426  0.2518
 2827SOL    HW119943   2.271   4.456   3.827 -0.4795 -3.0962 -0.3963
 2827SOL    HW219944   2.394   4.413   3.775  0.1877  0.3616  1.6629
 2828SOL     OW19945   2.397   3.931   0.489 -0.1365 -0.2180 -0.1526
 2828SOL    HW119946   2.481   3.891   0.512  1.2034  1.1235 -2.6984
 2828SOL    HW219947   2.421   3.968   0.404 -0.0265 -1.8374 -0.8070
 2829SOL     OW19948   0.693   0.353   3.529  0.4002 -0.5757  0.5424
 2829SOL    HW119949   0.691   0.429   3.587  1.1594  1.5512 -2.2482
 2829SOL    HW219950   0.602   0.344   3.501  0.7954 -1.9085 -0.3108
 2830SOL     OW19951   1.097   0.309   8.745 -0.5028 -0.4228  0.0602
 2830SOL    HW119952   1.155   0.369   8.792  1.4224 -2.7767  0.7399
 2830SOL    HW219953   1.134   0.298   8.657 -1.2258 -0.4101 -0.2457
 2831SOL     OW19954   0.507   0.256  15.769 -0.7842  0.0507  0.0066
 2831SOL    HW119955   0.441   0.298  15.715 -0.1599 -1.2433 -1.7997
 2831SOL    HW219956   0.518   0.315  15.843 -1.6254 -0.0821  0.2347
 2832SOL     OW19957   4.251   3.571   1.049 -0.5649  0.1816  0.1084
 2832SOL    HW119958   4.191   3.623   1.103 -0.9057 -1.2535  1.1222
 2832SOL    HW219959   4.280   3.641   0.991  0.9971 -1.9012 -1.6149
 2833SOL     OW19960   2.665   4.587   1.214  0.2179 -0.3538 -0.1685
 2833SOL    HW119961   2.705   4.604   1.300  1.7331 -0.3092 -0.8991
 2833SOL    HW219962   2.594   4.525   1.233 -0.3955  0.9155  1.7511
 2834SOL     OW19963   4.617   3.905   6.484  0.0431  0.2111 -0.3137
 2834SOL    HW119964   4.695   3.960   6.481  0.0774  0.2274  0.8897
 2834SOL    HW219965   4.563   3.943   6.554 -0.7739 -0.4398 -0.5935
 2835SOL     OW19966   3.352   3.407   3.434 -0.0278 -0.3889 -0.2341
 2835SOL    HW119967   3.283   3.345   3.411  0.3532 -1.0698  0.5074
 2835SOL    HW219968   3.303   3.488   3.416  0.4496 -0.2346 -0.8695
 2836SOL     OW19969   1.691   2.240   4.221 -0.3247 -0.6720  0.2975
 2836SOL    HW119970   1.635   2.317   4.229  0.1962 -0.1325 -1.3653
 2836SOL    HW219971   1.775   2.276   4.247  1.1543 -3.0632 -1.1777
 2837SOL     OW19972   3.052   2.903   1.847 -0.0222  0.1190  0.8473
 2837SOL    HW119973   3.089   2.904   1.759 -2.5416  1.4285 -0.1944
 2837SOL    HW219974   3.087   2.987   1.878 -0.4336  0.7541 -0.4431
 2838SOL     OW19975   3.711   3.615   8.708  0.7860  0.4842  0.3018
 2838SOL    HW119976   3.649   3.684   8.731  0.9015  0.7357 -0.1348
 2838SOL    HW219977   3.715   3.583   8.798  0.9857  0.1900  0.1881
 2839SOL     OW19978   2.171   3.756   0.677  0.7470 -0.9633  0.3157
 2839SOL    HW119979   2.097   3.807   0.644  1.9850 -0.9247 -2.3541
 2839SOL    HW219980   2.243   3.767   0.614 -0.1605 -1.4555 -0.7986
 2840SOL     OW19981   0.175   0.579   8.506 -0.2781 -0.0585  0.3961
 2840SOL    HW119982   0.124   0.531   8.441 -0.2714  0.5865 -0.0905
 2840SOL    HW219983   0.255   0.527   8.503 -0.6968 -0.7204  0.9381
 2841SOL     OW19984   2.344   4.359  17.348  0.0462  0.0659  0.1664
 2841SOL    HW119985   2.343   4.449  17.381 -1.6266 -0.2160  0.9176
 2841SOL    HW219986   2.253   4.332  17.334  0.8797 -1.5952 -2.0898
 2842SOL     OW19987   0.177   2.244   3.375 -0.5017  0.6017 -0.1719
 2842SOL    HW119988   0.172   2.251   3.280  2.9961 -1.3005 -0.4977
 2842SOL    HW219989   0.125   2.319   3.404  1.4846  1.0353  2.3044
 2843SOL     OW19990   3.119   4.375   1.211  0.1790  0.3226 -0.1239
 2843SOL    HW119991   3.141   4.382   1.304 -0.9437  1.5318  0.0465
 2843SOL    HW219992   3.059   4.449   1.203  0.1308  0.2581 -0.3562
 2844SOL     OW19993   3.062   4.569  15.943 -0.5585 -0.1543  0.3324
 2844SOL    HW119994   3.142   4.549  15.992 -0.1769 -1.7132 -0.9197
 2844SOL    HW219995   3.046   4.485  15.900 -1.2868 -0.5594  1.3993
 2845SOL     OW19996   0.787   2.320   5.622  1.0227 -0.5950 -0.2562
 2845SOL    HW119997   0.762   2.228   5.633 -1.1117 -0.0732 -0.8045
 2845SOL    HW219998   0.732   2.371   5.681 -0.1617 -1.1901 -0.8348
 2846SOL     OW19999   3.114   1.874  17.355  0.2349  0.3538  0.2367
 2846SOL    HW120000   3.081   1.872  17.265 -2.7584 -0.3973  1.3342
 2846SOL    HW220001   3.053   1.940  17.387  0.8628  0.9743  0.1516
 2847SOL     OW20002   0.908   4.597   1.052 -0.2475  0.2175  0.3692
 2847SOL    HW120003   0.853   4.662   1.009 -0.0531  1.0142  1.3158
 2847SOL    HW220004   0.848   4.525   1.073 -0.7855  0.7102  0.5163
 2848SOL     OW20005   2.731   0.364   7.316  0.5937 -0.0917  0.4421
 2848SOL    HW120006   2.733   0.315   7.234 -1.4032  1.2328 -0.3999
 2848SOL    HW220007   2.823   0.383   7.332  0.2790  2.0082 -0.3375
 2849SOL     OW20008   0.336   1.827  15.376 -0.2845  0.0679 -0.7082
 2849SOL    HW120009   0.250   1.793  15.403 -1.1897  2.1084 -0.9625
 2849SOL    HW220010   0.355   1.748  15.325  1.3684  0.4563 -0.6948
 2850SOL     OW20011   0.497   4.112   4.488 -0.0751  0.3259  0.2926
 2850SOL    HW120012   0.404   4.105   4.509  0.0697 -1.1160  0.4107
 2850SOL    HW220013   0.519   4.028   4.528 -0.8372 -0.0609 -0.0980
 2851SOL     OW20014   2.313   4.563   5.759  0.0050 -0.3505  0.3507
 2851SOL    HW120015   2.227   4.591   5.789 -0.8188  1.6250 -3.9247
 2851SOL    HW220016   2.292   4.483   5.711 -2.4996 -0.5491  1.7843
 2852SOL     OW20017   3.080   1.148  10.913 -0.3293 -0.0636 -0.1324
 2852SOL    HW120018   3.068   1.075  10.853 -2.2498  1.5847 -1.7538
 2852SOL    HW220019   3.142   1.197  10.858 -0.7747 -0.8489 -1.3426
 2853SOL     OW20020   3.475   4.030  10.656  0.0601 -0.0747 -0.4168
 2853SOL    HW120021   3.382   4.032  10.631 -0.1743 -0.6202  0.3714
 2853SOL    HW220022   3.500   3.944  10.621 -1.0903 -1.2422  1.5590
 2854SOL     OW20023   4.124   3.491   8.406  0.1053 -0.2395  0.7639
 2854SOL    HW120024   4.119   3.399   8.380 -0.9953 -0.2339  0.9501
 2854SOL    HW220025   4.218   3.506   8.415 -0.1326  2.5233 -1.4353
 2855SOL     OW20026   1.686   1.796   6.662 -0.0391 -0.2661 -0.3497
 2855SOL    HW120027   1.771   1.792   6.618 -0.8537 -2.9450 -1.7149
 2855SOL    HW220028   1.659   1.705   6.654 -0.6503 -0.3146  2.2545
 2856SOL     OW20029   4.252   4.443   7.559 -0.0296 -0.1014 -0.0578
 2856SOL    HW120030   4.182   4.451   7.624  0.9050  3.9140  0.5091
 2856SOL    HW220031   4.336   4.449   7.604 -0.5401 -1.8841  1.1240
 2857SOL     OW20032   2.021   1.709   6.694 -0.4618  0.0817 -0.0525
 2857SOL    HW120033   2.111   1.686   6.716 -1.3231 -2.7689  0.5413
 2857SOL    HW220034   1.976   1.663   6.765  0.4487  0.4304  0.7491
 2858SOL     OW20035   4.313   0.985   7.286  1.0878 -0.2264 -0.1475
 2858SOL    HW120036   4.382   0.919   7.278  1.5530  0.1421  0.8127
 2858SOL    HW220037   4.361   1.065   7.304 -0.2197  0.6359 -0.5223
 2859SOL     OW20038   4.411   1.219  13.562  0.1836 -0.0010 -0.1905
 2859SOL    HW120039   4.346   1.222  13.633  1.8360 -0.9656  1.3387
 2859SOL    HW220040   4.350   1.217  13.489 -2.4128 -2.3216  2.0173
 2860SOL     OW20041   2.441   4.383  15.359 -0.4147  0.1620 -0.2830
 2860SOL    HW120042   2.508   4.420  15.416  0.0605 -1.7032  0.3761
 2860SOL    HW220043   2.467   4.404  15.270 -3.5309  1.0734 -0.9683
 2861SOL     OW20044   0.583   0.394   1.206 -0.3789  0.1464 -0.7723
 2861SOL    HW120045   0.545   0.480   1.223 -0.3267 -0.1776  0.9324
 2861SOL    HW220046   0.537   0.338   1.268 -0.9386  0.3532 -1.0085
 2862SOL     OW20047   3.617   1.136   8.081  0.0289 -0.9377 -0.6894
 2862SOL    HW120048   3.706   1.161   8.106 -0.5032  0.3611 -0.0830
 2862SOL    HW220049   3.569   1.148   8.163  0.8405  0.4958 -0.4349
 2863SOL     OW20050   1.100   0.287   3.212 -0.0046 -0.2651 -0.8786
 2863SOL    HW120051   1.044   0.341   3.269  1.4950  0.9686 -0.5841
 2863SOL    HW220052   1.174   0.270   3.270 -0.4857  0.2408 -0.1044
 2864SOL     OW20053   0.997   1.234   8.813 -0.1936 -0.2822 -0.5286
 2864SOL    HW120054   1.000   1.163   8.877  0.4847 -0.3192 -0.6001
 2864SOL    HW220055   0.935   1.290   8.860  2.5050  2.8088 -0.6193
 2865SOL     OW20056   1.283   3.174   1.562 -0.3091 -0.4138 -0.2771
 2865SOL    HW120057   1.350   3.152   1.626 -1.9040  1.2062  1.9360
 2865SOL    HW220058   1.302   3.105   1.498  1.0413  0.8826 -1.2861
 2866SOL     OW20059   0.512   1.465   3.983 -0.4268  0.2726 -0.4456
 2866SOL    HW120060   0.578   1.420   3.931  0.7090  0.1142  1.1188
 2866SOL    HW220061   0.465   1.508   3.912  1.7372  1.5487 -1.0991
 2867SOL     OW20062   3.965   2.491   1.500  0.8960  0.6890  0.3859
 2867SOL    HW120063   3.972   2.587   1.495  2.9395  0.7642  4.0803
 2867SOL    HW220064   4.058   2.468   1.507  0.8500 -0.0482 -1.6164
 2868SOL     OW20065   4.414   1.638   2.626 -0.1578 -0.2224 -0.0486
 2868SOL    HW120066   4.457   1.595   2.553  1.1584  1.2756 -0.1545
 2868SOL    HW220067   4.329   1.600   2.605  1.2090 -3.0080 -0.4968
 2869SOL     OW20068   1.547   0.103   6.766 -0.2496 -0.3533  0.1986
 2869SOL    HW120069   1.515   0.014   6.781  1.1690 -0.4001  3.0031
 2869SOL    HW220070   1.463   0.141   6.742 -1.6144 -1.8393  2.7314
 2870SOL     OW20071   3.049   2.743   1.158  0.4620 -0.0910 -0.1165
 2870SOL    HW120072   3.127   2.687   1.164 -0.4424 -1.1776  1.3452
 2870SOL    HW220073   3.013   2.737   1.246  0.5745 -2.3694 -0.2332
 2871SOL     OW20074   0.095   0.041   1.665  0.1538 -0.8165 -0.1803
 2871SOL    HW120075   0.091   0.112   1.601  2.8060 -0.6035 -0.0786
 2871SOL    HW220076   0.060   4.694   1.612 -2.0296 -0.4427  0.7175
 2872SOL     OW20077   4.222   1.662   8.294  0.5711 -0.1839 -0.2568
 2872SOL    HW120078   4.182   1.645   8.209  0.2545  1.6436 -0.4933
 2872SOL    HW220079   4.185   1.589   8.344  2.4367  1.1064  3.0392
 2873SOL     OW20080   1.308   0.589   1.405 -0.0300  0.4521  0.3328
 2873SOL    HW120081   1.309   0.659   1.470 -1.8551  2.2633 -1.5941
 2873SOL    HW220082   1.268   0.514   1.449 -0.3863  1.4683  1.7106
 2874SOL     OW20083   1.839   0.220   7.496  0.2014  0.4397  0.1717
 2874SOL    HW120084   1.892   0.208   7.575  0.5187  3.0855  0.3898
 2874SOL    HW220085   1.880   0.157   7.436  0.1020 -1.8348  2.5169
 2875SOL     OW20086   3.584   4.471   8.559 -0.0714 -0.3730  0.2241
 2875SOL    HW120087   3.645   4.447   8.490 -0.9360  0.2523 -0.7662
 2875SOL    HW220088   3.624   4.556   8.577 -1.3411  0.3048 -0.1515
 2876SOL     OW20089   4.408   3.234   6.959  0.2613  0.0679 -0.1570
 2876SOL    HW120090   4.381   3.247   7.050 -0.8240 -1.5520 -0.2668
 2876SOL    HW220091   4.387   3.141   6.959  0.5343 -0.0004  1.6884
 2877SOL     OW20092   4.152   1.815   7.215  0.1900 -0.8890  0.0177
 2877SOL    HW120093   4.074   1.800   7.161 -0.7087 -0.0499  1.0730
 2877SOL    HW220094   4.115   1.874   7.281 -1.6460 -1.1127 -0.8023
 2878SOL     OW20095   1.487   3.857   8.824 -0.0887  0.1246 -0.3956
 2878SOL    HW120096   1.529   3.930   8.779 -0.6930  0.6436 -0.1273
 2878SOL    HW220097   1.441   3.908   8.891 -0.2659  2.4609 -2.3129
 2879SOL     OW20098   4.462   0.248   8.172  0.6405  0.4838 -0.1808
 2879SOL    HW120099   4.436   0.174   8.117  1.0953  1.3591 -1.5745
 2879SOL    HW220100   4.430   0.221   8.258  2.8443 -2.4195 -0.3104
 2880SOL     OW20101   0.033   0.372  13.240  0.2780  0.2133 -0.1610
 2880SOL    HW120102   4.677   0.418  13.261  2.1209  2.5834  1.8238
 2880SOL    HW220103   0.003   0.309  13.174  0.1765 -0.6735  0.7327
 2881SOL     OW20104   2.833   1.402  15.925 -0.3085  0.0139  0.4346
 2881SOL    HW120105   2.917   1.366  15.896 -0.1770 -0.0685  0.9067
 2881SOL    HW220106   2.788   1.323  15.956 -1.2241  0.7130  0.8781
 2882SOL     OW20107   2.858   2.549   4.595  0.9072  0.0656  0.1680
 2882SOL    HW120108   2.839   2.614   4.662 -1.1304 -0.7359  0.3584
 2882SOL    HW220109   2.770   2.552   4.558  1.4906  1.6222 -1.0982
 2883SOL     OW20110   0.221   3.479   3.471 -0.3820 -0.0436  0.5850
 2883SOL    HW120111   0.236   3.500   3.564 -0.6330  0.2732  0.5534
 2883SOL    HW220112   0.143   3.425   3.486  1.8855 -3.7968 -1.2612
 2884SOL     OW20113   2.631   2.576   1.734  0.4614  0.0918 -0.5371
 2884SOL    HW120114   2.602   2.485   1.728  2.3984 -0.4234 -1.8928
 2884SOL    HW220115   2.714   2.580   1.686 -0.0407 -0.9634 -1.4791
 2885SOL     OW20116   1.266   0.005  12.373 -0.4965  0.0990  0.7508
 2885SOL    HW120117   1.242   4.638  12.366  1.8620 -0.4669  0.2015
 2885SOL    HW220118   1.279   0.028  12.281  0.6171 -0.3575  0.7921
 2886SOL     OW20119   2.104   4.577   8.994 -0.1868  0.0545  0.2992
 2886SOL    HW120120   2.198   4.576   8.979 -0.0459 -1.1478  1.2873
 2886SOL    HW220121   2.084   4.670   9.004  2.2133  0.3195  2.4181
 2887SOL     OW20122   0.591   2.976  11.828  0.1957 -0.3150 -0.1100
 2887SOL    HW120123   0.526   3.024  11.778  0.0593  0.1159  0.4802
 2887SOL    HW220124   0.547   2.892  11.835  0.7778 -0.7236 -1.3305
 2888SOL     OW20125   3.820   4.718   0.724 -0.5593  0.0532 -0.1010
 2888SOL    HW120126   3.821   4.659   0.649  0.3008 -1.8239  1.3774
 2888SOL    HW220127   3.728   0.014   0.706 -0.5606 -2.5778 -3.2214
 2889SOL     OW20128   4.095   2.513   2.951  0.0352  0.0722  0.2500
 2889SOL    HW120129   4.126   2.457   3.023 -3.3148  1.3257  2.6926
 2889SOL    HW220130   4.013   2.535   2.996  0.3228  1.3520  0.1462
 2890SOL     OW20131   1.261   1.560   5.020  0.2063  0.3262  0.3698
 2890SOL    HW120132   1.320   1.486   5.036 -0.2603 -0.2262 -0.4237
 2890SOL    HW220133   1.335   1.618   5.002  0.2874  0.4999  1.2804
 2891SOL     OW20134   1.104   1.150   1.445 -0.0265 -0.1903 -0.5781
 2891SOL    HW120135   1.175   1.164   1.507 -0.0249 -2.2270 -0.1474
 2891SOL    HW220136   1.123   1.210   1.373 -0.7483  0.8403  0.0821
 2892SOL     OW20137   0.960   1.302  13.782  0.1515 -0.1715 -0.1461
 2892SOL    HW120138   0.965   1.323  13.689 -2.5037  3.0538  0.4476
 2892SOL    HW220139   1.030   1.357  13.819  0.1017 -0.0086 -0.2959
 2893SOL     OW20140   4.250   0.449   8.698 -0.3487 -0.1420  0.6490
 2893SOL    HW120141   4.269   0.359   8.726  1.1779  0.7905  2.5878
 2893SOL    HW220142   4.155   0.438   8.701 -0.3142 -0.8476 -0.6068
 2894SOL     OW20143   2.626   0.677   6.468  0.1558 -0.0918 -0.3302
 2894SOL    HW120144   2.625   0.729   6.387 -0.7618  0.9768  0.3771
 2894SOL    HW220145   2.629   0.745   6.535  0.0517 -0.6585  0.2430
 2895SOL     OW20146   4.188   4.725   5.041 -0.3609  0.2525 -0.0682
 2895SOL    HW120147   4.165   4.641   5.000 -0.8671  1.8091 -2.9745
 2895SOL    HW220148   4.253   4.693   5.104  0.0366 -1.0236 -1.1228
 2896SOL     OW20149   0.671   4.273   3.259 -0.6927 -0.0312  0.3809
 2896SOL    HW120150   0.605   4.210   3.288 -0.9620  0.2602  0.4025
 2896SOL    HW220151   0.720   4.301   3.336 -0.7449  1.1781 -0.0180
 2897SOL     OW20152   1.482   4.443   3.064  0.0436 -0.3920  0.1102
 2897SOL    HW120153   1.396   4.416   3.094  0.0892 -1.8710 -1.1107
 2897SOL    HW220154   1.481   4.529   3.107  0.5134  0.7622 -2.1992
 2898SOL     OW20155   4.114   1.608   8.908  0.0702  0.3101  0.2272
 2898SOL    HW120156   4.148   1.519   8.918 -3.7366 -1.0190  1.1711
 2898SOL    HW220157   4.066   1.607   8.991 -1.9155  0.4947 -0.9279
 2899SOL     OW20158   1.444   3.072   3.673 -0.9941 -0.6597 -0.3954
 2899SOL    HW120159   1.489   3.108   3.749 -0.4373 -1.2674 -0.4301
 2899SOL    HW220160   1.509   3.086   3.603 -1.0344  2.4524  0.1761
 2900SOL     OW20161   0.090   1.968   0.267  0.8013 -0.3219  0.3564
 2900SOL    HW120162   0.178   2.002   0.255 -0.2566  2.3006 -0.0907
 2900SOL    HW220163   0.035   2.035   0.225  0.8571  0.6625  1.8241
 2901SOL     OW20164   0.335   1.130  14.308  0.4028  0.4601  0.3468
 2901SOL    HW120165   0.274   1.146  14.235  1.4949 -2.6606 -1.2503
 2901SOL    HW220166   0.358   1.039  14.290 -1.2022  0.2169 -0.5472
 2902SOL     OW20167   2.887   0.868   4.393  0.1856 -0.1715 -0.6559
 2902SOL    HW120168   2.912   0.956   4.422  1.8136 -0.3895 -1.4028
 2902SOL    HW220169   2.968   0.826   4.366  0.0086 -0.4913 -0.6925
 2903SOL     OW20170   3.915   0.779   2.210  0.0981 -0.2897  0.3440
 2903SOL    HW120171   3.871   0.862   2.232  0.7712 -0.3488  1.9239
 2903SOL    HW220172   3.994   0.786   2.264  0.9306  0.5760 -0.9816
 2904SOL     OW20173   0.827   3.686   3.673  0.3213 -0.0275 -0.0397
 2904SOL    HW120174   0.825   3.667   3.766 -1.5139 -0.3529 -0.1613
 2904SOL    HW220175   0.909   3.735   3.661  0.0229  0.4170 -0.3024
 2905SOL     OW20176   1.413   0.256   4.140 -0.1782  0.2150 -0.8285
 2905SOL    HW120177   1.320   0.255   4.117 -0.3937  1.4365  0.0096
 2905SOL    HW220178   1.439   0.163   4.143 -0.8635  0.0388 -0.3757
 2906SOL     OW20179   0.002   3.174   1.622 -0.0520  0.0975  0.0335
 2906SOL    HW120180   4.720   3.269   1.630  0.6143  0.0074  1.6519
 2906SOL    HW220181   0.045   3.148   1.703 -1.2661 -0.5227  0.4820
 2907SOL     OW20182   1.122   0.220   2.594 -0.4476  0.2364  0.9860
 2907SOL    HW120183   1.138   0.235   2.688  2.0569  0.6195  0.5186
 2907SOL    HW220184   1.170   0.139   2.577 -1.1560  0.4025 -1.7809
 2908SOL     OW20185   2.949   2.624   9.581 -0.6129  0.1319  0.4327
 2908SOL    HW120186   2.922   2.593   9.668 -2.4021  0.3037 -0.0725
 2908SOL    HW220187   2.984   2.545   9.540  0.6827 -0.4645  2.6402
 2909SOL     OW20188   4.378   1.996   6.055 -0.1754 -0.1582  0.5807
 2909SOL    HW120189   4.449   1.955   6.007 -0.3060  0.2219  0.0615
 2909SOL    HW220190   4.315   2.016   5.986 -0.2851 -1.6181  0.2544
 2910SOL     OW20191   3.465   2.261  17.192 -0.8724 -0.3994  0.1662
 2910SOL    HW120192   3.551   2.257  17.233 -0.1467  2.6637 -1.0759
 2910SOL    HW220193   3.452   2.356  17.197 -0.8833 -0.3821 -0.2618
 2911SOL     OW20194   0.094   2.792   7.037 -0.6279 -0.2733  0.6732
 2911SOL    HW120195   0.182   2.756   7.031 -0.4345  0.1801  0.7682
 2911SOL    HW220196   0.100   2.856   6.966  1.4105 -1.2770 -0.0588
 2912SOL     OW20197   2.258   0.497   8.478 -0.4320 -0.0896  0.0497
 2912SOL    HW120198   2.211   0.446   8.543 -1.1152  1.0521  0.4445
 2912SOL    HW220199   2.185   0.517   8.419  1.7615  1.9721 -2.0003
 2913SOL     OW20200   0.591   2.765   2.176  0.0488  0.5616 -0.5652
 2913SOL    HW120201   0.635   2.787   2.257  1.0984 -2.5221 -0.2859
 2913SOL    HW220202   0.498   2.781   2.194 -0.2521 -0.9520 -0.7190
 2914SOL     OW20203   2.331   4.319   9.039  0.1051  0.6169 -0.1804
 2914SOL    HW120204   2.285   4.306   9.122 -0.0138  1.8054 -0.0513
 2914SOL    HW220205   2.327   4.413   9.022  1.9219  0.2963 -2.3508
 2915SOL     OW20206   3.511   3.879  10.030 -0.2336 -0.1620  0.0435
 2915SOL    HW120207   3.558   3.874   9.947  0.7601  1.2338  0.5204
 2915SOL    HW220208   3.483   3.970  10.025  2.7943  0.8753  1.8945
 2916SOL     OW20209   1.363   3.208  16.925 -0.2346 -0.4250  0.0933
 2916SOL    HW120210   1.397   3.220  17.014 -2.1820  2.8894  0.4302
 2916SOL    HW220211   1.413   3.278  16.882  0.1209 -0.8544 -0.1827
 2917SOL     OW20212   1.759   1.091  11.613  0.0942 -0.6027 -0.0529
 2917SOL    HW120213   1.831   1.111  11.672  1.4366 -0.6715 -1.6489
 2917SOL    HW220214   1.804   1.096  11.528 -0.7210 -0.4851 -0.4821
 2918SOL     OW20215   4.690   3.863   2.192  0.0471  0.2280 -0.2197
 2918SOL    HW120216   4.630   3.799   2.154  3.0664 -1.6179 -1.7983
 2918SOL    HW220217   0.036   3.861   2.128  0.9969  0.1573  0.8350
 2919SOL     OW20218   1.327   2.745  13.726  0.3098  0.2055 -0.5458
 2919SOL    HW120219   1.387   2.774  13.658 -0.5863  0.8549 -1.0540
 2919SOL    HW220220   1.257   2.713  13.669 -1.1877  0.9210  0.8830
 2920SOL     OW20221   1.702   2.375   1.808 -0.1621  1.0390  0.2624
 2920SOL    HW120222   1.673   2.354   1.719 -0.6442 -0.0570  0.6818
 2920SOL    HW220223   1.790   2.337   1.812 -0.6772 -0.1665  0.2403
 2921SOL     OW20224   2.897   3.807   2.198 -0.2204  0.0137  0.0774
 2921SOL    HW120225   2.966   3.756   2.240 -1.3175  0.8935  2.9436
 2921SOL    HW220226   2.839   3.739   2.162 -2.3941  1.3746  1.0176
 2922SOL     OW20227   0.985   4.679   2.967 -0.0642  0.4243  0.6879
 2922SOL    HW120228   0.956   4.720   2.886 -2.0534 -2.1196  0.0834
 2922SOL    HW220229   0.917   4.706   3.029  0.3411 -0.0124  1.3226
 2923SOL     OW20230   2.345   4.006   3.603 -0.2597  0.1148  0.3456
 2923SOL    HW120231   2.435   4.013   3.635  0.6333 -0.1897 -2.1422
 2923SOL    HW220232   2.292   4.058   3.664  1.7566  1.0324  1.3024
 2924SOL     OW20233   3.741   0.154  17.615  0.4156 -0.7941 -0.5003
 2924SOL    HW120234   3.782   0.068  17.623 -0.2390 -0.7153  3.5067
 2924SOL    HW220235   3.650   0.131  17.598  0.0337  0.1716  0.2490
 2925SOL     OW20236   0.780   4.061  13.779 -0.2521  0.5462 -0.5756
 2925SOL    HW120237   0.778   3.972  13.744 -0.0925 -1.3363  4.2135
 2925SOL    HW220238   0.869   4.082  13.806  0.1366  1.0983 -2.2622
 2926SOL     OW20239   4.099   2.255   5.507  0.2048 -0.0251 -0.1268
 2926SOL    HW120240   4.146   2.333   5.538  3.4086 -1.4025 -1.5120
 2926SOL    HW220241   4.151   2.218   5.436  0.6569 -0.9944  0.7108
 2927SOL     OW20242   3.630   2.675  15.241 -0.0490  0.6027  0.3680
 2927SOL    HW120243   3.586   2.724  15.171  1.0196  1.1098  0.0563
 2927SOL    HW220244   3.703   2.631  15.197 -2.0114 -3.5987  1.3230
 2928SOL     OW20245   3.505   1.612   6.783 -0.2032 -0.4811  0.1564
 2928SOL    HW120246   3.503   1.707   6.792  0.5944 -0.5822  1.2967
 2928SOL    HW220247   3.532   1.601   6.692  0.4063  0.6761  0.1930
 2929SOL     OW20248   3.454   1.657   3.787 -0.4883  0.1350  0.1456
 2929SOL    HW120249   3.500   1.648   3.703 -0.5576 -0.5804  0.1865
 2929SOL    HW220250   3.499   1.731   3.827  1.1201 -1.1048  0.6468
 2930SOL     OW20251   0.650   0.828  13.448  0.4419  0.1374 -0.1263
 2930SOL    HW120252   0.597   0.760  13.490 -0.5684  1.3235  0.5207
 2930SOL    HW220253   0.662   0.884  13.525  1.2704  1.9219 -1.5334
 2931SOL     OW20254   3.689   3.860  14.957  0.0943 -0.1393 -0.0574
 2931SOL    HW120255   3.714   3.913  14.882  1.4019  0.5860  0.8777
 2931SOL    HW220256   3.643   3.918  15.017  1.8302 -0.4204  1.5532
 2932SOL     OW20257   4.143   0.170   4.318  0.0280  0.3437  0.8933
 2932SOL    HW120258   4.064   0.156   4.369  0.0477 -0.8665  0.5951
 2932SOL    HW220259   4.202   0.225   4.369  0.0925  0.0489  1.1360
 2933SOL     OW20260   0.019   4.336   3.588  0.1155  0.0497 -0.0690
 2933SOL    HW120261   0.051   4.325   3.498  0.5513  0.9364 -0.0270
 2933SOL    HW220262   4.705   4.252   3.609  1.9520 -0.9805 -0.7741
 2934SOL     OW20263   4.557   4.714   6.141 -0.2906  0.2892  0.2220
 2934SOL    HW120264   4.488   4.648   6.133 -0.7178  0.5011  2.3761
 2934SOL    HW220265   4.511   0.068   6.169  0.6944  1.2054 -0.7189
 2935SOL     OW20266   0.690   1.464   7.876 -0.0645 -0.6066 -0.3120
 2935SOL    HW120267   0.740   1.529   7.827 -0.0637  0.7777  1.5010
 2935SOL    HW220268   0.746   1.453   7.953  0.1897  1.3236 -0.2138
 2936SOL     OW20269   2.092   0.416   9.192 -0.0495 -0.0877  0.6589
 2936SOL    HW120270   2.143   0.426   9.111  0.2164 -3.1280  0.4309
 2936SOL    HW220271   2.154   0.447   9.257  0.9849 -0.4627 -0.1339
 2937SOL     OW20272   0.233   4.585  15.703  0.4303  0.2638 -0.0058
 2937SOL    HW120273   0.309   4.600  15.647 -0.2557 -0.5165 -1.1166
 2937SOL    HW220274   0.164   4.577  15.638  0.0837 -0.1718  0.4133
 2938SOL     OW20275   1.820   2.965   3.923  0.4044 -0.5179  0.1704
 2938SOL    HW120276   1.865   2.918   3.852 -0.5041 -1.3551  0.1517
 2938SOL    HW220277   1.805   3.050   3.883  4.9521  1.0913  1.8135
 2939SOL     OW20278   3.025   1.801  16.835 -0.2668 -0.0982  0.7711
 2939SOL    HW120279   3.066   1.756  16.761 -0.0758  0.4971  0.5163
 2939SOL    HW220280   2.945   1.750  16.850  0.0349 -1.2056 -1.3977
 2940SOL     OW20281   3.736   2.788   0.966 -0.0902 -0.0981 -0.2123
 2940SOL    HW120282   3.733   2.711   1.022  0.2401 -0.9524 -1.3582
 2940SOL    HW220283   3.785   2.751   0.893 -1.6128  0.8162 -1.7150
 2941SOL     OW20284   3.379   0.031  10.805  0.3372 -0.1601  0.1644
 2941SOL    HW120285   3.368   0.109  10.751  1.8111 -0.6121 -0.8034
 2941SOL    HW220286   3.310   0.026  10.870 -1.0934 -0.2052 -1.3578
 2942SOL     OW20287   4.272   0.879   0.513  0.2602  0.4716 -0.3278
 2942SOL    HW120288   4.223   0.798   0.498  1.5224 -0.2748 -0.3875
 2942SOL    HW220289   4.227   0.899   0.595  1.9852  1.7625  0.3123
 2943SOL     OW20290   0.241   1.116   4.326 -0.2070  0.4684  0.4054
 2943SOL    HW120291   0.327   1.151   4.300  0.8935 -1.3299  1.6627
 2943SOL    HW220292   0.230   1.133   4.420  1.8973  0.4551  0.6659
 2944SOL     OW20293   2.982   0.707   3.531 -0.5822 -0.3304 -0.3311
 2944SOL    HW120294   3.052   0.771   3.547  0.4655 -1.5982  0.2210
 2944SOL    HW220295   2.940   0.738   3.451  1.1449 -0.6518 -1.3727
 2945SOL     OW20296   4.351   0.141   4.844 -0.1659 -0.3946 -0.2741
 2945SOL    HW120297   4.378   0.063   4.796 -2.7176  0.1972 -2.6699
 2945SOL    HW220298   4.336   0.107   4.932  1.7459 -1.3838 -0.3279
 2946SOL     OW20299   0.840   4.239   1.504  0.5078 -0.4839 -0.1396
 2946SOL    HW120300   0.878   4.320   1.471  1.6061 -1.5089 -1.4023
 2946SOL    HW220301   0.898   4.206   1.572  0.0115 -0.0992  0.4721
 2947SOL     OW20302   1.529   4.526   7.930  0.1866  0.4413  0.3352
 2947SOL    HW120303   1.492   4.483   7.854  0.2773 -2.0886  1.7218
 2947SOL    HW220304   1.616   4.486   7.934 -0.1853 -0.4957 -1.0494
 2948SOL     OW20305   2.414   1.126   0.696 -0.1220  0.2351  0.2672
 2948SOL    HW120306   2.398   1.033   0.681 -4.7230  0.7119  1.9281
 2948SOL    HW220307   2.328   1.159   0.724  0.1151 -0.0818  1.3542
 2949SOL     OW20308   2.037   1.619   6.037 -0.0473  0.0772 -0.5485
 2949SOL    HW120309   2.120   1.572   6.037 -1.4104 -2.3643  1.7686
 2949SOL    HW220310   2.019   1.609   5.944  0.3931 -0.2157 -0.5995
 2950SOL     OW20311   1.423   3.385   7.138 -0.5548  0.2012 -0.0938
 2950SOL    HW120312   1.414   3.457   7.201  0.3807  0.2954 -0.0558
 2950SOL    HW220313   1.331   3.375   7.114 -0.7908  3.0712 -0.4260
 2951SOL     OW20314   2.135   3.056   0.224  0.1475 -0.5100 -0.3819
 2951SOL    HW120315   2.092   3.065   0.139  0.4415  1.1423 -0.3559
 2951SOL    HW220316   2.058   3.078   0.278  0.8300 -1.4808  1.0018
 2952SOL     OW20317   3.442   4.140   9.956 -0.2987 -0.0609 -0.2533
 2952SOL    HW120318   3.443   4.225  10.000 -1.1866  0.7307 -1.7298
 2952SOL    HW220319   3.376   4.152   9.887  2.1771  0.2638 -2.5617
 2953SOL     OW20320   1.010   2.276   0.989  0.2367  0.5648 -0.0143
 2953SOL    HW120321   0.972   2.256   1.074  1.2653 -1.9282 -0.1359
 2953SOL    HW220322   1.068   2.349   1.010  0.7609  0.6056 -1.5982
 2954SOL     OW20323   2.761   1.056   3.335  0.2307  0.3435  0.6629
 2954SOL    HW120324   2.688   1.047   3.273  0.6987  1.7494 -0.0783
 2954SOL    HW220325   2.724   1.013   3.412  1.4462 -0.1268  0.9802
 2955SOL     OW20326   4.391   2.710  16.857  0.4136 -0.4556  0.0874
 2955SOL    HW120327   4.402   2.743  16.768  0.6413 -0.6746  0.0376
 2955SOL    HW220328   4.407   2.616  16.855 -1.3593 -0.7695  0.6429
 2956SOL     OW20329   0.830   2.390  11.853 -0.2061  0.4921  0.7458
 2956SOL    HW120330   0.848   2.443  11.775  1.7494 -0.7268  0.3666
 2956SOL    HW220331   0.902   2.328  11.860 -1.3049 -0.7106  1.5327
 2957SOL     OW20332   2.186   2.745  13.963 -0.4839 -0.0932  0.2195
 2957SOL    HW120333   2.140   2.713  13.885 -0.9027  1.2083 -0.0712
 2957SOL    HW220334   2.117   2.752  14.029 -1.0547  0.2049 -0.4090
 2958SOL     OW20335   0.113   3.777   8.641  0.2250 -0.5890 -0.3827
 2958SOL    HW120336   0.104   3.871   8.627 -2.4636 -0.8937 -0.5692
 2958SOL    HW220337   0.080   3.744   8.557  1.1920  0.0645 -1.0169
 2959SOL     OW20338   0.278   3.113   5.627  0.7092  0.1546 -0.2983
 2959SOL    HW120339   0.241   3.060   5.556 -0.1995  0.8893 -0.3745
 2959SOL    HW220340   0.359   3.143   5.586  1.3944 -0.5195  0.5693
 2960SOL     OW20341   1.597   0.242  10.111  0.4221 -0.1647 -0.2469
 2960SOL    HW120342   1.596   0.158  10.157  1.3732  0.6241  1.1835
 2960SOL    HW220343   1.534   0.293  10.162  0.5217  0.8753 -1.1773
 2961SOL     OW20344   3.011   0.107   9.184  0.6629  0.1674  0.4570
 2961SOL    HW120345   2.996   0.145   9.271  1.9171  0.7580  0.4137
 2961SOL    HW220346   2.985   0.177   9.123  2.2961 -2.2775 -3.0257
 2962SOL     OW20347   2.245   1.002   5.475  0.3991  0.2998  0.1303
 2962SOL    HW120348   2.162   0.990   5.429  1.4806 -3.3124 -0.8521
 2962SOL    HW220349   2.249   1.097   5.482  1.7517  0.1788  0.8240
 2963SOL     OW20350   3.936   2.830   4.490  0.1912 -0.0380  0.2654
 2963SOL    HW120351   3.894   2.908   4.452 -1.7692 -2.3247 -2.2485
 2963SOL    HW220352   4.027   2.857   4.481  0.0013  0.4593 -0.1858
 2964SOL     OW20353   4.028   1.924   4.988 -0.4383  0.1525  0.3311
 2964SOL    HW120354   4.010   2.017   5.002  0.5886  0.0254  2.4247
 2964SOL    HW220355   4.080   1.921   4.907  0.4271  2.5615  0.7936
 2965SOL     OW20356   3.763   4.039  11.991 -0.4276  0.6799 -0.2863
 2965SOL    HW120357   3.829   4.025  11.922 -1.3587  1.2280 -1.2925
 2965SOL    HW220358   3.717   4.118  11.965  0.2325  1.6551  1.5691
 2966SOL     OW20359   1.201   2.925  14.095 -0.2778 -0.6376  0.7005
 2966SOL    HW120360   1.117   2.896  14.058 -1.0309  0.2096  1.7678
 2966SOL    HW220361   1.261   2.921  14.020 -0.8979  1.7853  0.0815
 2967SOL     OW20362   2.982   2.182   8.498  0.0244  0.1035 -0.4159
 2967SOL    HW120363   2.931   2.102   8.512  0.6814 -0.1893  0.2511
 2967SOL    HW220364   3.070   2.146   8.499  0.1952  0.5349 -0.0096
 2968SOL     OW20365   3.864   2.781  13.380  0.1880 -0.0442  0.5442
 2968SOL    HW120366   3.843   2.874  13.378 -0.4760 -0.2220 -0.6859
 2968SOL    HW220367   3.792   2.754  13.436 -0.8158  0.3303 -0.5731
 2969SOL     OW20368   3.606   1.527   7.369  0.4468 -0.3623  0.4078
 2969SOL    HW120369   3.598   1.431   7.370 -2.3666 -0.1707 -2.2882
 2969SOL    HW220370   3.694   1.546   7.400  0.5856 -0.3495  0.0063
 2970SOL     OW20371   3.953   2.634   9.400 -0.4406  0.0606  0.0977
 2970SOL    HW120372   3.976   2.544   9.379  0.1086  0.3393 -0.4750
 2970SOL    HW220373   3.905   2.672   9.327 -1.8485 -0.2440  0.8624
 2971SOL     OW20374   0.763   0.321   5.958  0.5366 -0.0903  0.0425
 2971SOL    HW120375   0.799   0.320   6.047  0.5116 -2.1415  0.0333
 2971SOL    HW220376   0.694   0.256   5.970  1.2237 -0.9242 -0.5329
 2972SOL     OW20377   1.821   0.925   3.580  0.5194  0.1380  0.8392
 2972SOL    HW120378   1.910   0.889   3.579 -0.8385 -3.1720 -1.4187
 2972SOL    HW220379   1.839   1.016   3.607  0.6911  0.4312 -0.2570
 2973SOL     OW20380   2.589   0.223  11.013 -0.4591 -0.1186  0.0355
 2973SOL    HW120381   2.638   0.156  11.062 -0.1910 -0.0142 -0.0884
 2973SOL    HW220382   2.506   0.178  10.997 -1.5446  1.5893  0.9225
 2974SOL     OW20383   0.797   1.150   4.649  0.1900 -0.2329 -0.4661
 2974SOL    HW120384   0.854   1.100   4.591  0.0134  0.5458 -1.2935
 2974SOL    HW220385   0.821   1.107   4.731  0.2513 -1.0614 -0.9157
 2975SOL     OW20386   3.653   1.236   1.270  0.0517  0.3444 -0.0090
 2975SOL    HW120387   3.664   1.275   1.183  2.9092 -2.7525 -1.0299
 2975SOL    HW220388   3.711   1.289   1.325  1.2591 -1.2100  0.2025
 2976SOL     OW20389   2.020   4.107   3.164  0.4221 -0.1595 -0.3172
 2976SOL    HW120390   1.959   4.034   3.151  0.7744 -0.8071  1.6913
 2976SOL    HW220391   1.963   4.171   3.207  1.5466  0.3469  0.4178
 2977SOL     OW20392   4.503   0.637  15.511  0.2182 -0.6234 -0.1265
 2977SOL    HW120393   4.480   0.603  15.597  0.6312 -0.4974  0.0330
 2977SOL    HW220394   4.548   0.720  15.526 -1.2567  0.1742 -0.1505
 2978SOL     OW20395   4.611   0.592  14.186  0.0951 -0.6088 -0.6216
 2978SOL    HW120396   4.601   0.520  14.249 -2.8214  0.7453  0.4600
 2978SOL    HW220397   4.697   0.560  14.160  0.0112 -0.9035 -0.5464
 2979SOL     OW20398   0.209   2.871  13.008 -0.0796 -0.6332 -0.3339
 2979SOL    HW120399   0.282   2.901  12.954  0.5618 -0.6275  0.5444
 2979SOL    HW220400   0.134   2.919  12.973  1.0894  1.5693  0.2270
 2980SOL     OW20401   1.898   2.326   2.828  0.1974  0.4254  0.2238
 2980SOL    HW120402   1.943   2.259   2.777  1.9057 -0.1958  2.5242
 2980SOL    HW220403   1.849   2.267   2.885 -1.1438 -1.2024 -2.6410
 2981SOL     OW20404   3.624   4.447  10.304  0.7348 -0.1794  0.3466
 2981SOL    HW120405   3.637   4.415  10.215 -2.2836  0.6072 -0.3789
 2981SOL    HW220406   3.699   4.507  10.303 -1.4298  2.5255  0.7005
 2982SOL     OW20407   0.049   1.916   7.350  0.0870 -0.2509 -0.4798
 2982SOL    HW120408   0.076   1.938   7.439  2.7930  1.9108 -1.8654
 2982SOL    HW220409   0.041   1.998   7.301 -0.7635  0.7035  1.2706
 2983SOL     OW20410   0.172   3.742   4.511  0.1639 -0.0566  0.3132
 2983SOL    HW120411   0.114   3.746   4.587  1.0577 -0.3502  1.0073
 2983SOL    HW220412   0.110   3.719   4.442 -0.5044 -0.1254  0.9333
 2984SOL     OW20413   0.318   0.954  17.592  0.7606 -0.2462  0.3832
 2984SOL    HW120414   0.302   0.898  17.668 -1.1370 -0.0671  0.1158
 2984SOL    HW220415   0.322   0.890  17.522 -0.9226 -0.5916  0.6102
 2985SOL     OW20416   0.982   0.218   5.395 -0.4999  0.5347  0.2549
 2985SOL    HW120417   0.953   0.288   5.336  0.5766 -1.6813 -2.9201
 2985SOL    HW220418   1.000   0.148   5.331  0.9789  0.3780  0.8394
 2986SOL     OW20419   0.927   3.132   5.733 -0.3563 -0.1841 -0.1513
 2986SOL    HW120420   1.007   3.106   5.688  0.1846 -1.9138  1.7825
 2986SOL    HW220421   0.868   3.069   5.694  0.6017 -0.4001 -1.2615
 2987SOL     OW20422   4.600   4.465  17.121  0.6191 -0.0628  0.0360
 2987SOL    HW120423   4.517   4.510  17.137  2.1722  2.7906  0.0707
 2987SOL    HW220424   4.638   4.438  17.205  1.7292  1.7850  0.1230
 2988SOL     OW20425   2.821   2.117   9.293  0.1730  0.3772 -0.0142
 2988SOL    HW120426   2.909   2.125   9.331 -0.1957 -0.8590  1.1032
 2988SOL    HW220427   2.833   2.171   9.215 -0.0370 -0.5350 -0.6845
 2989SOL     OW20428   2.590   2.341   5.102  0.9146  0.3221  0.1720
 2989SOL    HW120429   2.624   2.321   5.189  1.3750  1.0204  0.1539
 2989SOL    HW220430   2.502   2.370   5.128 -0.6108 -0.4561 -4.1237
 2990SOL     OW20431   1.412   1.673   5.934 -0.6150  0.1736 -0.3628
 2990SOL    HW120432   1.406   1.579   5.947  0.9213  0.3435  1.4727
 2990SOL    HW220433   1.345   1.676   5.865 -0.0234 -1.8476 -1.0106
 2991SOL     OW20434   1.008   4.189  17.453 -0.2703  0.3044 -0.4215
 2991SOL    HW120435   0.962   4.114  17.414  0.6018  0.5183 -1.8583
 2991SOL    HW220436   0.949   4.202  17.527  0.8603 -0.2821  0.6003
 2992SOL     OW20437   1.417   2.346  15.089 -0.1480  0.7019  0.0002
 2992SOL    HW120438   1.362   2.269  15.074  1.6626 -0.8413  1.4183
 2992SOL    HW220439   1.354   2.414  15.064 -1.6148  0.2105  2.4193
 2993SOL     OW20440   2.076   1.727   5.121 -0.7579 -0.3693 -0.2600
 2993SOL    HW120441   2.164   1.747   5.151 -0.5798  0.3782 -1.2748
 2993SOL    HW220442   2.069   1.632   5.132  0.7034 -0.1313  2.4787
 2994SOL     OW20443   0.772   3.158  13.079  0.3500 -0.3263  0.0374
 2994SOL    HW120444   0.841   3.201  13.129 -1.3785  2.2574  0.2186
 2994SOL    HW220445   0.698   3.164  13.140 -0.2112  1.0699 -0.7936
 2995SOL     OW20446   3.557   3.519   6.715 -0.1154 -0.7041 -0.1040
 2995SOL    HW120447   3.600   3.433   6.720  1.4274  0.1358  0.9083
 2995SOL    HW220448   3.568   3.536   6.621  0.0189 -0.5352 -0.0567
 2996SOL     OW20449   2.792   3.895  14.140 -0.4199 -0.1371 -0.0037
 2996SOL    HW120450   2.724   3.900  14.207 -0.0833  1.5794  0.1900
 2996SOL    HW220451   2.778   3.803  14.116  3.6991 -1.2453  1.9102
 2997SOL     OW20452   3.365   2.371   4.400  0.4222  0.2100 -0.7028
 2997SOL    HW120453   3.375   2.462   4.427  1.8861 -0.2399  0.3251
 2997SOL    HW220454   3.443   2.332   4.441 -0.8469 -0.3205  1.2081
 2998SOL     OW20455   1.801   4.567   3.029 -0.3015  0.1121  0.2388
 2998SOL    HW120456   1.711   4.588   3.053 -1.9797 -3.3871 -2.9873
 2998SOL    HW220457   1.843   4.649   3.054  1.0597 -0.3984 -0.3231
 2999SOL     OW20458   4.204   4.259   7.952 -0.0787  0.1351 -0.0166
 2999SOL    HW120459   4.240   4.175   7.926  0.4893  0.3246  0.1568
 2999SOL    HW220460   4.151   4.281   7.876  0.2146 -2.2284 -0.8883
 3000SOL     OW20461   1.211   1.015   3.971  0.2020  0.1783 -0.0746
 3000SOL    HW120462   1.279   0.953   3.946  1.4084  0.2085  3.1815
 3000SOL    HW220463   1.137   0.961   3.999  0.5941 -1.1230 -1.5061
 3001SOL     OW20464   2.942   3.895   8.670 -0.1431 -0.0598 -0.1084
 3001SOL    HW120465   2.853   3.865   8.685  0.6026 -0.9507  2.5441
 3001SOL    HW220466   2.960   3.948   8.747  0.5963  0.1238 -0.4037
 3002SOL     OW20467   1.867   2.707   9.963 -0.2482 -0.0030 -0.2228
 3002SOL    HW120468   1.918   2.656   9.900  0.2583 -0.1299  0.2868
 3002SOL    HW220469   1.931   2.771   9.994 -1.5386  0.8834  0.6205
 3003SOL     OW20470   3.010   1.458   5.505 -0.1725  0.9604 -0.0632
 3003SOL    HW120471   3.047   1.461   5.593  0.2291 -0.0578 -0.1932
 3003SOL    HW220472   2.921   1.481   5.533 -0.2122  2.0648 -1.1272
 3004SOL     OW20473   2.763   4.193   7.163  0.9195  0.3060  0.2911
 3004SOL    HW120474   2.827   4.237   7.219 -0.2776  0.9930  1.1319
 3004SOL    HW220475   2.710   4.148   7.229 -1.3428 -2.6938 -3.5751
 3005SOL     OW20476   2.387   0.504   5.872  0.2334  0.2698  0.0856
 3005SOL    HW120477   2.393   0.575   5.937 -1.2651  1.2680 -0.8527
 3005SOL    HW220478   2.295   0.481   5.889  0.1845  1.0816  0.9233
 3006SOL     OW20479   2.662   1.377  13.621  0.2432  0.2682  0.1097
 3006SOL    HW120480   2.729   1.336  13.677 -0.0465  0.5200  0.6463
 3006SOL    HW220481   2.620   1.430  13.689  0.0739  1.2895 -0.7864
 3007SOL     OW20482   3.336   2.047   5.900 -0.0479  0.0483 -0.0736
 3007SOL    HW120483   3.330   2.138   5.929 -0.5660 -0.1767  0.5267
 3007SOL    HW220484   3.248   2.016   5.922 -0.3405  0.7963 -0.1769
 3008SOL     OW20485   0.098   4.044   8.613 -0.2928  0.2224  0.8399
 3008SOL    HW120486   0.038   4.089   8.553 -1.3398 -0.7576  1.1358
 3008SOL    HW220487   0.121   4.100   8.687  2.0583 -0.0233  0.2878
 3009SOL     OW20488   3.015   1.060  17.674  0.5339 -0.5214 -0.0595
 3009SOL    HW120489   3.022   1.052   0.068  0.4565  4.0800  0.3524
 3009SOL    HW220490   3.108   1.078  17.656  0.4267  1.2627  1.1501
 3010SOL     OW20491   2.201   3.966   0.864  0.4575 -0.2206 -0.6272
 3010SOL    HW120492   2.196   3.888   0.809  1.6402  2.0972 -4.0352
 3010SOL    HW220493   2.162   4.038   0.814  0.5821  1.0110  1.0478
 3011SOL     OW20494   1.833   2.958   8.602  0.0484  0.0681 -0.4083
 3011SOL    HW120495   1.829   2.863   8.614 -2.2890  0.3105  0.6040
 3011SOL    HW220496   1.839   2.984   8.694  0.0164 -2.6200  0.3516
 3012SOL     OW20497   4.142   1.739   5.162 -0.4240 -0.1706  0.5769
 3012SOL    HW120498   4.120   1.790   5.240  1.1961  2.4922 -0.7067
 3012SOL    HW220499   4.111   1.794   5.091 -0.8589 -2.1161 -0.7320
 3013SOL     OW20500   0.014   3.895  16.022  0.2150  0.4921  0.0469
 3013SOL    HW120501   4.712   3.810  15.988  2.5304 -0.1478 -0.1449
 3013SOL    HW220502   0.085   3.918  15.962 -1.0278  0.6632 -1.3769
 3014SOL     OW20503   1.636   4.621  12.447  0.0286  0.2318 -0.2510
 3014SOL    HW120504   1.665   4.538  12.411 -0.6554  0.4187 -1.2298
 3014SOL    HW220505   1.615   4.667  12.365  2.7543  0.5544 -0.7612
 3015SOL     OW20506   3.928   3.150   8.189 -0.3558  0.0452 -0.0775
 3015SOL    HW120507   3.836   3.141   8.166 -0.7212 -0.5345  1.6014
 3015SOL    HW220508   3.972   3.162   8.105  1.2276  0.2973  0.7846
 3016SOL     OW20509   0.195   3.749   9.049  0.2617  0.6267  0.1122
 3016SOL    HW120510   0.239   3.684   8.994 -1.7375 -0.3471 -0.3594
 3016SOL    HW220511   0.115   3.702   9.073  1.1412 -0.2623  1.3119
 3017SOL     OW20512   4.390   4.264   2.977  0.6958 -0.6028  0.2564
 3017SOL    HW120513   4.384   4.189   3.036 -0.0083  1.3019  2.6477
 3017SOL    HW220514   4.457   4.232   2.917 -0.0350 -0.3011 -0.7097
 3018SOL     OW20515   0.354   1.992   5.444 -0.0003  0.0642  0.2562
 3018SOL    HW120516   0.339   2.062   5.381 -2.1399 -1.4488 -0.9053
 3018SOL    HW220517   0.353   1.920   5.382 -2.9979 -0.6192  1.0737
 3019SOL     OW20518   0.092   3.390   7.232 -0.4186  0.1003  0.5887
 3019SOL    HW120519   0.030   3.390   7.159  1.3765 -0.2740 -0.9333
 3019SOL    HW220520   0.083   3.481   7.262 -0.2238  0.8576 -1.6500
 3020SOL     OW20521   2.125   1.504   2.424 -0.3150  0.0461 -0.1299
 3020SOL    HW120522   2.139   1.422   2.376 -1.5075 -0.3503  0.2003
 3020SOL    HW220523   2.213   1.541   2.430 -0.5027  0.4823 -0.0967
 3021SOL     OW20524   1.243   3.314   2.703  0.2127  0.0922 -0.2124
 3021SOL    HW120525   1.255   3.409   2.709 -0.0122  0.1203 -0.1937
 3021SOL    HW220526   1.204   3.292   2.788  1.6034 -0.4684  0.2804
 3022SOL     OW20527   0.910   1.222   1.766 -0.4885  0.2543 -0.3356
 3022SOL    HW120528   0.885   1.173   1.687  1.3735 -0.0591 -0.7408
 3022SOL    HW220529   0.948   1.146   1.810 -1.4730 -0.1118 -0.1250
 3023SOL     OW20530   0.556   2.583   7.086  0.1686 -0.3718 -0.1707
 3023SOL    HW120531   0.597   2.497   7.076  2.7895  0.8764 -0.3748
 3023SOL    HW220532   0.635   2.634   7.065  0.6342 -0.8135  0.4910
 3024SOL     OW20533   1.343   1.118   5.676 -0.0783  0.6491  0.2510
 3024SOL    HW120534   1.299   1.045   5.633 -0.2219  1.2732 -0.6582
 3024SOL    HW220535   1.289   1.195   5.660 -0.7101 -0.0235 -0.8882
 3025SOL     OW20536   2.068   0.475   5.293  0.3321 -0.1487  0.5177
 3025SOL    HW120537   2.147   0.517   5.327  0.2730  2.5872 -2.7991
 3025SOL    HW220538   2.039   0.546   5.236 -2.7834 -0.3044  1.9093
 3026SOL     OW20539   1.907   1.787   7.702 -0.4588 -0.3834 -0.3889
 3026SOL    HW120540   1.953   1.860   7.660 -0.2580  0.8810  2.0115
 3026SOL    HW220541   1.916   1.721   7.634  1.9877 -0.7366  0.2461
 3027SOL     OW20542   3.426   2.454   9.006  0.2114  0.2698 -0.8341
 3027SOL    HW120543   3.470   2.441   8.923 -0.6099 -1.8095 -0.9410
 3027SOL    HW220544   3.413   2.548   9.007  0.7413  0.3404 -0.8286
 3028SOL     OW20545   2.642   3.423   5.899  0.0708 -0.2226  0.5173
 3028SOL    HW120546   2.652   3.357   5.967  1.1559  0.0082  0.5737
 3028SOL    HW220547   2.696   3.496   5.928  1.4860 -1.7587  1.6887
 3029SOL     OW20548   1.846   1.937   4.747 -0.2958 -0.8076 -0.4711
 3029SOL    HW120549   1.906   1.992   4.697 -1.9703  0.7387 -0.7867
 3029SOL    HW220550   1.789   1.914   4.674 -0.3652 -1.6438 -0.1507
 3030SOL     OW20551   0.052   0.291  11.015  1.0167  0.0409  0.3974
 3030SOL    HW120552   0.013   0.238  11.084  0.2782  0.2729  0.1597
 3030SOL    HW220553   0.136   0.314  11.053  0.6765  1.1033  0.5044
 3031SOL     OW20554   2.550   4.529   0.931 -0.5471  0.5106  0.0656
 3031SOL    HW120555   2.546   4.434   0.917  1.3835  0.7123 -1.9911
 3031SOL    HW220556   2.555   4.560   0.841  0.1567  0.9207  0.2412
 3032SOL     OW20557   0.303   4.116   3.260 -0.4780  0.1791 -0.1931
 3032SOL    HW120558   0.254   4.091   3.339 -1.4085  0.8991 -0.5403
 3032SOL    HW220559   0.385   4.126   3.308  0.1242 -1.5680 -0.8659
 3033SOL     OW20560   0.293   4.444   4.547 -0.1240  0.6032 -0.1522
 3033SOL    HW120561   0.241   4.404   4.477 -0.6088  1.9807 -0.5800
 3033SOL    HW220562   0.280   4.385   4.621 -1.2560 -1.0730 -1.6997
 3034SOL     OW20563   0.964   0.456   9.713 -0.4822  0.6754  0.2891
 3034SOL    HW120564   1.008   0.376   9.685 -1.2046  0.1003  0.7903
 3034SOL    HW220565   1.029   0.522   9.688 -1.3152  2.0305  1.6583
 3035SOL     OW20566   2.055   2.902  14.322  0.0862 -0.3873 -0.7630
 3035SOL    HW120567   2.136   2.950  14.342  0.0133 -0.1842 -0.9569
 3035SOL    HW220568   2.096   2.819  14.299 -0.3390 -0.1409 -2.4432
 3036SOL     OW20569   2.940   2.793   5.106  0.1674 -0.3592 -0.4219
 3036SOL    HW120570   3.002   2.771   5.175  1.3836  3.0821 -0.3770
 3036SOL    HW220571   2.861   2.759   5.148 -0.3251  1.2399 -0.0543
 3037SOL     OW20572   3.738   2.202   7.349 -0.0095 -0.4537  0.0559
 3037SOL    HW120573   3.675   2.136   7.379 -0.5861 -0.5963 -1.4976
 3037SOL    HW220574   3.815   2.145   7.350 -1.5975 -2.6436 -0.4184
 3038SOL     OW20575   4.506   2.344  15.283  0.4662 -0.2934  0.4861
 3038SOL    HW120576   4.489   2.327  15.375 -1.0815  1.7937  0.5995
 3038SOL    HW220577   4.601   2.353  15.291  0.2461 -0.4739  3.0673
 3039SOL     OW20578   2.167   0.987   8.734  0.7174 -0.0343 -0.2423
 3039SOL    HW120579   2.256   1.013   8.757 -0.0233  0.6521  1.9368
 3039SOL    HW220580   2.120   0.989   8.818  0.9001  0.0693 -0.1422
 3040SOL     OW20581   3.599   2.385   5.338  0.3903 -0.1744 -0.5622
 3040SOL    HW120582   3.644   2.353   5.416  1.1230 -0.1786 -0.9858
 3040SOL    HW220583   3.619   2.320   5.271  1.8469 -1.7223  1.3532
 3041SOL     OW20584   1.027   1.016   4.475 -0.2088  0.0366  0.0430
 3041SOL    HW120585   1.118   1.009   4.446 -0.2310  0.2647 -0.0805
 3041SOL    HW220586   1.023   0.960   4.553 -0.6430 -0.3031 -0.2259
 3042SOL     OW20587   1.394   1.384   3.607  0.8709  0.9197 -0.3390
 3042SOL    HW120588   1.381   1.429   3.690 -0.5288 -2.3248  1.2107
 3042SOL    HW220589   1.450   1.311   3.634 -3.3125 -1.9572  0.6040
 3043SOL     OW20590   4.000   2.468   2.370  0.8001  0.2442  0.1319
 3043SOL    HW120591   3.959   2.386   2.398  1.2088  0.8927  2.5949
 3043SOL    HW220592   3.971   2.468   2.279  1.5953 -0.0959 -0.1222
 3044SOL     OW20593   0.581   1.481   2.961 -0.4769  0.3626 -0.6969
 3044SOL    HW120594   0.565   1.572   2.988 -0.6422  0.8897 -2.5443
 3044SOL    HW220595   0.497   1.444   2.987 -0.8266 -1.3504 -4.2531
 3045SOL     OW20596   2.763   3.597   9.751  0.8842 -0.0829 -0.4050
 3045SOL    HW120597   2.707   3.589   9.674 -0.2011 -1.3770  0.5316
 3045SOL    HW220598   2.823   3.667   9.725 -2.1477  1.5004 -3.0666
 3046SOL     OW20599   1.924   2.076   1.104 -0.7232 -0.3986  0.0025
 3046SOL    HW120600   1.885   2.163   1.092  1.3631  0.4681 -0.6060
 3046SOL    HW220601   1.855   2.020   1.068  0.6522 -1.8992 -0.2954
 3047SOL     OW20602   1.017   3.671   3.034 -0.3402 -0.5158 -0.3179
 3047SOL    HW120603   0.990   3.711   3.116  0.6672 -2.0752  0.7574
 3047SOL    HW220604   0.933   3.673   2.988 -0.5031 -3.5176 -0.1128
 3048SOL     OW20605   0.714   3.149   8.016 -0.0436  0.4536 -0.0427
 3048SOL    HW120606   0.735   3.057   8.002 -0.6787  0.4721 -1.1209
 3048SOL    HW220607   0.619   3.142   8.014  0.0071  0.0032 -0.8171
 3049SOL     OW20608   1.893   0.256  10.186 -0.4767 -0.0640  0.0589
 3049SOL    HW120609   1.842   0.236  10.264  0.5289  1.1139  1.0153
 3049SOL    HW220610   1.981   0.278  10.217 -0.7007 -0.0539  0.6748
 3050SOL     OW20611   2.930   4.010   5.714 -0.2664  0.1185  0.0574
 3050SOL    HW120612   2.900   3.955   5.787  0.3100 -2.0150 -1.3036
 3050SOL    HW220613   2.981   3.945   5.666 -0.3115  1.4537 -1.7939
 3051SOL     OW20614   0.687   2.258  17.376  0.4187 -0.0135 -0.3903
 3051SOL    HW120615   0.725   2.186  17.325 -0.8085 -0.6125 -0.4623
 3051SOL    HW220616   0.734   2.242  17.458  0.9631  1.1908 -0.4755
 3052SOL     OW20617   2.057   0.348   1.782  0.5471  0.4039 -0.3803
 3052SOL    HW120618   2.089   0.291   1.852 -0.3372  1.3116  0.7612
 3052SOL    HW220619   2.101   0.430   1.802  0.9908 -0.1069  0.7349
 3053SOL     OW20620   4.435   4.679   3.208 -0.0850 -0.0639  0.0523
 3053SOL    HW120621   4.402   4.708   3.293  0.2209 -1.8361  0.7702
 3053SOL    HW220622   4.354   4.693   3.159 -0.4208  1.9910  1.2049
 3054SOL     OW20623   4.407   3.176   1.743 -0.2254 -0.1612 -0.1082
 3054SOL    HW120624   4.352   3.208   1.671  3.0829 -0.2070 -2.6865
 3054SOL    HW220625   4.492   3.184   1.700  0.0631  2.1009  0.9147
 3055SOL     OW20626   2.595   4.602  16.793  0.5162 -0.2603  0.0006
 3055SOL    HW120627   2.670   4.658  16.810 -0.0472  1.6080 -3.6708
 3055SOL    HW220628   2.525   4.666  16.777 -0.5777 -1.8558 -1.6039
 3056SOL     OW20629   2.714   0.998  15.264 -0.0294  0.2973 -0.1636
 3056SOL    HW120630   2.694   0.909  15.235  1.8798 -0.5083  0.9173
 3056SOL    HW220631   2.667   1.059  15.209  0.2597 -0.6579 -1.4685
 3057SOL     OW20632   2.177   0.515  11.197  0.1264  0.1097 -0.0266
 3057SOL    HW120633   2.200   0.504  11.289  0.2090 -0.1129 -0.0735
 3057SOL    HW220634   2.232   0.587  11.168  0.7863 -0.4633 -0.2183
 3058SOL     OW20635   4.032   3.774   6.091  0.0037  0.9767 -0.1677
 3058SOL    HW120636   4.085   3.836   6.141  0.4834  0.8157 -0.4803
 3058SOL    HW220637   3.975   3.736   6.158  1.2613  1.0718  0.9596
 3059SOL     OW20638   2.714   4.514   7.702 -0.1792 -0.0317 -0.2189
 3059SOL    HW120639   2.697   4.593   7.754  0.4349  0.0943 -0.2078
 3059SOL    HW220640   2.678   4.454   7.767  0.3001 -2.5207 -2.2429
 3060SOL     OW20641   1.270   1.131   3.433 -0.0765 -0.2811 -0.2445
 3060SOL    HW120642   1.340   1.119   3.369  0.0891 -1.8201  0.2311
 3060SOL    HW220643   1.249   1.224   3.422 -1.4481 -0.8783 -2.5438
 3061SOL     OW20644   2.711   3.498  15.956 -0.6855 -0.3991 -0.7978
 3061SOL    HW120645   2.767   3.556  16.007 -1.7779 -0.8301  0.9106
 3061SOL    HW220646   2.762   3.419  15.973  0.5079  0.4830 -0.2558
 3062SOL     OW20647   1.243   0.677   4.548 -0.1655  0.1284  0.4682
 3062SOL    HW120648   1.312   0.706   4.607  1.6107  0.3626 -1.7407
 3062SOL    HW220649   1.284   0.591   4.535  1.6341  0.7910  1.8035
 3063SOL     OW20650   0.469   2.774   3.052  0.0678 -0.0619  0.6019
 3063SOL    HW120651   0.445   2.850   3.105  0.9807 -1.8604  3.5989
 3063SOL    HW220652   0.394   2.762   2.993 -0.3972 -1.6389  1.5323
 3064SOL     OW20653   2.442   0.717   8.532  0.1695  0.4058  0.5536
 3064SOL    HW120654   2.395   0.634   8.534  0.1625  0.3918 -0.1829
 3064SOL    HW220655   2.428   0.749   8.621 -1.4882  0.2538  0.3398
 3065SOL     OW20656   4.446   4.422   7.782 -0.2591  0.0995 -0.9519
 3065SOL    HW120657   4.402   4.479   7.845 -0.3214 -2.0978  1.0105
 3065SOL    HW220658   4.403   4.337   7.796  1.5494 -0.7766 -0.6718
 3066SOL     OW20659   2.954   0.440   0.044  0.4790 -0.0772 -0.0031
 3066SOL    HW120660   2.912   0.365   0.002  1.5704 -0.8986  0.3783
 3066SOL    HW220661   2.997   0.486  17.673  0.6444 -2.1886 -1.2410
 3067SOL     OW20662   0.039   3.928   3.184  0.1445  0.0979 -0.1649
 3067SOL    HW120663   0.134   3.924   3.190  0.0496 -3.6016 -0.7646
 3067SOL    HW220664   0.022   3.979   3.104 -1.3688 -1.4972 -0.8682
 3068SOL     OW20665   0.802   1.066  16.850 -0.0714 -0.5005 -0.6287
 3068SOL    HW120666   0.774   1.157  16.834 -1.3713 -0.5166  1.5333
 3068SOL    HW220667   0.724   1.021  16.883  0.4653  0.3194  1.7557
 3069SOL     OW20668   1.772   1.642   1.594  0.0938 -0.3763  0.2900
 3069SOL    HW120669   1.751   1.735   1.594 -0.7003 -0.5432 -1.9231
 3069SOL    HW220670   1.687   1.602   1.579  0.5946 -1.4861  0.4147
 3070SOL     OW20671   0.356   2.227   6.759  0.5249  0.4746  0.7553
 3070SOL    HW120672   0.344   2.186   6.844 -0.2425  0.3280  0.5740
 3070SOL    HW220673   0.421   2.172   6.716 -0.0043  0.5984 -0.2091
 3071SOL     OW20674   3.357   2.670   1.009  0.2920  0.5168 -0.4636
 3071SOL    HW120675   3.354   2.765   1.016  1.7147  0.6062 -1.0070
 3071SOL    HW220676   3.389   2.652   1.097 -1.5966 -4.6727 -0.8356
 3072SOL     OW20677   2.111   0.941   0.698 -0.1031 -0.4713  0.3156
 3072SOL    HW120678   2.191   0.896   0.671  1.0540  2.1243 -0.5251
 3072SOL    HW220679   2.079   0.889   0.772 -0.6611 -1.4274 -0.5847
 3073SOL     OW20680   2.959   4.290   7.370  0.1006 -0.5416 -0.0680
 3073SOL    HW120681   2.951   4.313   7.462  1.5683  0.1485 -0.1127
 3073SOL    HW220682   3.027   4.224   7.381 -0.3680 -0.9647  0.2817
 3074SOL     OW20683   4.138   3.741   5.197 -0.0012  1.1185  0.4506
 3074SOL    HW120684   4.130   3.647   5.214 -0.2854  0.7638 -1.6728
 3074SOL    HW220685   4.078   3.771   5.266  0.4364  2.4199  0.2783
 3075SOL     OW20686   3.644   1.740   8.819  0.0113  0.1064  0.8001
 3075SOL    HW120687   3.596   1.728   8.737  0.4620  0.8189  0.4359
 3075SOL    HW220688   3.571   1.776   8.869  2.0934  3.1753  1.6247
 3076SOL     OW20689   4.206   2.705   3.430 -0.2705  0.4428  0.1064
 3076SOL    HW120690   4.122   2.659   3.424  0.2022 -0.4513  0.4056
 3076SOL    HW220691   4.258   2.641   3.479 -1.7136 -0.6382  0.2173
 3077SOL     OW20692   1.877   4.470   6.418  0.7734 -0.3780 -0.0166
 3077SOL    HW120693   1.890   4.543   6.357  3.0158 -0.3827  0.4427
 3077SOL    HW220694   1.928   4.498   6.494 -0.2553  1.4184  0.0035
 3078SOL     OW20695   0.094   0.133   4.685 -0.2363 -0.2829 -0.1480
 3078SOL    HW120696   0.175   0.148   4.735 -0.8847 -0.4782  0.9551
 3078SOL    HW220697   0.132   0.065   4.629  0.8763  0.2592 -0.0628
 3079SOL     OW20698   4.714   1.555   9.033 -0.2093 -0.2026 -0.6989
 3079SOL    HW120699   0.008   1.473   8.989  2.2802 -0.3408  0.5934
 3079SOL    HW220700   0.015   1.618   8.966  2.4231 -2.1526 -1.5106
 3080SOL     OW20701   2.684   4.513   4.221 -0.0532 -0.7072  0.7965
 3080SOL    HW120702   2.594   4.529   4.195  1.1369  1.9080 -1.6252
 3080SOL    HW220703   2.698   4.566   4.300  0.7444  2.0810 -1.2091
 3081SOL     OW20704   1.700   1.128   4.962  0.0500 -0.3639 -0.4995
 3081SOL    HW120705   1.647   1.063   4.917 -1.8596  0.3138  0.7323
 3081SOL    HW220706   1.771   1.136   4.899 -0.3266  1.0908 -0.7382
 3082SOL     OW20707   3.960   4.216  11.859 -0.7066 -0.0818 -0.0059
 3082SOL    HW120708   4.029   4.187  11.919  1.4021  0.4523 -2.1440
 3082SOL    HW220709   4.008   4.205  11.777  1.7395  0.0698  1.4032
 3083SOL     OW20710   4.602   0.284   3.155  0.2292  0.0450  0.0060
 3083SOL    HW120711   4.605   0.333   3.237  2.2599  0.4283 -0.3037
 3083SOL    HW220712   4.571   0.198   3.183 -0.4205 -0.4827 -2.4012
 3084SOL     OW20713   0.645   0.163  17.122 -0.2958 -0.3101  0.5982
 3084SOL    HW120714   0.620   0.241  17.172 -0.7113 -0.1225  0.1093
 3084SOL    HW220715   0.572   0.104  17.140 -0.2239  0.0345  1.9943
 3085SOL     OW20716   0.233   4.604   6.866 -0.0026 -0.3651 -0.6252
 3085SOL    HW120717   0.204   4.537   6.928  0.0886 -0.7728 -1.0253
 3085SOL    HW220718   0.187   4.576   6.787 -1.2901 -1.9538  0.6635
 3086SOL     OW20719   3.318   0.010  13.499 -0.2314 -0.0535 -0.3998
 3086SOL    HW120720   3.245   0.051  13.451 -1.0673  0.7748  1.5916
 3086SOL    HW220721   3.292   0.020  13.590  0.5977 -0.3562 -0.1345
 3087SOL     OW20722   2.435   1.949  14.775  0.4696  0.4410 -0.2747
 3087SOL    HW120723   2.421   1.868  14.727 -5.4014  0.4492  1.3726
 3087SOL    HW220724   2.479   1.908  14.850  2.9588 -0.2431 -2.1148
 3088SOL     OW20725   0.761   2.664  15.233  0.5326 -0.0990  0.4446
 3088SOL    HW120726   0.679   2.703  15.204  1.2766  0.7725 -0.4626
 3088SOL    HW220727   0.824   2.695  15.168 -1.1907  3.2840  0.3873
 3089SOL     OW20728   1.513   3.564  15.370  0.1697 -0.3687 -0.6479
 3089SOL    HW120729   1.427   3.582  15.409  0.2893 -0.1780 -0.4705
 3089SOL    HW220730   1.478   3.558  15.281  1.1004  3.1895 -1.2624
 3090SOL     OW20731   4.416   3.617   7.478 -0.1847  0.2253  0.0005
 3090SOL    HW120732   4.394   3.585   7.565  0.6445  0.8143  0.4205
 3090SOL    HW220733   4.355   3.690   7.477  0.9379  1.1779  2.1050
 3091SOL     OW20734   3.669   1.219   7.823  0.5713 -0.0013 -0.1270
 3091SOL    HW120735   3.617   1.186   7.896  1.9123  2.3697  1.8996
 3091SOL    HW220736   3.724   1.141   7.813 -2.5185 -1.7063 -3.4431
 3092SOL     OW20737   0.245   4.666   1.334 -0.2621 -0.3156 -0.2064
 3092SOL    HW120738   0.155   4.633   1.332 -0.1938 -0.5155 -0.0483
 3092SOL    HW220739   0.262   4.669   1.240 -0.8802  0.3856 -0.2961
 3093SOL     OW20740   3.227   3.289  13.761  0.0494  0.0575  0.0532
 3093SOL    HW120741   3.166   3.224  13.795 -0.3063  0.1524 -0.4034
 3093SOL    HW220742   3.170   3.366  13.767  0.2962  0.2896 -0.5766
 3094SOL     OW20743   0.154   3.706  14.017 -0.1011 -0.3907  0.6116
 3094SOL    HW120744   0.088   3.638  14.002 -0.6795 -0.2398  2.4815
 3094SOL    HW220745   0.102   3.765  14.071  0.1738 -0.2137  0.6844
 3095SOL     OW20746   1.390   3.539   4.673  0.0607  0.1553  0.5159
 3095SOL    HW120747   1.362   3.590   4.597  0.1959 -0.2166  0.2207
 3095SOL    HW220748   1.427   3.609   4.728  2.0332 -0.5118  0.0373
 3096SOL     OW20749   1.925   3.177  15.902 -0.1837  0.5675 -0.0626
 3096SOL    HW120750   2.007   3.226  15.910  0.2704 -0.2680  0.3907
 3096SOL    HW220751   1.876   3.254  15.874 -0.2884  0.1727 -0.9743
 3097SOL     OW20752   3.944   3.836   2.073 -0.7198  0.3283 -0.1953
 3097SOL    HW120753   3.987   3.885   2.003 -0.7631 -2.2053 -1.9984
 3097SOL    HW220754   3.998   3.867   2.145  0.9904 -0.5706 -1.0829
 3098SOL     OW20755   3.582   1.252   3.869 -0.7684 -0.0854 -0.1532
 3098SOL    HW120756   3.512   1.313   3.889 -0.7795 -0.0556 -0.2848
 3098SOL    HW220757   3.600   1.287   3.781 -0.9937 -0.4787 -0.3555
 3099SOL     OW20758   0.130   0.496   6.420 -0.0513  0.2956 -0.1438
 3099SOL    HW120759   0.036   0.497   6.401 -0.2480 -0.7334  0.7566
 3099SOL    HW220760   0.160   0.412   6.385  0.6929  1.3147 -1.9408
 3100SOL     OW20761   3.761   2.267  11.384  0.0163 -0.0871  0.3361
 3100SOL    HW120762   3.668   2.277  11.364  0.2140 -0.4820 -0.7516
 3100SOL    HW220763   3.794   2.214  11.312 -0.1019 -1.2841  1.1537
 3101SOL     OW20764   0.080   0.801   2.058 -0.0114  0.3523 -0.2037
 3101SOL    HW120765   0.073   0.826   1.966 -0.9401  3.1422  0.6337
 3101SOL    HW220766   0.021   0.726   2.065  0.9150 -0.5130 -1.5003
 3102SOL     OW20767   3.603   3.584  12.707  0.0957  0.6498 -0.4315
 3102SOL    HW120768   3.669   3.623  12.650  0.5373  1.9338  0.9375
 3102SOL    HW220769   3.565   3.669  12.731 -0.3629  0.8636 -1.9592
 3103SOL     OW20770   0.702   1.597   2.559  0.0913  0.0175 -0.2888
 3103SOL    HW120771   0.728   1.599   2.651 -1.6408  2.4542  0.1362
 3103SOL    HW220772   0.623   1.650   2.559 -0.3087 -0.5709  0.4023
 3104SOL     OW20773   0.333   0.757   4.541  0.0532  0.1136  0.2320
 3104SOL    HW120774   0.347   0.675   4.588  2.2169  0.6689  0.5639
 3104SOL    HW220775   0.382   0.822   4.592 -0.4150 -0.1457  1.0075
 3105SOL     OW20776   0.864   1.504   3.513  0.2276  0.2211 -0.2268
 3105SOL    HW120777   0.811   1.520   3.435 -2.4870 -0.9448  1.3978
 3105SOL    HW220778   0.894   1.415   3.494  0.5341  0.1124  0.7640
 3106SOL     OW20779   3.656   3.164   5.223 -0.1302 -0.3488 -0.2292
 3106SOL    HW120780   3.669   3.258   5.213 -2.8738  0.2896  2.3356
 3106SOL    HW220781   3.696   3.140   5.139 -0.4293 -1.1770 -0.1404
 3107SOL     OW20782   0.438   3.286   6.296 -0.4213  0.2089 -0.3621
 3107SOL    HW120783   0.389   3.368   6.312  0.2141  0.3468  0.8494
 3107SOL    HW220784   0.462   3.305   6.205  0.8949  0.5849  0.0711
 3108SOL     OW20785   3.100   0.580   5.439  0.1017 -0.5684 -0.4739
 3108SOL    HW120786   3.128   0.575   5.348 -2.1116  0.2550 -1.2051
 3108SOL    HW220787   3.159   0.528   5.493 -1.5903 -1.7632  0.2237
 3109SOL     OW20788   0.215   3.234   7.908 -0.2539 -0.1043  0.1455
 3109SOL    HW120789   0.181   3.323   7.901 -0.2498 -0.0670  0.5977
 3109SOL    HW220790   0.262   3.234   7.825 -0.0424 -3.0794  0.2774
 3110SOL     OW20791   4.353   2.534  12.176  0.1931  0.1568  0.4392
 3110SOL    HW120792   4.443   2.529  12.209 -0.6658 -3.4456  2.2315
 3110SOL    HW220793   4.322   2.444  12.187 -1.5339  0.6472 -0.4708
 3111SOL     OW20794   2.188   4.478   2.401 -0.0082  0.2389 -0.8573
 3111SOL    HW120795   2.275   4.439   2.391  0.1707 -0.1630  2.5389
 3111SOL    HW220796   2.203   4.516   2.487  1.8764 -1.3791 -0.4785
 3112SOL     OW20797   3.337   4.709   5.139 -0.0303 -0.7130 -0.1654
 3112SOL    HW120798   3.289   4.663   5.208 -0.4970  2.6768  1.8084
 3112SOL    HW220799   3.273   0.052   5.118  0.2770 -0.0059  1.2022
 3113SOL     OW20800   0.573   0.121   2.683 -0.0789 -0.1907  0.3961
 3113SOL    HW120801   0.530   0.067   2.618  0.9676 -1.7089  0.9703
 3113SOL    HW220802   0.519   0.200   2.688  1.7209  1.1498 -1.0764
 3114SOL     OW20803   1.315   3.231   4.442  0.0773 -0.4150 -0.3114
 3114SOL    HW120804   1.275   3.238   4.528  2.1148  0.1386  0.5842
 3114SOL    HW220805   1.262   3.167   4.394 -0.5957  0.2110 -0.4163
 3115SOL     OW20806   4.399   2.887   2.209 -0.1800 -0.0412  0.3329
 3115SOL    HW120807   4.373   2.796   2.200 -0.7216  0.1950 -0.5210
 3115SOL    HW220808   4.326   2.929   2.164 -0.5268  0.3985  1.3264
 3116SOL     OW20809   2.925   0.636   7.631  0.6505  0.1120 -0.0271
 3116SOL    HW120810   2.960   0.713   7.677 -1.0901 -1.0141  3.2120
 3116SOL    HW220811   2.849   0.624   7.689  0.5136 -2.6543 -0.8165
 3117SOL     OW20812   4.343   1.234   2.083  0.2587 -0.5278  0.2473
 3117SOL    HW120813   4.385   1.293   2.020 -0.9608 -1.0565 -1.0651
 3117SOL    HW220814   4.407   1.230   2.154 -1.7181 -4.4901  1.8595
 3118SOL     OW20815   3.436   1.997  13.631  0.1079 -0.2403 -0.3236
 3118SOL    HW120816   3.434   2.061  13.560  1.6792 -1.7578 -1.7231
 3118SOL    HW220817   3.525   2.004  13.664  0.4004 -0.5340 -1.0540
 3119SOL     OW20818   1.219   0.186  10.006 -0.4368  0.1736  0.1395
 3119SOL    HW120819   1.267   0.202  10.087 -1.9597  0.5616  0.9650
 3119SOL    HW220820   1.294   0.174   9.948  2.3981  1.2036  3.6600
 3120SOL     OW20821   2.068   2.641   6.642 -0.1030 -0.7923  0.0520
 3120SOL    HW120822   1.974   2.660   6.643 -0.0155 -0.4302  1.1220
 3120SOL    HW220823   2.114   2.724   6.651 -2.6929  0.6549  0.0464
 3121SOL     OW20824   4.609   0.792   7.735 -0.6205  0.3549  0.3589
 3121SOL    HW120825   4.555   0.744   7.672  1.0891  2.3378 -2.6047
 3121SOL    HW220826   4.700   0.772   7.710 -2.0226 -3.4788 -1.6551
 3122SOL     OW20827   2.476   0.031   2.260  0.4109  0.2779  0.2408
 3122SOL    HW120828   2.428   4.706   2.194 -0.7789  0.8448  0.6696
 3122SOL    HW220829   2.539   4.689   2.287 -2.3360 -2.3392  0.2211
 3123SOL     OW20830   1.667   0.525   0.989 -0.2131 -0.2771  0.1038
 3123SOL    HW120831   1.584   0.531   1.036 -1.1784 -1.2294 -1.4665
 3123SOL    HW220832   1.684   0.449   1.044 -0.8099  0.0151  0.6990
 3124SOL     OW20833   1.390   0.657   2.065  0.1710 -0.6508 -0.3369
 3124SOL    HW120834   1.469   0.637   2.117 -0.3447  1.1734  1.1463
 3124SOL    HW220835   1.402   0.752   2.067 -2.7122 -0.3361  1.8959
 3125SOL     OW20836   2.090   1.223  12.371  0.2674 -0.0928  0.0623
 3125SOL    HW120837   2.148   1.182  12.308 -0.5437  0.2411 -0.9079
 3125SOL    HW220838   2.150   1.292  12.399  0.8986 -0.1730 -1.1098
 3126SOL     OW20839   3.507   4.046   3.287 -0.2603  0.5530 -0.0833
 3126SOL    HW120840   3.588   4.064   3.240  0.3428 -0.8198  0.4469
 3126SOL    HW220841   3.545   4.013   3.368  1.5914  0.9795 -0.7878
 3127SOL     OW20842   3.789   0.577   6.309 -0.4083  0.2141  0.4850
 3127SOL    HW120843   3.800   0.483   6.296 -1.1940  0.5428 -2.4251
 3127SOL    HW220844   3.772   0.616   6.223 -0.4317  1.2554  0.9546
 3128SOL     OW20845   1.587   2.262  15.500  0.1061 -0.2279 -0.0186
 3128SOL    HW120846   1.500   2.250  15.538  0.3208  0.2535  0.6172
 3128SOL    HW220847   1.590   2.357  15.515  0.5376 -0.1747 -0.4521
 3129SOL     OW20848   4.468   1.218   6.945 -0.7915  0.0921  0.2443
 3129SOL    HW120849   4.417   1.295   6.917 -2.8946 -1.1343  0.6872
 3129SOL    HW220850   4.506   1.248   7.028  0.1796  0.2584 -0.2671
 3130SOL     OW20851   1.425   2.420  13.650 -0.2450  1.1711  0.0251
 3130SOL    HW120852   1.493   2.457  13.706  1.6804 -0.8052 -1.0000
 3130SOL    HW220853   1.376   2.362  13.708  0.9343  0.9981  0.8400
 3131SOL     OW20854   3.617   0.643   5.288  0.0190  0.0480  0.4719
 3131SOL    HW120855   3.653   0.608   5.369 -1.5641 -0.3991  0.9829
 3131SOL    HW220856   3.599   0.563   5.237  2.3120 -0.7873  0.9440
 3132SOL     OW20857   2.275   3.866   5.437 -0.5993  0.2690 -0.3349
 3132SOL    HW120858   2.341   3.898   5.498 -1.6284 -1.4630  1.6931
 3132SOL    HW220859   2.310   3.906   5.358 -1.4424 -0.9379 -1.3134
 3133SOL     OW20860   3.231   1.972  11.387 -0.1650  0.2083 -0.2763
 3133SOL    HW120861   3.161   1.966  11.452 -1.6034  2.3077 -1.6271
 3133SOL    HW220862   3.304   1.994  11.444 -1.1427  1.4160  0.5235
 3134SOL     OW20863   3.308   1.878   4.529  0.4048  0.4252  0.5312
 3134SOL    HW120864   3.315   1.952   4.470 -0.1515 -0.3482 -0.5084
 3134SOL    HW220865   3.277   1.805   4.475  0.1782 -0.3455  1.7022
 3135SOL     OW20866   0.511   4.341   1.156  0.2097 -0.1303  0.3709
 3135SOL    HW120867   0.458   4.279   1.206 -1.2133  0.6335 -0.1957
 3135SOL    HW220868   0.511   4.408   1.225 -0.8641 -0.1778  0.4277
 3136SOL     OW20869   2.213   0.724   6.718 -0.1234 -0.4057 -0.3374
 3136SOL    HW120870   2.236   0.717   6.811 -1.5983  1.9769  0.1918
 3136SOL    HW220871   2.163   0.645   6.698 -2.3915  0.6435  1.0935
 3137SOL     OW20872   1.624   2.104  16.604 -0.3439 -0.0624  0.6102
 3137SOL    HW120873   1.690   2.092  16.536 -0.3521  0.7547  0.4581
 3137SOL    HW220874   1.613   2.198  16.594  0.2350 -0.1360 -0.7008
 3138SOL     OW20875   3.714   3.343   2.810  0.0180 -0.1567  0.9014
 3138SOL    HW120876   3.721   3.431   2.845 -1.0807 -0.5733  2.1687
 3138SOL    HW220877   3.803   3.309   2.800  0.1044 -0.4032  2.5411
 3139SOL     OW20878   1.539   3.450   3.355 -0.1662  0.1782 -1.0134
 3139SOL    HW120879   1.555   3.544   3.370 -2.2683  0.4859 -0.7426
 3139SOL    HW220880   1.515   3.451   3.263 -2.0770  0.5398 -0.5209
 3140SOL     OW20881   3.611   2.657   0.700 -0.4104 -0.1048 -0.3118
 3140SOL    HW120882   3.699   2.671   0.735  0.3748 -2.0385 -1.5157
 3140SOL    HW220883   3.585   2.576   0.744 -2.9303  0.4595 -0.7767
 3141SOL     OW20884   4.259   0.080   9.255 -0.3857 -0.0602  0.1882
 3141SOL    HW120885   4.335   0.078   9.313 -0.0687  1.1750 -0.1921
 3141SOL    HW220886   4.292   0.142   9.191 -1.1660  0.0860 -0.0690
 3142SOL     OW20887   2.477   2.227   1.511 -1.0023 -0.5010  0.1103
 3142SOL    HW120888   2.568   2.255   1.517 -0.4860 -3.1447  4.2075
 3142SOL    HW220889   2.476   2.184   1.426  1.4704 -0.2621 -0.0335
 3143SOL     OW20890   2.700   3.488   7.148  0.2514  0.3382 -0.5303
 3143SOL    HW120891   2.640   3.428   7.104  1.9485 -1.6342 -0.1796
 3143SOL    HW220892   2.643   3.532   7.211 -0.6527  2.8603 -3.1160
 3144SOL     OW20893   1.020   2.367  14.118 -0.2952  0.6922 -0.4813
 3144SOL    HW120894   0.992   2.447  14.161  0.1256  0.6667 -0.1596
 3144SOL    HW220895   1.049   2.400  14.033 -0.4918  0.0479 -0.7957
 3145SOL     OW20896   3.153   4.365   3.776 -0.1455 -0.1868  0.1116
 3145SOL    HW120897   3.095   4.435   3.805  1.4386  0.9430  0.6155
 3145SOL    HW220898   3.221   4.422   3.740  1.0050 -1.4185  0.3193
 3146SOL     OW20899   2.693   3.049  11.193  0.3422  0.7553 -0.5114
 3146SOL    HW120900   2.770   3.104  11.208  2.2459 -1.0890 -3.3901
 3146SOL    HW220901   2.733   2.962  11.185 -0.2953  0.5644 -1.6017
 3147SOL     OW20902   3.362   2.460   6.423 -0.1101 -0.2214 -0.4003
 3147SOL    HW120903   3.420   2.441   6.497 -0.8927  0.7828  0.4657
 3147SOL    HW220904   3.274   2.466   6.461 -0.4939  1.7028 -1.6104
 3148SOL     OW20905   3.361   1.764   9.811 -0.0912 -0.3781  0.4298
 3148SOL    HW120906   3.274   1.783   9.847 -0.4276  0.7650 -0.9565
 3148SOL    HW220907   3.342   1.680   9.770  0.1764  0.6167 -1.7469
 3149SOL     OW20908   1.720   1.196   9.434  0.4797 -0.3546 -0.6798
 3149SOL    HW120909   1.747   1.274   9.483 -1.5724  0.0707 -0.1973
 3149SOL    HW220910   1.636   1.179   9.477  1.4800 -2.5888  0.3505
 3150SOL     OW20911   0.471   2.046   3.738 -0.0402 -0.2677 -0.0898
 3150SOL    HW120912   0.510   1.972   3.783  0.1526 -0.2120 -0.1664
 3150SOL    HW220913   0.545   2.103   3.716  0.6391 -1.3477 -0.5705
 3151SOL     OW20914   2.633   4.219  12.138 -0.4141  0.0625 -0.0550
 3151SOL    HW120915   2.671   4.167  12.068  0.1461 -0.3571  0.5519
 3151SOL    HW220916   2.704   4.231  12.201  0.0967  1.7806 -0.9505
 3152SOL     OW20917   0.217   0.622  14.323  0.4010  0.2171 -0.3862
 3152SOL    HW120918   0.213   0.638  14.417  0.6910  1.5858 -0.6059
 3152SOL    HW220919   0.267   0.697  14.290  0.4257  0.3869  0.0459
 3153SOL     OW20920   3.640   4.711  13.593  0.2314 -0.0699 -0.8960
 3153SOL    HW120921   3.636   4.615  13.595 -2.2787  0.0595  0.0283
 3153SOL    HW220922   3.620   0.008  13.684 -1.9152  0.4275 -1.4718
 3154SOL     OW20923   1.706   2.967   3.639  0.0893 -0.0266 -0.3611
 3154SOL    HW120924   1.777   3.023   3.670 -3.3575  3.5832  1.0331
 3154SOL    HW220925   1.702   3.002   3.550  1.9607 -0.5214 -0.6426
 3155SOL     OW20926   2.320   2.981   7.680 -0.1643 -0.1016 -0.0458
 3155SOL    HW120927   2.374   3.058   7.699  0.3977 -0.8155  1.2268
 3155SOL    HW220928   2.256   2.971   7.750 -1.2874 -0.3493 -1.1043
 3156SOL     OW20929   3.531   2.654   8.599 -0.2913  0.3275 -0.5689
 3156SOL    HW120930   3.528   2.714   8.524 -2.4458 -2.5810 -2.7779
 3156SOL    HW220931   3.568   2.718   8.660 -0.0184 -1.4287  1.0942
 3157SOL     OW20932   4.075   1.863   2.637 -0.0105 -0.5567 -0.4329
 3157SOL    HW120933   4.010   1.812   2.589 -1.6350 -0.0635  1.2645
 3157SOL    HW220934   4.039   1.950   2.619 -1.1172 -1.1944 -1.2785
 3158SOL     OW20935   0.058   2.873   7.807  0.0653  0.0943  0.4711
 3158SOL    HW120936   4.689   2.873   7.828  0.2522  0.5745  1.3418
 3158SOL    HW220937   0.062   2.938   7.738 -1.0561 -3.4736 -2.9493
 3159SOL     OW20938   0.402   1.269   5.656 -0.4967 -0.0830  0.2731
 3159SOL    HW120939   0.442   1.283   5.742  0.0305 -0.6080  0.1148
 3159SOL    HW220940   0.311   1.295   5.672 -0.2133  0.4272  1.0730
 3160SOL     OW20941   1.318   0.455   2.513  0.6099 -0.2095 -0.1472
 3160SOL    HW120942   1.338   0.377   2.461 -0.1777  0.5267 -1.5438
 3160SOL    HW220943   1.224   0.456   2.534  0.4418 -0.4128 -0.8861
 3161SOL     OW20944   0.014   1.756   8.570  0.1947  0.1162 -0.4139
 3161SOL    HW120945   4.650   1.778   8.544 -0.0074  0.5337  0.6315
 3161SOL    HW220946   4.723   1.665   8.546 -0.1131  0.5136 -1.7253
 3162SOL     OW20947   0.768   4.071   6.732 -0.1177 -0.1955 -0.5440
 3162SOL    HW120948   0.756   4.166   6.735  1.5614 -0.0485  1.6578
 3162SOL    HW220949   0.836   4.054   6.667  0.1760 -1.6184  0.1501
 3163SOL     OW20950   2.967   0.071   4.892  0.2758  0.3457  0.2378
 3163SOL    HW120951   2.982   0.098   4.802  3.5265 -2.0361  0.0643
 3163SOL    HW220952   2.991   4.704   4.882  1.2272  0.5959  0.1955
 3164SOL     OW20953   4.466   2.500   7.924  0.5210  0.1466 -0.5706
 3164SOL    HW120954   4.388   2.522   7.976  1.1562 -1.1980  0.9392
 3164SOL    HW220955   4.541   2.509   7.982  0.0063 -0.5490  0.2015
 3165SOL     OW20956   4.721   1.413   8.136 -0.3011 -0.2322  0.6434
 3165SOL    HW120957   4.692   1.401   8.046 -1.9460  1.8366  0.9162
 3165SOL    HW220958   4.670   1.347   8.182 -0.1164 -0.5818  0.3523
 3166SOL     OW20959   1.670   2.411   6.032  0.2250  0.5748 -0.3213
 3166SOL    HW120960   1.755   2.372   6.011  0.8250  1.2937  0.7887
 3166SOL    HW220961   1.715   2.482   6.078  0.0634 -0.7729  1.9097
 3167SOL     OW20962   0.880   0.193  12.759  0.0265 -0.6202 -0.6603
 3167SOL    HW120963   0.818   0.140  12.710 -1.2989  0.8556 -0.5763
 3167SOL    HW220964   0.843   0.179  12.846  1.9453 -0.8192  0.1228
 3168SOL     OW20965   3.243   1.046   7.656 -0.6744  0.1741 -0.0595
 3168SOL    HW120966   3.324   1.017   7.699  0.2043  1.8752 -0.5968
 3168SOL    HW220967   3.257   1.140   7.653 -1.0813  0.2403  0.1103
 3169SOL     OW20968   2.741   3.358  13.960  0.9011 -0.2258  0.1596
 3169SOL    HW120969   2.702   3.297  14.023 -4.0220  0.6743 -2.0225
 3169SOL    HW220970   2.726   3.315  13.875  0.5883  0.1908  0.0059
 3170SOL     OW20971   2.070   2.353  16.810  0.0641  0.4336 -0.1037
 3170SOL    HW120972   2.075   2.335  16.904  1.2916 -1.8676 -0.6018
 3170SOL    HW220973   2.154   2.317  16.782  1.1428  0.2712  3.3350
 3171SOL     OW20974   4.691   4.466   9.506  0.8863 -0.3987  0.1590
 3171SOL    HW120975   4.659   4.487   9.418 -2.9726 -3.2304  0.8764
 3171SOL    HW220976   4.615   4.414   9.534 -0.2375  0.6205 -1.0277
 3172SOL     OW20977   2.842   0.242   2.377 -0.2047  0.0937 -0.1187
 3172SOL    HW120978   2.784   0.261   2.304 -0.7635  0.9642  0.5525
 3172SOL    HW220979   2.927   0.232   2.334 -1.0944 -0.7665 -1.6525
 3173SOL     OW20980   1.935   4.633  12.356  0.3551 -0.1583 -0.2126
 3173SOL    HW120981   1.942   4.576  12.279 -1.1218  2.3262 -2.1546
 3173SOL    HW220982   2.022   4.673  12.351  0.4061 -0.2577 -0.1361
 3174SOL     OW20983   0.317   2.828   4.862 -0.1507 -0.3063 -0.1826
 3174SOL    HW120984   0.334   2.734   4.867  4.2180  0.2625 -4.8365
 3174SOL    HW220985   0.292   2.831   4.770  2.8714 -1.9864 -1.0337
 3175SOL     OW20986   3.951   4.187   1.835 -0.6019 -0.6007 -0.0115
 3175SOL    HW120987   3.919   4.117   1.778  1.5562 -0.5561 -1.2833
 3175SOL    HW220988   3.963   4.250   1.764  0.2305  0.0759  0.7191
 3176SOL     OW20989   0.998   3.297   0.268 -0.6970 -0.6513  0.4943
 3176SOL    HW120990   1.077   3.243   0.272 -0.6410 -0.3563  3.0005
 3176SOL    HW220991   0.985   3.307   0.362  0.0508 -2.6660  0.8204
 3177SOL     OW20992   1.022   0.610  10.341 -0.3503 -0.2186 -0.2688
 3177SOL    HW120993   0.962   0.641  10.409  0.1259  1.5801 -0.6734
 3177SOL    HW220994   1.089   0.677  10.346 -0.5552 -0.1429  1.3313
 3178SOL     OW20995   2.851   1.989   5.352  0.0678  0.0537  0.3936
 3178SOL    HW120996   2.896   1.905   5.359 -0.9171 -0.5826 -0.9612
 3178SOL    HW220997   2.918   2.054   5.374  0.3373  0.5307 -1.9172
 3179SOL     OW20998   0.393   0.840   6.174 -0.0419 -0.3745 -0.7336
 3179SOL    HW120999   0.471   0.883   6.209 -1.4045  2.6785 -1.4283
 3179SOL    HW221000   0.422   0.809   6.088 -0.1431  2.9549 -1.9878
 3180SOL     OW21001   3.188   2.386   5.153  0.1162  0.2244  0.4254
 3180SOL    HW121002   3.094   2.384   5.172 -0.5198  0.4350 -2.6911
 3180SOL    HW221003   3.209   2.295   5.174  0.4037  0.1247 -0.2923
 3181SOL     OW21004   1.107   1.021   7.486 -0.2459 -0.2304 -0.1706
 3181SOL    HW121005   1.153   0.954   7.436 -0.5365 -0.4271 -0.1745
 3181SOL    HW221006   1.057   1.065   7.417 -0.5309 -0.0702  0.1376
 3182SOL     OW21007   4.534   1.024  10.766  0.6764 -0.1681 -0.5172
 3182SOL    HW121008   4.604   0.959  10.767  0.8148 -0.1046 -4.4127
 3182SOL    HW221009   4.518   1.032  10.672  1.3195  2.0603 -0.4373
 3183SOL     OW21010   0.463   1.769  17.576  0.0122  0.4119 -0.2246
 3183SOL    HW121011   0.527   1.802  17.639  2.4995 -0.3214 -2.3404
 3183SOL    HW221012   0.435   1.851  17.536  0.5930  0.8707  0.3192
 3184SOL     OW21013   3.232   2.639   2.416 -0.0834  0.6790  0.0502
 3184SOL    HW121014   3.299   2.678   2.473 -0.6766  0.6442  0.7743
 3184SOL    HW221015   3.162   2.704   2.421 -0.9286 -0.0439 -2.7122
 3185SOL     OW21016   1.725   4.381  12.342  0.4278 -0.3642 -0.1790
 3185SOL    HW121017   1.782   4.423  12.277 -3.5531  0.3996 -3.1610
 3185SOL    HW221018   1.784   4.368  12.417  0.8086 -0.5268 -0.5054
 3186SOL     OW21019   1.700   3.693   6.154 -0.6359 -0.3068  0.2869
 3186SOL    HW121020   1.737   3.626   6.211 -0.5843 -0.0268  0.5834
 3186SOL    HW221021   1.613   3.688   6.194 -0.0451 -1.3932  1.4677
 3187SOL     OW21022   3.861   0.169   7.432 -0.3177  0.5959  0.0756
 3187SOL    HW121023   3.916   0.228   7.381 -0.4979  1.2093  0.5933
 3187SOL    HW221024   3.790   0.216   7.476 -0.9799 -0.3054 -0.0380
 3188SOL     OW21025   0.995   4.137  12.949  0.1309  0.4983  0.8699
 3188SOL    HW121026   1.016   4.228  12.927  1.9631 -0.4595 -1.3816
 3188SOL    HW221027   0.901   4.146  12.962 -0.4187  1.4352 -3.9101
 3189SOL     OW21028   3.173   0.110  10.967  0.1821  0.7924 -0.2206
 3189SOL    HW121029   3.079   0.096  10.979 -0.0133  0.7264 -1.8298
 3189SOL    HW221030   3.170   0.206  10.962 -0.1533  0.6531 -2.6202
 3190SOL     OW21031   3.663   3.169   8.124  0.7642  0.1949  0.1148
 3190SOL    HW121032   3.666   3.265   8.119  1.0234  0.3077  2.6897
 3190SOL    HW221033   3.638   3.144   8.035  0.2932  1.0774 -0.0060
 3191SOL     OW21034   2.390   1.897   2.925 -0.6155  0.1724  0.1681
 3191SOL    HW121035   2.420   1.960   2.859  2.6448 -0.9162  0.6300
 3191SOL    HW221036   2.459   1.831   2.931 -0.9670 -0.0100  2.1555
 3192SOL     OW21037   3.998   1.862   1.914  0.8219  0.3479  0.2958
 3192SOL    HW121038   4.005   1.887   1.821  1.0286  0.0274  0.2236
 3192SOL    HW221039   4.080   1.813   1.921  0.2015 -0.9208 -1.2485
 3193SOL     OW21040   1.673   1.669  17.555  1.0422 -0.1297  0.1783
 3193SOL    HW121041   1.587   1.631  17.568  1.1013 -1.3446 -2.9814
 3193SOL    HW221042   1.718   1.622  17.625  0.3175 -0.7635  0.2122
 3194SOL     OW21043   0.446   0.946   4.694  0.1411 -0.2935  0.1872
 3194SOL    HW121044   0.497   0.969   4.772  0.9525  0.4953 -0.5771
 3194SOL    HW221045   0.395   1.024   4.674 -0.2793 -0.4533  0.6243
 3195SOL     OW21046   1.021   4.125  14.834 -0.0923  0.3057 -0.0486
 3195SOL    HW121047   1.095   4.065  14.821 -0.4867 -0.0159 -0.8037
 3195SOL    HW221048   1.024   4.147  14.927  1.8698 -0.2355  0.0150
 3196SOL     OW21049   2.013   3.396   4.451 -0.3004  0.7164  0.5912
 3196SOL    HW121050   2.018   3.485   4.485 -1.9136  0.3748  1.7173
 3196SOL    HW221051   2.004   3.399   4.356  1.6716  1.9499  0.4572
 3197SOL     OW21052   2.629   1.689   0.041 -0.1239 -0.3402 -0.3843
 3197SOL    HW121053   2.641   1.746   0.116 -0.1931  2.0841 -2.2127
 3197SOL    HW221054   2.610   1.606   0.085  0.1678 -0.3604 -0.2976
 3198SOL     OW21055   4.215   2.705   3.114 -0.5460  0.3737  0.0473
 3198SOL    HW121056   4.154   2.657   3.058  0.2200  1.8112 -2.0250
 3198SOL    HW221057   4.221   2.661   3.199 -0.9097 -1.2679 -0.7858
 3199SOL     OW21058   2.383   2.532   9.076  0.0969  0.1834 -0.7260
 3199SOL    HW121059   2.364   2.457   9.019 -1.4486  1.7672 -2.2830
 3199SOL    HW221060   2.417   2.602   9.020 -1.5818  0.3856 -1.5076
 3200SOL     OW21061   1.360   0.198   7.660 -0.4716  0.0562 -0.2141
 3200SOL    HW121062   1.406   0.207   7.576  0.0055 -0.9793 -0.0703
 3200SOL    HW221063   1.277   0.243   7.648 -0.8679 -0.1299  1.9334
 3201SOL     OW21064   4.614   3.889   6.194 -0.3196 -0.1931  0.1608
 3201SOL    HW121065   4.524   3.877   6.163 -0.4199 -1.0050  0.7767
 3201SOL    HW221066   4.606   3.906   6.288 -0.2297 -1.1614  0.3404
 3202SOL     OW21067   4.358   0.047   5.935 -0.0498 -0.9176  0.1537
 3202SOL    HW121068   4.265   0.030   5.921 -0.0685 -0.3361 -0.4488
 3202SOL    HW221069   4.400   4.706   5.880  2.0820  0.0789  0.5825
 3203SOL     OW21070   3.000   2.605   9.089  0.1793 -0.5516 -0.0958
 3203SOL    HW121071   3.062   2.598   9.016  1.4873 -1.2503  1.0909
 3203SOL    HW221072   3.044   2.534   9.135  0.1257  0.3248  1.2826
 3204SOL     OW21073   0.742   3.595   3.943 -0.1554 -0.6473 -0.1461
 3204SOL    HW121074   0.772   3.559   4.027 -3.9621 -1.3968  0.9061
 3204SOL    HW221075   0.751   3.687   3.967 -0.8127 -0.6314  0.0425
 3205SOL     OW21076   4.217   1.974  15.317  0.3414 -0.1234 -0.5486
 3205SOL    HW121077   4.242   2.044  15.256 -0.8821 -0.0088 -0.9250
 3205SOL    HW221078   4.241   1.896  15.267 -0.6879  1.2673 -3.2363
 3206SOL     OW21079   2.653   4.036   3.366 -0.0737  0.3785  0.9431
 3206SOL    HW121080   2.688   3.953   3.398  0.3408  0.7277  1.3961
 3206SOL    HW221081   2.703   4.038   3.284 -0.0017  3.8134  1.0779
 3207SOL     OW21082   0.896   2.088  11.714  0.1961  0.4059 -0.6459
 3207SOL    HW121083   0.900   2.059  11.806 -1.1824  2.6808  0.1185
 3207SOL    HW221084   0.975   2.044  11.683 -0.0358 -0.1227 -0.4901
 3208SOL     OW21085   2.763   3.633  14.079 -0.0159  0.0733 -0.4863
 3208SOL    HW121086   2.709   3.596  14.008  0.6295  0.8194 -1.3589
 3208SOL    HW221087   2.829   3.565  14.092 -1.9888 -1.5650  0.9631
 3209SOL     OW21088   4.258   4.542   1.903  0.3586 -0.5311 -0.5082
 3209SOL    HW121089   4.322   4.535   1.832  0.4402 -0.5409 -0.4335
 3209SOL    HW221090   4.199   4.606   1.865  0.3731 -0.7905 -0.9694
 3210SOL     OW21091   4.379   1.170   5.664  0.4059 -0.0054 -0.0946
 3210SOL    HW121092   4.300   1.191   5.614  0.6872 -0.9404 -0.9372
 3210SOL    HW221093   4.441   1.234   5.630 -2.0372  3.6195  2.2671
 3211SOL     OW21094   2.057   0.403   7.260  0.4241 -0.1866 -0.0889
 3211SOL    HW121095   2.063   0.311   7.288  3.3975  0.4176  1.1944
 3211SOL    HW221096   1.999   0.402   7.183  2.5470  1.6848 -1.7203
 3212SOL     OW21097   1.313   2.973  13.866 -0.1992  0.2732  0.2317
 3212SOL    HW121098   1.364   3.010  13.794  1.3063  0.6442  1.4814
 3212SOL    HW221099   1.288   2.889  13.827  1.2207  0.3219 -0.7686
 3213SOL     OW21100   4.504   0.450   4.374  0.2754 -0.0094 -0.0921
 3213SOL    HW121101   4.478   0.542   4.382  1.1650  0.0916  1.6571
 3213SOL    HW221102   4.425   0.424   4.327  0.6035 -2.1119  0.5225
 3214SOL     OW21103   0.079   3.003   5.810 -0.2812 -0.3244 -0.8447
 3214SOL    HW121104   0.159   3.036   5.767 -1.3986  0.4031 -2.3765
 3214SOL    HW221105   0.018   3.076   5.795 -0.1329  0.1160  0.7011
 3215SOL     OW21106   0.913   1.005  10.115  0.3410 -0.3833  0.8368
 3215SOL    HW121107   0.993   1.052  10.089 -1.3861  2.1617  0.0624
 3215SOL    HW221108   0.939   0.921  10.078  1.4838  0.5837 -0.6153
 3216SOL     OW21109   0.774   3.634   2.266 -0.3019 -0.0267  0.1714
 3216SOL    HW121110   0.758   3.664   2.176  0.8904 -2.4025 -0.8141
 3216SOL    HW221111   0.825   3.555   2.256  1.3504  0.8801  1.4670
 3217SOL     OW21112   2.334   0.831  11.754 -0.1120 -0.0139  0.7315
 3217SOL    HW121113   2.318   0.881  11.674 -2.7680  0.5815  1.6385
 3217SOL    HW221114   2.286   0.749  11.751 -1.4378  0.7248  1.5481
 3218SOL     OW21115   3.626   1.261   3.078 -0.5859 -0.6701 -0.1866
 3218SOL    HW121116   3.678   1.246   2.999 -1.0034 -3.3301  0.0428
 3218SOL    HW221117   3.641   1.352   3.105 -2.7443 -0.7410  1.2503
 3219SOL     OW21118   3.884   1.600  14.977 -0.0833  0.0161 -0.3226
 3219SOL    HW121119   3.839   1.546  14.912 -0.7602  0.7513 -0.4648
 3219SOL    HW221120   3.851   1.684  14.946 -0.7704  0.5541  1.8269
 3220SOL     OW21121   4.585   2.816   5.800 -0.2291 -0.3420  0.6920
 3220SOL    HW121122   4.556   2.854   5.717 -2.0540 -2.8419  0.1988
 3220SOL    HW221123   4.672   2.856   5.801  0.0271 -0.8334 -1.1816
 3221SOL     OW21124   3.728   3.777   4.411 -0.2615 -0.6954  0.3647
 3221SOL    HW121125   3.786   3.853   4.422  1.0526 -1.6086 -0.2197
 3221SOL    HW221126   3.649   3.820   4.378  2.0398  1.9359 -1.6873
 3222SOL     OW21127   3.872   0.257  10.220  0.0408  0.2152  0.3258
 3222SOL    HW121128   3.893   0.265  10.127 -1.5577 -1.9238 -0.2165
 3222SOL    HW221129   3.939   0.319  10.249  1.2815 -1.1364  0.3215
 3223SOL     OW21130   3.434   2.111   2.893 -0.0699 -0.0226  0.6174
 3223SOL    HW121131   3.475   2.197   2.902  0.5843 -0.4991  2.0651
 3223SOL    HW221132   3.424   2.103   2.798  0.0377 -1.0921  0.7070
 3224SOL     OW21133   1.413   3.074  16.645  0.0088 -0.0496  0.0487
 3224SOL    HW121134   1.444   3.146  16.700  2.1164  0.8321 -2.2643
 3224SOL    HW221135   1.425   3.114  16.559 -0.4531 -0.0172  0.0031
 3225SOL     OW21136   3.774   3.065   6.238  0.4982 -0.2237 -0.1679
 3225SOL    HW121137   3.727   2.987   6.211 -1.6679  0.2186  2.3343
 3225SOL    HW221138   3.867   3.057   6.216  0.6132  0.7249 -0.0354
 3226SOL     OW21139   3.051   0.056  14.545 -0.1802  0.1193  0.1152
 3226SOL    HW121140   2.995   0.105  14.484  0.2046  1.4449  0.8324
 3226SOL    HW221141   3.005   4.696  14.539  0.0188  0.1553 -1.9405
 3227SOL     OW21142   2.676   0.257  14.629  0.0739  0.1553  0.0442
 3227SOL    HW121143   2.646   0.339  14.589 -0.0376 -0.1798 -0.5642
 3227SOL    HW221144   2.737   0.292  14.694 -0.0896 -3.8403  2.2806
 3228SOL     OW21145   2.381   1.681   2.333  0.2074 -0.8772  0.6451
 3228SOL    HW121146   2.378   1.767   2.291 -1.0484 -0.6302  1.2487
 3228SOL    HW221147   2.461   1.700   2.383  0.6353  2.3149 -1.2344
 3229SOL     OW21148   3.338   3.662  15.290 -0.0428  0.5291  0.2038
 3229SOL    HW121149   3.322   3.611  15.211 -0.2124  1.2909 -0.2417
 3229SOL    HW221150   3.364   3.594  15.353 -0.1697  0.2841 -0.0063
 3230SOL     OW21151   2.284   3.608   8.086  0.6380  0.3967  0.3484
 3230SOL    HW121152   2.263   3.600   7.993 -2.0339 -2.0068  1.1670
 3230SOL    HW221153   2.356   3.546   8.098 -0.6582 -1.4691 -1.5019
 3231SOL     OW21154   3.133   4.492   6.431 -0.0596  0.4291 -0.2465
 3231SOL    HW121155   3.081   4.518   6.356 -0.8206 -1.5818 -0.4349
 3231SOL    HW221156   3.087   4.531   6.505 -0.0885 -2.1726  1.1231
 3232SOL     OW21157   0.867   0.341   4.152  0.5645  0.0688  0.0807
 3232SOL    HW121158   0.776   0.358   4.128  1.0135  1.3157 -0.7971
 3232SOL    HW221159   0.872   0.247   4.167  0.3140 -0.1841 -1.4435
 3233SOL     OW21160   3.162   1.758   5.453 -0.6042 -0.4451  0.1112
 3233SOL    HW121161   3.180   1.821   5.523  1.5747 -0.5105 -0.3752
 3233SOL    HW221162   3.231   1.784   5.391 -0.7179 -0.5951 -0.0761
 3234SOL     OW21163   2.894   3.634   3.741  0.1223  0.5409 -0.3715
 3234SOL    HW121164   2.854   3.547   3.742 -1.1435  1.1119 -0.4713
 3234SOL    HW221165   2.819   3.687   3.771  0.5646  0.6631  0.5136
 3235SOL     OW21166   2.620   2.160   3.896 -0.7700  0.4649 -0.6282
 3235SOL    HW121167   2.682   2.130   3.963 -3.5301 -0.2546  1.5842
 3235SOL    HW221168   2.659   2.246   3.880 -0.7712  0.6132  0.1807
 3236SOL     OW21169   3.775   3.335   9.515  0.0607  0.3098 -0.4363
 3236SOL    HW121170   3.848   3.373   9.564  0.5987  2.4435 -2.8714
 3236SOL    HW221171   3.710   3.393   9.555 -0.1728 -0.7105  0.6791
 3237SOL     OW21172   0.296   0.785   6.650 -0.1114 -0.7254  0.2822
 3237SOL    HW121173   0.316   0.736   6.730 -1.3700 -1.1205  0.3571
 3237SOL    HW221174   0.327   0.874   6.666  2.1159 -1.0060 -2.5111
 3238SOL     OW21175   3.798   4.599   6.089  0.1463 -0.0640 -0.6674
 3238SOL    HW121176   3.773   4.514   6.125 -1.1329  2.0348  3.4258
 3238SOL    HW221177   3.751   4.660   6.146  1.2921  0.4248 -0.2381
 3239SOL     OW21178   2.432   3.266   4.497  0.0440  0.4404  0.2611
 3239SOL    HW121179   2.505   3.216   4.532  0.7459  0.5688 -1.0384
 3239SOL    HW221180   2.381   3.193   4.464  1.1150  0.2310 -0.9221
 3240SOL     OW21181   4.697   1.932  15.291  0.1530  0.1656  0.1340
 3240SOL    HW121182   0.008   1.873  15.357  1.0744  0.5199 -0.0517
 3240SOL    HW221183   0.040   1.995  15.269  0.2929  0.6574  2.0152
 3241SOL     OW21184   3.330   2.916   3.371  0.3121 -0.1277  0.5485
 3241SOL    HW121185   3.383   2.915   3.292  0.9351 -2.4333  1.0006
 3241SOL    HW221186   3.362   2.996   3.412  0.4986 -0.5624  1.2520
 3242SOL     OW21187   3.560   2.997  17.037  0.5608 -0.2548 -0.3383
 3242SOL    HW121188   3.555   3.089  17.061  2.3470 -0.3664  0.4958
 3242SOL    HW221189   3.575   3.000  16.943  0.2000 -0.4261 -0.4006
 3243SOL     OW21190   1.184   0.783  10.042 -0.4571 -0.1932 -0.1986
 3243SOL    HW121191   1.198   0.874  10.070 -0.3038 -0.3714  0.2788
 3243SOL    HW221192   1.089   0.774  10.031  0.1085 -1.8422 -3.6987
 3244SOL     OW21193   2.142   1.912   7.367  0.2366  0.2335 -0.3226
 3244SOL    HW121194   2.056   1.900   7.328  0.8851  0.0092 -1.6738
 3244SOL    HW221195   2.187   1.980   7.318  1.2944 -1.0622 -1.1513
 3245SOL     OW21196   1.804   2.306   4.607 -0.4291  0.2817  0.6989
 3245SOL    HW121197   1.885   2.254   4.605 -0.9835 -0.5301 -0.9516
 3245SOL    HW221198   1.810   2.342   4.695  0.5411  0.4920  0.5431
 3246SOL     OW21199   2.417   2.841   6.095 -0.6090  0.1619 -0.3355
 3246SOL    HW121200   2.466   2.897   6.036 -1.3125  0.7222 -0.3907
 3246SOL    HW221201   2.468   2.763   6.073 -1.2325  0.2059 -1.9292
 3247SOL     OW21202   0.540   3.181   3.553 -0.1235 -0.3338  0.5186
 3247SOL    HW121203   0.532   3.103   3.606 -0.8551 -0.8818 -0.4075
 3247SOL    HW221204   0.629   3.173   3.519 -0.7655 -2.5313 -0.6061
 3248SOL     OW21205   0.143   0.434  10.300 -0.1566 -0.1396  0.1015
 3248SOL    HW121206   0.187   0.448  10.384  0.7630 -0.0322 -0.4056
 3248SOL    HW221207   0.057   0.413  10.336 -0.6928  1.2110 -0.3613
 3249SOL     OW21208   3.330   0.337  11.256 -0.2745 -0.0284 -0.3563
 3249SOL    HW121209   3.418   0.311  11.227 -0.2345 -0.2717 -0.0236
 3249SOL    HW221210   3.282   0.290  11.189 -1.3729  0.3290  0.1865
 3250SOL     OW21211   1.930   4.392  13.557  0.2251  0.3092 -0.2596
 3250SOL    HW121212   1.978   4.438  13.489 -1.3894  0.4889 -1.2915
 3250SOL    HW221213   1.896   4.317  13.507 -1.4390  0.5405  0.5086
 3251SOL     OW21214   1.300   0.971   4.439 -0.6086  0.3576 -0.3945
 3251SOL    HW121215   1.312   0.876   4.436  0.0135  0.5279 -2.8978
 3251SOL    HW221216   1.333   1.001   4.524  2.0284 -0.5147 -1.0984
 3252SOL     OW21217   2.119   0.477   5.938 -0.4208 -0.1464  0.4520
 3252SOL    HW121218   2.032   0.439   5.944 -0.8377  0.9009  0.9387
 3252SOL    HW221219   2.089   0.564   5.911  1.0210 -0.4907 -2.2446
 3253SOL     OW21220   1.278   1.802   3.863  0.9198 -0.2813 -0.4213
 3253SOL    HW121221   1.277   1.881   3.917 -1.5538  0.1358 -1.0756
 3253SOL    HW221222   1.188   1.771   3.876  0.9400 -0.2497 -0.2134
 3254SOL     OW21223   4.059   2.910   8.669 -0.2698 -0.0815 -0.2915
 3254SOL    HW121224   4.150   2.900   8.696 -0.8666 -1.1541  1.3444
 3254SOL    HW221225   4.064   2.932   8.576  1.0291 -0.4337 -0.2969
 3255SOL     OW21226   0.131   1.315  16.654  0.2802 -0.5228 -0.4677
 3255SOL    HW121227   0.186   1.251  16.608 -0.1996 -1.2444 -0.0304
 3255SOL    HW221228   0.176   1.397  16.631  1.9166 -1.5361 -0.8753
 3256SOL     OW21229   0.291   3.365  10.661 -0.7423 -0.0669  0.6202
 3256SOL    HW121230   0.286   3.453  10.624 -1.5519 -0.3106  0.1343
 3256SOL    HW221231   0.373   3.371  10.710  0.1253 -1.3877 -0.6561
 3257SOL     OW21232   0.166   1.101  15.459  0.5171 -1.0541  0.1868
 3257SOL    HW121233   0.156   1.097  15.364  0.6699 -2.1962  0.2238
 3257SOL    HW221234   0.262   1.099  15.462  0.5123  0.1951  1.3007
 3258SOL     OW21235   0.810   0.938  16.588  0.5708  0.8097 -0.0715
 3258SOL    HW121236   0.862   0.873  16.634  0.7714 -1.1867 -3.1372
 3258SOL    HW221237   0.816   1.012  16.648 -1.9422  0.1810  0.9814
 3259SOL     OW21238   3.149   0.137   4.150 -0.3149 -0.2678  0.0389
 3259SOL    HW121239   3.203   0.215   4.140  1.4321 -1.7387 -2.0122
 3259SOL    HW221240   3.067   0.150   4.102  0.1470  1.3183 -0.2843
 3260SOL     OW21241   1.050   2.942  11.274  0.3428 -0.4678  0.0962
 3260SOL    HW121242   1.035   2.926  11.367 -2.1382  1.9626  0.1075
 3260SOL    HW221243   1.023   3.033  11.264  0.0643 -0.5118  0.4381
 3261SOL     OW21244   3.271   2.105   4.365  0.5456 -0.2561 -0.4982
 3261SOL    HW121245   3.201   2.120   4.301 -0.9493  1.4743  1.5250
 3261SOL    HW221246   3.314   2.190   4.371  2.6561 -1.5440  2.5737
 3262SOL     OW21247   3.132   3.376   5.671  0.0751  0.1850  0.1675
 3262SOL    HW121248   3.036   3.380   5.672  0.1738  2.3352  0.1975
 3262SOL    HW221249   3.151   3.334   5.587  1.5715  0.2621  0.4804
 3263SOL     OW21250   2.414   2.047   4.355 -0.5975 -0.6623 -0.0705
 3263SOL    HW121251   2.366   1.979   4.401  0.6638 -3.7071 -3.2783
 3263SOL    HW221252   2.465   1.997   4.291 -0.2563 -0.0530 -0.2826
 3264SOL     OW21253   0.049   2.671   1.083 -0.2415 -0.5392  0.3161
 3264SOL    HW121254   4.718   2.597   1.058 -1.4421  0.9781 -1.5457
 3264SOL    HW221255   0.032   2.725   1.005  0.7960  1.3824  1.4312
 3265SOL     OW21256   0.967   1.005   5.863  0.5337 -0.1348 -0.4424
 3265SOL    HW121257   0.961   1.079   5.803 -0.8750  1.1270  1.2633
 3265SOL    HW221258   0.885   0.956   5.849 -0.1989  0.4102  1.9779
 3266SOL     OW21259   2.262   1.128  14.884 -0.0759  0.0361 -0.3630
 3266SOL    HW121260   2.261   1.223  14.874  0.8909  0.1317  0.4876
 3266SOL    HW221261   2.352   1.108  14.859  0.1712 -0.8172  1.1998
 3267SOL     OW21262   0.411   4.570   4.080 -0.3275  0.5125  0.5824
 3267SOL    HW121263   0.333   4.604   4.124  0.2522  1.7816  0.6373
 3267SOL    HW221264   0.469   4.625   4.132 -0.5083  0.9888  0.2841
 3268SOL     OW21265   4.246   1.702  10.969 -0.3966 -0.6750 -0.0598
 3268SOL    HW121266   4.230   1.614  10.934 -1.5149 -0.6739  0.4538
 3268SOL    HW221267   4.246   1.744  10.883  2.5684 -0.9150 -0.1793
 3269SOL     OW21268   3.436   1.710  11.061  0.3663 -0.4202 -0.2964
 3269SOL    HW121269   3.510   1.698  11.001  0.6378 -0.2485  0.0012
 3269SOL    HW221270   3.392   1.627  11.075  0.1527 -0.0188  1.4025
 3270SOL     OW21271   4.124   2.170   8.531 -0.1346 -0.0065 -0.0865
 3270SOL    HW121272   4.162   2.235   8.590  0.4586 -0.5537  0.1319
 3270SOL    HW221273   4.206   2.126   8.509 -0.6672 -0.2008 -1.7262
 3271SOL     OW21274   0.254   1.577   9.168  0.1452 -0.7518  0.1999
 3271SOL    HW121275   0.164   1.560   9.143  0.1597 -0.1849 -0.2465
 3271SOL    HW221276   0.259   1.496   9.218  0.0546  0.1755  1.7021
 3272SOL     OW21277   2.410   4.338   0.814 -0.5010 -0.1675  0.3369
 3272SOL    HW121278   2.409   4.255   0.767  3.2177  0.2005 -0.3521
 3272SOL    HW221279   2.419   4.398   0.741  2.7223 -0.2993  0.6581
 3273SOL     OW21280   2.687   3.511   8.746 -0.5199  0.1546 -0.7805
 3273SOL    HW121281   2.611   3.562   8.773  0.2468  0.9238 -0.0992
 3273SOL    HW221282   2.695   3.539   8.654 -0.6679 -0.9006 -1.1187
 3274SOL     OW21283   2.674   3.370   3.429  0.2503 -0.1750 -0.9111
 3274SOL    HW121284   2.735   3.381   3.357  1.4242 -0.0295  0.1135
 3274SOL    HW221285   2.712   3.421   3.501  1.5994 -0.6462 -1.2924
 3275SOL     OW21286   4.498   2.747   5.039 -0.0882 -0.3906 -0.4522
 3275SOL    HW121287   4.452   2.799   4.973  0.0707  1.4532  0.8900
 3275SOL    HW221288   4.451   2.664   5.025 -3.0326  1.3806 -1.1635
 3276SOL     OW21289   0.229   3.933   9.935 -0.4209  0.4335 -0.2609
 3276SOL    HW121290   0.154   3.992   9.926 -1.7542 -1.6944 -2.9696
 3276SOL    HW221291   0.187   3.851   9.963 -2.1876  1.7346  0.9486
 3277SOL     OW21292   1.195   4.102   6.608 -0.5138 -0.1308 -0.5255
 3277SOL    HW121293   1.205   4.097   6.703 -2.2614 -1.4815 -0.4104
 3277SOL    HW221294   1.105   4.068   6.606 -0.4106 -0.3071 -1.9907
 3278SOL     OW21295   2.566   4.324   7.045  0.4465  0.1680 -0.0032
 3278SOL    HW121296   2.557   4.412   7.081  0.7917 -0.0475  0.6153
 3278SOL    HW221297   2.658   4.301   7.060  0.0023 -1.2514  0.5362
 3279SOL     OW21298   3.612   0.277  10.078 -0.1095 -0.0991 -0.4297
 3279SOL    HW121299   3.517   0.284  10.087  0.3039  1.6792  2.1757
 3279SOL    HW221300   3.623   0.264   9.983 -2.0285  1.6304 -0.8940
 3280SOL     OW21301   3.249   4.238   0.243  0.1870 -0.2631 -0.1257
 3280SOL    HW121302   3.273   4.279   0.160 -0.3053  0.8432  0.2654
 3280SOL    HW221303   3.257   4.147   0.214  0.8491 -0.5843  1.0684
 3281SOL     OW21304   4.333   0.822   4.862  0.0078  0.6409 -0.4811
 3281SOL    HW121305   4.365   0.829   4.772 -0.6350 -0.1465 -0.7794
 3281SOL    HW221306   4.348   0.730   4.883  0.8051  0.9156  0.1526
 3282SOL     OW21307   2.598   2.311   2.453  0.1704  0.6189 -0.5736
 3282SOL    HW121308   2.684   2.313   2.495 -0.2299  2.7133  0.1687
 3282SOL    HW221309   2.576   2.219   2.467 -0.5114  0.8803  0.0810
 3283SOL     OW21310   0.790   3.605   6.796  0.7538 -0.4388 -0.1299
 3283SOL    HW121311   0.781   3.674   6.730 -1.6017  1.0463  1.7297
 3283SOL    HW221312   0.740   3.642   6.868  1.0738 -1.0058  0.3804
 3284SOL     OW21313   0.887   1.952   5.228  0.9591 -0.1690  0.1696
 3284SOL    HW121314   0.963   1.961   5.170 -0.6340 -2.7933 -2.2971
 3284SOL    HW221315   0.899   1.865   5.267 -0.0179  0.3044  1.4965
 3285SOL     OW21316   2.873   2.955   6.295 -1.3587 -0.1098  0.4503
 3285SOL    HW121317   2.878   3.007   6.215  1.2481 -1.1492 -0.0589
 3285SOL    HW221318   2.807   3.009   6.339  0.6273  0.4719  2.6895
 3286SOL     OW21319   1.465   0.699   0.124  0.1451 -0.2365  0.2415
 3286SOL    HW121320   1.422   0.760   0.183  0.8978  0.7363 -0.2065
 3286SOL    HW221321   1.475   0.621   0.179 -1.3108 -2.2841 -2.3742
 3287SOL     OW21322   4.149   4.354   4.011 -0.6538 -0.1951 -0.3620
 3287SOL    HW121323   4.091   4.283   3.985 -0.6672  0.5232 -2.3433
 3287SOL    HW221324   4.179   4.376   3.922  0.2906 -2.3219 -0.5473
 3288SOL     OW21325   0.790   4.089  14.740 -0.2827 -0.5388 -0.7674
 3288SOL    HW121326   0.880   4.111  14.765 -0.6143 -1.9977  1.6890
 3288SOL    HW221327   0.813   4.031  14.667 -0.8040  0.2220 -1.5348
 3289SOL     OW21328   0.017   3.656   8.415 -0.5096  0.1888  0.4926
 3289SOL    HW121329   4.683   3.599   8.365  0.4596  0.3815 -0.8571
 3289SOL    HW221330   0.101   3.616   8.396 -0.0907  0.5821  1.5271
 3290SOL     OW21331   1.293   0.907   8.174  0.7401  0.3359  0.1737
 3290SOL    HW121332   1.281   0.935   8.084  0.4334  0.9736  0.4089
 3290SOL    HW221333   1.286   0.992   8.218 -1.7426 -0.0525  0.5251
 3291SOL     OW21334   4.078   3.203   6.672 -0.4538  0.6885  0.4931
 3291SOL    HW121335   4.063   3.297   6.682 -1.6174  0.4503  0.9957
 3291SOL    HW221336   3.990   3.165   6.668 -0.3809  0.5562  0.0874
 3292SOL     OW21337   2.227   3.300   8.409 -0.3332 -0.2752  0.2850
 3292SOL    HW121338   2.157   3.236   8.420 -1.2185  0.3782 -1.6262
 3292SOL    HW221339   2.297   3.255   8.456 -0.3101  0.0153  0.5300
 3293SOL     OW21340   1.196   0.789   3.668  0.1591 -0.1018  0.1817
 3293SOL    HW121341   1.237   0.776   3.753  0.2187 -0.1536  0.1454
 3293SOL    HW221342   1.238   0.870   3.640 -0.1159 -0.5123 -1.4131
 3294SOL     OW21343   2.536   1.373   8.289 -0.0720 -0.7571  0.2897
 3294SOL    HW121344   2.599   1.421   8.342  0.1894 -1.2506  0.4205
 3294SOL    HW221345   2.490   1.315   8.351  2.9130  0.5494  3.7299
 3295SOL     OW21346   3.553   4.191   0.450  0.2385 -0.0002  0.3074
 3295SOL    HW121347   3.534   4.278   0.485 -2.1409 -0.1704 -0.5308
 3295SOL    HW221348   3.475   4.143   0.480 -2.0035  2.6071 -1.3831
 3296SOL     OW21349   0.652   3.824   9.643 -0.3405 -0.0556 -0.0195
 3296SOL    HW121350   0.639   3.892   9.709  0.9503  2.4063 -2.2630
 3296SOL    HW221351   0.670   3.747   9.696 -0.5670 -0.0185  0.1107
 3297SOL     OW21352   3.944   0.978   4.970  0.2645  0.3983 -0.0140
 3297SOL    HW121353   4.012   0.912   4.985  1.0482  1.2308  0.1389
 3297SOL    HW221354   3.916   0.936   4.889 -0.5138  0.7444  0.0770
 3298SOL     OW21355   0.050   4.667  16.631 -0.0313 -0.4246  0.4142
 3298SOL    HW121356   0.012   4.582  16.608 -0.1233 -0.1662 -0.4185
 3298SOL    HW221357   4.693   4.715  16.622 -0.1342 -0.3694  1.6611
 3299SOL     OW21358   3.994   2.521   6.873  0.5483  0.0385 -0.2629
 3299SOL    HW121359   4.066   2.584   6.869 -1.5719  2.5859  1.3358
 3299SOL    HW221360   3.944   2.553   6.948  0.8360 -2.5771  1.0289
 3300SOL     OW21361   4.628   2.448  14.404  0.0048  0.2809  0.4723
 3300SOL    HW121362   4.700   2.447  14.341  0.3915 -1.7418  0.9785
 3300SOL    HW221363   4.652   2.498  14.482  0.1079  0.1361  0.5332
 3301SOL     OW21364   2.399   1.849  17.682  0.1168 -0.1663  0.4155
 3301SOL    HW121365   2.383   1.815  17.594  0.3992 -3.0450  1.4736
 3301SOL    HW221366   2.452   1.772  17.701  0.5915  0.2429  0.7575
 3302SOL     OW21367   0.566   0.011   4.264 -0.5669 -0.5157 -0.0721
 3302SOL    HW121368   0.655   0.040   4.281 -0.4270 -1.3574  0.6545
 3302SOL    HW221369   0.539   4.714   4.353  0.9454 -0.8928  0.2935
 3303SOL     OW21370   1.678   1.544  16.179  0.2362 -0.4442  0.3938
 3303SOL    HW121371   1.699   1.607  16.248  0.1271  0.0197 -0.0017
 3303SOL    HW221372   1.761   1.531  16.134 -0.3529 -0.8379 -0.6009
 3304SOL     OW21373   0.842   2.897   5.597  0.0823 -0.2663 -0.1480
 3304SOL    HW121374   0.890   2.914   5.517  0.7470  2.4511  0.8220
 3304SOL    HW221375   0.898   2.835   5.644  1.8334  1.6882  0.3460
 3305SOL     OW21376   4.161   2.397   2.073  0.4811  0.0462  0.0146
 3305SOL    HW121377   4.068   2.418   2.077  0.4637  0.2201 -1.1689
 3305SOL    HW221378   4.163   2.307   2.040  0.8721  0.4233 -1.0087
 3306SOL     OW21379   1.980   4.328  11.618 -0.3758  0.2152  0.3796
 3306SOL    HW121380   2.025   4.407  11.590 -1.1805  0.4926 -0.1471
 3306SOL    HW221381   1.907   4.341  11.557 -0.1346 -1.1330 -0.1838
 3307SOL     OW21382   2.052   3.795   5.078 -0.0033  0.7789 -0.3539
 3307SOL    HW121383   2.146   3.789   5.098 -0.3696  2.0829  1.6630
 3307SOL    HW221384   2.058   3.776   4.984 -0.7063 -1.0653 -0.0277
 3308SOL     OW21385   3.659   3.091   9.515 -0.2135  0.1427  0.0199
 3308SOL    HW121386   3.721   3.164   9.512 -1.8975  1.6044  0.9736
 3308SOL    HW221387   3.719   3.016   9.514  1.4097  1.4003  1.6165
 3309SOL     OW21388   1.093   4.614  11.960  0.4239 -0.2719  0.8481
 3309SOL    HW121389   1.093   4.696  12.009 -1.0497  0.9584 -1.2205
 3309SOL    HW221390   1.027   4.556  11.999 -0.0186 -0.0914  0.3601
 3310SOL     OW21391   1.165   1.368   2.403  0.0780 -0.1123 -0.3515
 3310SOL    HW121392   1.192   1.459   2.416 -2.4550  0.7313 -1.0329
 3310SOL    HW221393   1.072   1.378   2.381  0.4147  0.2035 -1.6077
 3311SOL     OW21394   1.395   2.135   3.452 -0.0059  0.0266 -0.0725
 3311SOL    HW121395   1.407   2.072   3.522  2.2152  1.6617  1.0163
 3311SOL    HW221396   1.486   2.166   3.453  0.6357 -1.9051  0.6525
 3312SOL     OW21397   2.749   2.317   1.530  0.1830 -0.3260  0.3170
 3312SOL    HW121398   2.787   2.388   1.581  0.5361 -0.8557  0.7845
 3312SOL    HW221399   2.797   2.329   1.448 -0.9016  0.6363 -0.1743
 3313SOL     OW21400   2.430   0.324   6.704  0.3962  0.6030 -0.3568
 3313SOL    HW121401   2.493   0.295   6.637 -0.5532  1.2977 -1.5425
 3313SOL    HW221402   2.351   0.308   6.653  0.2151 -2.9200  1.0860
 3314SOL     OW21403   4.342   1.946  16.613  0.7033  0.5186  0.3096
 3314SOL    HW121404   4.360   2.040  16.615  1.6954  0.3280  0.5705
 3314SOL    HW221405   4.372   1.915  16.698  1.9006  0.5722 -0.0955
 3315SOL     OW21406   2.761   0.720   5.594 -0.1722  0.5404 -0.2999
 3315SOL    HW121407   2.695   0.779   5.556  1.0272  2.2932  0.3108
 3315SOL    HW221408   2.775   0.657   5.524  0.5467  0.4985 -0.1231
 3316SOL     OW21409   2.884   1.958   7.679  0.4638  0.9440  0.2526
 3316SOL    HW121410   2.937   1.879   7.687 -1.0233 -0.0479  0.2186
 3316SOL    HW221411   2.794   1.930   7.696  0.9611 -0.7980 -0.0029
 3317SOL     OW21412   0.808   1.537   3.786 -0.4581  0.2603 -0.1006
 3317SOL    HW121413   0.816   1.547   3.691 -0.2081 -0.0160 -0.1111
 3317SOL    HW221414   0.742   1.603   3.807 -1.4565 -1.0999  1.0484
 3318SOL     OW21415   1.087   3.048  16.817 -0.3440 -0.3173  0.6651
 3318SOL    HW121416   0.994   3.026  16.813 -0.6003  0.6243  1.3255
 3318SOL    HW221417   1.068   3.141  16.803 -0.0018 -0.5936 -1.5326
 3319SOL     OW21418   1.286   1.630   2.462  0.3537 -0.2235 -0.0984
 3319SOL    HW121419   1.280   1.705   2.403 -1.0301 -0.6322 -0.4783
 3319SOL    HW221420   1.265   1.664   2.549  0.0494  0.2577 -0.3564
 3320SOL     OW21421   3.276   0.460   4.610 -0.0657 -0.2038 -0.0077
 3320SOL    HW121422   3.351   0.441   4.554  1.3325  0.9321  1.4934
 3320SOL    HW221423   3.302   0.548   4.638  2.0856 -0.3836 -1.4944
 3321SOL     OW21424   0.099   3.112   7.081  0.0604  0.8745  0.3303
 3321SOL    HW121425   0.047   3.164   7.019  1.2889  1.9035  0.1706
 3321SOL    HW221426   0.043   3.109   7.159  0.5711  1.5588  0.7307
 3322SOL     OW21427   3.285   1.967   9.425  0.1678 -0.1054 -0.6523
 3322SOL    HW121428   3.346   1.921   9.483 -0.7575  0.5005  0.8154
 3322SOL    HW221429   3.334   2.047   9.408  0.7520 -0.4539 -0.6106
 3323SOL     OW21430   0.179   2.468   4.085 -0.5647  0.3216  0.5728
 3323SOL    HW121431   0.144   2.536   4.144  1.1735  0.1429  1.8076
 3323SOL    HW221432   0.268   2.493   4.061 -0.1686  0.3132  2.0308
 3324SOL     OW21433   1.064   2.104  11.313 -0.6099  0.6942 -0.1375
 3324SOL    HW121434   1.081   2.085  11.406 -0.3670  0.1779 -0.2877
 3324SOL    HW221435   1.154   2.113  11.282  0.3580 -1.4492  2.0136
 3325SOL     OW21436   0.278   3.359   5.779  0.1307 -0.1414  0.2781
 3325SOL    HW121437   0.198   3.366   5.832  0.2475 -2.5686  0.7819
 3325SOL    HW221438   0.295   3.269   5.753 -0.3997  0.2535 -1.3956
 3326SOL     OW21439   4.370   0.459   6.135 -0.0010 -0.0652  0.2551
 3326SOL    HW121440   4.327   0.483   6.053  0.3206 -0.8136 -0.1327
 3326SOL    HW221441   4.454   0.504   6.142 -0.1302  0.0092  1.3803
 3327SOL     OW21442   3.054   1.444   6.829 -0.0111  0.3186 -0.2033
 3327SOL    HW121443   2.973   1.416   6.787  0.4211 -0.3649 -0.5884
 3327SOL    HW221444   3.039   1.382   6.900  0.0837  0.9573  0.3715
 3328SOL     OW21445   4.705   2.118   5.011 -0.2005 -0.3538  0.1603
 3328SOL    HW121446   4.641   2.152   4.948  2.4578 -1.3702 -3.1146
 3328SOL    HW221447   4.716   2.193   5.070  0.7049 -0.9389  0.7333
 3329SOL     OW21448   1.916   0.031   6.315  0.0040  0.7797  0.2205
 3329SOL    HW121449   1.963   0.113   6.330  0.5341  0.3084  1.1756
 3329SOL    HW221450   1.847   0.067   6.259 -0.5213 -0.7118 -0.0901
 3330SOL     OW21451   1.741   1.512   3.957 -1.1284  0.1253 -0.3640
 3330SOL    HW121452   1.707   1.521   4.046 -0.5698 -0.8486 -0.0631
 3330SOL    HW221453   1.682   1.442   3.929  0.1071 -1.5151  1.1202
 3331SOL     OW21454   1.749   4.184   5.759  0.0416 -0.4230 -0.2547
 3331SOL    HW121455   1.710   4.119   5.818  1.3447 -0.1908  0.8567
 3331SOL    HW221456   1.710   4.257   5.808 -1.8907  0.4675 -3.0856
 3332SOL     OW21457   0.325   3.183  11.510  0.1967  0.0949 -0.7043
 3332SOL    HW121458   0.410   3.207  11.473 -0.2047  0.6711 -1.2603
 3332SOL    HW221459   0.344   3.173  11.603 -0.1618 -2.1463 -0.8793
 3333SOL     OW21460   2.571   1.643   4.348  0.3863  0.1393 -0.0613
 3333SOL    HW121461   2.546   1.697   4.424  2.3001 -0.4563  0.9990
 3333SOL    HW221462   2.612   1.568   4.390  1.9742 -0.3261 -2.4449
 3334SOL     OW21463   1.516   3.556   7.900  0.1039 -0.3842 -0.2750
 3334SOL    HW121464   1.491   3.637   7.944  1.8830 -0.2831  0.5766
 3334SOL    HW221465   1.443   3.504   7.933  1.2648 -2.0245 -0.2706
 3335SOL     OW21466   2.969   1.293   7.771 -0.6677 -0.5527 -0.0034
 3335SOL    HW121467   2.930   1.239   7.702  0.5276 -1.9588  0.4405
 3335SOL    HW221468   2.894   1.333   7.816 -0.0142  1.0722 -0.3591
 3336SOL     OW21469   2.014   4.638   3.502  0.1145  0.5041  0.0266
 3336SOL    HW121470   1.957   4.714   3.517 -0.3515  0.3618 -1.0615
 3336SOL    HW221471   1.978   4.592   3.426  0.0387  0.9708 -0.2209
 3337SOL     OW21472   0.257   2.644   9.217  0.0221 -0.2870 -0.3153
 3337SOL    HW121473   0.240   2.555   9.185  1.1506 -0.4358 -0.5089
 3337SOL    HW221474   0.327   2.676   9.160  0.2225  0.2229  0.2143
 3338SOL     OW21475   1.744   4.438   2.555 -0.3727  0.2975  0.4556
 3338SOL    HW121476   1.802   4.510   2.581 -0.5450  1.0488 -1.2489
 3338SOL    HW221477   1.689   4.427   2.632 -0.0524 -0.7926  0.5273
 3339SOL     OW21478   3.639   4.062   6.185 -0.2188  0.2355 -0.0627
 3339SOL    HW121479   3.629   4.148   6.145  0.5472  0.1073 -0.5338
 3339SOL    HW221480   3.680   4.086   6.268  1.2749 -2.9085  0.1145
 3340SOL     OW21481   1.203   3.542   6.056  0.6387  0.1957 -0.1767
 3340SOL    HW121482   1.239   3.467   6.103 -0.7088 -0.7743 -0.7006
 3340SOL    HW221483   1.226   3.616   6.112 -0.5414  2.4602 -2.6956
 3341SOL     OW21484   2.614   2.175   6.797  0.3103 -0.0595 -0.4329
 3341SOL    HW121485   2.527   2.150   6.765 -0.0838  0.6508  0.0914
 3341SOL    HW221486   2.643   2.246   6.740  2.5373 -0.3669  0.3181
 3342SOL     OW21487   0.333   4.136   8.157 -0.1040  0.1375  0.1068
 3342SOL    HW121488   0.295   4.056   8.121  1.1148 -0.7261  0.7380
 3342SOL    HW221489   0.321   4.119   8.250 -2.1077 -1.8952 -0.5187
 3343SOL     OW21490   3.477   3.951   6.717 -0.4159  0.1561  0.1443
 3343SOL    HW121491   3.389   3.944   6.754 -0.1497  0.4753  0.8352
 3343SOL    HW221492   3.481   4.036   6.673  2.0922 -0.3638 -0.6488
 3344SOL     OW21493   0.605   0.622   8.563 -0.5170 -0.0703  0.4132
 3344SOL    HW121494   0.691   0.629   8.521 -0.8849 -1.0488 -0.5050
 3344SOL    HW221495   0.583   0.531   8.585 -2.1654  0.1269 -0.4230
 3345SOL     OW21496   3.400   3.110  11.996 -0.3518  0.3208 -0.4038
 3345SOL    HW121497   3.355   3.027  12.008  1.7020 -1.1261 -2.8989
 3345SOL    HW221498   3.426   3.101  11.905  0.9781  1.3888 -0.1431
 3346SOL     OW21499   3.599   4.643   4.681  0.5681  0.8381  0.5526
 3346SOL    HW121500   3.694   4.653   4.671  0.6860 -1.6527 -0.9227
 3346SOL    HW221501   3.573   0.001   4.721 -0.1735  0.5676  0.6282
 3347SOL     OW21502   0.830   4.453   8.382 -0.0704 -0.3895 -0.0949
 3347SOL    HW121503   0.812   4.380   8.441  0.3404  1.5923  2.4798
 3347SOL    HW221504   0.782   4.441   8.300  2.2219  0.7442 -1.6338
 3348SOL     OW21505   0.812   1.926   3.149  0.4374  0.0175  0.1488
 3348SOL    HW121506   0.873   1.852   3.149 -0.0455 -0.3731 -1.8591
 3348SOL    HW221507   0.855   1.981   3.083  0.3793 -1.0488 -0.7722
 3349SOL     OW21508   1.886   0.519  13.222 -0.5722 -0.5487  0.4494
 3349SOL    HW121509   1.856   0.477  13.302 -1.5401 -0.2614  0.2404
 3349SOL    HW221510   1.933   0.593  13.261 -1.9416  1.0211 -0.8673
 3350SOL     OW21511   0.719   4.723   0.157 -0.4026  0.4977 -0.3608
 3350SOL    HW121512   0.748   4.636   0.130 -2.8491 -0.3498 -0.2952
 3350SOL    HW221513   0.764   0.004   0.242 -2.0262 -2.4172  0.7239
 3351SOL     OW21514   1.124   3.287   3.827  0.4331 -0.3395 -0.0056
 3351SOL    HW121515   1.073   3.305   3.906  0.7223  0.0985  0.0826
 3351SOL    HW221516   1.156   3.376   3.812 -0.3290  0.3298  2.3017
 3352SOL     OW21517   2.654   4.072   4.493  0.9399  0.0843 -0.1351
 3352SOL    HW121518   2.624   4.113   4.575  2.4893  0.9118  0.0195
 3352SOL    HW221519   2.698   3.997   4.533  0.8746 -0.0532 -0.3201
 3353SOL     OW21520   1.468   3.696   3.859 -0.0835 -0.1410 -0.0280
 3353SOL    HW121521   1.536   3.684   3.926 -1.4193 -0.4781  1.2653
 3353SOL    HW221522   1.509   3.652   3.784 -0.1346  0.8481 -0.6380
 3354SOL     OW21523   1.147   0.457  11.018 -0.3668 -0.0248  0.6681
 3354SOL    HW121524   1.124   0.453  10.925 -1.0699 -1.8448  0.9119
 3354SOL    HW221525   1.242   0.464  11.009 -0.2594 -0.1276  1.6646
 3355SOL     OW21526   4.621   2.756   2.012  0.7485 -0.3722  0.0044
 3355SOL    HW121527   4.579   2.671   1.999 -1.3110  0.5636  0.4624
 3355SOL    HW221528   4.658   2.771   1.925 -0.9209  1.9916 -0.3017
 3356SOL     OW21529   2.712   1.111  16.426  0.5784 -0.2313 -0.8013
 3356SOL    HW121530   2.781   1.169  16.393  1.5865  0.1986  2.0728
 3356SOL    HW221531   2.766   1.046  16.470 -0.2055 -0.9862 -0.9570
 3357SOL     OW21532   1.626   1.122   7.962 -0.4198  0.1308 -0.2138
 3357SOL    HW121533   1.688   1.142   8.031  0.4327 -0.5183 -0.7934
 3357SOL    HW221534   1.689   1.127   7.890  0.6319 -0.2081  0.6815
 3358SOL     OW21535   0.033   3.364   9.399 -0.0687 -0.2083 -0.2223
 3358SOL    HW121536   4.704   3.390   9.474 -1.6550  0.1899 -1.5089
 3358SOL    HW221537   0.038   3.268   9.392 -0.9999 -0.2207 -0.7038
 3359SOL     OW21538   0.314   4.385  15.845  0.2355  0.5191 -0.2755
 3359SOL    HW121539   0.288   4.476  15.830 -1.0627  0.7748  3.6054
 3359SOL    HW221540   0.407   4.386  15.825  0.3545 -0.3728  0.2465
 3360SOL     OW21541   0.148   0.692   1.428  0.2367  0.0738 -0.1023
 3360SOL    HW121542   0.219   0.757   1.428  1.3873 -1.1864 -0.2491
 3360SOL    HW221543   0.192   0.613   1.458 -0.4114  0.1271  0.9967
 3361SOL     OW21544   1.023   4.401  12.955  0.7060 -0.0877  0.3139
 3361SOL    HW121545   1.048   4.433  13.042  3.8960  0.4846 -0.7878
 3361SOL    HW221546   1.024   4.475  12.895  1.6284  0.4135  0.9432
 3362SOL     OW21547   2.447   4.610   4.169 -0.1746 -0.1680  0.0092
 3362SOL    HW121548   2.353   4.591   4.164 -0.0285 -0.3067 -2.1574
 3362SOL    HW221549   2.453   4.705   4.184  1.1473 -0.3275  0.4946
 3363SOL     OW21550   2.715   1.453   6.567 -0.0228 -0.2696  0.3305
 3363SOL    HW121551   2.788   1.495   6.521 -0.2704 -0.7346 -0.4981
 3363SOL    HW221552   2.704   1.519   6.635  0.4678 -0.6636  0.7876
 3364SOL     OW21553   2.054   4.290   2.251 -0.1537  0.6450 -0.2012
 3364SOL    HW121554   2.085   4.378   2.273  3.3540 -0.4168 -1.0124
 3364SOL    HW221555   2.032   4.267   2.342  0.6342  0.1669 -0.1370
 3365SOL     OW21556   0.379   2.044   1.224 -0.2790  0.3504  0.1096
 3365SOL    HW121557   0.360   2.124   1.175 -0.4578  0.4669  0.3665
 3365SOL    HW221558   0.291   2.007   1.238  0.3822 -1.6260 -0.9206
 3366SOL     OW21559   1.174   2.936  14.614 -0.5187 -0.4562  0.1359
 3366SOL    HW121560   1.174   2.907  14.523  0.2591 -0.5710  0.1721
 3366SOL    HW221561   1.209   3.024  14.600 -0.5642 -0.2709  1.1484
 3367SOL     OW21562   1.615   2.091   8.968  0.2151 -0.0902  0.3151
 3367SOL    HW121563   1.571   2.117   8.887  2.5767 -1.5767 -1.4444
 3367SOL    HW221564   1.671   2.166   8.987 -0.5117  0.2412  1.1487
 3368SOL     OW21565   0.551   3.761   6.495  0.3713  0.1788 -0.3957
 3368SOL    HW121566   0.499   3.804   6.428 -0.3729  1.3576  0.9533
 3368SOL    HW221567   0.569   3.677   6.451 -0.4134  0.6239 -1.5622
 3369SOL     OW21568   0.185   2.562  12.979 -0.9325 -0.0905 -0.6984
 3369SOL    HW121569   0.150   2.651  12.978 -0.2085  0.1901 -0.7708
 3369SOL    HW221570   0.247   2.580  12.909 -0.2460  2.2017  0.5176
 3370SOL     OW21571   2.293   4.111   2.171 -0.2209  0.0191  0.0178
 3370SOL    HW121572   2.237   4.185   2.193  0.7206  0.4532  0.9545
 3370SOL    HW221573   2.317   4.075   2.257  0.0062  0.2110  0.0347
 3371SOL     OW21574   3.227   2.652  10.245  0.6204 -0.4534  0.6268
 3371SOL    HW121575   3.321   2.669  10.254  0.7766 -0.5019 -0.8286
 3371SOL    HW221576   3.234   2.557  10.255 -0.3323 -0.7848 -1.7298
 3372SOL     OW21577   3.072   0.867   1.905 -0.2594  0.6032 -0.2515
 3372SOL    HW121578   3.015   0.792   1.919  1.6261 -0.8886 -0.5682
 3372SOL    HW221579   3.003   0.933   1.898 -0.6685  0.0672 -1.2061
 3373SOL     OW21580   3.071   4.090  14.845 -0.4334  0.0944 -0.2439
 3373SOL    HW121581   2.981   4.066  14.822 -1.5451  2.5822  1.5497
 3373SOL    HW221582   3.102   4.017  14.899 -0.3005  1.4727  1.5032
 3374SOL     OW21583   2.184   0.034   8.736 -0.8654  0.2597 -0.2275
 3374SOL    HW121584   2.223   4.692   8.678  1.2478  0.8120  0.5382
 3374SOL    HW221585   2.089   0.025   8.729 -0.7176 -1.0214 -0.5696
 3375SOL     OW21586   2.782   2.827   9.560 -0.5086 -0.3565  0.5690
 3375SOL    HW121587   2.710   2.767   9.540 -1.0057  0.6877 -0.7569
 3375SOL    HW221588   2.855   2.766   9.567 -1.1626 -1.2518 -0.4080
 3376SOL     OW21589   1.853   3.362   8.393 -0.4336 -0.6551  0.6271
 3376SOL    HW121590   1.768   3.325   8.373 -0.4589 -0.4372  0.3247
 3376SOL    HW221591   1.914   3.292   8.371 -1.2822 -2.4104  3.9204
 3377SOL     OW21592   2.243   2.740   5.467  0.0590 -0.2128  0.2429
 3377SOL    HW121593   2.232   2.672   5.533 -1.2158  0.5572  0.8273
 3377SOL    HW221594   2.280   2.804   5.528 -1.1491  1.7018 -1.0507
 3378SOL     OW21595   3.130   0.944   8.554 -0.1342  0.2897 -0.0284
 3378SOL    HW121596   3.076   0.889   8.498  0.7000  0.8977 -1.4266
 3378SOL    HW221597   3.178   1.000   8.493  0.6111  2.4121  2.4953
 3379SOL     OW21598   4.606   1.064   5.092  0.1334 -0.0828  0.3375
 3379SOL    HW121599   4.578   0.977   5.064  2.2643 -1.2864  1.9732
 3379SOL    HW221600   4.595   1.050   5.186  1.5197  0.8670  0.6347
 3380SOL     OW21601   2.539   3.247  10.619  0.0057 -0.1975  0.5863
 3380SOL    HW121602   2.595   3.172  10.639  0.7176  0.5153  1.2345
 3380SOL    HW221603   2.531   3.290  10.704  1.2884  1.7886 -0.3143
 3381SOL     OW21604   0.470   0.433   1.790  0.0335 -0.1980 -0.7807
 3381SOL    HW121605   0.514   0.405   1.871 -0.4022  1.2151 -0.0460
 3381SOL    HW221606   0.383   0.437   1.830  0.7740  1.1816  0.7363
 3382SOL     OW21607   0.090   2.323   3.633  1.1319 -0.5758  0.5161
 3382SOL    HW121608   0.119   2.300   3.721 -0.6950 -0.4919  1.1348
 3382SOL    HW221609   0.119   2.249   3.579  1.3570 -1.5195  1.9078
 3383SOL     OW21610   3.798   1.899   3.351 -0.1703 -0.1787  0.1677
 3383SOL    HW121611   3.710   1.909   3.386 -0.3682  0.1425 -0.4140
 3383SOL    HW221612   3.854   1.867   3.422  3.0939  0.3197 -2.1957
 3384SOL     OW21613   4.480   1.836   4.823  0.2698 -0.4606  0.3252
 3384SOL    HW121614   4.470   1.748   4.787  1.4415 -0.7013  0.5955
 3384SOL    HW221615   4.454   1.886   4.746 -1.0760 -1.3523  0.1814
 3385SOL     OW21616   4.198   4.141  13.645  0.9031  0.3515 -0.0313
 3385SOL    HW121617   4.105   4.118  13.648  0.7013  1.2024  0.0122
 3385SOL    HW221618   4.207   4.210  13.710 -1.6708 -1.1492  1.9562
 3386SOL     OW21619   4.614   3.849   8.137 -0.1640 -0.0526 -0.1426
 3386SOL    HW121620   4.657   3.853   8.222 -1.6095 -2.0273  0.6778
 3386SOL    HW221621   4.587   3.757   8.137  0.1284 -0.1407 -0.8888
 3387SOL     OW21622   3.388   3.119   7.079  0.4107  0.0781 -0.2850
 3387SOL    HW121623   3.309   3.087   7.124  1.1157 -2.5475 -0.9290
 3387SOL    HW221624   3.373   3.097   6.987 -2.5845 -0.1362  0.2356
 3388SOL     OW21625   2.001   1.550   1.458 -0.0978  0.4502  0.2082
 3388SOL    HW121626   2.053   1.629   1.472  1.2889 -0.3373 -0.4746
 3388SOL    HW221627   1.926   1.582   1.509 -0.4033  0.9465 -0.5618
 3389SOL     OW21628   2.304   4.386  11.094  0.1483 -0.3552 -0.2314
 3389SOL    HW121629   2.224   4.378  11.147  0.0747  3.2777  0.1613
 3389SOL    HW221630   2.260   4.363  11.012  0.5701 -1.5756 -0.1256
 3390SOL     OW21631   0.422   4.577  11.442 -0.8817  0.3704 -0.3772
 3390SOL    HW121632   0.403   4.592  11.534  0.2833  0.2084 -0.1157
 3390SOL    HW221633   0.456   4.488  11.439 -0.1189  0.6180  1.1309
 3391SOL     OW21634   3.203   1.139  12.368  0.3034  0.0878 -0.5391
 3391SOL    HW121635   3.240   1.225  12.345  2.7790 -0.6050  0.8960
 3391SOL    HW221636   3.204   1.150  12.463 -1.9201 -0.4872 -0.4653
 3392SOL     OW21637   0.577   2.428  17.197  0.0176 -0.2785 -0.3918
 3392SOL    HW121638   0.567   2.389  17.110  1.6740 -2.3352  0.3403
 3392SOL    HW221639   0.635   2.364  17.237  0.3413 -0.5178 -1.2390
 3393SOL     OW21640   4.291   3.627  11.337 -0.1439  0.6830 -0.1518
 3393SOL    HW121641   4.245   3.661  11.260 -1.1897  1.9031  1.0151
 3393SOL    HW221642   4.211   3.587  11.371  1.0444 -2.4412 -1.0214
 3394SOL     OW21643   4.007   2.548   4.711  0.0435 -0.2362  0.1350
 3394SOL    HW121644   4.002   2.553   4.616  3.8766 -1.0991 -0.1164
 3394SOL    HW221645   3.912   2.545   4.719 -0.0032 -2.1957 -1.2391
 3395SOL     OW21646   2.449   0.716   2.835  0.1863  0.3582  0.5028
 3395SOL    HW121647   2.453   0.753   2.923  1.7181  1.4851 -0.0363
 3395SOL    HW221648   2.459   0.795   2.782 -1.5036  0.4300  0.2892
 3396SOL     OW21649   2.760   2.085   1.223  0.0276  0.3394 -0.2620
 3396SOL    HW121650   2.669   2.105   1.242 -0.4737 -0.3505 -1.9181
 3396SOL    HW221651   2.753   2.085   1.127  2.4247 -1.6868 -0.4477
 3397SOL     OW21652   0.539   2.854  12.741  0.2513  0.1818 -0.9466
 3397SOL    HW121653   0.553   2.816  12.654 -1.8298 -0.1743 -1.1331
 3397SOL    HW221654   0.506   2.775  12.783  1.7329 -0.1543 -0.4388
 3398SOL     OW21655   1.152   0.719   4.297  0.7508 -0.2000  0.3764
 3398SOL    HW121656   1.175   0.701   4.388 -0.2360  0.0586  0.6778
 3398SOL    HW221657   1.162   0.814   4.289  1.8423 -0.4470 -1.1412
 3399SOL     OW21658   2.054   2.022   7.597  0.1048  0.2088  0.0750
 3399SOL    HW121659   2.130   1.991   7.647 -0.7190 -0.6506  0.8091
 3399SOL    HW221660   2.076   1.992   7.509 -0.2522 -0.6681  0.2791
 3400SOL     OW21661   1.427   0.097  16.880  0.2294  0.1853  0.5089
 3400SOL    HW121662   1.424   0.183  16.921  0.3963 -0.3222  1.5959
 3400SOL    HW221663   1.359   0.112  16.815  0.9381 -2.4772 -0.8736
 3401SOL     OW21664   2.241   1.305   6.712 -0.4142 -0.2645 -0.5178
 3401SOL    HW121665   2.201   1.392   6.714 -0.3395 -0.1784 -3.0817
 3401SOL    HW221666   2.313   1.324   6.652 -1.4837  0.4856 -1.5422
 3402SOL     OW21667   4.115   2.824   9.035 -0.3462  0.9179 -0.3131
 3402SOL    HW121668   4.174   2.815   9.110 -1.9794  1.4139  1.0167
 3402SOL    HW221669   4.118   2.918   9.021 -0.1627  0.7907 -1.1272
 3403SOL     OW21670   0.496   2.060  12.334 -0.4062 -0.2861  0.5183
 3403SOL    HW121671   0.432   2.014  12.389  0.9924 -0.4162  2.0286
 3403SOL    HW221672   0.454   2.145  12.321 -1.7387 -0.9880  0.2446
 3404SOL     OW21673   4.251   4.304  10.558  0.7832 -0.3081 -0.2822
 3404SOL    HW121674   4.315   4.274  10.493  1.5838  1.3885 -0.2594
 3404SOL    HW221675   4.194   4.227  10.567 -0.5154  0.1412 -4.4843
 3405SOL     OW21676   1.769   3.229   7.572 -0.1623  0.5936 -0.2136
 3405SOL    HW121677   1.838   3.192   7.627 -1.0224 -1.2022 -0.3433
 3405SOL    HW221678   1.794   3.320   7.559  1.8594 -0.2062 -1.9343
 3406SOL     OW21679   0.005   3.769   2.435  0.1028  0.0551 -0.3035
 3406SOL    HW121680   4.723   3.807   2.348  1.2112  2.5192  0.6721
 3406SOL    HW221681   0.099   3.750   2.438  0.1628  0.1158 -2.0749
 3407SOL     OW21682   2.403   0.810   4.513 -0.4974  0.0369 -0.0845
 3407SOL    HW121683   2.463   0.752   4.560 -0.5468 -0.1548 -0.2583
 3407SOL    HW221684   2.360   0.748   4.455 -1.5400 -1.1528  1.9632
 3408SOL     OW21685   1.766   1.727   5.463  0.6268 -0.7452 -0.5039
 3408SOL    HW121686   1.799   1.730   5.553  0.0920  1.0637 -0.3824
 3408SOL    HW221687   1.676   1.698   5.474  1.3257 -1.5556  2.9072
 3409SOL     OW21688   0.719   0.900   6.182 -0.0334 -0.2585  0.5344
 3409SOL    HW121689   0.748   0.811   6.162 -1.0200 -0.5417  0.3870
 3409SOL    HW221690   0.708   0.892   6.277 -0.6699  1.1447  0.5780
 3410SOL     OW21691   3.247   0.824   2.832  0.4474  0.0802 -0.2610
 3410SOL    HW121692   3.190   0.750   2.851  1.7493 -1.4075 -2.2027
 3410SOL    HW221693   3.325   0.807   2.885  1.0083  0.1146 -1.0856
 3411SOL     OW21694   2.741   4.025  13.595  0.1900  0.2748 -0.7225
 3411SOL    HW121695   2.736   4.008  13.689  1.4549  0.0973 -0.6859
 3411SOL    HW221696   2.831   3.996  13.581 -0.1371 -0.7508 -0.6903
 3412SOL     OW21697   0.014   3.020  12.955  0.0874  0.4529  0.3571
 3412SOL    HW121698   4.663   3.049  12.905 -0.1611 -2.4045 -0.9251
 3412SOL    HW221699   0.010   3.069  13.037 -3.6243  2.4538 -1.0033
 3413SOL     OW21700   0.076   1.344   7.702 -0.0043 -0.0750 -0.2234
 3413SOL    HW121701   0.103   1.259   7.738 -2.3930 -0.0747  1.5890
 3413SOL    HW221702   0.156   1.395   7.699 -0.3300  0.4947  0.7524
 3414SOL     OW21703   3.985   4.210   2.472  0.4675  0.2081 -0.5766
 3414SOL    HW121704   3.929   4.230   2.396 -0.1236 -1.1569 -0.5056
 3414SOL    HW221705   4.045   4.283   2.465  0.2801  0.4138 -0.0390
 3415SOL     OW21706   2.480   2.973   5.326 -0.4050  0.0889  0.1863
 3415SOL    HW121707   2.512   2.978   5.236 -1.3831  3.7175  0.0139
 3415SOL    HW221708   2.462   2.881   5.344 -0.2653 -0.2088 -1.2254
 3416SOL     OW21709   4.624   1.049  15.059 -0.0956  0.2066 -0.0173
 3416SOL    HW121710   4.688   1.008  15.116 -1.4808 -0.7260  0.8715
 3416SOL    HW221711   4.583   1.123  15.102  1.5202  1.6553 -0.9666
 3417SOL     OW21712   0.291   4.138   4.210  0.1191  0.6208 -0.0944
 3417SOL    HW121713   0.247   4.177   4.286  0.4757  0.7040  0.0719
 3417SOL    HW221714   0.261   4.049   4.225  0.6017  1.2823  4.8340
 3418SOL     OW21715   1.798   2.901  14.368  0.1213 -0.6485  0.1056
 3418SOL    HW121716   1.893   2.900  14.360 -0.1918  1.4623 -3.5226
 3418SOL    HW221717   1.794   2.805  14.375 -0.5833 -0.4828  2.2054
 3419SOL     OW21718   2.439   2.524   2.954  0.2093 -0.5632 -0.5357
 3419SOL    HW121719   2.352   2.513   2.992  0.9493  0.2522  1.3783
 3419SOL    HW221720   2.416   2.581   2.881 -2.6796 -0.9192  0.0751
 3420SOL     OW21721   2.114   1.869  12.593  0.0641  0.8048  0.3817
 3420SOL    HW121722   2.107   1.883  12.687  0.8004 -0.8735  0.6890
 3420SOL    HW221723   2.033   1.912  12.565  0.7838  0.9316 -1.5429
 3421SOL     OW21724   4.351   2.568   2.649 -0.7485 -0.1827 -0.0808
 3421SOL    HW121725   4.373   2.509   2.576 -1.2656  0.7973 -1.0257
 3421SOL    HW221726   4.332   2.643   2.593 -0.4250  0.5201  0.7573
 3422SOL     OW21727   3.722   1.160   9.497  0.5958  0.1991  0.0000
 3422SOL    HW121728   3.789   1.147   9.429  0.5028  2.0957 -0.4644
 3422SOL    HW221729   3.706   1.252   9.474 -0.3264 -0.1419 -0.6942
 3423SOL     OW21730   2.595   3.766   8.047  0.6110 -0.2866 -0.4664
 3423SOL    HW121731   2.611   3.857   8.022 -0.2714 -0.6283 -2.2956
 3423SOL    HW221732   2.549   3.770   8.131  1.6914 -1.1628  0.1674
 3424SOL     OW21733   2.609   1.822   8.252 -0.5547  0.1218  0.1056
 3424SOL    HW121734   2.565   1.847   8.333  0.0952  0.0612  0.4809
 3424SOL    HW221735   2.664   1.900   8.246  1.1219 -1.0262  0.4012
 3425SOL     OW21736   2.885   2.690   7.337  0.3918  0.4580  0.1706
 3425SOL    HW121737   2.968   2.643   7.335  0.2574  0.2081  0.6299
 3425SOL    HW221738   2.854   2.699   7.427  0.7990 -0.3269  0.3931
 3426SOL     OW21739   2.188   1.258   2.304 -0.3524 -0.4779 -0.0028
 3426SOL    HW121740   2.101   1.229   2.277 -0.8026 -0.1840  1.1029
 3426SOL    HW221741   2.232   1.252   2.220 -0.3449 -0.4780  0.0010
 3427SOL     OW21742   1.041   2.463   5.528  0.6915  0.0194 -0.0007
 3427SOL    HW121743   0.949   2.440   5.540  1.3889 -3.5360 -1.5715
 3427SOL    HW221744   1.037   2.494   5.437  2.3455  1.0533  0.2832
 3428SOL     OW21745   3.217   2.280   6.795  0.6443  0.1037 -0.2103
 3428SOL    HW121746   3.145   2.330   6.756 -0.2394 -1.4673 -0.5803
 3428SOL    HW221747   3.231   2.334   6.873 -2.3836  0.7438 -0.1254
 3429SOL     OW21748   2.983   4.209  11.589  0.1218  0.1829  0.3298
 3429SOL    HW121749   3.060   4.181  11.639  0.1632  0.5622  0.4763
 3429SOL    HW221750   2.933   4.128  11.599 -0.9033  0.7538 -0.1695
 3430SOL     OW21751   0.056   1.141   9.672 -0.1513  0.4253  0.1868
 3430SOL    HW121752   0.069   1.061   9.620  0.6423  2.3812 -2.6107
 3430SOL    HW221753   0.092   1.107   9.754 -2.0702  1.3156  1.4137
 3431SOL     OW21754   1.630   2.222   8.389 -0.6210  0.0277  0.2189
 3431SOL    HW121755   1.605   2.258   8.304  0.6361 -0.7154 -0.4743
 3431SOL    HW221756   1.636   2.306   8.433 -1.1508  0.0706  0.2084
 3432SOL     OW21757   0.466   1.184   2.045  0.6041 -0.4831  0.1330
 3432SOL    HW121758   0.538   1.235   2.083  0.8959  1.1653 -2.6441
 3432SOL    HW221759   0.400   1.251   2.024 -0.2680 -1.6257 -0.7712
 3433SOL     OW21760   3.777   0.514   5.943  0.2264 -0.3174  0.0249
 3433SOL    HW121761   3.835   0.567   5.888  1.6184 -0.1167  1.6784
 3433SOL    HW221762   3.769   0.573   6.019  0.9885 -0.1927  0.0068
 3434SOL     OW21763   2.440   0.720   6.052 -0.1673 -0.1273 -0.2265
 3434SOL    HW121764   2.439   0.789   5.985  1.3194 -1.6138 -1.7813
 3434SOL    HW221765   2.516   0.750   6.103  0.0982 -0.8881 -0.1865
 3435SOL     OW21766   0.680   4.321  13.779  0.2301  1.1537  0.0915
 3435SOL    HW121767   0.714   4.232  13.781 -0.8353  0.7606  0.6774
 3435SOL    HW221768   0.747   4.371  13.732  1.7591 -1.0046  0.0156
 3436SOL     OW21769   0.059   0.977  10.214 -0.1435  0.4435 -0.4867
 3436SOL    HW121770   4.716   0.912  10.202 -0.8042  0.9535  0.5635
 3436SOL    HW221771   0.138   0.923  10.217  0.5486  1.4265 -0.8470
 3437SOL     OW21772   3.554   0.678   3.908  0.0922  0.6648 -0.4781
 3437SOL    HW121773   3.515   0.763   3.886 -0.7641  0.2734 -0.5009
 3437SOL    HW221774   3.483   0.616   3.890  0.2504  0.3983 -0.1833
 3438SOL     OW21775   3.986   4.668  13.820 -0.4097  0.0969 -0.3716
 3438SOL    HW121776   3.901   4.692  13.858 -0.1166 -1.2795  1.1611
 3438SOL    HW221777   4.018   0.026  13.786  0.7887  0.1669  0.9414
 3439SOL     OW21778   4.723   0.536   8.751 -0.0528  0.4760 -0.2359
 3439SOL    HW121779   0.024   0.560   8.662 -0.6342  0.3863 -0.4311
 3439SOL    HW221780   4.630   0.515   8.748  0.0817 -0.0874 -0.4375
 3440SOL     OW21781   1.232   4.682   5.896  0.1435  0.4441  0.1030
 3440SOL    HW121782   1.140   4.701   5.882 -0.0516 -0.0002  0.8196
 3440SOL    HW221783   1.253   4.712   5.984  0.2670 -0.2105  0.2968
 3441SOL     OW21784   4.349   4.547   0.649 -0.4377  0.1262 -0.0051
 3441SOL    HW121785   4.380   4.527   0.738 -3.1322  0.9695  1.1314
 3441SOL    HW221786   4.370   4.640   0.649  0.4448 -0.0732 -2.4407
 3442SOL     OW21787   2.416   2.510   8.103  0.1222  0.5614 -0.5270
 3442SOL    HW121788   2.364   2.431   8.119  1.1387 -0.2615 -1.1896
 3442SOL    HW221789   2.350   2.571   8.134  0.9350  1.8911 -1.3955
 3443SOL     OW21790   4.665   0.156   2.672  0.1186 -0.2974 -0.6042
 3443SOL    HW121791   4.651   0.236   2.722 -0.0855 -1.5423  1.3636
 3443SOL    HW221792   0.029   0.129   2.697 -0.2044  0.9343  1.8916
 3444SOL     OW21793   2.400   2.472   9.441  0.2437  0.2820 -0.5518
 3444SOL    HW121794   2.307   2.450   9.441  0.1609  0.5788  1.7473
 3444SOL    HW221795   2.415   2.489   9.348 -1.7075  0.5636 -0.8266
 3445SOL     OW21796   2.688   0.702   4.582 -0.2306 -0.1284 -0.0494
 3445SOL    HW121797   2.687   0.646   4.659 -1.8238  0.4941  0.3930
 3445SOL    HW221798   2.774   0.743   4.594 -0.3715  0.5203 -1.1490
 3446SOL     OW21799   0.937   4.059   6.518  0.0340  0.1368 -0.0485
 3446SOL    HW121800   0.931   4.150   6.488 -1.2465 -0.6269 -2.1149
 3446SOL    HW221801   0.913   4.010   6.439 -1.2596  0.2418  0.2840
 3447SOL     OW21802   2.540   0.061   8.955 -0.0630  0.5258  0.1479
 3447SOL    HW121803   2.602   0.134   8.960  0.1660  0.4427 -1.4955
 3447SOL    HW221804   2.454   0.100   8.967  0.1585  0.6853  1.2897
 3448SOL     OW21805   4.199   2.221   7.487 -0.0917 -0.1094  0.1643
 3448SOL    HW121806   4.279   2.169   7.502  0.4783  0.2834 -1.4583
 3448SOL    HW221807   4.147   2.198   7.564 -0.6923 -0.2724 -0.2871
 3449SOL     OW21808   0.816   1.579   8.410 -0.5063 -0.1377 -0.0243
 3449SOL    HW121809   0.752   1.581   8.339  1.4833 -0.3161 -1.8130
 3449SOL    HW221810   0.785   1.662   8.446 -2.3948 -0.9291  0.1956
 3450SOL     OW21811   1.796   2.574   9.093  0.4312  0.0284 -0.8251
 3450SOL    HW121812   1.749   2.657   9.097  0.4736  0.0035  0.0694
 3450SOL    HW221813   1.849   2.583   9.013  1.8322 -1.7192 -0.0766
 3451SOL     OW21814   1.541   2.467   8.896  0.2836 -0.0457 -0.4836
 3451SOL    HW121815   1.596   2.471   8.974  0.4297 -1.1153 -0.5343
 3451SOL    HW221816   1.454   2.492   8.928 -0.2011 -0.2955 -1.6137
 3452SOL     OW21817   2.539   0.727   6.890  0.3481  0.4993  0.1011
 3452SOL    HW121818   2.521   0.796   6.826 -1.9452 -0.0436  0.1603
 3452SOL    HW221819   2.579   0.659   6.835 -1.7710 -0.9168  0.3209
 3453SOL     OW21820   0.331   2.224   7.508 -0.5859  0.3789  0.1081
 3453SOL    HW121821   0.327   2.312   7.546  1.6955  0.4325  0.2212
 3453SOL    HW221822   0.391   2.236   7.434 -1.8377 -0.2745 -1.0139
 3454SOL     OW21823   2.746   0.894  16.195 -0.0457 -0.3210  0.1064
 3454SOL    HW121824   2.701   0.858  16.271  0.9116 -1.9856 -0.1232
 3454SOL    HW221825   2.682   0.948  16.149  0.3299  0.1314  0.1077
 3455SOL     OW21826   3.525   0.385  10.931  0.5933 -0.4040  0.7675
 3455SOL    HW121827   3.496   0.334  10.856  0.6323  1.5922 -0.6056
 3455SOL    HW221828   3.461   0.359  10.998  0.4819  0.2878  0.9331
 3456SOL     OW21829   3.728   0.966   4.080 -0.3066 -0.0403 -0.3113
 3456SOL    HW121830   3.807   0.973   4.133 -0.1838 -0.4850 -0.4374
 3456SOL    HW221831   3.681   0.899   4.130  0.4377  0.1214  0.6121
 3457SOL     OW21832   1.969   0.533   2.879 -0.2840  0.4738 -0.7126
 3457SOL    HW121833   2.010   0.475   2.815 -1.3362 -1.0056 -0.0380
 3457SOL    HW221834   2.051   0.568   2.914 -0.3158  0.6830 -0.8483
 3458SOL     OW21835   3.024   0.225  15.754 -0.3658  0.5147 -0.7270
 3458SOL    HW121836   3.028   0.193  15.844 -2.0464 -0.0778 -0.8622
 3458SOL    HW221837   3.071   0.159  15.703  1.6728  0.0542  1.7459
 3459SOL     OW21838   2.848   3.875   3.250 -0.0406 -0.3325 -0.2264
 3459SOL    HW121839   2.803   3.808   3.199 -0.4592 -0.4211  0.2536
 3459SOL    HW221840   2.919   3.900   3.192  0.3660  1.4666  1.0531
 3460SOL     OW21841   0.892   3.161   6.869  0.5558  0.0873  0.2159
 3460SOL    HW121842   0.818   3.154   6.810 -0.9230 -2.0634  2.3096
 3460SOL    HW221843   0.864   3.232   6.928 -1.1946  0.2511 -0.8125
 3461SOL     OW21844   1.243   1.689  10.884  0.0857  0.3300 -0.9374
 3461SOL    HW121845   1.227   1.649  10.798 -2.0615 -0.9585  0.0657
 3461SOL    HW221846   1.339   1.693  10.879  0.1729  0.7725  1.3659
 3462SOL     OW21847   3.447   2.228  12.582 -0.6922 -0.3512  0.4755
 3462SOL    HW121848   3.516   2.208  12.519 -0.3766 -3.3916  1.8019
 3462SOL    HW221849   3.378   2.270  12.531 -0.0637 -0.9929 -0.9127
 3463SOL     OW21850   1.250   3.716   6.240  0.7127 -0.5976 -0.1263
 3463SOL    HW121851   1.218   3.751   6.324 -2.9164 -1.7550 -1.0293
 3463SOL    HW221852   1.345   3.724   6.244  0.8271 -2.6009  1.4655
 3464SOL     OW21853   2.711   3.216   5.299 -0.2856 -0.6614 -0.3010
 3464SOL    HW121854   2.744   3.305   5.290  0.4349 -0.8181  0.7293
 3464SOL    HW221855   2.621   3.235   5.274 -0.0884 -0.2070 -0.6758
 3465SOL     OW21856   4.492   3.286   5.758  0.6587  0.8447  0.5178
 3465SOL    HW121857   4.412   3.338   5.760 -0.8223 -1.4968  3.0908
 3465SOL    HW221858   4.487   3.244   5.844  1.1885 -0.2803  0.0083
 3466SOL     OW21859   1.118   1.211   8.560  0.6884  0.2084  0.2729
 3466SOL    HW121860   1.184   1.276   8.581  0.5476  0.6997 -0.8032
 3466SOL    HW221861   1.053   1.231   8.628  0.3165  2.7754 -0.8505
 3467SOL     OW21862   0.370   2.035   0.413  0.0513  0.5540  0.0283
 3467SOL    HW121863   0.399   1.952   0.450  0.0482  0.8974  0.7820
 3467SOL    HW221864   0.371   2.031   0.317 -0.2212  0.3666  0.0328
 3468SOL     OW21865   4.563   1.328   5.064 -0.3265  0.1893  0.0177
 3468SOL    HW121866   4.565   1.233   5.051  1.1920  0.2396 -0.1198
 3468SOL    HW221867   4.620   1.332   5.142  1.3110 -1.4488 -1.0803
 3469SOL     OW21868   3.751   0.673   5.558 -0.1291  0.0612 -0.4470
 3469SOL    HW121869   3.826   0.701   5.505  0.1123  1.3841  0.5771
 3469SOL    HW221870   3.736   0.754   5.606  1.6404  0.9142 -1.3229
 3470SOL     OW21871   1.604   4.036   0.242 -0.4164 -0.0610  0.2037
 3470SOL    HW121872   1.661   3.971   0.282  0.8513  0.6408 -0.4495
 3470SOL    HW221873   1.639   4.114   0.286  0.1380  0.2942 -0.8744
 3471SOL     OW21874   3.459   4.147   6.519 -0.4031  0.3735 -0.3534
 3471SOL    HW121875   3.376   4.194   6.520 -0.7760 -0.3366  1.8907
 3471SOL    HW221876   3.449   4.095   6.439  2.0566 -1.4373  0.5051
 3472SOL     OW21877   1.922   0.429  15.126 -0.0615  0.2481  0.2683
 3472SOL    HW121878   1.830   0.430  15.098  0.5432 -0.2826 -1.7492
 3472SOL    HW221879   1.963   0.492  15.067 -0.5973 -1.6322 -2.1314
 3473SOL     OW21880   1.170   4.033   7.651 -0.2839 -0.0552  0.0154
 3473SOL    HW121881   1.199   4.104   7.707  0.1345  2.2095 -3.0562
 3473SOL    HW221882   1.077   4.032   7.674 -0.7528  1.3690 -1.8221
 3474SOL     OW21883   1.850   0.406   3.754 -0.1375  0.5566 -0.3890
 3474SOL    HW121884   1.848   0.490   3.708  1.3542  1.2345  0.7689
 3474SOL    HW221885   1.844   0.427   3.848  0.8909 -0.4569 -0.0970
 3475SOL     OW21886   0.644   4.002   5.442  0.2888 -0.0500  1.4005
 3475SOL    HW121887   0.571   4.026   5.385 -0.1890 -1.8906  1.2476
 3475SOL    HW221888   0.612   3.935   5.502 -1.7235  0.5059  0.9482
 3476SOL     OW21889   1.731   0.936   6.757 -0.2345  0.2637 -0.0169
 3476SOL    HW121890   1.826   0.927   6.745 -0.4893 -1.5302 -0.7569
 3476SOL    HW221891   1.706   0.947   6.665  1.3901 -0.8816 -0.6101
 3477SOL     OW21892   0.925   1.033   2.363 -0.0426 -0.3054  0.0414
 3477SOL    HW121893   0.829   1.039   2.355 -0.0457 -1.4438 -0.7372
 3477SOL    HW221894   0.936   1.066   2.453  1.9759 -0.1111 -0.2843
 3478SOL     OW21895   3.153   1.519   7.847 -1.0267 -0.1655  0.6377
 3478SOL    HW121896   3.109   1.526   7.932 -1.8168  0.9324  0.1436
 3478SOL    HW221897   3.107   1.448   7.804  0.1592  0.3383 -1.4486
 3479SOL     OW21898   2.228   4.186   6.454 -0.0173 -0.3356 -0.9443
 3479SOL    HW121899   2.266   4.141   6.529 -0.5280  3.3289  1.5178
 3479SOL    HW221900   2.139   4.214   6.478 -0.0373 -0.7783 -0.5016
 3480SOL     OW21901   2.264   0.772   6.453  0.4191 -0.1634  0.0815
 3480SOL    HW121902   2.249   0.687   6.411 -2.1860  0.1976  0.2801
 3480SOL    HW221903   2.235   0.761   6.543 -1.1159  2.6419 -0.0598
 3481SOL     OW21904   1.239   3.928   4.192 -0.6986 -1.1075 -0.3734
 3481SOL    HW121905   1.330   3.948   4.172 -1.2369  0.2290 -1.3938
 3481SOL    HW221906   1.192   4.008   4.169 -0.7552 -1.5560 -1.8289
 3482SOL     OW21907   3.529   3.631   4.784  0.3622 -0.0305 -0.1266
 3482SOL    HW121908   3.619   3.611   4.811 -0.4811 -1.8243  1.3973
 3482SOL    HW221909   3.526   3.565   4.714 -0.5759  0.8017 -0.8644
 3483SOL     OW21910   2.595   0.219   1.099  0.1847 -0.9717  0.5314
 3483SOL    HW121911   2.541   0.141   1.082  0.3049 -0.9355 -0.0224
 3483SOL    HW221912   2.676   0.178   1.067  0.0642 -0.1055 -0.9024
 3484SOL     OW21913   2.669   2.365   8.852  0.0127  0.6807  0.0147
 3484SOL    HW121914   2.750   2.408   8.827 -0.2925  1.0939 -0.2626
 3484SOL    HW221915   2.671   2.284   8.800  0.2757  1.1248 -0.6575
 3485SOL     OW21916   4.415   3.289  11.487 -0.1123  0.1303 -0.0561
 3485SOL    HW121917   4.382   3.201  11.504  1.3312 -0.1870  1.0977
 3485SOL    HW221918   4.388   3.328  11.571  0.4594  1.8226 -0.6614
 3486SOL     OW21919   0.018   3.433  10.793  0.2683  0.3661 -0.0756
 3486SOL    HW121920   0.092   3.395  10.744 -0.3968 -1.0989  0.0552
 3486SOL    HW221921   0.045   3.424  10.884  0.1673 -0.0865 -0.0887
 3487SOL     OW21922   1.208   1.647   1.879 -0.3071  0.1394  0.3300
 3487SOL    HW121923   1.202   1.554   1.902  0.6095 -0.3788 -1.5803
 3487SOL    HW221924   1.302   1.665   1.881 -0.2262 -0.3390  1.0067
 3488SOL     OW21925   1.631   2.913   4.674 -0.8312  0.2633  0.1169
 3488SOL    HW121926   1.607   2.855   4.746 -0.3753  1.2418  1.0668
 3488SOL    HW221927   1.720   2.881   4.663 -0.4812  1.7032 -1.3125
 3489SOL     OW21928   2.449   4.346   2.342 -0.0502  0.4075  0.5261
 3489SOL    HW121929   2.525   4.299   2.308 -1.6239 -0.3952 -1.8602
 3489SOL    HW221930   2.482   4.434   2.360 -0.0407  0.5503 -0.1947
 3490SOL     OW21931   0.201   1.709  17.655 -0.2551 -0.2639  0.2932
 3490SOL    HW121932   0.186   1.644  17.587 -0.2318 -3.4977  3.3930
 3490SOL    HW221933   0.292   1.733  17.638  0.3451 -2.8226 -0.0497
 3491SOL     OW21934   3.808   0.326   6.237  0.0995 -0.1753  0.3342
 3491SOL    HW121935   3.803   0.234   6.264  1.7174 -0.5975 -0.8349
 3491SOL    HW221936   3.732   0.334   6.179 -1.4615 -0.6577  2.3219
 3492SOL     OW21937   3.185   0.190  16.250 -0.0260  0.1944 -0.1217
 3492SOL    HW121938   3.258   0.251  16.246 -0.2634  0.4918  0.1129
 3492SOL    HW221939   3.174   0.174  16.156  2.0901  0.2255 -0.3644
 3493SOL     OW21940   4.121   1.670   6.777 -0.0797  0.3679 -0.0222
 3493SOL    HW121941   4.217   1.666   6.775 -0.0785 -0.3102  1.2599
 3493SOL    HW221942   4.114   1.753   6.823  0.7794  1.5585 -2.0497
 3494SOL     OW21943   0.382   1.810  12.814 -0.2432 -0.4012 -0.4163
 3494SOL    HW121944   0.344   1.737  12.767  3.0785 -2.4747  0.1007
 3494SOL    HW221945   0.407   1.763  12.894 -0.8609  0.8379  0.5138
 3495SOL     OW21946   2.606   2.219   4.443  0.3208 -0.6005  0.5707
 3495SOL    HW121947   2.556   2.297   4.465  0.2183 -0.3494 -0.5428
 3495SOL    HW221948   2.536   2.168   4.401 -1.1816  1.2500  0.8518
 3496SOL     OW21949   4.224   3.026   5.276  0.2815 -0.0602  1.0109
 3496SOL    HW121950   4.315   2.998   5.270 -0.5001 -2.4936  0.6299
 3496SOL    HW221951   4.187   2.941   5.300 -1.3743 -0.4444 -2.9653
 3497SOL     OW21952   2.278   1.592   6.761  0.2192 -0.1839  0.0188
 3497SOL    HW121953   2.351   1.647   6.735  2.1570 -2.2584  1.0505
 3497SOL    HW221954   2.287   1.591   6.857 -2.1607 -2.1139  0.2220
 3498SOL     OW21955   3.455   2.154   9.360 -0.1630  0.6996 -0.2528
 3498SOL    HW121956   3.427   2.175   9.271 -1.7164  0.8941  0.2789
 3498SOL    HW221957   3.516   2.225   9.379 -0.5048  0.9034  0.0877
 3499SOL     OW21958   3.997   3.822   5.413  0.0122  0.0327 -0.3511
 3499SOL    HW121959   3.987   3.895   5.475 -0.9189 -0.3617 -0.0383
 3499SOL    HW221960   3.970   3.748   5.468 -0.0508  0.0789 -0.3199
 3500SOL     OW21961   4.701   0.076  16.950  0.4445 -0.0274  0.0547
 3500SOL    HW121962   0.041   0.058  17.017  0.7348  0.2918 -0.1365
 3500SOL    HW221963   4.631   0.011  16.960  1.4118 -0.6774  2.4494
 3501SOL     OW21964   1.194   3.889  12.227  0.1089  0.0170 -0.2138
 3501SOL    HW121965   1.265   3.824  12.235  0.0953  0.0920  0.5047
 3501SOL    HW221966   1.201   3.919  12.136 -1.7943 -0.7401 -0.6113
 3502SOL     OW21967   1.151   3.738   3.560 -0.3132 -0.5404  0.6901
 3502SOL    HW121968   1.119   3.661   3.512 -0.9668  1.4300 -2.0049
 3502SOL    HW221969   1.244   3.736   3.537 -0.0874 -0.8930  1.6195
 3503SOL     OW21970   0.586   4.511  17.633  0.7870  0.5360 -0.0831
 3503SOL    HW121971   0.679   4.509  17.652  0.9154  0.0002 -0.7538
 3503SOL    HW221972   0.551   4.584  17.683 -0.3315 -0.2391  0.2578
 3504SOL     OW21973   3.588   0.610  12.488  0.3971  0.2288 -0.1242
 3504SOL    HW121974   3.623   0.683  12.437 -0.4121  1.8474  1.5799
 3504SOL    HW221975   3.656   0.548  12.466 -0.2728 -0.9257  1.0270
 3505SOL     OW21976   1.438   1.190   7.620 -0.0846 -0.8179 -0.0451
 3505SOL    HW121977   1.508   1.126   7.629 -0.0206 -1.1942 -3.3576
 3505SOL    HW221978   1.418   1.219   7.709  1.5565 -2.6438  0.9170
 3506SOL     OW21979   1.731   3.929  15.156 -0.8774  0.0146  0.2673
 3506SOL    HW121980   1.693   3.865  15.095  3.0905 -0.8957 -1.2652
 3506SOL    HW221981   1.663   3.926  15.223 -0.0734 -3.8869  0.9056
 3507SOL     OW21982   4.352   4.159   4.161 -0.1999 -0.0891  0.2323
 3507SOL    HW121983   4.315   4.166   4.072  0.8855 -0.3762 -0.2418
 3507SOL    HW221984   4.406   4.238   4.164 -1.0461  0.6143 -2.4103
 3508SOL     OW21985   3.928   1.628   2.499  0.5495 -0.3714 -0.1455
 3508SOL    HW121986   3.936   1.629   2.404  0.2807 -2.6733 -0.1979
 3508SOL    HW221987   3.858   1.692   2.515  0.7939 -0.6583  2.0450
 3509SOL     OW21988   2.395   2.821   4.114  0.0418 -0.0339  0.3858
 3509SOL    HW121989   2.390   2.769   4.034 -0.5846  1.3153 -0.4553
 3509SOL    HW221990   2.335   2.892   4.092 -0.7381 -0.7692  0.1458
 3510SOL     OW21991   1.150   1.400   7.999 -0.1449 -0.6671  0.0907
 3510SOL    HW121992   1.148   1.322   7.942  0.0009 -0.3407 -0.3604
 3510SOL    HW221993   1.213   1.458   7.957 -0.4417  0.3054  1.0085
 3511SOL     OW21994   2.047   3.842   3.648 -0.3876 -0.3162  0.2454
 3511SOL    HW121995   2.106   3.855   3.574 -0.4517  2.0867  0.6187
 3511SOL    HW221996   2.089   3.768   3.691 -1.0432 -1.1269 -0.5202
 3512SOL     OW21997   2.595   0.084   3.169  0.3938  0.0421 -0.6167
 3512SOL    HW121998   2.577   0.128   3.086 -1.4696  2.1444  0.8916
 3512SOL    HW221999   2.519   0.127   3.208  1.9538  1.4596  0.9060
 3513SOL     OW22000   2.865   1.123   5.826 -0.3550  0.6466 -0.3005
 3513SOL    HW122001   2.943   1.104   5.879  0.1823  3.1618 -0.1390
 3513SOL    HW222002   2.883   1.055   5.762  0.7847 -0.6142  1.3690
 3514SOL     OW22003   4.079   1.375  12.891  0.5889 -0.2668 -0.1079
 3514SOL    HW122004   4.118   1.300  12.846  2.0271 -0.4665  1.4585
 3514SOL    HW222005   4.033   1.408  12.814  1.9777  0.2835 -0.7121
 3515SOL     OW22006   1.262   4.614   4.705 -0.3510 -0.5261  0.2694
 3515SOL    HW122007   1.287   4.539   4.759 -0.4476 -0.7824 -0.0473
 3515SOL    HW222008   1.310   4.681   4.753 -2.7719  0.6504  1.0772
 3516SOL     OW22009   3.075   3.504   4.075  0.6935  0.3631  0.5962
 3516SOL    HW122010   3.049   3.545   4.157  0.0389  1.3200 -0.0849
 3516SOL    HW222011   3.001   3.444   4.075 -0.1709  1.4122 -0.1865
 3517SOL     OW22012   0.741   0.574   0.090  0.7935 -0.6268  0.1850
 3517SOL    HW122013   0.806   0.507   0.066  1.5989  0.3258 -0.2841
 3517SOL    HW222014   0.702   0.522   0.160  1.0789 -0.7001  0.2901
 3518SOL     OW22015   1.942   0.521   0.801 -0.1273  0.2640  0.0477
 3518SOL    HW122016   2.026   0.477   0.816 -0.9656 -0.6505  2.1221
 3518SOL    HW222017   1.914   0.525   0.893 -0.7485  0.7863 -0.1649
 3519SOL     OW22018   3.584   4.113   4.574  0.2895  0.6714  0.5527
 3519SOL    HW122019   3.589   4.108   4.669 -0.4796  0.1452  0.5656
 3519SOL    HW222020   3.509   4.053   4.570  2.8071 -2.5177  1.6717
 3520SOL     OW22021   1.323   2.392   2.099  0.1751  0.0115 -0.5663
 3520SOL    HW122022   1.266   2.468   2.107 -1.1338 -1.0177 -0.0525
 3520SOL    HW222023   1.363   2.397   2.186 -0.0537  1.3219 -0.5418
 3521SOL     OW22024   2.493   2.078   3.433 -0.1573 -0.4797 -0.4313
 3521SOL    HW122025   2.439   2.088   3.511  1.0543 -0.8837  0.4581
 3521SOL    HW222026   2.485   1.984   3.416  0.8815 -0.5764 -0.3656
 3522SOL     OW22027   4.525   0.937   3.487 -0.2862  0.1736 -0.4557
 3522SOL    HW122028   4.570   0.924   3.571 -0.4184  0.3604 -0.3547
 3522SOL    HW222029   4.439   0.953   3.526  1.5914  1.0007  3.4466
 3523SOL     OW22030   4.362   2.852   5.955  0.3506 -0.2340  0.3930
 3523SOL    HW122031   4.327   2.898   5.879  2.3811 -0.4360 -0.6702
 3523SOL    HW222032   4.445   2.820   5.920  0.8179  2.0483 -0.5771
 3524SOL     OW22033   1.861   1.542   4.498  0.4708  0.6754 -0.1549
 3524SOL    HW122034   1.836   1.452   4.518  1.0242  0.8424  1.3280
 3524SOL    HW222035   1.945   1.534   4.454  0.5753 -3.0481  0.7300
 3525SOL     OW22036   3.795   4.483   5.596  0.4224 -0.1218 -0.2071
 3525SOL    HW122037   3.833   4.522   5.674  0.6851 -1.0876  0.1509
 3525SOL    HW222038   3.709   4.524   5.601  0.0221 -0.9749 -0.0465
 3526SOL     OW22039   2.077   3.804   2.262 -0.3178 -1.1312 -0.2035
 3526SOL    HW122040   2.055   3.841   2.348  0.7165 -0.6463 -0.1496
 3526SOL    HW222041   2.012   3.835   2.199 -0.7274 -0.4081  0.5759
 3527SOL     OW22042   4.342   0.177   6.183 -0.2124  0.6546 -0.4228
 3527SOL    HW122043   4.368   0.269   6.178  1.7837  0.1892  1.4155
 3527SOL    HW222044   4.289   0.171   6.104 -0.0820  3.4417 -0.7175
 3528SOL     OW22045   3.120   2.919   4.577  0.2823  0.1973  0.5859
 3528SOL    HW122046   3.052   2.896   4.641 -1.6053  3.0338 -0.4182
 3528SOL    HW222047   3.195   2.867   4.606  0.1177 -1.0092 -1.1965
 3529SOL     OW22048   3.380   1.226   1.352  0.0221  0.1678 -0.3893
 3529SOL    HW122049   3.396   1.184   1.437 -0.6510  0.1099 -0.2958
 3529SOL    HW222050   3.467   1.204   1.318  0.2438 -0.2497  0.4402
 3530SOL     OW22051   0.881   2.024   0.873  0.2030 -0.4299 -0.5033
 3530SOL    HW122052   0.800   2.063   0.906 -0.6841 -0.9954 -1.9929
 3530SOL    HW222053   0.944   2.085   0.910  0.4829 -2.1273  1.8001
 3531SOL     OW22054   2.713   2.300   5.340  0.0250  0.0796  0.2157
 3531SOL    HW122055   2.747   2.338   5.421 -1.4288  0.9913  0.4221
 3531SOL    HW222056   2.660   2.232   5.382  0.7452 -0.3050  0.4829
 3532SOL     OW22057   1.814   2.123   8.623 -0.2241 -0.4616 -0.0906
 3532SOL    HW122058   1.828   2.146   8.531  0.6057 -1.0873 -0.1220
 3532SOL    HW222059   1.755   2.049   8.633 -0.3497 -0.4731 -0.9305
 3533SOL     OW22060   2.279   3.657   7.267 -0.2508 -0.0230 -0.0710
 3533SOL    HW122061   2.286   3.745   7.303  0.0408  0.1638 -0.5785
 3533SOL    HW222062   2.244   3.689   7.183 -1.9098 -0.2783  0.5308
 3534SOL     OW22063   0.231   0.880   3.859  0.1465  0.0923  0.2015
 3534SOL    HW122064   0.268   0.946   3.917 -2.0465  0.6956  0.9004
 3534SOL    HW222065   0.268   0.801   3.899 -2.3685 -0.7441  0.8685
 3535SOL     OW22066   3.810   2.857   9.551 -0.3837  0.0447 -0.4397
 3535SOL    HW122067   3.894   2.890   9.584  0.3335 -3.5467  1.4045
 3535SOL    HW222068   3.840   2.799   9.481 -0.0218 -1.1598  0.7007
 3536SOL     OW22069   1.440   1.845   7.955 -0.0014 -0.2246 -0.1759
 3536SOL    HW122070   1.413   1.928   7.916 -0.1941 -1.1119 -1.8997
 3536SOL    HW222071   1.487   1.797   7.887 -1.5592 -0.4869 -1.0631
 3537SOL     OW22072   0.605   0.366   8.622 -0.0647 -0.5789  0.8952
 3537SOL    HW122073   0.695   0.389   8.647  0.3945 -0.4570 -0.8627
 3537SOL    HW222074   0.624   0.281   8.581  2.2724  1.2265 -1.7361
 3538SOL     OW22075   1.836   1.214  13.306  0.6068  0.5717  0.1667
 3538SOL    HW122076   1.877   1.264  13.377 -1.1076  0.6483  1.1063
 3538SOL    HW222077   1.745   1.226  13.334  0.0429 -0.8842 -1.0554
 3539SOL     OW22078   1.431   1.179   7.333 -0.2354  0.2465 -0.1562
 3539SOL    HW122079   1.490   1.107   7.312 -1.7452 -1.0191 -0.0562
 3539SOL    HW222080   1.437   1.189   7.428 -0.3854 -0.6699 -0.0481
 3540SOL     OW22081   2.935   2.035  17.478  0.1382  0.0562  0.1644
 3540SOL    HW122082   2.964   2.033  17.569  0.1294 -1.4866  0.1463
 3540SOL    HW222083   2.848   1.996  17.489 -0.3993  1.7654  1.9949
 3541SOL     OW22084   0.272   0.595  16.237  0.1258  0.0775 -0.5583
 3541SOL    HW122085   0.320   0.626  16.314 -1.9142  0.2817  0.6243
 3541SOL    HW222086   0.323   0.516  16.219  1.6455  0.3906  2.2851
 3542SOL     OW22087   4.327   0.150   2.841 -0.0396 -0.1242  0.6556
 3542SOL    HW122088   4.295   0.155   2.931  1.0408  1.0177  0.9726
 3542SOL    HW222089   4.391   0.079   2.849 -0.4124 -0.4433  0.8368
 3543SOL     OW22090   1.654   3.700   3.642  0.0362  0.0934  0.4528
 3543SOL    HW122091   1.686   3.716   3.553  0.0763  0.4292  0.5278
 3543SOL    HW222092   1.701   3.620   3.667 -0.7678 -0.4453  0.2413
 3544SOL     OW22093   0.555   3.715   5.237 -0.0309 -0.1843 -0.3856
 3544SOL    HW122094   0.478   3.739   5.184 -0.6441 -2.1550 -0.3818
 3544SOL    HW222095   0.624   3.768   5.197 -1.9286  0.6307 -2.5898
 3545SOL     OW22096   0.582   4.187   2.022  0.0315 -0.5377  0.1538
 3545SOL    HW122097   0.646   4.171   1.953  1.8372  2.7424  1.0788
 3545SOL    HW222098   0.639   4.198   2.098  0.9016 -0.8871 -0.4509
 3546SOL     OW22099   1.473   3.271   0.082 -0.0315 -0.0892  0.1638
 3546SOL    HW122100   1.540   3.208   0.057 -2.5540 -2.1366 -1.3927
 3546SOL    HW222101   1.492   3.343   0.022  0.6911 -0.0090  0.4915
 3547SOL     OW22102   3.008   1.565  13.325 -0.8780  0.4401 -0.0798
 3547SOL    HW122103   3.082   1.563  13.386  0.2795  0.5795 -1.4813
 3547SOL    HW222104   2.988   1.471  13.320  0.5170  0.0788  1.0212
 3548SOL     OW22105   2.535   4.039   1.541 -0.5659  0.2630 -0.3054
 3548SOL    HW122106   2.584   4.048   1.459  0.0877  0.8563  0.1531
 3548SOL    HW222107   2.469   3.973   1.519 -1.0714  1.1457 -1.4755
 3549SOL     OW22108   4.313   0.879  11.108  0.2602 -0.0019 -0.6303
 3549SOL    HW122109   4.322   0.904  11.200 -0.3072  1.0772 -0.8699
 3549SOL    HW222110   4.246   0.811  11.114 -0.2302  0.6633  1.2439
 3550SOL     OW22111   4.096   1.970  10.840 -0.0727 -0.0448 -0.2576
 3550SOL    HW122112   4.077   1.883  10.805 -1.8336  0.6369 -0.9935
 3550SOL    HW222113   4.014   2.011  10.812 -0.3850  0.8641  1.9676
 3551SOL     OW22114   3.061   4.370  13.486 -0.0002  0.0756 -0.4187
 3551SOL    HW122115   3.016   4.305  13.539  0.9301  0.3642  0.7212
 3551SOL    HW222116   3.003   4.446  13.495 -0.9990 -0.5719 -1.3531
 3552SOL     OW22117   2.334   0.210   2.392 -0.3068  0.2878  0.1365
 3552SOL    HW122118   2.370   0.287   2.348 -0.0148 -0.4525 -0.9137
 3552SOL    HW222119   2.375   0.140   2.341 -2.7706 -0.1289 -1.2695
 3553SOL     OW22120   0.085   4.362   4.411  0.3673  0.5202 -0.5153
 3553SOL    HW122121   4.716   4.356   4.429  0.1073  1.5348 -1.5431
 3553SOL    HW222122   0.081   4.398   4.323  0.7731  2.4167  0.2401
 3554SOL     OW22123   1.183   2.313  15.826  0.4626  0.0655  0.0142
 3554SOL    HW122124   1.129   2.378  15.871  1.1816  0.0213  0.9372
 3554SOL    HW222125   1.158   2.230  15.868  1.3387  0.7535  1.9175
 3555SOL     OW22126   4.173   4.121   6.894 -0.0400 -0.3935  0.1086
 3555SOL    HW122127   4.170   4.025   6.899  0.9441 -0.4429 -0.2927
 3555SOL    HW222128   4.258   4.146   6.929  1.1887 -3.1008 -0.9130
 3556SOL     OW22129   4.009   1.264   3.152 -0.2367  0.1388 -0.5440
 3556SOL    HW122130   3.986   1.177   3.120 -2.6935  0.5439  0.0951
 3556SOL    HW222131   4.002   1.307   3.067  1.3586 -0.2915 -0.8938
 3557SOL     OW22132   2.020   3.671   6.773 -0.2958  0.3337 -0.0568
 3557SOL    HW122133   2.041   3.592   6.723 -0.8335 -0.1001  0.4044
 3557SOL    HW222134   2.014   3.732   6.700 -0.8260 -0.8444 -0.9899
 3558SOL     OW22135   3.879   4.089  16.313 -0.4402 -0.2730 -0.0128
 3558SOL    HW122136   3.854   4.120  16.400 -0.3650 -1.8363  0.5768
 3558SOL    HW222137   3.973   4.104  16.315  0.1097 -3.7391  0.9238
 3559SOL     OW22138   4.501   2.554  10.089  0.5329  0.4343 -0.1585
 3559SOL    HW122139   4.406   2.548  10.099  0.5882  0.5124  0.3828
 3559SOL    HW222140   4.538   2.515  10.168 -1.3777  0.5119  0.7793
 3560SOL     OW22141   4.707   3.147  13.201  0.1540 -0.3953 -0.2684
 3560SOL    HW122142   0.022   3.111  13.280  0.7008  0.8759  0.0322
 3560SOL    HW222143   4.621   3.179  13.229 -0.0450 -0.9957 -0.1951
 3561SOL     OW22144   4.165   2.990   4.744  0.1251 -0.1212  0.1676
 3561SOL    HW122145   4.138   3.076   4.777 -0.9704  0.8680 -3.3404
 3561SOL    HW222146   4.149   2.993   4.650 -0.1797  1.0095  0.2564
 3562SOL     OW22147   2.466   2.177   2.083  0.0097  0.4129 -0.4999
 3562SOL    HW122148   2.547   2.227   2.093  0.1863 -0.0997  0.5828
 3562SOL    HW222149   2.492   2.127   2.005 -1.3448 -2.0021  0.6210
 3563SOL     OW22150   2.054   4.170  11.821  0.0324  0.8510 -0.2408
 3563SOL    HW122151   2.144   4.197  11.803 -0.5108  1.7454 -1.6333
 3563SOL    HW222152   1.996   4.225  11.768  0.7895  1.2383 -0.6732
 3564SOL     OW22153   3.046   3.364   8.638  0.1743  0.1274 -0.3135
 3564SOL    HW122154   3.013   3.361   8.549 -2.5258 -0.4488  0.7083
 3564SOL    HW222155   3.063   3.458   8.651  0.1219  0.0476  0.3314
 3565SOL     OW22156   0.114   0.972   9.465 -0.3491  0.1445 -0.1286
 3565SOL    HW122157   0.082   0.978   9.376  1.0334  0.9220 -0.5697
 3565SOL    HW222158   0.194   0.920   9.459 -1.3418 -1.3552 -0.4873
 3566SOL     OW22159   1.724   1.162  16.709 -0.0677 -0.0482 -0.4163
 3566SOL    HW122160   1.789   1.171  16.639 -2.7112  2.3889 -2.5576
 3566SOL    HW222161   1.659   1.111  16.661  0.3959 -1.2663  0.2605
 3567SOL     OW22162   4.086   0.821   6.345  0.7738 -0.5918 -0.0681
 3567SOL    HW122163   4.042   0.769   6.412  0.9554 -0.2580  0.3108
 3567SOL    HW222164   4.045   0.906   6.360  2.9110  0.0691  2.0380
 3568SOL     OW22165   2.424   3.018   7.420  0.0390  0.1469  0.4247
 3568SOL    HW122166   2.377   3.099   7.437  1.2356  0.6321  1.4787
 3568SOL    HW222167   2.418   2.985   7.510  1.2527 -1.9995 -0.2735
 3569SOL     OW22168   3.564   3.805   3.702  0.6113  0.3423  0.3123
 3569SOL    HW122169   3.528   3.766   3.781 -0.4017  3.0342  1.1812
 3569SOL    HW222170   3.650   3.764   3.707  1.3591  1.8134 -0.4200
 3570SOL     OW22171   0.494   0.643  13.602 -0.3071  0.1522 -0.1079
 3570SOL    HW122172   0.419   0.648  13.544 -0.1603 -1.2433 -0.4197
 3570SOL    HW222173   0.529   0.555  13.592  0.2426  0.0214  2.8306
 3571SOL     OW22174   3.726   0.047   6.332 -0.1316 -0.2718 -0.2575
 3571SOL    HW122175   3.633   0.055   6.353  0.4758  1.0247  1.9164
 3571SOL    HW222176   3.765   0.062   6.418 -0.6770 -0.8039  0.0755
 3572SOL     OW22177   2.206   0.793   5.739  0.2445 -0.5210  0.6070
 3572SOL    HW122178   2.208   0.849   5.661  0.0355 -0.1127  0.8920
 3572SOL    HW222179   2.295   0.757   5.740  0.3359 -0.3003  0.4920
 3573SOL     OW22180   2.853   0.983   0.513 -0.0073  0.0087 -0.1271
 3573SOL    HW122181   2.819   0.989   0.602  1.1166 -0.8607  0.3678
 3573SOL    HW222182   2.920   0.914   0.517  1.4344  1.2810 -2.5382
 3574SOL     OW22183   0.648   1.129  11.282 -0.0286 -0.1805 -0.6383
 3574SOL    HW122184   0.705   1.087  11.218 -0.9779 -1.0081 -0.9311
 3574SOL    HW222185   0.591   1.187  11.231 -0.2700  0.2995  0.1770
 3575SOL     OW22186   2.864   2.581   4.236 -0.6582  0.0032 -0.3314
 3575SOL    HW122187   2.843   2.508   4.294 -1.0591  0.2868 -0.1228
 3575SOL    HW222188   2.808   2.559   4.161 -2.1709  0.5835  0.6223
 3576SOL     OW22189   2.728   1.572   7.046  0.7487 -0.0616 -0.2311
 3576SOL    HW122190   2.809   1.572   7.097 -0.2166 -2.4284  1.3269
 3576SOL    HW222191   2.677   1.614   7.115 -0.2143 -0.5543 -0.6334
 3577SOL     OW22192   1.308   3.047   3.985  0.3678  0.7097  0.2123
 3577SOL    HW122193   1.219   3.017   4.004  0.0070  2.5583  1.4505
 3577SOL    HW222194   1.270   3.115   3.929 -0.5244  0.5509  0.6310
 3578SOL     OW22195   1.130   3.483   9.842  0.4974 -0.3621 -0.2148
 3578SOL    HW122196   1.095   3.572   9.841 -0.5528 -0.7616  1.1043
 3578SOL    HW222197   1.191   3.490   9.769  1.7728  0.1919  0.8958
 3579SOL     OW22198   0.778   4.324  10.442 -0.3965 -0.6569  0.3308
 3579SOL    HW122199   0.862   4.368  10.454 -0.3071  0.0203 -2.7341
 3579SOL    HW222200   0.743   4.322  10.531 -0.2726 -1.1362  0.3680
 3580SOL     OW22201   4.055   3.098   3.815  0.1163  0.3268 -0.0509
 3580SOL    HW122202   4.002   3.028   3.778  1.6201 -1.0690  0.4509
 3580SOL    HW222203   4.028   3.163   3.750 -0.0537  1.6253  1.3247
 3581SOL     OW22204   3.989   0.346   5.893  0.3232  0.7439  0.5894
 3581SOL    HW122205   3.908   0.391   5.868 -0.1863  0.0817  1.0573
 3581SOL    HW222206   4.051   0.370   5.824 -0.1727  1.5592  0.4254
 3582SOL     OW22207   2.961   3.321  13.233  0.2800 -0.0403 -0.5692
 3582SOL    HW122208   3.027   3.372  13.280  1.1197 -1.5111 -0.1645
 3582SOL    HW222209   3.007   3.239  13.213  2.2168  0.8694  0.1753
 3583SOL     OW22210   0.022   3.853   7.869  0.0577 -0.2412 -0.1399
 3583SOL    HW122211   0.053   3.864   7.959 -0.3469  0.3032 -0.0724
 3583SOL    HW222212   0.088   3.904   7.821  0.0407  1.2641  1.4667
 3584SOL     OW22213   4.612   0.381   2.818 -0.4445 -0.9861  0.7507
 3584SOL    HW122214   4.600   0.438   2.742  3.5247  0.7058  1.3796
 3584SOL    HW222215   4.692   0.410   2.863 -2.5261  0.7387  3.3176
 3585SOL     OW22216   1.328   2.269   4.169  0.0390 -0.2138  0.6892
 3585SOL    HW122217   1.359   2.356   4.144  1.2031 -0.4582  1.2732
 3585SOL    HW222218   1.321   2.258   4.264  0.1153  0.4015  0.7638
 3586SOL     OW22219   4.149   3.675   6.753  0.3693  0.2058 -0.4928
 3586SOL    HW122220   4.187   3.594   6.717  1.1005 -0.1212  1.0132
 3586SOL    HW222221   4.148   3.734   6.677 -0.4832 -0.6852 -1.1763
 3587SOL     OW22222   0.597   3.895  16.354 -0.1372  0.2293  0.1781
 3587SOL    HW122223   0.542   3.905  16.432 -2.1252 -0.3771 -1.1692
 3587SOL    HW222224   0.634   3.808  16.372  0.7590  0.4594 -0.5559
 3588SOL     OW22225   3.381   1.750   8.931  0.1273 -0.4867 -0.2051
 3588SOL    HW122226   3.316   1.709   8.872 -0.5436 -0.1089  0.2697
 3588SOL    HW222227   3.334   1.712   9.006  0.3292 -0.2625  0.0315
 3589SOL     OW22228   1.179   0.982   5.526 -0.0063  0.7222 -0.6096
 3589SOL    HW122229   1.139   0.963   5.441 -0.6269  0.7332 -0.3204
 3589SOL    HW222230   1.097   0.994   5.574 -0.7662  1.1795 -1.9925
 3590SOL     OW22231   0.473   2.508   4.164  0.0017 -0.7533  0.4159
 3590SOL    HW122232   0.500   2.437   4.105 -0.2210  0.8704 -1.6495
 3590SOL    HW222233   0.501   2.465   4.245  0.2976  2.1930  1.8668
 3591SOL     OW22234   1.961   0.039   3.851 -0.3445 -0.0696 -0.0649
 3591SOL    HW122235   1.950   4.678   3.891  4.2898  0.2337  1.9266
 3591SOL    HW222236   2.012   0.013   3.774 -1.3843  1.5826 -1.3114
 3592SOL     OW22237   0.664   0.439  13.592  0.3565 -0.5312 -0.2222
 3592SOL    HW122238   0.708   0.368  13.545 -0.2139 -0.4706 -0.8364
 3592SOL    HW222239   0.737   0.485  13.633 -2.1275  3.1562  0.0551
 3593SOL     OW22240   3.941   2.256   9.111  0.3008 -0.0560 -0.2244
 3593SOL    HW122241   4.010   2.247   9.045  0.3593 -0.3137 -0.1309
 3593SOL    HW222242   3.972   2.327   9.167  1.2259 -0.9890  0.4345
 3594SOL     OW22243   1.570   2.714   4.845  0.6045 -0.2168  0.7117
 3594SOL    HW122244   1.488   2.729   4.797  2.1265  0.9295 -1.5577
 3594SOL    HW222245   1.586   2.620   4.846  1.4583 -0.1139 -2.2317
 3595SOL     OW22246   1.882   0.777   9.148 -0.2397 -0.2507  0.0918
 3595SOL    HW122247   1.862   0.842   9.216 -1.3953 -2.0330  1.4545
 3595SOL    HW222248   1.871   0.700   9.204 -0.6609  1.2778  2.1233
 3596SOL     OW22249   0.022   1.424   3.142 -0.0783  0.9120  0.3250
 3596SOL    HW122250   0.014   1.346   3.198 -3.5348 -2.0684 -4.2857
 3596SOL    HW222251   4.685   1.489   3.176 -0.1958 -0.9761  3.7066
 3597SOL     OW22252   1.086   0.357  15.920  0.2316 -0.4623 -0.9015
 3597SOL    HW122253   1.079   0.262  15.916  0.1718 -0.4377 -1.3786
 3597SOL    HW222254   0.992   0.368  15.908 -0.1031 -1.8954  0.4624
 3598SOL     OW22255   2.311   3.541   3.529  0.3823  0.4114 -0.1655
 3598SOL    HW122256   2.331   3.623   3.483 -1.7319  1.3671  0.5691
 3598SOL    HW222257   2.350   3.467   3.484 -0.7091 -0.1348 -0.2239
 3599SOL     OW22258   1.109   3.846   4.428 -0.7311 -0.1240  0.1980
 3599SOL    HW122259   1.137   3.872   4.340  1.0621  1.8153  1.3530
 3599SOL    HW222260   1.017   3.874   4.430  0.1592  2.7121  1.5020
 3600SOL     OW22261   1.067   4.152   7.367 -0.0292 -0.5960 -0.2784
 3600SOL    HW122262   1.111   4.152   7.452  1.4563 -1.2288 -1.0479
 3600SOL    HW222263   1.050   4.246   7.367  1.2467 -0.3552  0.4515
 3601SOL     OW22264   1.716   3.727   3.362  0.1278  0.5197  0.0369
 3601SOL    HW122265   1.682   3.782   3.292  0.9615 -0.7389 -1.3511
 3601SOL    HW222266   1.812   3.724   3.354 -0.0717 -1.5292 -1.3817
 3602SOL     OW22267   0.634   0.782   7.833 -0.0743 -0.3878 -0.5622
 3602SOL    HW122268   0.681   0.862   7.812 -0.9874  0.1383 -0.5935
 3602SOL    HW222269   0.665   0.770   7.923  3.5356 -0.2857 -1.8014
 3603SOL     OW22270   1.614   3.442   9.751  0.0221 -0.4822 -0.3179
 3603SOL    HW122271   1.611   3.381   9.825  0.3857 -0.6704 -0.4597
 3603SOL    HW222272   1.525   3.477   9.749  1.1399  2.2384 -1.1037
 3604SOL     OW22273   0.361   2.102   7.027  0.4038  0.1626 -0.5227
 3604SOL    HW122274   0.340   2.018   6.986  1.2148 -1.0473  1.5290
 3604SOL    HW222275   0.339   2.086   7.119 -0.9276  1.3201 -0.6312
 3605SOL     OW22276   0.068   2.820   8.170  0.3622  0.0137 -0.7037
 3605SOL    HW122277   4.707   2.799   8.133 -0.4846  2.6275 -0.2707
 3605SOL    HW222278   0.034   2.873   8.243 -0.5761  0.3251 -1.3591
 3606SOL     OW22279   3.815   2.811   3.540  0.4339 -0.0375 -0.4977
 3606SOL    HW122280   3.794   2.900   3.568 -0.4622 -0.4149  0.0180
 3606SOL    HW222281   3.748   2.758   3.583 -1.0708  0.3223 -2.4485
 3607SOL     OW22282   4.103   1.533  11.330  0.3735 -0.4526  0.2667
 3607SOL    HW122283   4.011   1.512  11.312 -0.1595  1.0094  1.3549
 3607SOL    HW222284   4.153   1.468  11.280 -0.1219 -0.7712  0.1861
 3608SOL     OW22285   3.424   0.835   7.354  0.3868  0.3851 -0.5592
 3608SOL    HW122286   3.421   0.769   7.422  0.2847  1.0437  0.0745
 3608SOL    HW222287   3.476   0.902   7.399 -0.1735  1.3573 -1.3430
 3609SOL     OW22288   1.394   0.266   2.323  0.0901 -0.2159  0.2423
 3609SOL    HW122289   1.325   0.269   2.256  1.1030  2.0090 -0.7011
 3609SOL    HW222290   1.418   0.174   2.322  0.4780 -0.1379  3.1779
 3610SOL     OW22291   4.447   0.832   3.885  0.2393 -0.2065 -0.0196
 3610SOL    HW122292   4.474   0.771   3.953  1.7169  1.2731  0.7214
 3610SOL    HW222293   4.369   0.797   3.843 -0.5472  0.8404  0.5839
 3611SOL     OW22294   1.573   2.127   2.688  0.3321  0.6126  1.1559
 3611SOL    HW122295   1.666   2.125   2.664 -0.4489  1.4877 -1.9904
 3611SOL    HW222296   1.529   2.110   2.604  0.5461  0.8414  0.9962
 3612SOL     OW22297   1.571   0.819   5.728  0.1652  0.8106  0.4590
 3612SOL    HW122298   1.648   0.765   5.709 -0.8210  0.0256 -1.3186
 3612SOL    HW222299   1.505   0.773   5.676 -0.7609  0.2516  2.1296
 3613SOL     OW22300   4.376   4.629   4.732 -0.5702 -0.1177 -0.2981
 3613SOL    HW122301   4.466   4.604   4.753 -0.2993  0.1014 -1.1779
 3613SOL    HW222302   4.356   4.587   4.648  0.2834 -0.3582 -0.3811
 3614SOL     OW22303   2.592   3.668   5.542  0.1191  0.1541 -0.2418
 3614SOL    HW122304   2.544   3.597   5.584 -0.5941  1.3090  0.9132
 3614SOL    HW222305   2.668   3.678   5.599 -1.5996 -3.4121  2.6231
 3615SOL     OW22306   2.578   1.545   4.781  0.1922 -0.5483  0.5032
 3615SOL    HW122307   2.556   1.479   4.846  0.6036 -0.3281  0.8639
 3615SOL    HW222308   2.533   1.622   4.815  0.5668  0.9747 -2.4128
 3616SOL     OW22309   0.320   4.069   2.041 -0.4467 -0.1130 -0.5772
 3616SOL    HW122310   0.271   4.087   2.121 -2.0082 -1.7494 -1.1483
 3616SOL    HW222311   0.371   4.150   2.035 -1.3307  0.3650 -1.6158
 3617SOL     OW22312   3.175   1.173   3.271  0.2008 -0.1072 -0.3136
 3617SOL    HW122313   3.261   1.215   3.283 -1.9720  4.0966  0.4287
 3617SOL    HW222314   3.124   1.254   3.262  0.2801  0.0261  0.4117
 3618SOL     OW22315   2.978   1.553   4.309  0.1149 -0.2315 -0.4358
 3618SOL    HW122316   2.988   1.558   4.404 -2.2714  1.5417 -0.2748
 3618SOL    HW222317   2.931   1.474   4.282 -0.9938 -0.0692  1.0353
 3619SOL     OW22318   1.963   2.141   2.398  0.2368 -0.3493  0.4679
 3619SOL    HW122319   2.002   2.088   2.329 -0.5728  1.2763 -1.2322
 3619SOL    HW222320   1.931   2.213   2.344 -1.8264 -1.0158  0.8116
 3620SOL     OW22321   1.762   3.194   2.842 -0.2668  0.8640  0.2620
 3620SOL    HW122322   1.734   3.283   2.861 -0.3121  0.5075  1.8661
 3620SOL    HW222323   1.717   3.176   2.760  0.9110 -2.2043  0.2744
 3621SOL     OW22324   2.737   0.275   5.906  0.1161 -0.1340 -0.1286
 3621SOL    HW122325   2.689   0.210   5.958  1.0601 -1.1205 -0.4758
 3621SOL    HW222326   2.683   0.283   5.827 -0.8517  2.4599  0.8185
 3622SOL     OW22327   1.826   4.539   6.866  0.2182  0.1999 -0.2610
 3622SOL    HW122328   1.777   4.495   6.796  0.2016 -1.3373  0.7431
 3622SOL    HW222329   1.843   4.474   6.934  1.5762  3.0368  2.1333
 3623SOL     OW22330   1.435   2.003  13.195 -0.1886 -0.6389  0.3383
 3623SOL    HW122331   1.440   2.021  13.288  3.4999  1.5502 -0.2922
 3623SOL    HW222332   1.426   2.094  13.165  1.8118 -0.8422 -0.8571
 3624SOL     OW22333   4.517   1.237  16.486 -0.6168 -0.1472 -0.4283
 3624SOL    HW122334   4.586   1.178  16.454  0.9960  0.6945  1.4978
 3624SOL    HW222335   4.513   1.303  16.416  0.9621  0.2766 -0.1290
 3625SOL     OW22336   0.845   2.227   5.186  0.0750 -0.1431  0.1258
 3625SOL    HW122337   0.858   2.140   5.225  0.9414 -0.1182 -0.1048
 3625SOL    HW222338   0.812   2.269   5.266  0.8875 -2.9965  1.9623
 3626SOL     OW22339   3.165   0.849  16.827 -0.5083 -0.4693 -0.0622
 3626SOL    HW122340   3.092   0.788  16.829  0.1593 -1.2167  1.3416
 3626SOL    HW222341   3.124   0.934  16.812  1.1023  0.4036  0.5058
 3627SOL     OW22342   0.288   3.627   0.531 -0.4910  0.3180 -0.5430
 3627SOL    HW122343   0.274   3.533   0.544  2.4499 -0.4534 -2.9782
 3627SOL    HW222344   0.299   3.628   0.436  1.3945  0.6092 -0.3235
 3628SOL     OW22345   1.004   3.509   0.896  0.1445  0.4689  0.7842
 3628SOL    HW122346   1.024   3.499   0.802 -0.2395 -0.2629  0.7808
 3628SOL    HW222347   1.007   3.419   0.928  1.6456 -0.3419 -1.6027
 3629SOL     OW22348   0.209   2.656   5.945  0.1997  0.2062 -0.0532
 3629SOL    HW122349   0.226   2.623   5.857  0.6407  1.5066 -0.4536
 3629SOL    HW222350   0.279   2.621   6.001  1.8970 -0.3802 -2.5510
 3630SOL     OW22351   3.977   0.595   1.997 -0.2287 -0.2613  0.4265
 3630SOL    HW122352   3.889   0.609   1.963  0.6555  4.2688 -0.0007
 3630SOL    HW222353   3.962   0.647   2.076 -0.8251  0.4460 -0.1608
 3631SOL     OW22354   0.916   3.112   4.443  0.2445  0.0801 -0.2369
 3631SOL    HW122355   0.896   3.152   4.528 -0.6663 -0.2205 -0.3135
 3631SOL    HW222356   0.838   3.131   4.392 -0.4680 -2.3003 -0.0673
 3632SOL     OW22357   1.681   0.921   9.586  0.2880 -0.4904 -0.2762
 3632SOL    HW122358   1.726   0.837   9.580 -0.7428 -1.0843  0.3971
 3632SOL    HW222359   1.682   0.953   9.496 -0.4613  2.1419  0.6411
 3633SOL     OW22360   1.693   4.688  14.996  0.6204 -0.3916  0.1116
 3633SOL    HW122361   1.640   0.029  15.041  0.2340  0.4875 -1.6250
 3633SOL    HW222362   1.624   4.630  14.965 -0.4600  0.9699 -0.0251
 3634SOL     OW22363   0.941   2.308   6.120  0.2217  0.5485 -0.3410
 3634SOL    HW122364   0.920   2.291   6.028  0.0410 -0.1254 -0.1741
 3634SOL    HW222365   1.032   2.281   6.130  0.9286  2.7382 -0.9409
 3635SOL     OW22366   3.567   2.146   1.822  0.1083 -0.4188  0.2460
 3635SOL    HW122367   3.541   2.092   1.897 -0.0344 -0.3735  0.2286
 3635SOL    HW222368   3.499   2.213   1.826  1.9571  1.4389  0.6605
 3636SOL     OW22369   0.726   2.251  11.567 -0.1710  0.3304 -0.0336
 3636SOL    HW122370   0.768   2.264  11.481  0.5375 -0.3591  0.2031
 3636SOL    HW222371   0.798   2.213  11.618  0.2651  0.6634 -0.3919
 3637SOL     OW22372   4.500   2.959   7.097 -0.3828  0.1580  0.4722
 3637SOL    HW122373   4.559   2.892   7.133 -0.6600  0.0798  0.7844
 3637SOL    HW222374   4.515   2.947   7.003 -1.0928  3.5108 -0.0539
 3638SOL     OW22375   3.518   3.359   4.945  0.0580 -0.3921  0.2392
 3638SOL    HW122376   3.465   3.323   5.016  0.6475  0.9480  1.3561
 3638SOL    HW222377   3.575   3.423   4.987 -0.3887 -0.4560  0.9355
 3639SOL     OW22378   3.935   1.098  10.735  0.2688  0.1875  0.2138
 3639SOL    HW122379   3.892   1.134  10.658 -0.4327  1.6603  1.3073
 3639SOL    HW222380   3.859   1.105  10.792  0.4602  1.5986  0.2904
 3640SOL     OW22381   0.045   4.172  16.030  0.0530  0.2076 -0.4960
 3640SOL    HW122382   0.010   4.083  16.038 -1.1034  0.7243  0.2045
 3640SOL    HW222383   4.718   4.234  16.081  1.0605 -1.2691  2.3106
 3641SOL     OW22384   2.121   0.283   0.805 -0.2882 -0.0943 -0.0125
 3641SOL    HW122385   2.117   0.271   0.900 -1.2451  1.7862  0.1854
 3641SOL    HW222386   2.106   0.198   0.764 -1.3976 -0.0238  0.2328
 3642SOL     OW22387   2.558   1.691   7.226 -0.3091  0.0607  0.2347
 3642SOL    HW122388   2.616   1.744   7.280  2.2156 -3.4900  0.9927
 3642SOL    HW222389   2.488   1.666   7.287  1.5172 -0.9709  1.9158
 3643SOL     OW22390   1.252   3.878   3.290 -0.0022 -0.1706 -1.3165
 3643SOL    HW122391   1.232   3.811   3.225 -2.5212  0.4939 -1.2182
 3643SOL    HW222392   1.300   3.823   3.353 -1.9102  0.5942  0.8250
 3644SOL     OW22393   0.218   2.659   2.400 -0.4830 -0.2711 -0.3994
 3644SOL    HW122394   0.186   2.579   2.358 -0.1043  0.7442 -2.6376
 3644SOL    HW222395   0.271   2.706   2.336  1.0145 -1.4538 -0.0410
 3645SOL     OW22396   0.228   1.533   5.321  0.2365  0.1743 -0.2694
 3645SOL    HW122397   0.195   1.449   5.290  1.1626  0.2389 -1.4401
 3645SOL    HW222398   0.231   1.594   5.247  1.7005 -0.1605 -0.4773
 3646SOL     OW22399   3.636   1.620  13.691  0.0683  0.1620  0.3600
 3646SOL    HW122400   3.545   1.597  13.671  0.6594 -0.6430 -1.4012
 3646SOL    HW222401   3.625   1.661  13.777 -0.4706  0.9634 -0.0907
 3647SOL     OW22402   0.732   1.454  16.185  0.4333  0.4432  0.2021
 3647SOL    HW122403   0.679   1.508  16.127 -0.5554  0.0673  0.7419
 3647SOL    HW222404   0.821   1.470  16.155  0.1430 -0.5058 -1.1815
 3648SOL     OW22405   3.883   1.551   3.460 -0.2481  0.1710  0.2909
 3648SOL    HW122406   3.971   1.534   3.426  0.2744 -1.0358  2.2897
 3648SOL    HW222407   3.879   1.486   3.530  0.2564 -0.0598  0.1056
 3649SOL     OW22408   1.003   1.635   3.967 -0.0026  0.2119  0.2077
 3649SOL    HW122409   1.018   1.701   3.899 -2.8182  1.6644  0.9992
 3649SOL    HW222410   0.929   1.589   3.928  1.3565 -1.7160 -0.1197
 3650SOL     OW22411   4.252   1.730  15.617  0.3815 -0.1560  0.1419
 3650SOL    HW122412   4.227   1.674  15.543 -1.4262 -0.9345  1.3527
 3650SOL    HW222413   4.331   1.772  15.583 -0.0301 -0.6053 -1.3869
 3651SOL     OW22414   2.237   3.510   3.048 -0.3889  0.2988  0.1821
 3651SOL    HW122415   2.276   3.597   3.041  1.6250 -0.4849  1.5814
 3651SOL    HW222416   2.309   3.448   3.042 -0.5100 -0.0343  2.2527
 3652SOL     OW22417   0.364   2.247   6.380  0.1664 -0.2567 -0.2742
 3652SOL    HW122418   0.409   2.269   6.461  0.3210  1.6655 -0.8882
 3652SOL    HW222419   0.363   2.151   6.372 -0.1305 -0.2487 -0.3614
 3653SOL     OW22420   3.844   3.987  11.554  0.2152 -0.0545  0.3369
 3653SOL    HW122421   3.795   3.966  11.634  0.0996  0.5059  0.4107
 3653SOL    HW222422   3.839   4.082  11.546 -2.3707 -0.1528  0.5580
 3654SOL     OW22423   2.872   1.321  13.117 -0.3356 -0.0382 -0.1979
 3654SOL    HW122424   2.783   1.297  13.092  0.2566 -2.7217  0.3221
 3654SOL    HW222425   2.908   1.236  13.144 -0.5326 -0.2350 -0.5491
 3655SOL     OW22426   3.683   1.431   9.419  0.1664  0.1993 -0.4268
 3655SOL    HW122427   3.642   1.451   9.335 -0.6725 -3.0163 -0.7480
 3655SOL    HW222428   3.750   1.500   9.414 -0.2506  0.6527  0.2644
 3656SOL     OW22429   1.267   0.489  15.764 -0.0971  0.2440 -0.1579
 3656SOL    HW122430   1.285   0.415  15.706 -1.2872 -0.1950  0.0350
 3656SOL    HW222431   1.192   0.453  15.811  1.1641  0.3182  1.9551
 3657SOL     OW22432   0.810   1.039  10.364  0.1819 -0.4540  0.1570
 3657SOL    HW122433   0.850   1.038  10.277  0.5336 -2.5067  0.3484
 3657SOL    HW222434   0.718   1.062  10.348  0.9392  1.5792 -1.2365
 3658SOL     OW22435   1.901   1.954   3.432 -0.3484  0.0538  0.3223
 3658SOL    HW122436   1.951   2.033   3.453 -2.3150  1.8765 -1.9078
 3658SOL    HW222437   1.886   1.912   3.517 -0.1428 -2.4136 -0.8525
 3659SOL     OW22438   3.589   0.643   2.429 -0.0119  0.5762  0.2446
 3659SOL    HW122439   3.575   0.730   2.467 -0.5853  0.5823  0.0223
 3659SOL    HW222440   3.514   0.599   2.469  0.7077 -1.3668 -0.5834
 3660SOL     OW22441   3.294   1.648   8.193 -0.3423  0.5613 -0.0850
 3660SOL    HW122442   3.316   1.735   8.160  0.9367 -0.1403 -1.0872
 3660SOL    HW222443   3.361   1.595   8.151 -0.4702 -0.9315  1.5909
 3661SOL     OW22444   3.112   2.278   2.679  0.3081 -0.3185 -0.4109
 3661SOL    HW122445   3.121   2.237   2.765 -1.7636 -0.9705 -0.4913
 3661SOL    HW222446   3.200   2.271   2.641  0.6767 -0.6789  0.5098
 3662SOL     OW22447   0.737   4.038   2.905 -0.0262 -0.1907  0.1135
 3662SOL    HW122448   0.757   4.128   2.881  0.6517 -0.0584  1.1807
 3662SOL    HW222449   0.789   4.033   2.985  2.2328  0.3640 -1.3275
 3663SOL     OW22450   4.454   4.384   9.586  0.1152 -0.4597  0.4180
 3663SOL    HW122451   4.447   4.477   9.607  1.7524  0.5081 -3.2704
 3663SOL    HW222452   4.384   4.385   9.521  0.4570  1.0271  0.0764
 3664SOL     OW22453   0.635   0.117   8.508 -0.2230 -0.1366 -0.2249
 3664SOL    HW122454   0.614   0.121   8.415 -0.2388 -1.8563 -0.2954
 3664SOL    HW222455   0.608   0.027   8.526 -1.5287  0.6993  1.8956
 3665SOL     OW22456   3.101   1.583  17.084 -0.3692  0.0378 -1.0076
 3665SOL    HW122457   3.011   1.569  17.111 -0.3494  1.4914 -0.1992
 3665SOL    HW222458   3.098   1.651  17.017 -0.2890 -0.0973 -1.1498
 3666SOL     OW22459   4.623   2.900   2.804  0.0420  0.3959 -0.0667
 3666SOL    HW122460   4.706   2.945   2.794  0.7104 -1.2778 -2.0552
 3666SOL    HW222461   4.596   2.959   2.875  1.7569  1.8757 -0.6457
 3667SOL     OW22462   0.599   3.553  15.661 -0.3274 -0.2484 -0.0674
 3667SOL    HW122463   0.533   3.511  15.716  0.0862  0.7698  1.1942
 3667SOL    HW222464   0.598   3.639  15.701 -3.4746 -0.4162  0.2537
 3668SOL     OW22465   2.837   4.552   4.715  0.8753  0.4096 -0.4745
 3668SOL    HW122466   2.905   4.551   4.648  2.4553  0.7777  1.1137
 3668SOL    HW222467   2.856   4.484   4.779 -1.3433 -0.0488 -0.3157
 3669SOL     OW22468   1.198   2.841  15.754 -0.3408  0.3090  0.0593
 3669SOL    HW122469   1.237   2.755  15.764 -0.3452  0.3719  0.6133
 3669SOL    HW222470   1.178   2.862  15.845 -0.7867 -2.4265  0.5871
 3670SOL     OW22471   1.323   0.693   6.227 -0.0394  0.0099  0.2514
 3670SOL    HW122472   1.273   0.704   6.307  2.0516  1.6769  1.3340
 3670SOL    HW222473   1.310   0.777   6.184 -2.7975 -1.0877 -1.0403
 3671SOL     OW22474   1.696   0.035   7.139  0.0038  0.0665  0.1710
 3671SOL    HW122475   1.652   4.706   7.073 -0.6672  0.6849  0.1118
 3671SOL    HW222476   1.695   4.700   7.213 -0.9014 -1.1981 -0.8612
 3672SOL     OW22477   0.916   3.383   6.393  0.0877  1.6624  0.4967
 3672SOL    HW122478   0.938   3.394   6.486 -1.2980 -1.4476  1.2140
 3672SOL    HW222479   0.837   3.329   6.402  0.7379  0.3733 -1.5394
 3673SOL     OW22480   3.324   3.788   4.844 -0.2150 -0.5379  0.2035
 3673SOL    HW122481   3.332   3.834   4.928  1.6582  1.3684 -1.0299
 3673SOL    HW222482   3.406   3.738   4.839  1.0256  1.5029 -0.0252
 3674SOL     OW22483   1.612   4.129   8.749 -0.1905 -0.5509  0.1151
 3674SOL    HW122484   1.649   4.159   8.832  1.6564 -1.6867 -0.3099
 3674SOL    HW222485   1.693   4.147   8.702 -0.4525 -0.0058 -0.1301
 3675SOL     OW22486   3.448   1.317   5.255  0.3550  0.1277  0.2697
 3675SOL    HW122487   3.473   1.381   5.188  1.7417 -1.5874 -0.8606
 3675SOL    HW222488   3.353   1.324   5.264  0.1683 -3.4739  1.0946
 3676SOL     OW22489   0.722   1.965   2.327 -0.7895  0.2301 -0.3099
 3676SOL    HW122490   0.703   1.949   2.235  0.4678  1.6692 -0.8161
 3676SOL    HW222491   0.634   1.966   2.365 -0.6267 -0.3646  0.0897
 3677SOL     OW22492   4.131   1.918   7.804 -0.6166  0.4247  0.3526
 3677SOL    HW122493   4.152   1.971   7.880 -3.3684 -0.8128  1.9453
 3677SOL    HW222494   4.204   1.857   7.819 -0.9395 -0.0343  0.0640
 3678SOL     OW22495   4.328   2.017   5.065  0.2884  0.0038  0.1280
 3678SOL    HW122496   4.398   1.956   5.089 -0.4866 -1.2144 -0.7297
 3678SOL    HW222497   4.312   1.990   4.974 -2.7755 -0.2640  0.7336
 3679SOL     OW22498   4.256   1.797   4.016 -0.3500  0.5308 -0.0473
 3679SOL    HW122499   4.200   1.798   3.938 -1.3090  1.6619  0.6531
 3679SOL    HW222500   4.195   1.755   4.077  1.9485 -0.4514  1.5940
 3680SOL     OW22501   1.379   0.445  16.682  0.6031 -0.0381  0.2302
 3680SOL    HW122502   1.351   0.354  16.690  0.4387  0.2371  2.7811
 3680SOL    HW222503   1.402   0.472  16.771 -0.6075  0.4936  0.3779
 3681SOL     OW22504   1.670   0.982   3.150 -0.9358  0.1303  0.1432
 3681SOL    HW122505   1.697   0.973   3.059 -1.7444  0.1043 -0.1000
 3681SOL    HW222506   1.657   0.892   3.181 -3.0405  0.1480 -0.6806
 3682SOL     OW22507   3.434   1.739   7.420  0.1801  0.0105 -0.0946
 3682SOL    HW122508   3.487   1.660   7.426  1.3083  0.8341  0.8589
 3682SOL    HW222509   3.366   1.735   7.487 -1.0215 -1.7021 -1.4218
 3683SOL     OW22510   3.810   0.106  17.303  0.7613 -0.3678  0.6920
 3683SOL    HW122511   3.742   0.044  17.329  1.6250 -0.4440  2.7953
 3683SOL    HW222512   3.780   0.183  17.352  0.8825 -0.8962  1.5832
 3684SOL     OW22513   2.956   1.666  15.790 -0.2632 -0.3001 -0.0045
 3684SOL    HW122514   2.952   1.723  15.714  0.9237  0.9693  0.8888
 3684SOL    HW222515   3.009   1.591  15.764  1.6012 -0.2104  3.5782
 3685SOL     OW22516   2.121   0.796   0.950  0.2107 -0.5484  0.3102
 3685SOL    HW122517   2.039   0.763   0.912 -0.0539  0.0892  0.3276
 3685SOL    HW222518   2.158   0.712   0.977  0.4289 -0.9980 -1.3461
 3686SOL     OW22519   3.798   3.624   9.743  0.6620 -0.1405 -0.2968
 3686SOL    HW122520   3.858   3.563   9.700  1.5418  1.0507 -0.7745
 3686SOL    HW222521   3.719   3.602   9.694 -0.7542  1.5490  1.2292
 3687SOL     OW22522   1.825   4.356   6.142 -0.0780 -0.4686  0.0282
 3687SOL    HW122523   1.841   4.408   6.221  0.2420  0.9277 -0.9464
 3687SOL    HW222524   1.756   4.303   6.182 -0.7512 -0.2740 -0.8901
 3688SOL     OW22525   4.442   0.539  15.755 -0.4879  0.1225 -0.0603
 3688SOL    HW122526   4.470   0.554  15.845  1.5157  2.1806 -1.0023
 3688SOL    HW222527   4.390   0.461  15.770 -0.7513  0.6764  1.8603
 3689SOL     OW22528   1.056   1.459   5.979 -0.6278 -0.2469  0.3154
 3689SOL    HW122529   1.083   1.550   5.963  0.1826 -0.3532  1.0770
 3689SOL    HW222530   1.083   1.440   6.069  0.2107 -1.3770 -0.1812
 3690SOL     OW22531   3.791   0.396   9.343 -0.5957 -0.1059  0.3119
 3690SOL    HW122532   3.871   0.342   9.345 -0.8976 -0.6817 -3.0591
 3690SOL    HW222533   3.829   0.465   9.398 -1.8106  1.7443 -1.1921
 3691SOL     OW22534   3.070   2.384   4.110 -0.0622 -0.1914 -0.2356
 3691SOL    HW122535   3.043   2.402   4.020  2.3780 -0.4061 -1.0305
 3691SOL    HW222536   3.121   2.464   4.127 -0.9381  0.9131 -2.9031
 3692SOL     OW22537   1.026   0.495   5.014 -0.1083  0.5079 -1.0483
 3692SOL    HW122538   1.110   0.459   4.985  0.4306  1.9339 -1.2370
 3692SOL    HW222539   1.037   0.589   4.999 -0.8671  0.4164 -2.1811
 3693SOL     OW22540   0.290   1.412   7.075  0.7599  0.1203  1.0711
 3693SOL    HW122541   0.333   1.430   7.158  2.2205  1.2102  0.0731
 3693SOL    HW222542   0.361   1.363   7.034  0.6915  0.7766  0.1689
 3694SOL     OW22543   3.867   0.299  13.874  0.1894  1.1903 -0.1723
 3694SOL    HW122544   3.941   0.290  13.813  0.7888 -0.5008  0.8125
 3694SOL    HW222545   3.857   0.206  13.894 -0.1471  1.0803 -0.8488
 3695SOL     OW22546   4.402   4.042   3.154 -0.2665 -0.4000  0.1574
 3695SOL    HW122547   4.330   4.048   3.217 -1.0578 -2.3743 -0.5691
 3695SOL    HW222548   4.477   4.074   3.204  0.7434 -0.8987 -1.0566
 3696SOL     OW22549   1.436   1.438   4.528  0.7485  0.0150  0.0388
 3696SOL    HW122550   1.411   1.512   4.472 -0.8584  0.0398  0.8088
 3696SOL    HW222551   1.439   1.365   4.466 -1.8298 -0.9787  1.0796
 3697SOL     OW22552   0.870   1.559  14.779 -0.6438  0.2031 -0.7464
 3697SOL    HW122553   0.856   1.586  14.870  2.5851  0.8945 -0.4270
 3697SOL    HW222554   0.940   1.495  14.793  0.5663  1.6961 -0.0065
 3698SOL     OW22555   2.117   0.149   6.792  0.7858  0.4031 -0.1146
 3698SOL    HW122556   2.148   0.214   6.729  0.9880  0.7436  0.3377
 3698SOL    HW222557   2.023   0.156   6.776  1.0054  0.8435 -1.2095
 3699SOL     OW22558   4.073   3.647   9.352 -0.1854 -0.4116 -0.1011
 3699SOL    HW122559   4.081   3.672   9.444 -0.9166  2.6319 -0.8730
 3699SOL    HW222560   4.086   3.728   9.303  1.9732 -0.9610 -0.4326
 3700SOL     OW22561   3.048   4.323   4.233 -0.2160 -0.4675  0.2395
 3700SOL    HW122562   2.966   4.332   4.282 -1.5944  0.6421 -2.3096
 3700SOL    HW222563   3.068   4.415   4.220 -0.2713 -0.7201 -1.5828
 3701SOL     OW22564   3.601   2.732   5.881 -0.0169  0.1048 -0.5044
 3701SOL    HW122565   3.608   2.774   5.795  1.1046 -0.9983 -0.9519
 3701SOL    HW222566   3.605   2.643   5.847 -1.0553  0.2055 -0.9035
 3702SOL     OW22567   4.619   0.783  12.098 -0.0003 -0.9180 -0.0219
 3702SOL    HW122568   4.665   0.705  12.068  3.3502  1.2091 -0.3997
 3702SOL    HW222569   4.620   0.765  12.192 -0.3520  2.1222  0.5700
 3703SOL     OW22570   4.394   1.608   5.616 -0.6685  0.5466  0.0972
 3703SOL    HW122571   4.310   1.652   5.608 -1.0885 -0.4706 -1.1439
 3703SOL    HW222572   4.389   1.569   5.703 -1.0575  2.4503  0.9251
 3704SOL     OW22573   1.183   3.122   6.843  0.1341  0.1517  0.2192
 3704SOL    HW122574   1.088   3.107   6.840 -0.2941  2.8770  0.4204
 3704SOL    HW222575   1.192   3.195   6.782  1.0473 -0.5622 -0.5020
 3705SOL     OW22576   4.148   3.611   1.483  0.3974  0.0411 -0.4057
 3705SOL    HW122577   4.161   3.632   1.391 -1.3149 -5.2885 -1.8822
 3705SOL    HW222578   4.057   3.587   1.468  0.2092  1.4931 -1.5127
 3706SOL     OW22579   2.917   3.415   3.294 -0.3767 -0.0247 -0.3099
 3706SOL    HW122580   2.995   3.383   3.338  0.5997  0.7158 -1.5123
 3706SOL    HW222581   2.921   3.502   3.332  0.6451 -0.2594  0.0966
 3707SOL     OW22582   4.421   2.610  15.528 -0.5302  0.7742 -0.4076
 3707SOL    HW122583   4.474   2.687  15.509 -3.1290  2.2211 -1.8410
 3707SOL    HW222584   4.489   2.545  15.544 -1.5998 -0.3253 -0.3493
 3708SOL     OW22585   4.305   2.493   1.177 -0.3476  0.1380  0.0835
 3708SOL    HW122586   4.366   2.424   1.204  0.6465  0.9140 -0.1725
 3708SOL    HW222587   4.276   2.520   1.263 -0.5556 -1.3207  0.4797
 3709SOL     OW22588   1.145   1.070   6.487 -0.3432  0.6233 -0.3929
 3709SOL    HW122589   1.062   1.093   6.529  0.0058  0.9774  0.1052
 3709SOL    HW222590   1.123   0.993   6.436 -0.2534  0.8294 -0.7469
 3710SOL     OW22591   1.969   3.276   3.044  0.5465  0.7882  0.0509
 3710SOL    HW122592   1.901   3.338   3.016 -0.1698 -0.1712 -0.3091
 3710SOL    HW222593   1.982   3.216   2.970  0.2019  0.8506 -0.0590
 3711SOL     OW22594   2.808   2.193  14.637 -0.6604  0.4161  0.3540
 3711SOL    HW122595   2.806   2.284  14.667 -0.5109 -0.4164  2.9151
 3711SOL    HW222596   2.824   2.189  14.543  0.3147  2.7103  0.4195
 3712SOL     OW22597   3.744   2.451   4.248 -0.5090 -0.3092 -0.0385
 3712SOL    HW122598   3.695   2.517   4.298  1.0542 -0.5617  1.8521
 3712SOL    HW222599   3.835   2.481   4.256 -0.9896  1.5485 -1.8113
 3713SOL     OW22600   1.819   3.914   2.828  0.1043 -0.5882  0.1823
 3713SOL    HW122601   1.844   3.885   2.916 -1.5900 -1.3164  0.4087
 3713SOL    HW222602   1.853   3.847   2.769  0.6818  0.9040 -1.1938
 3714SOL     OW22603   4.085   1.894  11.103 -0.6506 -0.1238  0.1875
 3714SOL    HW122604   4.080   1.912  11.009  1.3725 -0.1651  0.0802
 3714SOL    HW222605   4.133   1.812  11.090  0.7828  0.8502 -0.6049
 3715SOL     OW22606   3.625   1.662   5.440  0.2966  0.4938  0.1921
 3715SOL    HW122607   3.542   1.616   5.428 -0.7546  2.7283 -1.1830
 3715SOL    HW222608   3.612   1.695   5.529  0.9695  1.0823  0.0779
 3716SOL     OW22609   3.005   3.274   0.738  0.0933  0.5657 -0.5259
 3716SOL    HW122610   2.977   3.344   0.680 -1.8043 -0.7490 -1.2187
 3716SOL    HW222611   3.099   3.290   0.743  0.0230  0.8187  0.0588
 3717SOL     OW22612   1.963   0.667   5.137  0.3282 -0.1417 -0.0639
 3717SOL    HW122613   1.942   0.745   5.189 -2.7354 -0.6633 -0.5065
 3717SOL    HW222614   2.043   0.691   5.090  0.3674 -0.5260 -0.1937
 3718SOL     OW22615   4.564   1.274   9.216 -0.2240  0.3461  0.4590
 3718SOL    HW122616   4.590   1.183   9.199  0.2511  0.7820 -1.1059
 3718SOL    HW222617   4.650   1.303   9.245 -0.5898  1.5384  0.3335
 3719SOL     OW22618   4.554   2.279   4.202  0.2501  0.1056 -0.1507
 3719SOL    HW122619   4.577   2.309   4.290  1.5848  1.2214 -0.8683
 3719SOL    HW222620   4.459   2.293   4.198  0.2849 -0.2418 -2.1405
 3720SOL     OW22621   3.565   1.480   5.067  1.0454 -0.4112  1.1514
 3720SOL    HW122622   3.541   1.563   5.026 -3.4631 -1.6133  1.3712
 3720SOL    HW222623   3.660   1.486   5.055  0.5237  0.5275 -2.4478
 3721SOL     OW22624   2.178   2.916   6.672 -0.0392  0.3224  0.1567
 3721SOL    HW122625   2.083   2.915   6.676 -0.1113 -0.2361 -1.8933
 3721SOL    HW222626   2.205   2.917   6.764  2.5257  0.6502 -0.5758
 3722SOL     OW22627   2.800   2.988   3.665  0.4949  0.1275  0.4128
 3722SOL    HW122628   2.812   2.915   3.726  1.4752 -0.6272 -0.6872
 3722SOL    HW222629   2.736   2.949   3.605 -1.4286  0.2630  2.3746
 3723SOL     OW22630   0.805   0.331   6.689 -0.2048  0.4393 -0.2736
 3723SOL    HW122631   0.872   0.397   6.707 -1.0714  1.6574 -1.5216
 3723SOL    HW222632   0.728   0.376   6.724  0.9201  1.3495  1.0490
 3724SOL     OW22633   3.459   3.386   2.695  0.0711  0.3256 -0.4969
 3724SOL    HW122634   3.488   3.454   2.634 -1.2831  1.6290  0.3348
 3724SOL    HW222635   3.546   3.371   2.732 -0.2914  1.0673  0.6358
 3725SOL     OW22636   0.277   3.878   5.330 -0.1330 -0.3735 -0.3845
 3725SOL    HW122637   0.208   3.881   5.397  0.6304  0.1972  0.3823
 3725SOL    HW222638   0.322   3.795   5.349  0.4684 -0.1740 -0.9487
 3726SOL     OW22639   0.107   1.069   6.993  0.9940  0.0795 -0.0019
 3726SOL    HW122640   0.035   1.012   7.020  1.6710 -0.5867  0.3925
 3726SOL    HW222641   0.129   1.117   7.072 -2.0927  0.6317  0.5493
 3727SOL     OW22642   0.125   2.701   4.212  0.1208  0.0320  0.0581
 3727SOL    HW122643   0.155   2.721   4.124 -0.3546 -1.8691 -0.5340
 3727SOL    HW222644   0.085   2.784   4.238 -1.9136 -0.5349 -1.2533
 3728SOL     OW22645   4.439   4.026  16.108 -0.7228  0.4487 -0.0884
 3728SOL    HW122646   4.473   4.074  16.183 -1.8148  0.2903  0.4939
 3728SOL    HW222647   4.518   3.974  16.093 -0.9447  0.3993 -1.1047
 3729SOL     OW22648   3.562   1.665   9.959  0.3024 -0.1034 -0.5209
 3729SOL    HW122649   3.639   1.679   9.903  2.2648 -0.3721  2.1292
 3729SOL    HW222650   3.497   1.725   9.922  0.4748  1.1628  1.2594
 3730SOL     OW22651   4.522   3.162  10.728  0.1797 -0.1743  0.1025
 3730SOL    HW122652   4.450   3.167  10.791  1.4635 -0.7293  1.6186
 3730SOL    HW222653   4.527   3.249  10.689 -0.8731  0.4524  1.3730
 3731SOL     OW22654   3.799   3.383   4.289 -0.2034 -0.2956 -0.5134
 3731SOL    HW122655   3.713   3.361   4.252 -1.0259  0.2434  1.0994
 3731SOL    HW222656   3.858   3.315   4.257  0.4939  0.1538 -0.1623
 3732SOL     OW22657   3.213   3.355   3.112  0.0639  0.3857  0.6307
 3732SOL    HW122658   3.124   3.390   3.108  0.8609  2.4397  0.8546
 3732SOL    HW222659   3.254   3.408   3.044 -0.0903  0.9346  0.9616
 3733SOL     OW22660   3.479   0.247   7.846  0.3351 -0.0252  0.0826
 3733SOL    HW122661   3.456   0.294   7.926 -0.5399  0.4358 -0.4484
 3733SOL    HW222662   3.408   0.184   7.834 -0.1289  0.7703 -1.3513
 3734SOL     OW22663   0.621   4.574   8.529  0.0979  0.2207 -0.2046
 3734SOL    HW122664   0.699   4.561   8.475 -0.8274 -1.0586 -1.2577
 3734SOL    HW222665   0.578   4.489   8.533 -0.1684  0.3869  0.4536
 3735SOL     OW22666   1.216   1.738   6.478 -0.2803 -0.0780  0.0664
 3735SOL    HW122667   1.288   1.801   6.477 -0.0494 -0.3300  0.4225
 3735SOL    HW222668   1.267   1.663   6.509  0.4812 -0.0421 -1.0957
 3736SOL     OW22669   4.563   2.948  10.229  0.6196 -0.4724 -0.8098
 3736SOL    HW122670   4.492   2.888  10.208 -0.9689  1.0121  0.4088
 3736SOL    HW222671   4.612   2.898  10.294 -1.7376 -2.3885 -0.5164
 3737SOL     OW22672   3.111   0.224   2.232 -0.1957 -0.6193 -0.0816
 3737SOL    HW122673   3.069   0.143   2.204 -0.0454 -0.8246  0.2890
 3737SOL    HW222674   3.086   0.286   2.163  2.1020  1.6617  1.1404
 3738SOL     OW22675   0.706   4.384   1.764 -0.1556 -0.0265 -0.2894
 3738SOL    HW122676   0.757   4.335   1.700  2.8048  1.3261  1.0644
 3738SOL    HW222677   0.780   4.403   1.822 -1.6028 -1.8082  2.1626
 3739SOL     OW22678   4.285   4.616   7.897  0.1235 -0.3888  0.5201
 3739SOL    HW122679   4.311   4.681   7.832 -4.0873  2.4885  1.7455
 3739SOL    HW222680   4.190   4.613   7.885  0.2934  1.1486 -1.0907
 3740SOL     OW22681   4.242   1.227   7.096  0.1477 -0.3517  0.0160
 3740SOL    HW122682   4.225   1.273   7.179 -0.7594  1.4375 -1.1687
 3740SOL    HW222683   4.295   1.153   7.128 -0.3157 -0.6745  0.0414
 3741SOL     OW22684   1.098   2.815   6.884  0.0920  0.1872 -0.6289
 3741SOL    HW122685   1.023   2.838   6.939 -1.7474 -2.4217 -2.0522
 3741SOL    HW222686   1.173   2.843   6.936  0.3700  0.6351 -1.2684
 3742SOL     OW22687   2.690   2.709   3.392 -0.2811  0.4376 -0.4710
 3742SOL    HW122688   2.654   2.649   3.326  0.4745 -0.1079 -0.3874
 3742SOL    HW222689   2.782   2.714   3.365 -0.3039 -0.1298 -0.6594
 3743SOL     OW22690   2.194   0.343   8.707 -0.3525 -0.2590  0.0804
 3743SOL    HW122691   2.272   0.365   8.757 -0.1780 -0.5442 -0.0696
 3743SOL    HW222692   2.192   0.248   8.721 -1.5523 -0.3046 -0.4091
 3744SOL     OW22693   2.920   0.347   4.361 -0.6776  0.1355  0.3445
 3744SOL    HW122694   2.942   0.392   4.442  1.6763  1.5355 -1.0919
 3744SOL    HW222695   2.967   0.400   4.297  0.9313 -2.1907 -0.4002
 3745SOL     OW22696   2.400   2.731   4.371 -0.2612  0.6686  0.4119
 3745SOL    HW122697   2.409   2.780   4.290  2.7367 -1.8637 -0.7776
 3745SOL    HW222698   2.429   2.795   4.437  0.4919  0.3191  0.4293
 3746SOL     OW22699   4.550   2.903   6.290  0.5115  0.2664  0.0858
 3746SOL    HW122700   4.594   2.914   6.205  0.5709  0.1187  0.0978
 3746SOL    HW222701   4.577   2.814   6.311  1.5969  0.6885  0.4673
 3747SOL     OW22702   4.493   0.456  15.329 -0.5522  0.4534  0.7980
 3747SOL    HW122703   4.502   0.514  15.404  0.2840 -1.0615  1.8732
 3747SOL    HW222704   4.477   0.519  15.259  0.2637  1.6257  1.6586
 3748SOL     OW22705   2.113   1.922  12.860  0.4495 -0.3404 -0.6691
 3748SOL    HW122706   2.064   1.852  12.904  0.4848  0.4277  0.5771
 3748SOL    HW222707   2.070   1.993  12.907  0.1877 -1.2130  0.4001
 3749SOL     OW22708   2.607   3.179   2.393 -0.1438  0.0876  0.1029
 3749SOL    HW122709   2.537   3.153   2.454 -1.0339  0.6904 -0.6668
 3749SOL    HW222710   2.645   3.094   2.373 -1.6057 -0.8503  1.2989
 3750SOL     OW22711   2.865   0.121   4.096 -0.4337  0.0519  0.5084
 3750SOL    HW122712   2.841   0.072   4.018  2.5231 -1.1083  0.3687
 3750SOL    HW222713   2.793   0.184   4.105 -1.0367 -0.6699  0.7893
 3751SOL     OW22714   1.844   1.556  15.433 -0.4515  0.0963 -0.6573
 3751SOL    HW122715   1.831   1.557  15.338  0.5520  0.7918 -0.7855
 3751SOL    HW222716   1.782   1.625  15.457 -0.2208 -0.3270  1.1712
 3752SOL     OW22717   4.076   2.138   7.064  0.8263  0.2963 -0.1696
 3752SOL    HW122718   4.032   2.146   7.148 -0.6063 -0.9783 -0.7971
 3752SOL    HW222719   4.165   2.169   7.082 -0.1813  3.0207  0.1406
 3753SOL     OW22720   0.280   3.114  10.995 -0.0171 -0.0494 -0.0374
 3753SOL    HW122721   0.227   3.034  10.993  0.9681 -0.6879 -0.6667
 3753SOL    HW222722   0.303   3.116  10.902  0.3040 -3.1192 -0.0190
 3754SOL     OW22723   1.970   4.122   6.104  0.0114 -0.4092 -0.0990
 3754SOL    HW122724   2.035   4.190   6.087 -1.8785  1.6969  1.0259
 3754SOL    HW222725   1.887   4.169   6.105  0.4804  0.4079  1.0833
 3755SOL     OW22726   0.088   3.454   8.208  0.2828  0.0601 -0.7492
 3755SOL    HW122727   0.078   3.379   8.266 -1.1991 -0.4736 -1.6998
 3755SOL    HW222728   0.009   3.436   8.156  0.2391 -1.8740  0.0052
 3756SOL     OW22729   0.276   2.935  13.493  0.3062 -0.1297 -0.1214
 3756SOL    HW122730   0.255   2.868  13.558  0.0014 -1.4717 -1.5884
 3756SOL    HW222731   0.192   2.980  13.487  0.2612  0.0717  1.9394
 3757SOL     OW22732   3.931   2.088   2.332 -0.2683 -0.0959 -0.0844
 3757SOL    HW122733   3.886   2.105   2.249 -1.7198  1.7998  1.0791
 3757SOL    HW222734   4.016   2.056   2.303  0.3725  0.4401  1.2081
 3758SOL     OW22735   3.773   2.282   3.430  0.1610 -0.4958  0.3457
 3758SOL    HW122736   3.805   2.327   3.508  0.9762 -1.3221  0.4928
 3758SOL    HW222737   3.720   2.214   3.471 -0.7311  1.3438  2.2194
 3759SOL     OW22738   2.106   3.527  13.017  0.5571 -0.1990 -0.1653
 3759SOL    HW122739   2.024   3.504  12.973 -1.0723  1.3477  2.0613
 3759SOL    HW222740   2.125   3.440  13.051  0.6687 -0.2851 -0.4491
 3760SOL     OW22741   1.617   1.736   6.361  0.2006 -0.2228 -0.0520
 3760SOL    HW122742   1.709   1.726   6.387  0.6941  0.1444 -1.6534
 3760SOL    HW222743   1.631   1.709   6.271  1.7669  0.5219 -0.0305
 3761SOL     OW22744   1.424   0.560   1.811 -0.0334  0.4885 -0.1071
 3761SOL    HW122745   1.393   0.575   1.900  0.9021  1.2503  0.0992
 3761SOL    HW222746   1.499   0.618   1.798  0.5009 -0.1088  0.3053
 3762SOL     OW22747   3.463   1.754   5.663 -0.4187  0.4389  0.0958
 3762SOL    HW122748   3.489   1.843   5.687  0.0917 -0.9460  4.8288
 3762SOL    HW222749   3.409   1.735   5.740 -1.1780  1.6851 -0.1257
 3763SOL     OW22750   4.303   4.288   7.314 -0.2550  0.3704 -0.3203
 3763SOL    HW122751   4.278   4.335   7.393 -1.5494  0.5427 -0.8326
 3763SOL    HW222752   4.285   4.340   7.235 -3.4536 -0.5866 -0.2046
 3764SOL     OW22753   1.513   4.635   2.596  0.1235  0.5238 -0.0042
 3764SOL    HW122754   1.529   4.567   2.661  0.2902  1.7904  1.2687
 3764SOL    HW222755   1.517   4.712   2.652  2.3664  1.3110 -1.2595
 3765SOL     OW22756   1.761   0.790  13.081 -0.1868 -0.2129 -0.3391
 3765SOL    HW122757   1.817   0.861  13.113  0.7888 -0.8575 -0.6161
 3765SOL    HW222758   1.748   0.740  13.162 -0.5118 -1.2255 -1.0278
 3766SOL     OW22759   2.191   1.407  16.093  0.0494 -0.1159  0.1157
 3766SOL    HW122760   2.217   1.485  16.044 -1.0717  2.1108  3.1189
 3766SOL    HW222761   2.108   1.395  16.047 -0.2270  0.6464  0.4220
 3767SOL     OW22762   4.346   2.026   3.704 -0.0290  0.4098  0.3431
 3767SOL    HW122763   4.366   1.935   3.685  1.0445  0.5326  0.8809
 3767SOL    HW222764   4.436   2.060   3.699 -0.4504  1.3490 -1.0991
 3768SOL     OW22765   0.739   0.934   5.755 -0.4611 -0.0660 -0.4111
 3768SOL    HW122766   0.722   0.844   5.724  0.3897 -0.7290  1.0565
 3768SOL    HW222767   0.722   0.972   5.669 -2.8453 -0.4508 -0.1278
 3769SOL     OW22768   3.242   3.705   9.654  0.2019  0.7561 -0.2736
 3769SOL    HW122769   3.310   3.664   9.707 -1.4902 -1.4786  0.1462
 3769SOL    HW222770   3.216   3.773   9.716 -0.1098 -1.0215  1.5485
 3770SOL     OW22771   0.917   2.247   4.444  0.1139  0.1416 -0.0310
 3770SOL    HW122772   0.917   2.236   4.540  0.7748 -2.3872 -0.3237
 3770SOL    HW222773   0.839   2.194   4.431  0.2012  0.0010  0.0073
 3771SOL     OW22774   2.735   2.463   3.546 -0.4226 -0.3135 -0.8365
 3771SOL    HW122775   2.758   2.535   3.604  0.5201 -1.8983  0.7922
 3771SOL    HW222776   2.658   2.491   3.497 -0.4478 -0.5250 -0.9186
 3772SOL     OW22777   2.115   0.117   8.283  0.4832 -0.5163 -0.3672
 3772SOL    HW122778   2.026   0.114   8.319  0.1965 -0.6017 -1.0740
 3772SOL    HW222779   2.152   0.198   8.318  0.1200 -0.8491  0.7822
 3773SOL     OW22780   4.389   2.583   4.746 -0.4574  0.2719 -0.0210
 3773SOL    HW122781   4.371   2.528   4.822 -0.8054  1.4208  0.7448
 3773SOL    HW222782   4.367   2.667   4.787  0.3831  0.2613  0.4593
 3774SOL     OW22783   1.321   3.078   2.599  0.0245  0.0570 -0.0542
 3774SOL    HW122784   1.308   3.170   2.622 -0.3088 -0.3256  1.3217
 3774SOL    HW222785   1.256   3.023   2.642  1.0271 -0.7928  0.3795
 3775SOL     OW22786   2.527   2.358   5.669 -0.5861  0.0360  0.3473
 3775SOL    HW122787   2.501   2.336   5.579  3.1632 -0.0991 -0.6804
 3775SOL    HW222788   2.616   2.324   5.676 -1.1346 -1.8568 -2.1323
 3776SOL     OW22789   3.880   0.602  14.773 -0.3679  0.0934  0.0916
 3776SOL    HW122790   3.964   0.615  14.818  1.3387 -2.3870 -2.3400
 3776SOL    HW222791   3.892   0.681  14.721 -2.2155  0.3771  0.1281
 3777SOL     OW22792   3.903   3.150   7.565  0.3050 -0.4530 -0.4856
 3777SOL    HW122793   3.867   3.212   7.502  0.0306 -0.8227 -0.6878
 3777SOL    HW222794   3.991   3.186   7.572  0.7220 -0.7106 -4.4576
 3778SOL     OW22795   2.233   2.468   7.183  0.0102 -0.3080  0.3873
 3778SOL    HW122796   2.179   2.390   7.189 -1.1705  0.6378  1.9773
 3778SOL    HW222797   2.275   2.454   7.098  0.2541 -0.9641  0.6211
 3779SOL     OW22798   0.496   0.778   5.932  0.0788 -0.1636  0.6730
 3779SOL    HW122799   0.532   0.826   5.858 -0.5184 -2.5292 -1.1475
 3779SOL    HW222800   0.448   0.709   5.887 -0.2595 -0.5728  1.6569
 3780SOL     OW22801   0.966   0.208   6.904  0.1019 -0.2886  0.2034
 3780SOL    HW122802   0.926   0.236   6.822 -1.8585  2.1341  1.9683
 3780SOL    HW222803   1.058   0.202   6.877 -0.3047 -1.0728 -0.9967
 3781SOL     OW22804   0.711   0.176  17.667 -0.0361 -0.7314  0.0120
 3781SOL    HW122805   0.701   0.130   0.049  0.3109 -0.4090  0.2257
 3781SOL    HW222806   0.786   0.231  17.689 -1.2105  1.5119 -1.6304
 3782SOL     OW22807   2.739   1.443   5.155 -0.4707 -0.1298 -0.4752
 3782SOL    HW122808   2.778   1.361   5.184 -1.0177 -0.2789 -0.1699
 3782SOL    HW222809   2.722   1.479   5.242  1.5512 -1.2009  0.3651
 3783SOL     OW22810   0.908   4.382   1.254 -0.0026  0.0499  0.4572
 3783SOL    HW122811   0.982   4.395   1.312 -0.0175  0.5856  0.3580
 3783SOL    HW222812   0.932   4.324   1.181  2.1731  0.8901  0.5147
 3784SOL     OW22813   3.105   3.956   3.104 -0.0442 -0.0901 -0.7289
 3784SOL    HW122814   3.159   3.907   3.166 -1.2405 -0.2473  0.1773
 3784SOL    HW222815   3.171   3.958   3.035 -1.6343 -0.2160 -2.2363
 3785SOL     OW22816   4.371   2.099   1.991 -0.5123 -0.1936 -0.2849
 3785SOL    HW122817   4.351   2.006   2.003  0.1743 -0.3463 -0.3196
 3785SOL    HW222818   4.281   2.129   1.986 -0.7761 -0.9798 -0.2637
 3786SOL     OW22819   0.158   3.555   4.838  0.1534  0.2294 -0.8921
 3786SOL    HW122820   0.087   3.524   4.782  0.6827  1.2024 -2.1206
 3786SOL    HW222821   0.164   3.487   4.904 -1.9591  0.5940 -0.3336
 3787SOL     OW22822   1.345   1.553   3.789  0.3768  0.6593 -0.3510
 3787SOL    HW122823   1.331   1.647   3.799 -0.8866  0.1914  2.5650
 3787SOL    HW222824   1.368   1.533   3.880 -0.9190  0.5509 -0.0418
 3788SOL     OW22825   0.846   2.757   2.830 -0.4869  0.3968  0.0545
 3788SOL    HW122826   0.934   2.729   2.857 -1.1926 -0.9291  0.9421
 3788SOL    HW222827   0.803   2.677   2.800 -0.3578 -0.1825  1.4064
 3789SOL     OW22828   0.785   4.204  17.121 -0.6513 -0.2794 -0.2987
 3789SOL    HW122829   0.786   4.131  17.183  0.6497  0.2167  0.2790
 3789SOL    HW222830   0.832   4.273  17.169  0.8572  0.9153 -3.4631
 3790SOL     OW22831   3.713   0.904   8.813  0.3930  0.6837  0.0520
 3790SOL    HW122832   3.735   0.953   8.892  1.1639 -0.2714  0.4432
 3790SOL    HW222833   3.641   0.955   8.778 -0.8857  0.2896  2.1155
 3791SOL     OW22834   3.968   0.823   8.031  0.2959 -0.1807  0.7327
 3791SOL    HW122835   3.882   0.794   8.063  0.8022 -0.8811  1.4285
 3791SOL    HW222836   4.020   0.762   8.082  1.1689 -0.5812 -0.6190
 3792SOL     OW22837   2.685   3.200   8.056 -0.5602 -0.1149 -0.4692
 3792SOL    HW122838   2.646   3.286   8.069  1.1243  0.7737 -1.4218
 3792SOL    HW222839   2.764   3.223   8.008 -0.7019  0.3356 -0.4799
 3793SOL     OW22840   0.155   2.271   4.265 -0.0916 -0.2159  0.6074
 3793SOL    HW122841   0.171   2.337   4.196 -1.7708  0.0738  0.4954
 3793SOL    HW222842   0.154   2.188   4.218 -0.5051  0.8108 -1.2146
 3794SOL     OW22843   4.548   0.253   0.438 -0.6095 -0.3689 -0.3458
 3794SOL    HW122844   4.591   0.336   0.457  0.2820 -0.8603 -0.2495
 3794SOL    HW222845   4.539   0.260   0.343 -0.0566 -2.4248 -0.5604
 3795SOL     OW22846   1.238   4.375   3.163 -0.2804 -0.2867  0.9025
 3795SOL    HW122847   1.210   4.465   3.180  1.6126  0.4950 -0.0972
 3795SOL    HW222848   1.177   4.344   3.096 -0.3232  1.0366  0.3493
 3796SOL     OW22849   0.499   4.145  12.904 -0.4083 -0.7347 -0.9509
 3796SOL    HW122850   0.476   4.054  12.889  0.4742 -0.8432 -1.6412
 3796SOL    HW222851   0.445   4.173  12.978  0.8197 -0.8451 -0.0172
 3797SOL     OW22852   0.350   4.083   1.570  0.4428 -0.0534  0.2291
 3797SOL    HW122853   0.373   4.073   1.662 -0.5704 -0.5777  0.4314
 3797SOL    HW222854   0.394   4.167   1.558  0.9994 -0.3957 -0.0875
 3798SOL     OW22855   2.762   1.257   5.630  0.9375 -0.3082 -0.0152
 3798SOL    HW122856   2.766   1.209   5.712 -0.8822  1.5225  1.1254
 3798SOL    HW222857   2.854   1.281   5.620  1.3210 -0.9421  2.0123
 3799SOL     OW22858   1.332   3.589   5.796 -0.2544  0.1013 -0.2289
 3799SOL    HW122859   1.425   3.567   5.801 -0.1190  0.8733  0.6051
 3799SOL    HW222860   1.296   3.577   5.884  1.0493  1.8366  0.5447
 3800SOL     OW22861   0.271   1.296   1.654  0.0439 -0.4450 -0.3251
 3800SOL    HW122862   0.317   1.304   1.570 -2.5573  0.6326 -1.6355
 3800SOL    HW222863   0.193   1.348   1.636 -0.6449 -1.3113  0.1391
 3801SOL     OW22864   1.279   4.073  10.640 -0.3239  0.3494 -0.0805
 3801SOL    HW122865   1.271   4.036  10.728 -1.2881 -1.5707 -0.9602
 3801SOL    HW222866   1.187   4.089  10.618 -0.1952  1.6892  0.3984
 3802SOL     OW22867   2.354   2.041   9.157 -0.3698 -0.5690  0.2185
 3802SOL    HW122868   2.420   2.108   9.179 -0.7806 -0.7446  1.9830
 3802SOL    HW222869   2.287   2.056   9.224 -0.8564 -2.8077  0.2105
 3803SOL     OW22870   4.309   1.190   4.808 -0.0770 -0.4291 -0.4190
 3803SOL    HW122871   4.325   1.096   4.795  1.8116 -0.0470 -0.8620
 3803SOL    HW222872   4.396   1.227   4.822  0.6184 -1.6309 -1.6053
 3804SOL     OW22873   0.163   1.410   4.788  0.1274 -0.3360  0.8280
 3804SOL    HW122874   0.101   1.455   4.845  0.5638  0.8734  0.3335
 3804SOL    HW222875   0.218   1.386   4.863  1.0235 -0.1228  0.2320
 3805SOL     OW22876   2.526   0.892  16.428 -0.0741 -0.0585 -0.0905
 3805SOL    HW122877   2.441   0.884  16.473  1.1197 -0.6634  2.0248
 3805SOL    HW222878   2.593   0.865  16.490  1.7128  1.1632 -1.5205
 3806SOL     OW22879   4.253   0.592  15.408  0.3901 -0.2580 -0.6454
 3806SOL    HW122880   4.337   0.594  15.453  0.9776 -2.6266 -1.6060
 3806SOL    HW222881   4.260   0.657  15.339  1.4723 -2.1153 -2.2966
 3807SOL     OW22882   3.726   3.995   2.031  0.3320  0.6401  0.4841
 3807SOL    HW122883   3.781   3.923   2.062  0.3865  0.5102  0.0860
 3807SOL    HW222884   3.669   3.958   1.964  0.4217  0.7446  0.3481
 3808SOL     OW22885   1.001   3.234   5.965 -0.2087 -0.2409  0.0713
 3808SOL    HW122886   0.963   3.198   5.884 -3.4474 -0.5111  1.6978
 3808SOL    HW222887   1.020   3.323   5.936  1.1008 -0.4129  0.4065
 3809SOL     OW22888   4.136   2.416  17.006 -0.5102  0.1528 -0.1217
 3809SOL    HW122889   4.142   2.469  17.085  0.6770 -0.2449  0.0549
 3809SOL    HW222890   4.066   2.358  17.036 -0.1584 -0.9489 -1.4154
 3810SOL     OW22891   1.485   0.954  16.257  0.2804  0.0641 -0.1178
 3810SOL    HW122892   1.437   1.036  16.262  1.6814  0.9995 -1.9853
 3810SOL    HW222893   1.470   0.933  16.164  2.0336 -1.7194  0.0070
 3811SOL     OW22894   4.665   4.240   5.596 -0.4389  0.3847 -0.4229
 3811SOL    HW122895   4.599   4.199   5.653  1.7896 -0.5391  1.4569
 3811SOL    HW222896   4.604   4.278   5.532  1.3479  3.4873 -0.2437
 3812SOL     OW22897   0.548   0.584  13.867  0.4664  0.5141  0.2199
 3812SOL    HW122898   0.462   0.564  13.903  0.9942  0.2953  1.3770
 3812SOL    HW222899   0.541   0.625  13.781  2.2214  1.5081  0.5398
 3813SOL     OW22900   0.481   0.041   5.231 -0.7149  0.1325 -0.0262
 3813SOL    HW122901   0.558   4.717   5.203 -1.5620  0.0759 -2.2635
 3813SOL    HW222902   0.443   4.708   5.296  1.2079 -0.2308  0.7660
 3814SOL     OW22903   2.760   3.625   2.067  0.5381 -0.5117  0.1705
 3814SOL    HW122904   2.740   3.550   2.123 -0.4847 -1.9383 -2.0727
 3814SOL    HW222905   2.686   3.620   2.006  1.8992  0.2223 -1.5560
 3815SOL     OW22906   1.901   1.721   3.589  0.2669 -0.5179  0.0897
 3815SOL    HW122907   1.839   1.662   3.546  0.3490  0.2208 -1.0582
 3815SOL    HW222908   1.881   1.704   3.681  1.4682 -1.4431  0.1719
 3816SOL     OW22909   0.912   1.967   1.430  0.1128  0.5380 -0.2727
 3816SOL    HW122910   0.964   2.000   1.503  1.3082 -0.3488 -0.7259
 3816SOL    HW222911   0.829   1.935   1.466 -1.0786  4.4696  0.4351
 3817SOL     OW22912   4.153   2.400  11.043 -0.1234  0.3868  0.1952
 3817SOL    HW122913   4.074   2.346  11.041  0.6863 -0.8305  1.1223
 3817SOL    HW222914   4.116   2.487  11.029 -0.9542  0.0414  0.2294
 3818SOL     OW22915   4.415   1.600   4.697 -0.1228 -0.6771  0.0630
 3818SOL    HW122916   4.333   1.620   4.650  0.6770  1.1759 -0.5458
 3818SOL    HW222917   4.471   1.578   4.622  1.5351 -0.0676  1.1299
 3819SOL     OW22918   2.678   3.680   3.166  0.2909  0.2795  0.4147
 3819SOL    HW122919   2.686   3.586   3.150  0.9403  0.8203 -2.4692
 3819SOL    HW222920   2.593   3.695   3.125 -0.8691 -3.1420  1.5792
 3820SOL     OW22921   2.497   3.315   9.160 -0.1270  0.0434  0.1970
 3820SOL    HW122922   2.564   3.307   9.092 -1.5371  0.6668 -1.2602
 3820SOL    HW222923   2.562   3.351   9.221  2.4796  0.0854 -2.5973
 3821SOL     OW22924   1.297   0.028  14.964  0.0789 -0.1058 -0.1611
 3821SOL    HW122925   1.355   0.083  15.016  0.4443  0.3098 -1.0154
 3821SOL    HW222926   1.339   0.025  14.878  1.6559 -1.2012  0.6446
 3822SOL     OW22927   2.666   4.064   7.383  0.0397  0.7584 -0.2696
 3822SOL    HW122928   2.735   4.058   7.449  0.9047 -0.4834 -1.3176
 3822SOL    HW222929   2.610   3.989   7.403 -0.2084  0.8460 -0.6364
 3823SOL     OW22930   1.583   1.246   2.552  0.1451  0.1289 -0.0197
 3823SOL    HW122931   1.501   1.205   2.526 -0.3865  0.6607  0.8183
 3823SOL    HW222932   1.574   1.338   2.526 -1.8795 -0.2495 -0.6544
 3824SOL     OW22933   1.419   1.008   6.653 -0.1027 -0.3074 -0.0057
 3824SOL    HW122934   1.510   1.035   6.667  0.0838 -0.6347 -0.5933
 3824SOL    HW222935   1.391   1.062   6.579 -1.7637 -0.5922  0.4099
 3825SOL     OW22936   0.639   4.430   3.573 -0.0450 -0.2859 -0.0283
 3825SOL    HW122937   0.555   4.396   3.543  0.6500 -0.0050 -2.2876
 3825SOL    HW222938   0.646   4.511   3.522 -1.4364 -1.3677 -1.9461
 3826SOL     OW22939   4.276   0.638   9.099  0.7193  0.3196  0.1668
 3826SOL    HW122940   4.235   0.710   9.050 -0.2990  0.0830  0.6804
 3826SOL    HW222941   4.230   0.650   9.182 -0.0405 -0.3401 -0.1576
 3827SOL     OW22942   0.235   1.393   1.957  0.2464  0.0491 -0.0294
 3827SOL    HW122943   0.159   1.342   1.930  0.0137 -0.7409  2.0591
 3827SOL    HW222944   0.284   1.414   1.878  0.1181  2.0472  0.4295
 3828SOL     OW22945   3.020   4.467   2.522  0.2135  0.3061  0.0316
 3828SOL    HW122946   2.999   4.521   2.446 -2.2246  2.3009  2.0925
 3828SOL    HW222947   2.974   4.388   2.492  0.8364 -0.0513  0.0368
 3829SOL     OW22948   0.320   1.729   4.629 -0.2716  0.5849  0.1361
 3829SOL    HW122949   0.362   1.689   4.706  2.0853  0.3973 -1.2212
 3829SOL    HW222950   0.319   1.650   4.575  0.5548  0.5552  0.1567
 3830SOL     OW22951   0.487   3.486   5.392  0.1984  0.0860 -1.0003
 3830SOL    HW122952   0.422   3.469   5.324  0.2475 -0.4443 -0.9128
 3830SOL    HW222953   0.529   3.565   5.356 -0.5370  1.7209  1.7821
 3831SOL     OW22954   1.861   2.244  14.455 -0.2522  0.3446  0.2172
 3831SOL    HW122955   1.914   2.218  14.530  0.7849  1.5900 -0.0771
 3831SOL    HW222956   1.833   2.157  14.427 -0.0905  0.8787 -1.6194
 3832SOL     OW22957   4.314   2.760  11.978 -0.2422  0.1538 -0.4890
 3832SOL    HW122958   4.230   2.795  12.006  0.8446  1.5883  0.9525
 3832SOL    HW222959   4.333   2.712  12.059  0.7072 -1.8659 -1.9260
 3833SOL     OW22960   3.003   0.496   7.425  0.3158  0.0223  0.3658
 3833SOL    HW122961   2.939   0.517   7.493 -0.0713  1.1555 -0.3435
 3833SOL    HW222962   3.084   0.492   7.475 -0.0582 -0.4620  0.9248
 3834SOL     OW22963   2.351   1.900   1.181  0.0014  0.0280  0.5040
 3834SOL    HW122964   2.430   1.885   1.128 -0.5626  0.8731 -0.5947
 3834SOL    HW222965   2.358   1.820   1.233 -2.2819  0.7366  1.8628
 3835SOL     OW22966   1.753   4.380   7.902  0.6150 -0.2947 -0.1913
 3835SOL    HW122967   1.762   4.321   7.977  2.3377  1.1341  0.7455
 3835SOL    HW222968   1.804   4.330   7.838 -0.1958 -1.0289 -0.2552
 3836SOL     OW22969   1.940   3.847  12.780  0.4357  0.3173 -0.3811
 3836SOL    HW122970   2.032   3.872  12.790  0.5357 -0.0906 -0.2851
 3836SOL    HW222971   1.933   3.763  12.734 -1.5395 -0.9905  2.2579
 3837SOL     OW22972   2.252   4.284   3.126 -0.4615 -0.5256  0.4918
 3837SOL    HW122973   2.318   4.237   3.178  1.0117 -1.2461 -2.0777
 3837SOL    HW222974   2.170   4.236   3.142 -0.8703 -0.1552 -0.5247
 3838SOL     OW22975   1.545   2.964   6.812 -0.1062 -0.0983  0.5166
 3838SOL    HW122976   1.461   3.008   6.801 -0.1681 -0.4100 -0.3039
 3838SOL    HW222977   1.521   2.872   6.798  0.2765 -0.2483  0.8641
 3839SOL     OW22978   2.521   1.215   7.395  0.1986  0.2989  0.2008
 3839SOL    HW122979   2.594   1.231   7.335  0.2635  1.7024  0.6432
 3839SOL    HW222980   2.527   1.122   7.416 -0.5086 -0.2645 -2.1898
 3840SOL     OW22981   3.857   3.837   7.995  0.3136 -0.6267  0.1200
 3840SOL    HW122982   3.939   3.884   8.004 -0.7447  1.6244 -2.1146
 3840SOL    HW222983   3.828   3.858   7.906 -2.5468  0.6868  1.3430
 3841SOL     OW22984   0.407   3.880  13.541  0.4943  0.0840  0.2218
 3841SOL    HW122985   0.390   3.792  13.577  1.0067  0.1774  0.6807
 3841SOL    HW222986   0.393   3.937  13.616 -1.8895 -0.6064  0.3111
 3842SOL     OW22987   0.170   2.203  16.064 -0.0313  0.3586  0.2148
 3842SOL    HW122988   0.256   2.186  16.027 -0.2802  0.4890 -0.4129
 3842SOL    HW222989   0.141   2.275  16.008  0.4805  1.8694  1.8937
 3843SOL     OW22990   3.068   0.974   7.147  0.1327  0.3345  0.0415
 3843SOL    HW122991   3.072   0.933   7.233 -1.4812 -0.0685 -0.0791
 3843SOL    HW222992   2.999   0.922   7.106  0.0363 -0.5300  1.3187
 3844SOL     OW22993   1.597   3.873  13.070  0.1072  0.5814  0.2451
 3844SOL    HW122994   1.522   3.931  13.078 -1.3181 -1.3723  0.9566
 3844SOL    HW222995   1.596   3.842  12.979 -0.3482 -0.9267  0.7513
 3845SOL     OW22996   3.620   2.875   6.426  0.6025 -0.0478  0.0689
 3845SOL    HW122997   3.706   2.833   6.423  1.2888  1.4183 -0.6294
 3845SOL    HW222998   3.583   2.807   6.369 -0.6567 -1.0391  2.0741
 3846SOL     OW22999   4.498   1.168   5.997 -0.1024  0.4538 -0.9673
 3846SOL    HW123000   4.562   1.103   5.967  0.9675  0.1441  1.8995
 3846SOL    HW223001   4.538   1.245   5.956 -1.2304  1.7172  0.3279
 3847SOL     OW23002   2.758   1.196  15.461  0.1129 -0.3488 -0.4631
 3847SOL    HW123003   2.677   1.206  15.510  0.4079 -1.4517  0.2454
 3847SOL    HW223004   2.738   1.128  15.396  0.2264 -1.3133  0.5075
 3848SOL     OW23005   3.457   1.353   2.754 -0.3065  0.0290  0.5718
 3848SOL    HW123006   3.390   1.305   2.802  0.9253 -0.7968  1.4645
 3848SOL    HW223007   3.423   1.436   2.787  0.6213  0.1821  1.1345
 3849SOL     OW23008   1.755   1.349   2.767  0.3976  0.0820  0.2151
 3849SOL    HW123009   1.688   1.300   2.719  0.5920 -0.5295  0.5660
 3849SOL    HW223010   1.804   1.406   2.709 -0.0764  1.8492  1.5540
 3850SOL     OW23011   3.346   3.224   3.841 -1.1142 -0.8802 -0.0238
 3850SOL    HW123012   3.380   3.160   3.778  0.7828  0.0580  0.0362
 3850SOL    HW223013   3.393   3.299   3.806 -2.0746 -0.9856 -1.5477
 3851SOL     OW23014   1.043   0.474   6.710  0.1581 -0.0086 -0.5554
 3851SOL    HW123015   1.135   0.464   6.687  0.0235 -0.0538 -1.0669
 3851SOL    HW223016   1.053   0.548   6.771  3.1118 -0.7292 -0.1837
 3852SOL     OW23017   3.151   4.018   4.508 -0.2519 -0.1811  0.1799
 3852SOL    HW123018   3.150   4.111   4.531  1.0063 -0.0903 -0.1380
 3852SOL    HW223019   3.237   4.001   4.546 -0.6951  0.6590  1.5634
 3853SOL     OW23020   3.022   3.340   4.397  0.7426 -0.3019 -0.1047
 3853SOL    HW123021   2.945   3.330   4.453 -1.1015 -0.0363 -2.6270
 3853SOL    HW223022   3.006   3.276   4.328 -0.1029  0.5997 -0.7428
 3854SOL     OW23023   2.521   1.449  15.979 -0.2467  0.1629 -0.3264
 3854SOL    HW123024   2.431   1.484  15.977 -0.3356 -0.0099  0.9079
 3854SOL    HW223025   2.566   1.482  16.056 -0.1060 -0.1072 -0.2929
 3855SOL     OW23026   0.071   1.090   4.105  0.1014 -0.2025 -0.0626
 3855SOL    HW123027   0.141   1.099   4.041 -1.3505  2.2072 -1.3177
 3855SOL    HW223028   0.120   1.101   4.186 -1.2947 -2.1836  1.0622
 3856SOL     OW23029   3.665   2.311   4.803 -0.1925  0.6572  0.7559
 3856SOL    HW123030   3.620   2.364   4.868 -1.6263  2.4198 -1.6850
 3856SOL    HW223031   3.682   2.380   4.738 -1.5173 -0.3385 -0.6303
 3857SOL     OW23032   3.655   2.694   6.933  0.4018  0.3351 -0.2231
 3857SOL    HW123033   3.572   2.648   6.922  1.1357 -0.6825 -1.5923
 3857SOL    HW223034   3.716   2.622   6.916  0.9515  0.9914 -1.0238
 3858SOL     OW23035   0.260   0.094   8.590 -0.0342  0.8523  0.2187
 3858SOL    HW123036   0.353   0.072   8.592 -0.2471 -0.1652 -0.8647
 3858SOL    HW223037   0.245   0.129   8.677  3.3621 -1.0873  1.5986
 3859SOL     OW23038   3.986   4.194   7.051 -0.1398  0.1826  0.3443
 3859SOL    HW123039   4.012   4.256   7.119 -2.2909  0.9244  0.5033
 3859SOL    HW223040   4.061   4.154   7.007  1.3338  1.1492  1.9590
 3860SOL     OW23041   0.186   1.597  10.974 -0.5862  0.4555  0.4097
 3860SOL    HW123042   0.193   1.658  11.047 -1.8579  1.6256 -0.4465
 3860SOL    HW223043   0.130   1.657  10.924 -2.3927  0.1628  2.1135
 3861SOL     OW23044   0.896   3.161   3.764  0.2406  0.0279  0.0461
 3861SOL    HW123045   0.969   3.215   3.795  1.3401 -1.1029 -0.6138
 3861SOL    HW223046   0.851   3.139   3.845  2.0887  0.3164  1.1397
 3862SOL     OW23047   3.943   1.979   6.380  0.1641 -0.6730 -0.2585
 3862SOL    HW123048   3.996   2.057   6.400 -1.0992 -0.4876  2.3692
 3862SOL    HW223049   3.977   1.907   6.434 -0.6610 -0.1891  0.8906
 3863SOL     OW23050   1.466   4.204   6.866 -0.1834  0.0653  0.1127
 3863SOL    HW123051   1.471   4.117   6.827  0.4803 -0.1545  0.6836
 3863SOL    HW223052   1.537   4.205   6.931  0.9784  1.1479 -1.1852
 3864SOL     OW23053   0.629   1.562   6.092 -0.2245  0.1186  0.2403
 3864SOL    HW123054   0.713   1.516   6.092 -0.9869 -1.2661  3.1770
 3864SOL    HW223055   0.571   1.486   6.090  1.1355 -0.8668 -2.1684
 3865SOL     OW23056   2.330   2.679   2.511 -0.2614 -0.6408 -0.1664
 3865SOL    HW123057   2.411   2.700   2.464 -0.8555  1.2396 -0.3463
 3865SOL    HW223058   2.361   2.600   2.557  2.0159  0.1790 -0.2821
 3866SOL     OW23059   0.549   3.240   8.641 -0.3278 -0.3027  0.7063
 3866SOL    HW123060   0.472   3.278   8.681 -0.6171  0.3603 -0.4968
 3866SOL    HW223061   0.532   3.268   8.551 -2.5639 -2.8087  0.3423
 3867SOL     OW23062   3.863   3.907   3.882 -0.4534 -0.0288  0.2570
 3867SOL    HW123063   3.944   3.867   3.912 -0.0397  1.3868  1.0409
 3867SOL    HW223064   3.829   3.857   3.807  1.9258 -0.0434 -0.8232
 3868SOL     OW23065   1.897   0.111  14.899 -0.5067  0.4613  0.2368
 3868SOL    HW123066   1.942   0.126  14.982  1.6909 -0.7336 -0.7434
 3868SOL    HW223067   1.828   0.051  14.928  0.7474 -0.6850  0.8337
 3869SOL     OW23068   1.196   3.332   5.199 -0.1454  0.0631  0.3421
 3869SOL    HW123069   1.102   3.325   5.187  0.1754 -0.5669 -1.7985
 3869SOL    HW223070   1.225   3.329   5.107 -0.5193 -0.8026  0.2524
 3870SOL     OW23071   2.285   1.148  16.007 -0.0105  0.1750 -0.0559
 3870SOL    HW123072   2.232   1.160  15.928 -1.9116 -0.9827  1.0362
 3870SOL    HW223073   2.245   1.216  16.061  0.8268 -0.6443  1.6047
 3871SOL     OW23074   4.418   2.263   4.714  0.1925 -0.6013 -0.2872
 3871SOL    HW123075   4.486   2.299   4.770 -0.1245  1.8130 -1.4495
 3871SOL    HW223076   4.335   2.291   4.752 -0.2468 -0.2616 -1.4859
 3872SOL     OW23077   4.007   1.058   4.149 -0.4129 -0.6097 -0.4164
 3872SOL    HW123078   3.941   1.124   4.128  0.4354 -0.5378 -2.7980
 3872SOL    HW223079   4.078   1.097   4.099 -0.6777  0.8211  0.3384
 3873SOL     OW23080   1.517   3.742   2.561  0.3133 -0.4116 -0.1720
 3873SOL    HW123081   1.563   3.799   2.499  1.1380  0.1073  0.9004
 3873SOL    HW223082   1.537   3.793   2.640 -0.4753  1.8664 -1.4289
 3874SOL     OW23083   1.927   2.012   2.640  0.6921 -0.0502  0.0743
 3874SOL    HW123084   1.952   2.068   2.566 -0.4916  3.7969  2.5600
 3874SOL    HW223085   2.007   1.962   2.654 -0.8158 -2.9632 -1.7715
 3875SOL     OW23086   3.588   3.003   7.538  0.3126 -0.0178  0.1001
 3875SOL    HW123087   3.682   3.013   7.526  0.3871  0.8673  1.3891
 3875SOL    HW223088   3.584   2.923   7.589 -0.3197  0.8614  1.4345
 3876SOL     OW23089   2.308   3.733   2.498 -0.0897 -0.3317 -0.2645
 3876SOL    HW123090   2.294   3.645   2.464  1.8045 -1.8462  2.8740
 3876SOL    HW223091   2.221   3.750   2.535 -0.1339  0.2366 -0.6343
 3877SOL     OW23092   4.609   4.268   2.802 -0.2686  0.5958 -0.4305
 3877SOL    HW123093   4.643   4.236   2.718 -0.3877 -0.9431  0.1020
 3877SOL    HW223094   4.660   4.349   2.806  0.3402  0.1850  0.2178
 3878SOL     OW23095   0.634   0.779   6.981  0.5512 -0.3489 -0.3473
 3878SOL    HW123096   0.545   0.747   6.967 -0.2063  2.0434 -0.8962
 3878SOL    HW223097   0.671   0.713   7.039 -0.0043 -0.3601 -0.0102
 3879SOL     OW23098   3.216   4.259   6.485 -0.8078  0.0003  0.7684
 3879SOL    HW123099   3.175   4.343   6.465  1.1209  0.0653 -2.9020
 3879SOL    HW223100   3.189   4.247   6.577 -1.9704 -3.2683 -0.0114
 3880SOL     OW23101   1.191   4.076   9.453  0.0004  0.9060 -0.1411
 3880SOL    HW123102   1.123   4.058   9.389  1.0369 -0.1803 -0.9327
 3880SOL    HW223103   1.235   4.156   9.425  0.1312  1.4539  1.6111
 3881SOL     OW23104   3.794   2.283   1.506  0.2117 -0.0653  0.2409
 3881SOL    HW123105   3.716   2.315   1.461  1.3445  2.9739  0.4823
 3881SOL    HW223106   3.852   2.352   1.474  0.6464 -0.1108  0.9367
 3882SOL     OW23107   2.793   0.116   7.200 -0.1163  0.5775  0.7139
 3882SOL    HW123108   2.838   0.099   7.283  0.0632  0.3269  0.5685
 3882SOL    HW223109   2.800   0.030   7.156 -0.1928  1.1379 -0.3998
 3883SOL     OW23110   0.773   3.056   4.916  0.2143  0.4234  0.0122
 3883SOL    HW123111   0.867   3.067   4.928  0.2202 -2.5523  2.7724
 3883SOL    HW223112   0.757   2.990   4.849  0.8235 -1.6670  1.9241
 3884SOL     OW23113   3.204   3.595   3.326  0.1126 -0.0405 -0.3268
 3884SOL    HW123114   3.262   3.670   3.337 -0.0852  0.0904 -0.1687
 3884SOL    HW223115   3.121   3.636   3.351  1.0761  0.5766  1.8138
 3885SOL     OW23116   0.525   2.315   7.367  0.0348  0.4052 -0.2752
 3885SOL    HW123117   0.575   2.300   7.287  2.3189  1.5776  0.9244
 3885SOL    HW223118   0.587   2.374   7.409  2.0013 -1.0935 -1.0812
 3886SOL     OW23119   0.559   4.288   4.797 -0.1147 -0.1862  0.1685
 3886SOL    HW123120   0.598   4.375   4.787  0.9274 -0.7942 -0.9741
 3886SOL    HW223121   0.623   4.238   4.747 -0.4232 -0.8337  0.4186
 3887SOL     OW23122   1.645   1.943  13.038  0.5460 -0.9585 -0.1678
 3887SOL    HW123123   1.571   1.970  13.093 -0.0659  1.2936 -2.0968
 3887SOL    HW223124   1.652   1.853  13.072  0.1475 -0.9812 -0.1421
 3888SOL     OW23125   4.655   3.138   7.282 -0.2465  0.1679  0.2121
 3888SOL    HW123126   4.615   3.213   7.325 -0.4504  0.2809 -0.1730
 3888SOL    HW223127   4.590   3.121   7.213 -1.6264  2.4453  0.9621
 3889SOL     OW23128   4.370   0.107   7.756  0.1826  0.0882  0.5520
 3889SOL    HW123129   4.383   0.187   7.807 -0.1617 -0.1196  0.9595
 3889SOL    HW223130   4.446   0.100   7.698  0.4818 -2.1516  1.2002
 3890SOL     OW23131   0.725   0.986  17.659  0.0570  0.8837 -0.6474
 3890SOL    HW123132   0.654   1.032   0.002  0.1562  1.2894 -0.9061
 3890SOL    HW223133   0.692   0.897  17.661 -2.1312  1.7070  0.0893
 3891SOL     OW23134   4.444   0.737  17.033 -0.1558 -0.1989  0.1647
 3891SOL    HW123135   4.492   0.810  16.994  0.6424 -1.6964 -1.6159
 3891SOL    HW223136   4.406   0.788  17.105 -1.7365  0.1816 -0.9396
 3892SOL     OW23137   0.945   2.602   4.667 -0.0530  0.2942 -0.5571
 3892SOL    HW123138   0.901   2.635   4.745 -0.1814  2.0757 -1.3870
 3892SOL    HW223139   0.883   2.537   4.633 -0.4335  0.8986 -1.0301
 3893SOL     OW23140   3.468   2.680   4.110  0.2191 -0.4789 -0.2586
 3893SOL    HW123141   3.560   2.670   4.085  0.9854  1.3481  1.8240
 3893SOL    HW223142   3.465   2.773   4.131  1.5471 -0.4599 -0.1244
 3894SOL     OW23143   1.901   0.010   1.860  0.3819  0.5571  0.1875
 3894SOL    HW123144   1.980   0.059   1.884 -0.0144  1.2032  0.1563
 3894SOL    HW223145   1.855   0.006   1.944 -0.4481  0.2717 -0.2874
 3895SOL     OW23146   4.298   0.163   8.445  0.2237 -0.1421 -0.5000
 3895SOL    HW123147   4.286   0.072   8.418  2.8297 -0.8689  0.7446
 3895SOL    HW223148   4.212   0.172   8.486  1.2182  2.2682  1.0521
 3896SOL     OW23149   3.558   4.262   5.117 -0.1757 -0.0057 -0.2513
 3896SOL    HW123150   3.609   4.258   5.198 -3.6413  1.1736  2.0036
 3896SOL    HW223151   3.482   4.299   5.163  0.9863  2.6873 -0.4791
 3897SOL     OW23152   1.145   1.425   4.679 -0.1292 -0.5430 -0.0810
 3897SOL    HW123153   1.146   1.333   4.707 -1.5250 -0.3512  0.6134
 3897SOL    HW223154   1.240   1.439   4.676 -0.3543  1.4802  2.4724
 3898SOL     OW23155   2.312   2.396   5.074 -0.6002 -0.1875  0.1371
 3898SOL    HW123156   2.313   2.404   4.978  1.4332  0.4284  0.2196
 3898SOL    HW223157   2.255   2.465   5.107 -1.3175  0.4998 -2.5153
 3899SOL     OW23158   3.817   2.791   2.862 -0.2561  0.1813 -0.5651
 3899SOL    HW123159   3.803   2.885   2.878  0.9221  0.4628 -1.1941
 3899SOL    HW223160   3.910   2.783   2.840  0.2287 -0.2022  1.6508
 3900SOL     OW23161   2.202   3.905   3.248 -0.2040 -0.4726 -0.1033
 3900SOL    HW123162   2.153   3.957   3.184  0.5292  0.5787  0.1957
 3900SOL    HW223163   2.286   3.905   3.202  0.3842 -3.1949  0.9916
 3901SOL     OW23164   3.604   3.023  12.190  0.2957  0.7742  0.4139
 3901SOL    HW123165   3.591   2.951  12.127  1.2155  0.2734  0.7979
 3901SOL    HW223166   3.517   3.051  12.220 -0.8205 -1.2329 -0.9333
 3902SOL     OW23167   0.578   2.939   6.955 -0.5581 -0.4174  0.5741
 3902SOL    HW123168   0.543   2.949   6.867  3.1622  0.6991 -0.7749
 3902SOL    HW223169   0.517   2.870   6.982 -2.5371  0.6684 -1.0774
 3903SOL     OW23170   1.158   3.833   5.208  0.2672  0.4240  0.3906
 3903SOL    HW123171   1.240   3.792   5.233  0.1736 -0.6286 -1.0450
 3903SOL    HW223172   1.104   3.816   5.286  0.6528 -1.8355  0.1487
 3904SOL     OW23173   3.596   3.097   3.461  0.3226 -0.6394  0.0623
 3904SOL    HW123174   3.625   3.186   3.441  0.5340 -0.4813  1.0751
 3904SOL    HW223175   3.590   3.065   3.371  0.2348  2.4157 -1.0458
 3905SOL     OW23176   2.557   0.607  11.477  0.1407  0.7751 -0.2496
 3905SOL    HW123177   2.607   0.526  11.464  1.5667  1.5342  0.4909
 3905SOL    HW223178   2.626   0.655  11.522  0.2421  0.3344  0.0566
 3906SOL     OW23179   3.914   1.843   3.605 -0.3894  0.3168 -1.0869
 3906SOL    HW123180   3.981   1.782   3.635 -0.0965  0.8641 -0.6397
 3906SOL    HW223181   3.976   1.907   3.569 -0.0011  0.4526 -0.1772
 3907SOL     OW23182   3.887   1.466  10.724  0.6167  0.0620 -0.0447
 3907SOL    HW123183   3.805   1.424  10.699  0.3555  0.0545  0.7961
 3907SOL    HW223184   3.909   1.420  10.805  2.3043  0.8909 -0.0219
 3908SOL     OW23185   4.602   2.700   7.430  0.0095  0.5550 -0.4118
 3908SOL    HW123186   4.514   2.662   7.427 -0.6221  1.9231  0.6076
 3908SOL    HW223187   4.627   2.675   7.519  0.0836 -0.2381 -0.6570
 3909SOL     OW23188   2.884   4.570   0.482  0.6376 -0.2066  0.2220
 3909SOL    HW123189   2.896   4.644   0.423 -2.8725 -0.8425 -1.3283
 3909SOL    HW223190   2.912   4.492   0.433  0.8661  0.3247 -0.4898
 3910SOL     OW23191   2.372   3.846  15.605 -0.1698 -0.0766  0.0539
 3910SOL    HW123192   2.437   3.844  15.535  0.6539  1.9870  0.7503
 3910SOL    HW223193   2.385   3.763  15.650  1.3666 -0.6024 -1.4077
 3911SOL     OW23194   0.052   1.590   1.258  0.0958 -0.1837 -0.1209
 3911SOL    HW123195   0.145   1.575   1.276 -0.4674 -1.7074  1.6317
 3911SOL    HW223196   0.054   1.599   1.163  0.5181  0.9096 -0.0103
 3912SOL     OW23197   2.495   3.008   9.296 -0.5231  0.3877  0.5012
 3912SOL    HW123198   2.481   3.103   9.300 -1.3817  0.2584  0.3930
 3912SOL    HW223199   2.590   3.009   9.308 -0.3643  0.5934 -0.7356
 3913SOL     OW23200   3.062   2.482   0.608 -0.8987  0.5975 -0.1961
 3913SOL    HW123201   3.129   2.462   0.543  0.4694  0.5642  1.2363
 3913SOL    HW223202   3.042   2.576   0.597 -3.7213  0.1592  1.0876
 3914SOL     OW23203   2.817   2.702   7.820  0.3064 -0.1004 -0.2754
 3914SOL    HW123204   2.771   2.624   7.852  0.6789  0.1187  0.7885
 3914SOL    HW223205   2.809   2.759   7.896 -0.5257  3.2171 -2.8588
 3915SOL     OW23206   1.633   3.539  12.332 -0.0040  0.2046 -0.2513
 3915SOL    HW123207   1.607   3.582  12.250  0.9152  0.9274 -0.1651
 3915SOL    HW223208   1.635   3.447  12.305  1.4526  0.4635 -1.0138
 3916SOL     OW23209   1.396   3.281   8.342 -0.1937 -0.0832  0.3475
 3916SOL    HW123210   1.377   3.372   8.365 -0.1895 -0.0167  0.0811
 3916SOL    HW223211   1.307   3.257   8.315 -0.1652 -0.7848  0.8711
 3917SOL     OW23212   3.465   3.272   1.500  0.4781 -0.4521  0.3872
 3917SOL    HW123213   3.537   3.321   1.538  1.9940 -2.2731 -0.1499
 3917SOL    HW223214   3.449   3.231   1.585  1.8785  1.1315  1.3973
 3918SOL     OW23215   1.805   3.705   5.156 -0.4948  0.5240 -0.3055
 3918SOL    HW123216   1.826   3.660   5.238  1.2417 -0.6082 -1.3831
 3918SOL    HW223217   1.898   3.711   5.133 -0.3280 -2.1772 -0.2986
 3919SOL     OW23218   3.448   4.348   2.795  0.1555  0.2579 -0.2159
 3919SOL    HW123219   3.535   4.325   2.764  0.5667  0.3586  0.8594
 3919SOL    HW223220   3.405   4.382   2.716 -1.1931 -1.9667 -0.4227
 3920SOL     OW23221   2.195   3.237   7.554 -0.0982  0.0142  0.3495
 3920SOL    HW123222   2.283   3.275   7.560  0.4227 -0.9292 -1.3020
 3920SOL    HW223223   2.152   3.301   7.497  0.1056 -1.1188 -1.0756
 3921SOL     OW23224   2.525   3.919  16.887  0.5844  0.0714 -0.3307
 3921SOL    HW123225   2.588   3.847  16.892  0.9063  0.4709  1.4636
 3921SOL    HW223226   2.583   3.991  16.913 -0.7128  0.4675  1.4527
 3922SOL     OW23227   3.043   3.815   1.838  0.1505 -0.2377 -0.3050
 3922SOL    HW123228   2.973   3.758   1.806 -0.5726  0.3815  0.2016
 3922SOL    HW223229   3.004   3.876   1.900  1.4838 -0.1127  0.4164
 3923SOL     OW23230   2.913   0.742   4.710 -0.1560 -0.4011  0.2793
 3923SOL    HW123231   2.985   0.796   4.742  0.7678 -0.8243 -1.1082
 3923SOL    HW223232   2.886   0.702   4.793  0.9578 -1.4207  0.1498
 3924SOL     OW23233   2.906   4.666   2.361  0.2220 -0.1638  0.8657
 3924SOL    HW123234   2.924   0.012   2.423  1.0371 -0.2539  0.7371
 3924SOL    HW223235   2.928   4.710   2.279  0.2839 -0.7636  0.5640
 3925SOL     OW23236   1.542   1.801   3.009  0.0921 -0.6346 -0.8779
 3925SOL    HW123237   1.505   1.757   3.086  2.2884 -0.8683  0.0299
 3925SOL    HW223238   1.632   1.798   3.041  0.6997 -0.0518 -2.5142
 3926SOL     OW23239   4.088   2.464   3.660 -0.1061 -0.0177  0.0934
 3926SOL    HW123240   4.084   2.458   3.565 -0.9962  4.5938 -0.1841
 3926SOL    HW223241   4.032   2.395   3.695  2.0693 -1.8774 -0.1180
 3927SOL     OW23242   3.659   0.319  12.654  0.5026 -0.2161 -0.4593
 3927SOL    HW123243   3.709   0.239  12.671  0.0441 -0.9573 -2.5828
 3927SOL    HW223244   3.573   0.296  12.618  0.8075 -1.4316 -0.4090
 3928SOL     OW23245   3.997   2.405   4.451  0.2407  0.1867 -0.3329
 3928SOL    HW123246   4.045   2.345   4.508  0.4198  0.3066 -0.3597
 3928SOL    HW223247   3.908   2.370   4.456 -0.2983  1.5795 -0.2709
 3929SOL     OW23248   4.209   0.749   7.469  0.3503  0.7963  0.2906
 3929SOL    HW123249   4.114   0.744   7.485 -0.0267  2.6457 -1.3707
 3929SOL    HW223250   4.210   0.727   7.376  2.6815 -0.8568  0.7267
 3930SOL     OW23251   2.190   3.026   5.646  0.1942  0.8249  0.3097
 3930SOL    HW123252   2.167   2.959   5.711 -1.6006  1.0287 -0.1160
 3930SOL    HW223253   2.242   3.078   5.707  1.5379  0.3842 -0.4659
 3931SOL     OW23254   0.318   3.027   7.229  0.0104  0.1804  0.4017
 3931SOL    HW123255   0.240   3.056   7.181  1.2005  0.7970 -1.1329
 3931SOL    HW223256   0.365   2.978   7.162 -1.5054  2.2913 -2.2325
 3932SOL     OW23257   3.143   3.788   2.632 -0.3030  0.5906 -0.0809
 3932SOL    HW123258   3.147   3.769   2.538 -0.3768 -0.6319  0.1545
 3932SOL    HW223259   3.206   3.860   2.639  0.4996 -0.0129 -1.1177
 3933SOL     OW23260   4.180   2.912   4.456  0.5676 -0.3344  0.3514
 3933SOL    HW123261   4.200   2.914   4.363 -1.2570 -0.2477 -0.0332
 3933SOL    HW223262   4.237   2.842   4.487  0.4305 -1.4919 -2.1116
 3934SOL     OW23263   0.592   0.628   2.622  0.0725  0.3566 -0.4883
 3934SOL    HW123264   0.638   0.596   2.699  0.8714 -2.4857 -2.1427
 3934SOL    HW223265   0.621   0.562   2.560 -2.2195 -0.4486 -0.7306
 3935SOL     OW23266   1.527   4.669  13.576 -0.2951  0.5796  0.3544
 3935SOL    HW123267   1.463   4.697  13.510 -1.1189 -0.3409  0.7462
 3935SOL    HW223268   1.487   4.585  13.601  0.4673  0.0957 -0.0630
 3936SOL     OW23269   3.043   3.512   7.947 -0.3676  0.0057 -1.1911
 3936SOL    HW123270   2.992   3.592   7.955  0.4871  0.3784  0.5227
 3936SOL    HW223271   3.102   3.539   7.877  0.4859  0.0367 -0.4615
 3937SOL     OW23272   2.517   1.040   1.029  0.2317 -0.0280  0.2935
 3937SOL    HW123273   2.572   0.962   1.020  1.3357  0.7396  0.4758
 3937SOL    HW223274   2.546   1.081   0.947 -1.6858 -0.1093 -0.4285
 3938SOL     OW23275   0.276   0.512   3.898  0.0595 -0.9818 -0.9481
 3938SOL    HW123276   0.365   0.494   3.868  0.8288 -0.2169  0.9009
 3938SOL    HW223277   0.244   0.558   3.820  1.5173 -2.9197 -2.6760
 3939SOL     OW23278   3.719   3.174   2.213 -0.0674 -0.4024 -0.2143
 3939SOL    HW123279   3.754   3.140   2.131 -1.6851 -2.1468 -0.1853
 3939SOL    HW223280   3.642   3.119   2.226  0.0206 -0.4349  0.1869
 3940SOL     OW23281   2.537   3.963   8.308 -0.4658 -0.2703 -0.1406
 3940SOL    HW123282   2.616   4.016   8.293  1.6331 -3.3079  0.1088
 3940SOL    HW223283   2.474   4.029   8.336  0.7886 -0.7286  3.7564
 3941SOL     OW23284   3.988   0.573   3.220  0.2799 -0.7043 -0.3881
 3941SOL    HW123285   4.080   0.573   3.244  0.2766 -1.2773 -0.3606
 3941SOL    HW223286   3.981   0.620   3.137 -3.3431 -1.5429 -0.5703
 3942SOL     OW23287   3.359   0.821  11.420  0.6572 -0.1432 -0.4457
 3942SOL    HW123288   3.375   0.824  11.326  2.6333  0.4173 -0.0755
 3942SOL    HW223289   3.385   0.907  11.451  3.5460 -0.7332 -1.2733
 3943SOL     OW23290   2.254   1.061   5.836 -0.2345  0.2217  0.4999
 3943SOL    HW123291   2.322   0.997   5.814 -0.2446  0.5129 -0.3694
 3943SOL    HW223292   2.187   1.015   5.886  0.8315 -0.7778  0.9829
 3944SOL     OW23293   3.789   2.265   7.729 -0.2917  0.4202 -0.5044
 3944SOL    HW123294   3.787   2.303   7.817 -1.7147  0.5259 -0.5839
 3944SOL    HW223295   3.709   2.213   7.740 -0.2265  0.3659 -0.2783
 3945SOL     OW23296   0.037   2.191  16.302 -0.0190 -0.0016  0.0685
 3945SOL    HW123297   0.109   2.236  16.346  0.0683 -1.1954  1.1422
 3945SOL    HW223298   0.077   2.205  16.215  1.1221 -0.0948  0.5744
 3946SOL     OW23299   3.098   2.836  16.030 -0.3248 -0.1946 -0.1904
 3946SOL    HW123300   3.061   2.788  16.104  1.2694  0.8649  1.2650
 3946SOL    HW223301   3.044   2.913  16.016 -0.8569 -0.2677  1.5426
 3947SOL     OW23302   4.061   0.955  10.347 -0.1108  0.7698 -0.0579
 3947SOL    HW123303   4.014   0.983  10.268 -0.6558  2.5151  0.8935
 3947SOL    HW223304   4.127   1.022  10.365  0.7427  0.0054 -0.3170
 3948SOL     OW23305   1.300   2.613   5.201 -0.2269 -0.3771 -0.0263
 3948SOL    HW123306   1.327   2.643   5.288  1.0519 -0.8198 -0.2747
 3948SOL    HW223307   1.205   2.621   5.207 -0.3074 -1.8814  0.6061
 3949SOL     OW23308   2.767   4.473   5.436  0.0342  0.1034 -0.1313
 3949SOL    HW123309   2.856   4.510   5.430  1.3491 -2.8047  1.2651
 3949SOL    HW223310   2.790   4.387   5.472 -0.9020 -0.8832 -1.9448
 3950SOL     OW23311   3.337   1.312   8.081  0.2536 -0.8843  0.4742
 3950SOL    HW123312   3.374   1.272   8.160 -0.0682 -2.5469 -0.1998
 3950SOL    HW223313   3.324   1.233   8.027 -0.4755  0.5929 -1.4967
 3951SOL     OW23314   4.010   1.869   3.132  0.0838  0.3035 -0.5939
 3951SOL    HW123315   4.069   1.801   3.163 -1.7891 -1.9209 -1.9064
 3951SOL    HW223316   3.942   1.879   3.198 -0.1571  0.4567 -0.8650
 3952SOL     OW23317   1.266   3.065   7.094 -0.6845  0.4176 -0.1727
 3952SOL    HW123318   1.205   3.077   7.167  0.0409  1.9542  0.1785
 3952SOL    HW223319   1.220   3.100   7.018 -0.7540 -0.4916 -0.5521
 3953SOL     OW23320   0.607   0.476   6.789 -0.2675  0.7153  0.0010
 3953SOL    HW123321   0.564   0.538   6.848  2.4641  1.7694  0.8711
 3953SOL    HW223322   0.534   0.414   6.780  1.0148 -0.3630 -2.7384
 3954SOL     OW23323   4.138   1.567   7.649  0.4643  0.0511  0.2412
 3954SOL    HW123324   4.109   1.599   7.563 -1.2353 -0.6625  0.5448
 3954SOL    HW223325   4.165   1.479   7.624  0.3590  0.4473 -1.2415
 3955SOL     OW23326   2.370   4.673   8.376 -0.4085  0.3944  0.1074
 3955SOL    HW123327   2.291   4.710   8.337  0.0743  0.1162 -1.1135
 3955SOL    HW223328   2.332   4.628   8.451 -1.3536  0.0187 -0.5998
 3956SOL     OW23329   3.067   4.559   2.794  0.3717  0.5744  0.1539
 3956SOL    HW123330   3.071   4.518   2.708 -2.1196  1.7336 -0.5353
 3956SOL    HW223331   2.978   4.542   2.824 -0.2231  2.3078 -0.6454
 3957SOL     OW23332   0.226   0.230   1.231  0.2319 -0.5931 -0.6924
 3957SOL    HW123333   0.302   0.196   1.279 -0.5598 -1.5455 -0.1184
 3957SOL    HW223334   0.244   0.196   1.143 -2.4258  0.2419 -1.5449
 3958SOL     OW23335   4.567   0.550   8.427  0.9463  0.0967 -0.3898
 3958SOL    HW123336   4.534   0.468   8.464 -2.0791  1.3808 -0.2197
 3958SOL    HW223337   4.646   0.517   8.385 -0.1426 -2.2149 -0.6157
 3959SOL     OW23338   0.430   0.316   9.950 -0.2037 -0.2948 -0.8868
 3959SOL    HW123339   0.479   0.235   9.963 -1.6668 -0.4077  3.9507
 3959SOL    HW223340   0.426   0.309   9.855 -1.5663  0.7420 -0.9148
 3960SOL     OW23341   2.400   2.689   6.766  0.8747 -0.6981  0.2576
 3960SOL    HW123342   2.344   2.655   6.835  0.1502  1.0691  0.5495
 3960SOL    HW223343   2.469   2.725   6.822 -0.3987  4.0292 -1.1254
 3961SOL     OW23344   1.380   3.738   5.339  0.3685  0.1374 -0.1538
 3961SOL    HW123345   1.344   3.665   5.389  2.9063 -0.9342  0.0845
 3961SOL    HW223346   1.441   3.699   5.276 -1.5636 -1.1417 -1.2437
 3962SOL     OW23347   3.919   0.247  14.829 -0.4395 -0.0881 -0.3826
 3962SOL    HW123348   3.988   0.186  14.855  0.0735  0.1510 -1.1710
 3962SOL    HW223349   3.962   0.285  14.752 -2.3919 -0.5630 -1.7022
 3963SOL     OW23350   3.361   2.485   5.393  0.0453  0.4202  0.1225
 3963SOL    HW123351   3.449   2.453   5.373 -0.0887  0.9491 -1.3022
 3963SOL    HW223352   3.310   2.415   5.352  1.3755 -0.8201  0.5869
 3964SOL     OW23353   4.041   0.626   4.781  0.8393 -0.1106 -0.1398
 3964SOL    HW123354   4.112   0.617   4.718  1.3054  1.8221  0.1057
 3964SOL    HW223355   4.088   0.621   4.864  1.8801  2.7271 -0.5299
 3965SOL     OW23356   2.975   4.344  17.383 -0.2323  0.2601 -0.7414
 3965SOL    HW123357   2.944   4.325  17.295  1.6826  1.4662 -1.6864
 3965SOL    HW223358   3.032   4.271  17.405  0.1383  0.5809 -0.6296
 3966SOL     OW23359   3.071   2.081  16.252 -0.2766  0.1224  0.5536
 3966SOL    HW123360   3.147   2.027  16.273  0.3816  0.0110 -2.0447
 3966SOL    HW223361   3.039   2.101  16.340 -1.2944 -0.1390  0.2436
 3967SOL     OW23362   2.057   3.064   2.889 -0.4678  0.2991  0.0982
 3967SOL    HW123363   2.141   3.107   2.904  0.2384 -1.0507  0.0901
 3967SOL    HW223364   2.079   3.008   2.815 -0.0521 -0.1260  0.5385
 3968SOL     OW23365   1.728   3.123   5.798 -0.3010 -0.3977  0.1714
 3968SOL    HW123366   1.808   3.137   5.848 -0.9552  3.2390  0.1726
 3968SOL    HW223367   1.746   3.184   5.727  0.0019 -0.8406 -0.1331
 3969SOL     OW23368   3.671   0.675   4.487  0.3765 -0.0520  0.5173
 3969SOL    HW123369   3.738   0.650   4.552 -0.1304 -0.6195  0.8265
 3969SOL    HW223370   3.728   0.743   4.452  0.2932 -0.6267 -0.7309
 3970SOL     OW23371   3.687   2.974   6.906 -0.3398 -0.4085 -0.1091
 3970SOL    HW123372   3.723   2.928   6.830  0.9049 -0.6466  0.6218
 3970SOL    HW223373   3.661   2.894   6.953 -1.0631 -0.9650 -1.4571
 3971SOL     OW23374   3.714   1.178  14.558 -0.0477 -0.5938 -0.3276
 3971SOL    HW123375   3.796   1.159  14.512  0.0979 -0.1220 -0.2585
 3971SOL    HW223376   3.735   1.138  14.643  0.0392  0.4239  0.1265
 3972SOL     OW23377   2.148   2.824  14.761  0.2938  0.3857  0.5818
 3972SOL    HW123378   2.216   2.790  14.702  1.6412 -0.3841  2.5707
 3972SOL    HW223379   2.167   2.780  14.844 -0.5011  0.8136  0.9922
 3973SOL     OW23380   2.304   3.140   6.926 -0.3866 -0.2843  0.3597
 3973SOL    HW123381   2.310   3.159   6.832 -1.3549 -0.1076  0.3326
 3973SOL    HW223382   2.238   3.205   6.948 -0.8070 -0.9366  1.0297
 3974SOL     OW23383   2.295   0.562  11.450  0.0155  0.2156  0.4604
 3974SOL    HW123384   2.389   0.579  11.446  0.3348 -1.6908 -0.1764
 3974SOL    HW223385   2.280   0.518  11.533 -0.5994  1.3530  0.9432
 3975SOL     OW23386   1.116   3.304   2.948  0.3111  0.3603  0.0310
 3975SOL    HW123387   1.031   3.338   2.920  0.1697 -0.8646 -1.0033
 3975SOL    HW223388   1.093   3.273   3.036 -0.9551  1.3368  0.0428
 3976SOL     OW23389   1.086   1.289   1.220 -0.4366 -0.4977 -0.4630
 3976SOL    HW123390   1.062   1.339   1.142  0.7403 -0.0163 -0.5215
 3976SOL    HW223391   1.120   1.211   1.175 -1.6744 -0.4363 -1.5320
 3977SOL     OW23392   3.816   0.221   0.979  0.1512 -0.2827  0.4336
 3977SOL    HW123393   3.912   0.222   0.984  0.1612  0.3222  0.1868
 3977SOL    HW223394   3.795   0.173   1.059 -0.7981 -1.4679 -0.5159
 3978SOL     OW23395   0.900   2.450   4.041 -0.1187  0.0897 -0.1121
 3978SOL    HW123396   0.967   2.469   3.975  0.4703 -0.3974  0.3448
 3978SOL    HW223397   0.916   2.369   4.089 -1.3631 -0.1307 -0.0716
 3979SOL     OW23398   3.794   1.413   2.374 -0.1434  0.2987 -0.1541
 3979SOL    HW123399   3.848   1.416   2.295 -0.5938 -0.6466 -0.4921
 3979SOL    HW223400   3.744   1.493   2.357 -0.0702  0.0302 -1.6482
 3980SOL     OW23401   1.500   0.589   2.817 -0.8851 -0.0999 -0.2460
 3980SOL    HW123402   1.438   0.585   2.744 -0.0003  0.0488 -1.0211
 3980SOL    HW223403   1.445   0.578   2.894  0.9636 -2.8993  0.6648
 3981SOL     OW23404   1.451   3.090   0.566  1.0568  0.3489 -0.0055
 3981SOL    HW123405   1.529   3.074   0.619 -0.1942  0.1952  1.8053
 3981SOL    HW223406   1.412   3.167   0.608  1.0184  0.5380 -0.3856
 3982SOL     OW23407   0.591   4.383   9.883  0.0260 -0.0422  0.2758
 3982SOL    HW123408   0.647   4.450   9.923  1.1228  0.9462 -2.9448
 3982SOL    HW223409   0.519   4.444   9.863 -0.7255 -0.8253  0.6146
 3983SOL     OW23410   0.803   3.924   5.958 -0.0734  0.4632  0.6204
 3983SOL    HW123411   0.801   3.843   5.907 -1.4416  0.9181 -0.0394
 3983SOL    HW223412   0.886   3.916   6.005 -1.6732 -1.7156  3.0428
 3984SOL     OW23413   0.822   1.857   8.172 -0.3400 -0.4091  0.6225
 3984SOL    HW123414   0.912   1.829   8.154 -1.0207 -3.8253  2.4691
 3984SOL    HW223415   0.776   1.860   8.088 -1.6697  1.5908  1.4340
 3985SOL     OW23416   0.087   4.564   2.076 -0.2774 -0.0301  0.0584
 3985SOL    HW123417   0.043   4.499   2.131  1.7170  0.0064  1.7105
 3985SOL    HW223418   0.074   4.637   2.136 -0.7889 -0.2676  0.2404
 3986SOL     OW23419   0.298   3.079  13.237 -0.4322  0.1725 -0.5532
 3986SOL    HW123420   0.274   3.014  13.171 -2.4700  0.0806  0.2778
 3986SOL    HW223421   0.287   3.021  13.313 -0.4312 -1.6918 -1.9678
 3987SOL     OW23422   2.054   2.370   8.311  0.4968 -0.4784  0.0945
 3987SOL    HW123423   2.042   2.410   8.225  1.9219 -0.6684 -0.1811
 3987SOL    HW223424   1.994   2.298   8.290 -1.8516  1.7807 -0.8926
 3988SOL     OW23425   2.900   0.442   6.055  0.1693  0.3268  0.3600
 3988SOL    HW123426   2.950   0.383   6.110 -0.3131  1.2437  1.7786
 3988SOL    HW223427   2.835   0.394   6.004 -0.6312  1.9278 -0.1477
 3989SOL     OW23428   0.163   0.060   4.119 -0.3322 -0.6315  0.6175
 3989SOL    HW123429   0.120   0.120   4.059 -0.0664  0.1244  1.1852
 3989SOL    HW223430   0.252   0.094   4.112 -0.5121 -0.4570 -0.8224
 3990SOL     OW23431   0.985   0.952   5.322 -0.2033 -0.1331 -0.3059
 3990SOL    HW123432   0.959   0.876   5.375 -2.6859  1.3917  0.6972
 3990SOL    HW223433   0.914   1.010   5.350  0.9615 -0.3925  3.1668
 3991SOL     OW23434   4.676   1.088   4.833  0.2283 -0.0732  0.0344
 3991SOL    HW123435   4.628   1.013   4.797  0.4644 -0.5265  0.6813
 3991SOL    HW223436   4.676   1.073   4.927 -1.6024 -1.3169 -0.1602
 3992SOL     OW23437   3.917   0.759   5.340  0.3587 -0.1581 -0.3152
 3992SOL    HW123438   3.903   0.714   5.257 -0.8126  0.5375 -0.4944
 3992SOL    HW223439   3.908   0.849   5.309  0.2362  1.1327  3.5312
 3993SOL     OW23440   1.574   2.480   4.331 -0.3036 -0.4772 -0.3185
 3993SOL    HW123441   1.542   2.508   4.417 -1.5510 -0.6770 -0.7225
 3993SOL    HW223442   1.573   2.558   4.275  0.9169 -0.9679 -1.0183
 3994SOL     OW23443   3.559   2.094   7.776 -0.3259 -0.1636  0.3225
 3994SOL    HW123444   3.609   2.034   7.831  0.9076  1.2172  0.6836
 3994SOL    HW223445   3.507   2.022   7.739  1.0208 -1.0094  0.1073
 3995SOL     OW23446   3.883   3.427   6.066 -0.0061 -0.0089  0.5119
 3995SOL    HW123447   3.831   3.350   6.042  0.9560 -1.6033  3.6198
 3995SOL    HW223448   3.848   3.493   6.005  0.2521 -0.7839 -0.4880
 3996SOL     OW23449   1.264   1.821   2.672 -0.5315 -0.2787  0.4580
 3996SOL    HW123450   1.348   1.776   2.662 -0.0913  0.2097  1.8652
 3996SOL    HW223451   1.252   1.821   2.767  1.1188 -1.5674  0.6697
 3997SOL     OW23452   2.958   3.969   6.051 -0.2697  0.0680  0.6080
 3997SOL    HW123453   2.981   4.051   6.095  1.8719  0.8911 -2.0470
 3997SOL    HW223454   3.043   3.926   6.043  0.2419  0.6610  2.8188
 3998SOL     OW23455   2.663   4.090   4.213  0.0930  0.2201  0.4464
 3998SOL    HW123456   2.680   4.074   4.306 -2.0322 -3.7276  0.1553
 3998SOL    HW223457   2.696   4.015   4.164 -0.5189 -0.9703  1.8713
 3999SOL     OW23458   0.496   2.101   4.118  0.1896  0.6520  0.0218
 3999SOL    HW123459   0.541   2.089   4.202  0.5944 -0.0901 -0.3076
 3999SOL    HW223460   0.475   2.010   4.098 -0.4409  0.7628  0.1755
 4000SOL     OW23461   2.464   2.159   2.832  0.2276  0.6702  0.3356
 4000SOL    HW123462   2.421   2.137   2.749 -0.4882 -0.0744  0.9013
 4000SOL    HW223463   2.415   2.233   2.868 -1.9380 -0.5514 -0.1487
 4001SOL     OW23464   4.190   1.857   5.763  0.0189  0.1933 -0.2348
 4001SOL    HW123465   4.143   1.836   5.682  1.3187 -1.2896 -0.5941
 4001SOL    HW223466   4.167   1.949   5.778  2.4495  0.6453  0.7395
 4002SOL     OW23467   1.439   2.471   3.470 -0.1388  0.7783  0.0736
 4002SOL    HW123468   1.515   2.455   3.527  0.8299 -1.0772 -1.7673
 4002SOL    HW223469   1.424   2.564   3.488 -1.5514  0.3937  0.9197
 4003SOL     OW23470   3.982   3.597   7.594  0.0705 -0.3434 -0.0786
 4003SOL    HW123471   3.992   3.539   7.518 -1.2152  0.4933 -0.8794
 4003SOL    HW223472   3.897   3.567   7.626 -0.4509  0.8837 -0.3484
 4004SOL     OW23473   1.639   3.009  13.276 -0.0780 -0.0951 -0.1901
 4004SOL    HW123474   1.605   2.926  13.311 -0.3361 -0.5515 -1.5221
 4004SOL    HW223475   1.647   2.984  13.184 -2.9905  1.4473 -0.8591
 4005SOL     OW23476   1.728   0.399   3.022  0.5699 -0.5237 -0.2067
 4005SOL    HW123477   1.668   0.387   2.949 -1.2425  0.5038  1.1043
 4005SOL    HW223478   1.798   0.453   2.984  1.2258 -0.4884  1.0616
 4006SOL     OW23479   2.825   4.657   8.144  0.0580 -0.1874 -1.0254
 4006SOL    HW123480   2.836   4.638   8.237  0.3510 -0.6872 -1.1623
 4006SOL    HW223481   2.730   4.657   8.132 -0.2843  1.3727  1.7549
 4007SOL     OW23482   1.086   0.313  11.708  0.3360 -0.3006 -0.8370
 4007SOL    HW123483   1.023   0.273  11.649  2.5351 -1.1346 -2.5962
 4007SOL    HW223484   1.054   0.403  11.694 -0.8956 -0.6265 -0.1720
 4008SOL     OW23485   4.309   0.516   5.850 -0.5938  0.5363  0.3830
 4008SOL    HW123486   4.283   0.589   5.792 -0.5063 -0.0728 -0.4226
 4008SOL    HW223487   4.344   0.452   5.789 -2.4039  1.4095 -1.5897
 4009SOL     OW23488   2.084   3.055   7.231 -0.2705  0.4043 -0.7449
 4009SOL    HW123489   2.151   3.079   7.295  0.3873 -0.7961 -0.9719
 4009SOL    HW223490   2.132   3.081   7.153 -0.8965  0.5249 -1.0893
 4010SOL     OW23491   0.619   4.173  16.238  0.2050  0.0499 -0.1154
 4010SOL    HW123492   0.603   4.084  16.268 -1.0476 -0.0846 -1.1926
 4010SOL    HW223493   0.526   4.186  16.219 -0.0730  1.4251  2.1694
 4011SOL     OW23494   2.281   3.553   7.708  0.0689  0.8242 -0.2484
 4011SOL    HW123495   2.318   3.467   7.690  1.2574  1.5444 -1.1898
 4011SOL    HW223496   2.357   3.599   7.672 -0.0337  0.2226 -1.2428
 4012SOL     OW23497   0.385   4.032  11.136 -0.8389  0.1219 -0.1049
 4012SOL    HW123498   0.404   4.019  11.229  0.9821 -0.6223 -0.5702
 4012SOL    HW223499   0.384   4.128  11.126  0.9760  0.2685  1.1300
 4013SOL     OW23500   0.290   3.120  13.712  0.5565  0.2749  0.4456
 4013SOL    HW123501   0.294   3.050  13.647  1.3170 -0.7280  1.5667
 4013SOL    HW223502   0.199   3.152  13.710  0.6280  0.4825  0.5146
 4014SOL     OW23503   2.229   0.909   9.346 -0.1098  0.0690 -0.4383
 4014SOL    HW123504   2.160   0.842   9.355 -0.9154  1.2757  2.1961
 4014SOL    HW223505   2.301   0.850   9.366  1.2228  0.5739 -3.7507
 4015SOL     OW23506   0.921   3.672   6.356 -0.7280  0.1100 -0.6808
 4015SOL    HW123507   0.935   3.578   6.341 -0.4124 -0.4231  2.9472
 4015SOL    HW223508   0.954   3.687   6.444 -0.4042  1.2476 -0.9991
 4016SOL     OW23509   3.831   2.679   7.518 -0.4270  0.0211  0.2151
 4016SOL    HW123510   3.846   2.586   7.502  3.7252  0.6828  0.3277
 4016SOL    HW223511   3.835   2.706   7.427  4.6502  0.4488  0.5857
 4017SOL     OW23512   3.005   2.866   4.858  0.8055 -0.3704 -0.0620
 4017SOL    HW123513   3.086   2.910   4.885 -0.1956  0.6411  1.3010
 4017SOL    HW223514   2.973   2.837   4.944  0.8943 -1.3320 -0.3552
 4018SOL     OW23515   3.737   4.508   3.438  0.3423 -0.5175  0.2818
 4018SOL    HW123516   3.741   4.594   3.481 -2.6173 -0.1276 -0.2148
 4018SOL    HW223517   3.786   4.450   3.496  1.8206  0.3148 -0.1388
 4019SOL     OW23518   1.190   1.443  13.854  0.1782 -0.2054 -0.1321
 4019SOL    HW123519   1.234   1.528  13.855  0.0945 -0.1627 -0.0967
 4019SOL    HW223520   1.201   1.430  13.948 -3.4479 -1.7341  0.0856
 4020SOL     OW23521   3.300   3.121   6.804 -0.6791  0.5198 -0.3867
 4020SOL    HW123522   3.364   3.163   6.747  0.3076 -0.0771  0.2699
 4020SOL    HW223523   3.212   3.142   6.773 -0.1346 -0.2822 -2.4860
 4021SOL     OW23524   1.417   3.962   7.571  0.4624  0.9646 -0.2731
 4021SOL    HW123525   1.335   4.010   7.562 -1.2956 -2.0877 -0.8685
 4021SOL    HW223526   1.376   3.875   7.575  1.3574  0.5803  0.5851
 4022SOL     OW23527   0.182   1.777  12.371 -0.3076 -0.0556  0.7791
 4022SOL    HW123528   0.241   1.753  12.298 -2.7297 -0.8467 -0.9065
 4022SOL    HW223529   0.230   1.746  12.448 -0.9071  0.6202  1.4173
 4023SOL     OW23530   2.554   0.474  14.147  0.5715  0.3348  0.1741
 4023SOL    HW123531   2.468   0.512  14.166  0.1218 -0.7346  0.2765
 4023SOL    HW223532   2.593   0.553  14.109 -0.6688  0.5218 -0.7214
 4024SOL     OW23533   1.760   0.259   9.712  0.2900  0.2807 -0.1941
 4024SOL    HW123534   1.772   0.168   9.684 -1.2834 -0.0053  0.0715
 4024SOL    HW223535   1.815   0.261   9.790 -0.4533  0.3223  0.3235
 4025SOL     OW23536   2.300   2.975   8.588 -0.0847 -0.4033 -0.0226
 4025SOL    HW123537   2.356   2.935   8.654  1.3809  0.8596 -0.4960
 4025SOL    HW223538   2.359   3.038   8.546 -2.0592 -0.3453 -2.6873
 4026SOL     OW23539   2.129   2.561   5.252 -0.6414 -0.3830 -0.2648
 4026SOL    HW123540   2.090   2.549   5.338  0.1765 -0.2986  0.1120
 4026SOL    HW223541   2.158   2.651   5.265  1.0437 -1.0121  0.3187
 4027SOL     OW23542   4.479   1.796   8.572 -0.1530  0.4520 -0.6291
 4027SOL    HW123543   4.387   1.777   8.559 -0.3901  0.7080  0.6651
 4027SOL    HW223544   4.491   1.820   8.664 -0.4865  0.8633 -0.6934
 4028SOL     OW23545   0.969   2.557   5.020  0.4193 -0.1056  0.4025
 4028SOL    HW123546   1.016   2.488   5.068 -1.7707 -1.0552  1.1617
 4028SOL    HW223547   0.906   2.497   4.981 -1.0301 -0.4029  3.2493
 4029SOL     OW23548   1.396   1.955  16.682 -0.3826  0.4381 -0.3312
 4029SOL    HW123549   1.450   1.889  16.725  0.1698 -0.0019 -1.7090
 4029SOL    HW223550   1.464   2.009  16.641 -0.3246  1.8331  1.6229
 4030SOL     OW23551   2.133   2.373   4.222  0.5860 -0.3933 -0.1700
 4030SOL    HW123552   2.144   2.446   4.284  0.7673 -1.0221  0.5437
 4030SOL    HW223553   2.047   2.342   4.249  0.3013 -0.0348 -0.6584
 4031SOL     OW23554   0.266   0.158   1.874  0.2205 -0.3897  0.2990
 4031SOL    HW123555   0.176   0.143   1.846 -0.3432 -0.7627  2.3760
 4031SOL    HW223556   0.256   0.247   1.907  0.7991  0.3292 -1.4616
 4032SOL     OW23557   4.151   4.530   3.407  0.1344  0.6709 -0.0938
 4032SOL    HW123558   4.189   4.443   3.422  1.6380  1.1804 -1.0098
 4032SOL    HW223559   4.142   4.527   3.312  0.1027 -3.5862  0.0104
 4033SOL     OW23560   4.082   2.200   7.707  0.4615 -0.2780  0.4674
 4033SOL    HW123561   4.099   2.141   7.780 -0.7024 -0.8992  0.2467
 4033SOL    HW223562   3.989   2.220   7.722  0.3839 -0.6489  0.4907
 4034SOL     OW23563   3.687   1.971   9.202 -0.5353 -0.7072  0.8241
 4034SOL    HW123564   3.780   1.996   9.208 -1.1497  1.5611  1.0894
 4034SOL    HW223565   3.702   1.892   9.151 -2.9539  0.3825 -1.5527
 4035SOL     OW23566   0.779   4.218   9.985 -0.3600  0.1168  0.2296
 4035SOL    HW123567   0.741   4.130   9.992  1.2299 -0.7331 -1.4341
 4035SOL    HW223568   0.737   4.255   9.907 -0.5246  1.3578  0.9238
 4036SOL     OW23569   3.893   3.600   8.149  0.0223 -0.1442 -0.2325
 4036SOL    HW123570   3.876   3.662   8.078  0.6906  0.7887  0.4158
 4036SOL    HW223571   3.887   3.653   8.229 -0.7977 -0.1733 -0.2705
 4037SOL     OW23572   0.566   1.062   9.637 -0.1369  0.5926 -0.5324
 4037SOL    HW123573   0.618   1.127   9.684  0.4845  0.4483 -1.0225
 4037SOL    HW223574   0.525   1.013   9.709  0.5442 -0.2068 -0.6848
 4038SOL     OW23575   0.738   1.109   1.110 -0.2623 -0.3672 -0.2771
 4038SOL    HW123576   0.695   1.041   1.058 -3.1557  0.8135  0.5728
 4038SOL    HW223577   0.678   1.100   1.183  1.2535 -0.9040  0.8982
 4039SOL     OW23578   1.513   3.034  14.835 -0.6243 -0.3472 -0.2300
 4039SOL    HW123579   1.592   3.012  14.786  0.2439 -0.7996  1.3647
 4039SOL    HW223580   1.538   3.098  14.902 -1.0448 -1.0165  0.5799
 4040SOL     OW23581   4.688   4.366   7.669 -0.1665 -0.5427  0.2763
 4040SOL    HW123582   4.602   4.369   7.710 -0.1978 -0.4564  0.2030
 4040SOL    HW223583   0.019   4.388   7.744 -0.2088 -0.5910  0.3218
 4041SOL     OW23584   3.224   1.275  16.049 -1.1033 -0.6542 -0.2024
 4041SOL    HW123585   3.180   1.290  15.965 -2.7158 -0.0125  0.7615
 4041SOL    HW223586   3.152   1.236  16.099 -2.3315  1.7570 -0.1062
 4042SOL     OW23587   4.159   2.328  11.304  0.2863  0.3769 -0.2035
 4042SOL    HW123588   4.101   2.399  11.333  0.9915  0.3503  1.2714
 4042SOL    HW223589   4.143   2.345  11.211 -2.2038 -0.3483  0.1023
 4043SOL     OW23590   3.278   0.670   5.745 -0.1875 -0.2205  0.5106
 4043SOL    HW123591   3.201   0.684   5.800 -0.7086  0.3034 -0.3628
 4043SOL    HW223592   3.351   0.695   5.802  0.8105 -0.9023 -0.4671
 4044SOL     OW23593   0.634   0.784   2.247 -0.2747 -0.3331 -0.0400
 4044SOL    HW123594   0.670   0.843   2.313  1.2471 -0.2713 -0.9185
 4044SOL    HW223595   0.539   0.794   2.249  0.0111  2.3468  0.3420
 4045SOL     OW23596   2.602   1.366  10.856  0.2460  0.1381 -0.0911
 4045SOL    HW123597   2.574   1.282  10.820  2.2026  0.0058 -1.2869
 4045SOL    HW223598   2.697   1.357  10.852  0.2670  1.2023 -1.9857
 4046SOL     OW23599   3.897   2.995   7.790 -0.5192 -0.0607  0.2904
 4046SOL    HW123600   3.947   3.054   7.847 -0.7229 -1.6434  2.0963
 4046SOL    HW223601   3.900   3.039   7.705 -0.3875  1.4989  1.0843
 4047SOL     OW23602   4.335   2.361   4.465  0.1302 -0.5096 -0.3219
 4047SOL    HW123603   4.374   2.431   4.414  3.1852 -1.1461  1.1502
 4047SOL    HW223604   4.399   2.347   4.535 -0.3661  1.4404  0.5234
 4048SOL     OW23605   0.920   4.013   9.803 -0.1101 -0.5674  0.1803
 4048SOL    HW123606   0.986   4.048   9.863  0.3707 -0.0016 -0.6779
 4048SOL    HW223607   0.976   3.979   9.733 -0.6895  0.2285 -0.6759
 4049SOL     OW23608   0.150   4.587  11.358 -0.2173 -0.2797  0.0579
 4049SOL    HW123609   0.205   4.611  11.432  1.0517  0.2042 -1.0226
 4049SOL    HW223610   0.128   4.672  11.320 -0.4490 -0.3673 -0.0035
 4050SOL     OW23611   3.723   3.523   8.460  0.0081  0.8915 -0.4306
 4050SOL    HW123612   3.708   3.552   8.550 -0.7650 -0.9317  0.0250
 4050SOL    HW223613   3.804   3.570   8.442  1.9468 -2.0545  0.7343
 4051SOL     OW23614   3.119   2.521   7.443 -0.3989 -0.1768 -0.1172
 4051SOL    HW123615   3.129   2.570   7.524 -2.7080  0.0419  0.0580
 4051SOL    HW223616   3.145   2.434   7.473  0.0111  0.5354  1.5812
 4052SOL     OW23617   0.599   0.793  10.489 -0.3355 -0.1741  0.2388
 4052SOL    HW123618   0.580   0.880  10.455 -1.5318 -0.1052  1.1142
 4052SOL    HW223619   0.511   0.761  10.470 -0.6348  0.3269  0.7720
 4053SOL     OW23620   1.075   0.773   5.071  0.4121  0.0905 -0.4612
 4053SOL    HW123621   1.079   0.856   5.024  0.4877  0.6093  0.4608
 4053SOL    HW223622   0.993   0.779   5.120  0.7833 -0.6813  0.2554
 4054SOL     OW23623   3.393   3.353  10.039 -0.1836 -0.1494 -0.6423
 4054SOL    HW123624   3.333   3.279  10.047 -0.8659  0.6367  1.3230
 4054SOL    HW223625   3.465   3.299  10.006 -0.4868 -1.5991  1.0681
 4055SOL     OW23626   3.736   0.439  14.530 -0.0613 -0.5619  0.2516
 4055SOL    HW123627   3.708   0.517  14.483 -0.7214 -0.5272  0.7111
 4055SOL    HW223628   3.750   0.474  14.618  0.8219  0.4714 -0.2950
 4056SOL     OW23629   1.656   3.768  14.945  0.2046  0.1624  0.2244
 4056SOL    HW123630   1.623   3.731  14.862  2.4075 -0.0340 -0.5553
 4056SOL    HW223631   1.711   3.839  14.913 -0.4892  0.9200  0.7035
 4057SOL     OW23632   3.383   1.092   2.973 -0.1326  0.2701  0.7794
 4057SOL    HW123633   3.376   1.184   3.000  3.6354  0.8692 -0.3393
 4057SOL    HW223634   3.296   1.054   2.989 -0.7363  0.8062 -1.2100
 4058SOL     OW23635   4.311   2.490  16.555  0.1825 -0.2622 -0.1653
 4058SOL    HW123636   4.233   2.484  16.610 -1.1841  1.3031 -1.9080
 4058SOL    HW223637   4.300   2.581  16.526 -0.9773 -0.5382 -0.5939
 4059SOL     OW23638   0.381   1.297  13.489 -0.1577 -0.2670  0.8724
 4059SOL    HW123639   0.376   1.206  13.460 -0.1231  0.0426 -0.0958
 4059SOL    HW223640   0.389   1.287  13.584  1.8821  0.1349  0.7630
 4060SOL     OW23641   2.634   3.640   2.374 -0.3163 -0.1508 -0.0287
 4060SOL    HW123642   2.621   3.560   2.323  1.7185 -1.4805  1.4755
 4060SOL    HW223643   2.575   3.699   2.328  1.0640  0.5572 -0.8814
 4061SOL     OW23644   1.895   3.525   4.753  0.0500  0.1410  0.4108
 4061SOL    HW123645   1.920   3.438   4.783  2.6122  0.5215 -0.6372
 4061SOL    HW223646   1.809   3.508   4.714 -0.2449 -1.1413  1.6154
 4062SOL     OW23647   0.761   2.747   1.719  0.1870 -0.8371 -0.0555
 4062SOL    HW123648   0.758   2.814   1.788  0.2264  0.1728 -1.0258
 4062SOL    HW223649   0.757   2.795   1.636 -0.1473  0.9646  0.9957
 4063SOL     OW23650   1.939   1.725   8.546 -0.3716 -0.3582  0.1621
 4063SOL    HW123651   2.006   1.788   8.518  0.3027 -2.2241 -2.4165
 4063SOL    HW223652   1.966   1.716   8.637  1.6779 -2.1798 -0.6294
 4064SOL     OW23653   3.831   3.270   4.602 -0.3121 -0.3005 -0.2146
 4064SOL    HW123654   3.809   3.278   4.695  0.9007  0.0563  0.0428
 4064SOL    HW223655   3.820   3.357   4.563 -2.2575  0.2397  1.5552
 4065SOL     OW23656   0.488   1.023   7.652  0.2222 -0.0149  0.3509
 4065SOL    HW123657   0.414   0.995   7.599 -0.3555  1.2289  0.4949
 4065SOL    HW223658   0.465   1.021   7.745 -1.4781 -2.2729 -0.1187
 4066SOL     OW23659   2.158   1.625   3.878  0.2137  0.5800 -0.2466
 4066SOL    HW123660   2.195   1.660   3.797 -0.0439  1.8592  0.2051
 4066SOL    HW223661   2.152   1.535   3.845  0.2489  0.3041  0.4987
 4067SOL     OW23662   3.736   4.221  13.761  0.1667 -0.0368  0.1418
 4067SOL    HW123663   3.787   4.213  13.841  0.7496 -1.1198 -0.3469
 4067SOL    HW223664   3.706   4.130  13.756  2.0123 -0.4379 -3.3789
 4068SOL     OW23665   1.167   3.582   3.828  0.1149 -0.5102  0.2788
 4068SOL    HW123666   1.186   3.650   3.763  2.8195 -1.0071  0.5487
 4068SOL    HW223667   1.169   3.625   3.913  2.1410  0.3952 -0.2186
 4069SOL     OW23668   4.151   4.355  16.440 -0.1922 -0.2905  0.4066
 4069SOL    HW123669   4.130   4.287  16.504 -1.1806 -0.6765 -0.3318
 4069SOL    HW223670   4.134   4.434  16.490  2.0783 -1.1031  2.4589
 4070SOL     OW23671   0.667   2.088   4.383  0.2138 -0.4423  0.1467
 4070SOL    HW123672   0.593   2.056   4.434 -0.4821  0.5789 -0.2196
 4070SOL    HW223673   0.713   2.004   4.375 -0.8385 -1.2859  2.7948
 4071SOL     OW23674   3.910   1.550  13.197 -0.2963 -0.0731 -0.1066
 4071SOL    HW123675   3.927   1.603  13.119  0.2670 -0.0608  0.0229
 4071SOL    HW223676   3.927   1.464  13.159  2.6481  0.3007  0.3925
 4072SOL     OW23677   3.033   4.156   9.195 -0.1452 -0.4322 -0.4005
 4072SOL    HW123678   3.034   4.142   9.290  3.5970 -0.9578 -0.5412
 4072SOL    HW223679   2.949   4.113   9.178 -0.8136  0.8085 -0.2345
 4073SOL     OW23680   3.619   0.263  16.505 -0.5447 -0.3170  0.0138
 4073SOL    HW123681   3.595   0.213  16.583  0.3429 -0.9332 -0.1089
 4073SOL    HW223682   3.711   0.242  16.488 -0.8088 -1.7288  0.3081
 4074SOL     OW23683   0.910   2.199   1.876 -0.0957  0.3783  0.4841
 4074SOL    HW123684   0.880   2.235   1.959 -0.6082  1.0804  0.0041
 4074SOL    HW223685   0.980   2.262   1.862 -0.0506  0.0443 -0.8222
 4075SOL     OW23686   4.436   2.391   3.269  0.2899  0.7887  0.1868
 4075SOL    HW123687   4.507   2.438   3.226 -1.0998  0.3924 -2.5699
 4075SOL    HW223688   4.485   2.332   3.326 -2.8015 -1.2823  0.6938
 4076SOL     OW23689   2.068   0.567   3.454  0.0620  0.1341 -0.2908
 4076SOL    HW123690   2.138   0.549   3.391 -0.6350  1.3335 -1.3939
 4076SOL    HW223691   1.997   0.554   3.392 -0.2808 -0.8207  0.2928
 4077SOL     OW23692   0.797   4.286   5.692 -0.4479  0.2224 -0.1275
 4077SOL    HW123693   0.847   4.365   5.672 -2.6256  1.6267 -0.0682
 4077SOL    HW223694   0.716   4.307   5.646 -0.4781  0.6338  0.1209
 4078SOL     OW23695   0.135   0.088   6.147  0.3551  0.1514 -0.1140
 4078SOL    HW123696   0.095   0.061   6.065 -1.9361 -0.4124  1.1933
 4078SOL    HW223697   0.120   0.182   6.138 -0.6339  0.1103  1.1781
 4079SOL     OW23698   4.555   1.167   4.201  0.4386 -0.1347  0.6306
 4079SOL    HW123699   4.617   1.221   4.250 -0.1320 -1.1092  2.4590
 4079SOL    HW223700   4.605   1.153   4.121 -1.0604 -2.1834  0.0520
 4080SOL     OW23701   3.821   2.302  11.679 -0.7287 -0.1093 -0.7455
 4080SOL    HW123702   3.764   2.260  11.743 -0.6240  2.3936  0.9680
 4080SOL    HW223703   3.788   2.266  11.596 -0.8459 -3.0497  0.5974
 4081SOL     OW23704   1.536   2.307  14.384 -0.1062 -0.8890 -0.2129
 4081SOL    HW123705   1.499   2.348  14.306  0.5253  1.9897  0.9883
 4081SOL    HW223706   1.527   2.380  14.446  0.7725  1.9414 -3.4136
 4082SOL     OW23707   4.026   2.757   7.704  0.3425  0.5220 -0.2328
 4082SOL    HW123708   3.956   2.705   7.663  0.1274  0.4552  0.2147
 4082SOL    HW223709   3.981   2.836   7.734 -1.5559 -0.8121  0.4723
 4083SOL     OW23710   1.622   3.513   5.469 -0.1940  0.0243  0.0570
 4083SOL    HW123711   1.614   3.548   5.558 -0.2843  1.6361 -0.5962
 4083SOL    HW223712   1.528   3.500   5.451 -0.4820  2.7917 -0.3974
 4084SOL     OW23713   3.038   2.287  10.999  0.1869  0.3212  0.7978
 4084SOL    HW123714   3.108   2.350  11.015  0.4985  0.3533 -0.6976
 4084SOL    HW223715   3.055   2.201  11.036 -2.5897 -1.2953 -1.6564
 4085SOL     OW23716   1.441   2.603  16.979 -0.4798 -0.1852 -0.2701
 4085SOL    HW123717   1.459   2.510  16.984  0.9375  0.0128 -1.7628
 4085SOL    HW223718   1.461   2.615  16.886 -1.8365  2.0212 -0.2934
 4086SOL     OW23719   1.251   2.088   1.332  0.3551 -0.8174 -0.5850
 4086SOL    HW123720   1.322   2.035   1.368 -0.4442 -2.0584 -0.8252
 4086SOL    HW223721   1.218   2.129   1.412  0.0000  0.5240 -1.4135
 4087SOL     OW23722   0.971   4.217   4.970  0.3027 -0.3037 -0.1201
 4087SOL    HW123723   0.982   4.124   4.989  1.6469  0.1167  1.1907
 4087SOL    HW223724   0.875   4.213   4.975  0.2212  1.4870 -0.4216
 4088SOL     OW23725   0.109   2.420  13.202  0.2285 -0.1722  0.5364
 4088SOL    HW123726   0.124   2.467  13.120 -0.1765 -1.7651 -0.4294
 4088SOL    HW223727   0.195   2.378  13.205  0.0797 -0.4364  1.0289
 4089SOL     OW23728   3.723   4.177   7.691 -0.2104 -0.2483 -0.1943
 4089SOL    HW123729   3.661   4.211   7.626  1.9108  4.1421  0.0767
 4089SOL    HW223730   3.802   4.159   7.641 -0.3559 -0.5397 -0.3178
 4090SOL     OW23731   1.482   2.042   2.434  0.0999 -0.2362 -0.0409
 4090SOL    HW123732   1.429   1.980   2.384  0.5127 -0.3263 -0.3632
 4090SOL    HW223733   1.554   2.061   2.374 -0.1377 -1.2781 -0.6474
 4091SOL     OW23734   3.742   2.038   1.645 -0.2515  0.0827 -0.1600
 4091SOL    HW123735   3.700   2.064   1.727  0.6666  0.5439  0.1626
 4091SOL    HW223736   3.740   2.119   1.594 -1.3984 -0.3727 -0.8436
 4092SOL     OW23737   3.527   0.645  10.835  0.3839 -0.0127  0.2873
 4092SOL    HW123738   3.524   0.556  10.871 -0.5366  0.5897  1.7300
 4092SOL    HW223739   3.601   0.644  10.774  0.4499 -0.8345  0.3830
 4093SOL     OW23740   2.651   1.483  13.061 -0.2907  0.2872 -0.3639
 4093SOL    HW123741   2.603   1.527  12.991 -0.5827 -1.0718 -1.0011
 4093SOL    HW223742   2.584   1.445  13.118 -0.5640 -1.0016 -1.5458
 4094SOL     OW23743   2.510   1.816   3.389 -0.2197  0.2763 -0.4593
 4094SOL    HW123744   2.589   1.772   3.359 -1.1455  0.2520 -2.8602
 4094SOL    HW223745   2.474   1.744   3.440  0.7624 -1.1052 -1.7278
 4095SOL     OW23746   2.920   3.255  13.516  0.2186 -0.4422  0.3932
 4095SOL    HW123747   2.926   3.196  13.441 -0.5428 -2.0483  1.5941
 4095SOL    HW223748   3.000   3.308  13.514 -0.2224  0.1705 -0.5747
 4096SOL     OW23749   4.188   0.547   2.453  0.3198 -0.2225 -0.2366
 4096SOL    HW123750   4.118   0.496   2.414 -0.3983 -1.3255  2.4764
 4096SOL    HW223751   4.237   0.581   2.379 -0.2404  2.5787  0.6466
 4097SOL     OW23752   2.739   3.008  14.536  0.2941  0.2522 -0.6404
 4097SOL    HW123753   2.694   3.083  14.496 -3.1096 -0.0366  2.6942
 4097SOL    HW223754   2.714   2.935  14.480 -0.1766  1.0704 -1.5056
 4098SOL     OW23755   3.635   3.767   4.011 -0.3085 -0.1614  0.2885
 4098SOL    HW123756   3.697   3.826   3.968  0.0515  1.5847  3.1619
 4098SOL    HW223757   3.639   3.789   4.105 -0.1504  0.9138  0.0374
 4099SOL     OW23758   0.758   1.471  17.519 -0.6777  0.5858  0.1579
 4099SOL    HW123759   0.720   1.511  17.597 -0.9019  0.6649  0.0115
 4099SOL    HW223760   0.802   1.396  17.558 -1.8814 -0.5218 -0.6157
 4100SOL     OW23761   2.512   1.346  14.906  0.3783  0.1008  0.1802
 4100SOL    HW123762   2.418   1.356  14.892  0.5777 -0.4928 -1.4998
 4100SOL    HW223763   2.525   1.258  14.871  2.3898  0.1268  0.8464
 4101SOL     OW23764   0.374   2.744   6.426 -0.1209 -0.3187  0.3775
 4101SOL    HW123765   0.396   2.715   6.515 -0.6323  0.8299  0.8673
 4101SOL    HW223766   0.283   2.716   6.432  0.5635 -2.3246  1.7523
 4102SOL     OW23767   3.380   0.466  10.341 -0.0027 -0.0778  0.2867
 4102SOL    HW123768   3.358   0.432  10.255  0.4946 -0.4916  0.3271
 4102SOL    HW223769   3.473   0.448  10.358 -0.1358 -0.2114  0.8721
 4103SOL     OW23770   2.884   2.124   5.123  0.1451 -0.3095 -0.1883
 4103SOL    HW123771   2.827   2.091   5.192  0.6923 -1.3478 -0.2390
 4103SOL    HW223772   2.885   2.044   5.072 -0.8526  0.2916 -1.1564
 4104SOL     OW23773   3.579   4.412  13.613 -0.0349  0.0301  0.5313
 4104SOL    HW123774   3.489   4.381  13.599 -0.2431  0.7174  0.3328
 4104SOL    HW223775   3.615   4.343  13.668 -2.4266 -1.8331 -0.2667
 4105SOL     OW23776   2.905   4.016  17.029 -0.2478 -0.2672  0.2051
 4105SOL    HW123777   2.995   4.034  17.053 -0.3284  0.4827 -0.0688
 4105SOL    HW223778   2.868   4.104  17.033 -2.2410 -1.0420 -0.7692
 4106SOL     OW23779   0.504   1.643   8.250  0.5874  0.1758 -0.2182
 4106SOL    HW123780   0.412   1.667   8.265  0.8980  1.2831 -0.0961
 4106SOL    HW223781   0.512   1.628   8.156 -1.4757  0.5802 -0.4748
 4107SOL     OW23782   0.969   0.673   8.524  0.3769 -0.2246  0.2488
 4107SOL    HW123783   1.007   0.738   8.466 -0.4198 -0.9241 -1.0355
 4107SOL    HW223784   1.036   0.660   8.591  0.1587 -0.5192  0.4108
 4108SOL     OW23785   1.704   4.481  11.627 -0.0879  0.3136  0.3794
 4108SOL    HW123786   1.621   4.438  11.605 -0.5326  0.7488  1.2022
 4108SOL    HW223787   1.673   4.551  11.684 -3.8169 -1.5912  0.7297
 4109SOL     OW23788   1.421   2.378   1.838  0.5009 -0.3580 -0.3738
 4109SOL    HW123789   1.389   2.390   1.927 -1.3592  0.8915 -1.2274
 4109SOL    HW223790   1.512   2.362   1.863  0.2229  0.2153  0.9761
 4110SOL     OW23791   3.389   3.021  15.793  0.4002 -0.2392 -0.1188
 4110SOL    HW123792   3.362   3.103  15.834  1.1861 -0.0916  0.1195
 4110SOL    HW223793   3.308   2.971  15.791 -0.5573  1.3624 -1.0596
 4111SOL     OW23794   2.120   2.752   1.692 -0.3419 -0.4432 -0.6497
 4111SOL    HW123795   2.059   2.704   1.749 -1.5134  0.9433 -0.7548
 4111SOL    HW223796   2.178   2.685   1.655 -1.5519 -0.1822 -2.9833
 4112SOL     OW23797   3.797   1.130   4.419  0.3619  0.3134  0.3521
 4112SOL    HW123798   3.702   1.138   4.427  0.3017 -0.5195  0.4362
 4112SOL    HW223799   3.802   1.036   4.403 -3.1756 -0.0802  1.6378
 4113SOL     OW23800   2.138   0.342  10.501 -0.4225  0.4256 -0.0687
 4113SOL    HW123801   2.223   0.298  10.504 -1.3162 -1.0944  2.0428
 4113SOL    HW223802   2.127   0.389  10.583 -0.8832  1.3932 -0.6824
 4114SOL     OW23803   4.326   1.448   4.954  0.0929  0.2626 -0.1312
 4114SOL    HW123804   4.366   1.474   4.871 -1.2322 -0.8115 -1.1010
 4114SOL    HW223805   4.302   1.356   4.945 -0.5332  0.3286  0.9259
 4115SOL     OW23806   2.398   0.454  10.325  0.4400 -0.2847 -0.2570
 4115SOL    HW123807   2.404   0.368  10.283 -0.4636 -0.2740 -0.4003
 4115SOL    HW223808   2.420   0.430  10.415  0.3475  0.1645 -0.1162
 4116SOL     OW23809   4.714   3.593   1.225 -0.1785  0.4578 -0.2930
 4116SOL    HW123810   4.649   3.526   1.244 -0.1976  0.9715  1.4690
 4116SOL    HW223811   4.661   3.651   1.171 -0.8059  0.4026  0.2658
 4117SOL     OW23812   1.404   1.528   6.264 -0.0037  0.2474  0.7449
 4117SOL    HW123813   1.380   1.620   6.260  0.8020  0.2599 -3.2100
 4117SOL    HW223814   1.399   1.510   6.358  0.1801 -0.4968  0.6151
 4118SOL     OW23815   2.733   4.445   5.866  0.3808  0.3424  1.0141
 4118SOL    HW123816   2.678   4.523   5.871  1.9385  1.4584  0.5748
 4118SOL    HW223817   2.812   4.485   5.901 -0.0846  1.9820  0.1977
 4119SOL     OW23818   3.297   1.979  12.960 -0.2154 -0.0067  0.0240
 4119SOL    HW123819   3.262   1.965  13.048 -0.2717  1.9882  0.3226
 4119SOL    HW223820   3.390   1.981  12.983 -0.1335  0.6909 -0.3701
 4120SOL     OW23821   3.710   2.701   0.191 -0.3768  0.0431 -0.4190
 4120SOL    HW123822   3.655   2.647   0.247 -1.2586  2.6993  1.2522
 4120SOL    HW223823   3.796   2.665   0.212  0.8173  3.5588  0.7876
 4121SOL     OW23824   1.978   3.339   7.897 -0.1531  0.2126  0.1435
 4121SOL    HW123825   2.011   3.297   7.976  1.2111 -0.7151 -0.9313
 4121SOL    HW223826   1.895   3.364   7.938 -2.0534 -0.6774 -3.1434
 4122SOL     OW23827   2.666   2.436   7.568 -0.0853 -0.1520 -0.2368
 4122SOL    HW123828   2.594   2.498   7.582 -0.0775 -0.0869 -0.4942
 4122SOL    HW223829   2.616   2.355   7.560 -2.1917  1.0776  0.3790
 4123SOL     OW23830   0.746   2.976   3.200 -0.2371 -0.0012  0.0069
 4123SOL    HW123831   0.772   3.008   3.286 -2.5607 -0.4217  0.8684
 4123SOL    HW223832   0.681   3.036   3.162  0.0248  0.6513  0.6033
 4124SOL     OW23833   3.952   3.827   8.652 -0.4539  0.0529  0.0053
 4124SOL    HW123834   3.940   3.775   8.731 -1.2371  0.5413  0.2043
 4124SOL    HW223835   3.937   3.918   8.679 -1.2532 -0.3402  0.8634
 4125SOL     OW23836   2.929   3.206   9.294 -0.0107 -0.3978 -0.0458
 4125SOL    HW123837   2.944   3.219   9.387 -0.4902 -0.6035  0.0597
 4125SOL    HW223838   2.863   3.137   9.294  0.2083 -0.6072  0.0246
 4126SOL     OW23839   2.032   4.160   9.321  0.0019 -0.1029  0.1597
 4126SOL    HW123840   2.049   4.084   9.377 -1.4978  1.1503  2.3303
 4126SOL    HW223841   1.984   4.221   9.378  0.8288  1.5156 -0.8948
 4127SOL     OW23842   0.729   3.035  12.284 -0.1723 -0.0177 -0.1104
 4127SOL    HW123843   0.652   3.070  12.240 -0.7932 -1.5116 -0.1937
 4127SOL    HW223844   0.771   2.990  12.211 -0.3457  2.2082 -1.5911
 4128SOL     OW23845   3.053   3.586   4.419 -0.5427  0.4500  0.7427
 4128SOL    HW123846   3.047   3.490   4.423  0.4462  0.3013 -1.4235
 4128SOL    HW223847   3.034   3.627   4.504 -0.8989  0.4857  0.6425
 4129SOL     OW23848   3.002   2.462   3.278  0.0017 -0.3628  0.3654
 4129SOL    HW123849   3.051   2.532   3.322  4.4859 -1.6544 -2.6315
 4129SOL    HW223850   3.068   2.420   3.223  1.0779 -0.5137  1.7775
 4130SOL     OW23851   2.294   0.162   8.945  0.2754 -0.0308  0.3191
 4130SOL    HW123852   2.241   0.122   8.876 -1.9746  0.1374  1.9477
 4130SOL    HW223853   2.222   0.166   9.008  0.1955  0.4699  0.2003
 4131SOL     OW23854   3.602   2.073  11.198 -0.1564 -0.1012  0.0377
 4131SOL    HW123855   3.584   2.014  11.271  1.7125 -0.3735  0.2863
 4131SOL    HW223856   3.592   2.013  11.124  0.4139  0.8615 -0.8166
 4132SOL     OW23857   0.223   1.091   2.994 -0.5048  0.4137 -0.0255
 4132SOL    HW123858   0.296   1.127   3.045 -0.0275 -0.9049  0.2221
 4132SOL    HW223859   0.267   1.024   2.941  2.6430  1.8718  0.7363
 4133SOL     OW23860   1.195   1.428   8.280 -0.1789  0.1020 -0.1077
 4133SOL    HW123861   1.162   1.438   8.191  2.0165  0.5076 -0.8839
 4133SOL    HW223862   1.135   1.481   8.332  1.7029  2.0954  0.0495
 4134SOL     OW23863   4.712   4.687   4.358 -0.6520  0.0933  0.4383
 4134SOL    HW123864   0.050   4.705   4.289 -0.2201  1.4008  1.1862
 4134SOL    HW223865   4.640   0.018   4.329  0.4299  0.5733 -1.3272
 4135SOL     OW23866   1.179   4.602  11.697  0.3637 -0.0713 -0.2636
 4135SOL    HW123867   1.268   4.588  11.728  0.2808 -0.1652 -0.0671
 4135SOL    HW223868   1.140   4.621  11.782  0.5479  1.8010 -0.6128
 4136SOL     OW23869   0.962   1.015   8.160  0.2089 -0.0253 -0.2586
 4136SOL    HW123870   1.034   1.072   8.185 -0.5871  1.2017 -0.7447
 4136SOL    HW223871   0.914   1.014   8.243  0.1087  2.5188 -0.2953
 4137SOL     OW23872   0.956   1.805   2.329  0.1090 -0.0591 -0.1132
 4137SOL    HW123873   0.868   1.842   2.335  0.6777  1.0334  1.5642
 4137SOL    HW223874   0.965   1.797   2.234  1.8589 -0.4496  0.0797
 4138SOL     OW23875   3.491   3.088   6.145 -0.0015 -0.0466 -0.3015
 4138SOL    HW123876   3.487   2.997   6.175  1.4747 -0.7116 -2.1461
 4138SOL    HW223877   3.473   3.062   6.055 -1.7531 -0.2761  0.1268
 4139SOL     OW23878   1.926   2.104  16.657  0.2382 -0.3304 -0.5502
 4139SOL    HW123879   1.896   2.058  16.736  1.1178 -1.8165 -1.0664
 4139SOL    HW223880   2.006   2.056  16.638 -0.1404 -0.7850 -1.0139
 4140SOL     OW23881   0.695   2.961   8.294 -0.1370 -0.1653 -0.2822
 4140SOL    HW123882   0.754   2.911   8.237 -0.2475 -0.1156 -0.4428
 4140SOL    HW223883   0.695   2.913   8.377  0.8557 -0.6231 -0.5392
 4141SOL     OW23884   2.058   4.403  15.433 -0.2502 -0.0999 -0.1987
 4141SOL    HW123885   2.064   4.383  15.526 -0.8698  0.2673 -0.0797
 4141SOL    HW223886   2.114   4.480  15.424  1.2049 -0.9486  1.6362
 4142SOL     OW23887   4.499   1.823   3.862  0.2949 -0.5512  0.1068
 4142SOL    HW123888   4.421   1.798   3.911  0.0103  0.8983  0.3718
 4142SOL    HW223889   4.516   1.912   3.892  2.5029 -1.0872  0.4245
 4143SOL     OW23890   0.569   3.864   2.116 -0.7771  0.4249  0.2101
 4143SOL    HW123891   0.642   3.891   2.059  0.2345  0.2053  1.4031
 4143SOL    HW223892   0.509   3.934   2.090  0.2025  1.4139  0.6000
 4144SOL     OW23893   0.389   4.393   8.551  0.2000  0.0598 -0.1700
 4144SOL    HW123894   0.354   4.447   8.480  1.1753  0.1862 -0.5495
 4144SOL    HW223895   0.327   4.407   8.623 -0.3265  0.7445 -0.7659
 4145SOL     OW23896   1.623   0.501   4.608  0.4071 -0.0625  0.0010
 4145SOL    HW123897   1.662   0.439   4.670  2.2170 -1.6883 -2.7480
 4145SOL    HW223898   1.603   0.439   4.538 -0.3636 -0.4511  0.5631
 4146SOL     OW23899   1.344   2.519  13.296 -0.5747  0.2677  0.2572
 4146SOL    HW123900   1.287   2.570  13.353  0.0331  1.6937 -0.4117
 4146SOL    HW223901   1.281   2.458  13.258 -1.1595  2.3241 -2.0940
 4147SOL     OW23902   4.551   3.058   3.012  0.1686 -0.0483  0.2708
 4147SOL    HW123903   4.574   3.149   2.996  0.6653 -0.2485 -0.1968
 4147SOL    HW223904   4.569   3.057   3.106 -0.9719 -1.4280  0.4707
 4148SOL     OW23905   3.076   4.529   8.475 -1.0205 -0.3001  0.2295
 4148SOL    HW123906   3.166   4.495   8.470 -0.1395  2.3939 -1.6413
 4148SOL    HW223907   3.092   4.622   8.488 -2.5182 -0.2038  1.3078
 4149SOL     OW23908   2.385   0.048  16.708  0.1057  0.2208  0.1774
 4149SOL    HW123909   2.348   0.112  16.769 -0.8812  0.5084 -0.7167
 4149SOL    HW223910   2.391   0.101  16.628  0.3378 -0.4603 -0.2551
 4150SOL     OW23911   3.485   1.263   5.539  0.2275  0.1578  0.3323
 4150SOL    HW123912   3.477   1.271   5.444  0.2294 -0.8739  0.2545
 4150SOL    HW223913   3.459   1.353   5.559  0.7060  0.2729  0.4526
 4151SOL     OW23914   3.538   3.388   1.069  0.2454  0.2175  0.2815
 4151SOL    HW123915   3.514   3.341   0.989 -0.3542 -1.3098  1.3663
 4151SOL    HW223916   3.537   3.479   1.040  2.3117 -0.1349 -0.9466
 4152SOL     OW23917   1.260   3.174   0.203  0.6340 -0.0272  0.5218
 4152SOL    HW123918   1.284   3.083   0.188  2.1238  0.7234 -1.7139
 4152SOL    HW223919   1.334   3.217   0.159  1.3281 -0.4556  1.2749
 4153SOL     OW23920   3.216   2.666   2.855  0.3817  0.2327  0.2259
 4153SOL    HW123921   3.233   2.721   2.931  2.2498  1.5929 -1.1786
 4153SOL    HW223922   3.168   2.592   2.892  0.5950 -0.7119 -1.3849
 4154SOL     OW23923   1.663   4.293   7.050  0.3595 -0.0771  0.2008
 4154SOL    HW123924   1.629   4.372   7.093 -0.8304 -1.3382  1.5722
 4154SOL    HW223925   1.640   4.222   7.109 -1.0487 -0.3928 -0.7154
 4155SOL     OW23926   1.500   3.480  17.594  0.1511 -0.1732 -0.1275
 4155SOL    HW123927   1.565   3.484  17.524 -0.1120 -0.5399 -0.3938
 4155SOL    HW223928   1.476   3.570  17.616  0.7869  0.0155 -0.2171
 4156SOL     OW23929   2.417   1.237  17.241  0.2138 -0.0737 -0.2610
 4156SOL    HW123930   2.421   1.148  17.276 -0.3005 -1.0502 -2.6776
 4156SOL    HW223931   2.335   1.234  17.192 -0.9634 -1.8387  1.8233
 4157SOL     OW23932   3.485   2.677   7.206 -0.1195 -0.3854 -0.2619
 4157SOL    HW123933   3.513   2.648   7.119  0.4739  1.8158 -0.7944
 4157SOL    HW223934   3.400   2.633   7.217 -0.5793  0.8998  1.2264
 4158SOL     OW23935   4.547   3.105   4.266 -0.7615 -0.1834  0.0639
 4158SOL    HW123936   4.484   3.167   4.232  0.7783  1.3265 -0.0404
 4158SOL    HW223937   4.604   3.163   4.316 -0.3711  0.5220 -1.2025
 4159SOL     OW23938   1.118   2.047  12.563 -0.3261  0.3655  0.0907
 4159SOL    HW123939   1.126   2.119  12.501 -1.6937  1.6049  1.3242
 4159SOL    HW223940   1.118   2.094  12.647 -0.4614  2.1978 -0.9470
 4160SOL     OW23941   3.421   4.448  12.985  0.1133  0.1139 -0.3083
 4160SOL    HW123942   3.511   4.453  12.953  0.4845  1.6881  0.9682
 4160SOL    HW223943   3.414   4.354  13.002 -0.2472  0.3421  0.8723
 4161SOL     OW23944   3.720   2.641   8.195 -0.2655  0.2265 -1.0988
 4161SOL    HW123945   3.664   2.699   8.247 -0.4187 -1.6445  0.8348
 4161SOL    HW223946   3.686   2.649   8.106 -0.7764  1.8326 -0.7643
 4162SOL     OW23947   3.220   2.206  10.767 -0.1750  0.3903  0.3548
 4162SOL    HW123948   3.284   2.231  10.833  0.9308  0.8612 -0.9088
 4162SOL    HW223949   3.138   2.210  10.817  0.2954  0.9900  1.0743
 4163SOL     OW23950   4.372   3.008   1.431  0.0501 -0.3234  0.2060
 4163SOL    HW123951   4.428   3.066   1.379  0.0130 -0.0845  0.4362
 4163SOL    HW223952   4.294   2.996   1.376 -1.1011  0.6415  1.6242
 4164SOL     OW23953   1.882   1.396   6.579  0.0409 -0.3123 -0.3934
 4164SOL    HW123954   1.864   1.302   6.574  0.7821 -0.4151 -1.1123
 4164SOL    HW223955   1.919   1.393   6.667 -0.5913 -0.0940 -0.1163
 4165SOL     OW23956   1.557   0.796   6.333  0.2135 -0.2137  0.5147
 4165SOL    HW123957   1.569   0.707   6.365  1.1776 -0.0164  0.7002
 4165SOL    HW223958   1.471   0.780   6.293  1.0674 -0.9100 -1.0462
 4166SOL     OW23959   1.896   0.739   7.589 -0.5204 -0.6768 -0.0208
 4166SOL    HW123960   1.941   0.658   7.567 -1.4538 -1.3765  0.6305
 4166SOL    HW223961   1.928   0.758   7.678 -1.3481 -0.8911  0.3207
 4167SOL     OW23962   3.306   1.766  16.661 -0.1308 -0.1452  0.2079
 4167SOL    HW123963   3.360   1.724  16.728 -0.5963  1.9396  1.8750
 4167SOL    HW223964   3.294   1.849  16.706  1.1905  1.2417 -1.9958
 4168SOL     OW23965   2.189   0.713   4.944  0.5822 -0.3482 -0.3635
 4168SOL    HW123966   2.252   0.783   4.959  0.9142 -1.3254  2.7680
 4168SOL    HW223967   2.183   0.729   4.850  0.3667 -1.3171 -0.5183
 4169SOL     OW23968   4.165   0.396   3.911 -0.1042 -0.0725  0.2672
 4169SOL    HW123969   4.119   0.461   3.858  2.1051 -1.3192 -3.2027
 4169SOL    HW223970   4.105   0.323   3.899  0.3667 -0.3944 -0.1990
 4170SOL     OW23971   1.796   0.034   0.784 -0.3681  0.1638 -0.5700
 4170SOL    HW123972   1.701   0.043   0.776 -0.1377 -0.2622 -3.6269
 4170SOL    HW223973   1.795   0.040   0.880  0.2147  3.5749 -0.7601
 4171SOL     OW23974   2.540   3.274   4.962 -0.0550 -0.0754 -0.7970
 4171SOL    HW123975   2.598   3.332   5.012  0.7382 -1.3970 -0.1602
 4171SOL    HW223976   2.472   3.339   4.948  0.5103  0.4564 -1.0980
 4172SOL     OW23977   0.531   1.225   2.444 -0.7996  0.0529  0.1639
 4172SOL    HW123978   0.515   1.299   2.385  0.1888 -0.9795 -1.3897
 4172SOL    HW223979   0.531   1.280   2.523  0.2053 -0.0887  0.2620
 4173SOL     OW23980   4.261   2.808  10.436  0.0394  0.1362  0.5147
 4173SOL    HW123981   4.256   2.828  10.343  3.2487 -2.2475 -0.1533
 4173SOL    HW223982   4.342   2.856  10.451  0.4612 -0.3412 -0.2403
 4174SOL     OW23983   2.094   3.037  11.827  0.1784 -0.2530 -0.3752
 4174SOL    HW123984   2.160   2.979  11.789  1.1952  0.6560  0.0102
 4174SOL    HW223985   2.116   3.032  11.920  1.7662 -0.2672 -0.7670
 4175SOL     OW23986   1.075   2.580  15.909 -0.1583  0.0142  0.2194
 4175SOL    HW123987   1.106   2.659  15.953  1.5133 -0.3246 -0.3598
 4175SOL    HW223988   0.994   2.565  15.959 -0.5476 -1.0013 -0.7250
 4176SOL     OW23989   1.666   2.785   3.355  0.8124 -0.6219 -0.4501
 4176SOL    HW123990   1.664   2.758   3.447 -1.8419 -0.0186 -0.3299
 4176SOL    HW223991   1.737   2.850   3.357 -0.2737  0.5412  0.7440
 4177SOL     OW23992   1.892   3.653  11.071  0.0821 -0.8049 -0.0292
 4177SOL    HW123993   1.844   3.652  11.154  1.1268  0.7906  0.6018
 4177SOL    HW223994   1.848   3.586  11.018 -2.0996  0.6628 -0.0853
 4178SOL     OW23995   0.887   2.930   2.603 -0.5167 -0.4300  0.4827
 4178SOL    HW123996   0.960   2.880   2.568  1.6602  1.4853  2.2959
 4178SOL    HW223997   0.859   2.870   2.672 -0.2445  0.2172  1.1569
 4179SOL     OW23998   0.563   0.770  17.587 -0.2651  0.0278 -0.1044
 4179SOL    HW123999   0.590   0.685  17.622  0.5008  0.2871 -0.0529
 4179SOL    HW224000   0.485   0.783  17.640 -0.4051 -2.0329  0.2001
 4180SOL     OW24001   4.640   1.362  14.007  0.0431  0.0672  0.4516
 4180SOL    HW124002   4.605   1.342  13.920 -0.5420  0.8878  0.4911
 4180SOL    HW224003   4.588   1.440  14.026 -1.0250 -0.4973 -0.1497
 4181SOL     OW24004   0.924   0.594   8.088  0.2478 -0.2310 -0.2473
 4181SOL    HW124005   0.869   0.671   8.083 -1.3385 -1.3243  0.3657
 4181SOL    HW224006   0.898   0.554   8.171  1.0547  0.5439  0.3850
 4182SOL     OW24007   3.419   3.733  10.312 -0.5103  0.3655 -0.3767
 4182SOL    HW124008   3.460   3.750  10.397  0.7900 -2.3494 -0.4606
 4182SOL    HW224009   3.455   3.791  10.245  1.7142 -2.0892 -1.3128
 4183SOL     OW24010   3.887   4.263  13.524  0.2896  0.4566 -0.7576
 4183SOL    HW124011   3.827   4.294  13.592 -0.3474 -2.8822  0.2082
 4183SOL    HW224012   3.903   4.176  13.560 -0.9302 -0.8335 -3.2885
 4184SOL     OW24013   4.289   1.770   0.697 -0.3020 -0.0996 -0.0634
 4184SOL    HW124014   4.365   1.824   0.673  0.1881 -0.6604  0.2397
 4184SOL    HW224015   4.297   1.701   0.632  0.7365 -0.0454  0.0051
 4185SOL     OW24016   3.992   4.385   1.621  0.1012  0.6162 -0.2780
 4185SOL    HW124017   3.950   4.352   1.542 -0.6523  0.6317  0.1179
 4185SOL    HW224018   4.034   4.465   1.590  1.5483  0.0006  0.1005
 4186SOL     OW24019   2.237   0.854   1.861  0.4462  0.4180  0.4805
 4186SOL    HW124020   2.284   0.916   1.916 -1.0754  1.1469  0.9384
 4186SOL    HW224021   2.271   0.767   1.880  0.5721  0.1537 -0.9162
 4187SOL     OW24022   0.979   1.738   7.451  0.3330 -0.1544  0.5288
 4187SOL    HW124023   1.019   1.814   7.492  1.3167  0.2186 -1.1079
 4187SOL    HW224024   1.055   1.682   7.436 -1.7013 -2.6209 -0.6137
 4188SOL     OW24025   3.881   1.318   2.631  0.4037 -0.0943  0.8991
 4188SOL    HW124026   3.912   1.263   2.559  1.6022  1.1302  0.4679
 4188SOL    HW224027   3.885   1.400   2.581  0.5914 -0.0176  1.0377
 4189SOL     OW24028   0.124   0.509  15.789 -0.1608 -0.2683 -0.0228
 4189SOL    HW124029   0.190   0.490  15.722  0.1282 -1.4602  0.5931
 4189SOL    HW224030   0.149   0.449  15.860  2.3044  0.3034 -0.4235
 4190SOL     OW24031   3.633   2.605   2.904  0.0196  0.0574 -0.2248
 4190SOL    HW124032   3.714   2.656   2.902  0.1023 -0.1544 -2.2094
 4190SOL    HW224033   3.594   2.643   2.983  1.9314 -0.1159  0.8109
 4191SOL     OW24034   4.616   4.593   8.442 -0.0294  0.1642  0.2146
 4191SOL    HW124035   4.648   4.547   8.364 -1.8338 -0.0846 -0.3903
 4191SOL    HW224036   4.652   4.679   8.420  1.4010 -0.2708  0.8975
 4192SOL     OW24037   3.872   3.651   5.570  0.1652 -0.2012  0.0197
 4192SOL    HW124038   3.815   3.722   5.598 -0.7474  0.8934 -4.7115
 4192SOL    HW224039   3.925   3.630   5.648  0.5358  0.2000 -0.1209
 4193SOL     OW24040   1.793   1.541  11.548 -0.0565 -0.3909 -0.4544
 4193SOL    HW124041   1.719   1.485  11.570  0.7167 -1.8392 -1.5417
 4193SOL    HW224042   1.868   1.503  11.593  0.4686 -0.7512 -1.6214
 4194SOL     OW24043   1.938   2.260   7.543  0.0309  0.3795  0.1849
 4194SOL    HW124044   1.873   2.237   7.477  0.0476  0.4980  0.1286
 4194SOL    HW224045   1.975   2.173   7.560 -1.6229 -0.5330 -0.9633
 4195SOL     OW24046   2.539   2.061   1.846 -0.8653  0.0498  0.4984
 4195SOL    HW124047   2.549   1.981   1.898 -1.1240  0.0447  0.5365
 4195SOL    HW224048   2.615   2.041   1.790  0.0911  1.4252  1.2984
 4196SOL     OW24049   4.619   2.236  13.220  0.1333  0.2896  0.6609
 4196SOL    HW124050   4.551   2.292  13.256 -0.7077 -0.1797 -0.2033
 4196SOL    HW224051   4.691   2.298  13.220 -0.4419  0.9517 -0.8689
 4197SOL     OW24052   2.245   3.572   5.341  0.6303 -0.2123 -0.5597
 4197SOL    HW124053   2.335   3.597   5.320 -0.2941  2.3466 -1.4751
 4197SOL    HW224054   2.223   3.657   5.379 -1.4659 -1.3367  0.7234
 4198SOL     OW24055   2.804   2.142   9.672  0.1602  0.1839  0.0737
 4198SOL    HW124056   2.798   2.199   9.749  1.8447  0.2027  0.1980
 4198SOL    HW224057   2.715   2.108   9.662 -0.1230  0.5978  1.2341
 4199SOL     OW24058   2.041   4.501   7.811  0.1992 -0.3676 -0.2108
 4199SOL    HW124059   2.064   4.416   7.775  0.2387 -0.1272 -0.7553
 4199SOL    HW224060   1.969   4.531   7.755  0.7280 -1.6348 -1.5549
 4200SOL     OW24061   1.195   2.190   2.971  0.5765  0.0536  0.0912
 4200SOL    HW124062   1.262   2.121   2.978  0.1424 -0.4331 -0.6027
 4200SOL    HW224063   1.215   2.215   2.881 -0.1035 -2.1973 -0.7004
 4201SOL     OW24064   2.032   4.055  10.773  0.4445  0.5855  0.1795
 4201SOL    HW124065   1.953   4.099  10.742  0.9610  0.4784 -1.3124
 4201SOL    HW224066   1.999   4.004  10.846 -2.4301 -0.6558 -2.0009
 4202SOL     OW24067   4.123   4.700   1.718  0.4206  0.2552 -0.2968
 4202SOL    HW124068   4.032   0.004   1.707 -0.2353 -1.1140  1.6268
 4202SOL    HW224069   4.129   4.654   1.634  0.7651  0.5638 -0.4395
 4203SOL     OW24070   2.329   1.622   1.307  0.4551  0.4177  0.3795
 4203SOL    HW124071   2.399   1.608   1.243 -0.0024 -1.1161  0.2165
 4203SOL    HW224072   2.385   1.628   1.385 -0.9299  1.0781  1.3114
 4204SOL     OW24073   2.763   2.022   2.091 -0.4142  0.8868 -0.3336
 4204SOL    HW124074   2.824   2.065   2.032  2.4250 -1.8187  0.6422
 4204SOL    HW224075   2.822   1.957   2.127 -1.3543 -0.5853 -1.4458
 4205SOL     OW24076   1.714   0.194  12.950  0.6562 -0.4939 -0.3878
 4205SOL    HW124077   1.670   0.262  12.898  3.6220  1.3457 -0.4856
 4205SOL    HW224078   1.788   0.245  12.985  0.3949 -1.5914  1.7638
 4206SOL     OW24079   1.442   2.735   3.206  0.1867 -0.0365 -0.2386
 4206SOL    HW124080   1.502   2.789   3.258 -2.1823  1.5535  0.8434
 4206SOL    HW224081   1.490   2.653   3.195 -0.0685 -0.1643 -0.4019
 4207SOL     OW24082   3.328   3.528   2.910 -0.3225 -0.2172  0.1425
 4207SOL    HW124083   3.373   3.612   2.900 -1.9059  0.3259 -2.4822
 4207SOL    HW224084   3.357   3.491   2.827  1.4008  0.2906  0.5209
 4208SOL     OW24085   1.917   1.195   2.253 -0.3496 -0.0998 -0.0651
 4208SOL    HW124086   1.893   1.103   2.247  1.3088 -0.5518  0.1547
 4208SOL    HW224087   1.913   1.197   2.349 -1.3201  0.3992 -0.1220
 4209SOL     OW24088   0.489   1.204   8.202 -0.2992  0.3899 -0.2039
 4209SOL    HW124089   0.426   1.270   8.172 -0.4370 -0.5207 -1.8908
 4209SOL    HW224090   0.572   1.251   8.203 -0.4110  0.5820  0.2395
 4210SOL     OW24091   2.085   1.256   8.044  0.9119 -0.7581 -0.0263
 4210SOL    HW124092   2.116   1.341   8.074 -0.5554 -0.4196  0.5698
 4210SOL    HW224093   2.083   1.277   7.951  0.7481 -0.6042  0.0114
 4211SOL     OW24094   4.345   3.530   3.206  0.1595 -0.0253 -0.1200
 4211SOL    HW124095   4.357   3.437   3.221 -0.2571  0.0361  0.6101
 4211SOL    HW224096   4.436   3.555   3.220  0.3490 -0.5738 -0.3738
 4212SOL     OW24097   0.913   0.268   6.185  0.4444 -0.7212 -0.7250
 4212SOL    HW124098   0.912   0.356   6.222  0.0622  0.1472 -2.8084
 4212SOL    HW224099   1.006   0.255   6.166  1.0645 -0.7115  2.3680
 4213SOL     OW24100   2.647   1.394   1.841 -0.0323  0.2330  0.0529
 4213SOL    HW124101   2.708   1.444   1.787  2.0916 -1.3400  0.9594
 4213SOL    HW224102   2.612   1.330   1.779  0.5291  0.3801 -0.4219
 4214SOL     OW24103   0.597   4.551  17.346 -0.0170 -0.2913 -0.1058
 4214SOL    HW124104   0.657   4.624  17.361  0.8268 -0.8046 -0.9591
 4214SOL    HW224105   0.599   4.513  17.434  1.4292  2.4923  1.0501
 4215SOL     OW24106   0.682   3.509   1.369 -0.1346 -0.0867  0.1021
 4215SOL    HW124107   0.597   3.543   1.340 -0.1250  0.7141  0.9761
 4215SOL    HW224108   0.681   3.423   1.327  0.1781 -0.1387  0.2023
 4216SOL     OW24109   2.822   3.356  10.536 -0.3868 -0.0946  0.1970
 4216SOL    HW124110   2.853   3.267  10.516 -1.4488 -0.6318  0.9237
 4216SOL    HW224111   2.822   3.367  10.631  0.8683 -0.2713  0.2187
 4217SOL     OW24112   2.492   1.172   6.323  0.5017 -0.1857 -0.3834
 4217SOL    HW124113   2.439   1.194   6.400 -1.1628 -1.5638 -1.1386
 4217SOL    HW224114   2.582   1.158   6.355  0.3969 -2.0489 -0.9460
 4218SOL     OW24115   4.586   1.070   8.190 -0.3082  0.6372  0.0586
 4218SOL    HW124116   4.545   1.011   8.127 -0.3859  1.3678 -0.5660
 4218SOL    HW224117   4.515   1.088   8.252 -0.8017 -1.1960  0.0257
 4219SOL     OW24118   2.798   1.715  12.824 -0.0654 -0.4705  0.0836
 4219SOL    HW124119   2.882   1.701  12.869 -1.0182  0.2343  2.1126
 4219SOL    HW224120   2.793   1.627  12.786 -4.5722  0.5992 -1.8405
 4220SOL     OW24121   1.721   4.567   1.742 -0.0209  0.4745  0.3619
 4220SOL    HW124122   1.800   4.531   1.782 -0.1965 -0.4708 -0.1315
 4220SOL    HW224123   1.747   4.659   1.735  1.0488  0.0015 -1.9655
 4221SOL     OW24124   1.226   0.111   3.838  0.6417 -0.4039  0.3835
 4221SOL    HW124125   1.149   0.061   3.866 -0.9504  0.8019 -1.8389
 4221SOL    HW224126   1.211   0.188   3.893 -1.1769 -1.2941  1.1280
 4222SOL     OW24127   3.481   2.794  17.197  0.1938  0.0148  0.2818
 4222SOL    HW124128   3.450   2.854  17.265  0.5133  1.5981 -0.9686
 4222SOL    HW224129   3.527   2.855  17.138 -0.6176 -0.9087 -1.2897
 4223SOL     OW24130   4.703   1.997   5.518  0.0542  0.3841 -0.7159
 4223SOL    HW124131   0.053   1.945   5.486 -1.7378 -2.5245 -0.2028
 4223SOL    HW224132   4.632   1.935   5.534  1.3055 -1.6013 -2.7032
 4224SOL     OW24133   4.031   2.319   4.185 -0.0910  0.0815  0.5106
 4224SOL    HW124134   4.064   2.229   4.178 -0.5564 -0.0854  0.4749
 4224SOL    HW224135   4.047   2.348   4.274  1.7061 -0.8836  0.5021
 4225SOL     OW24136   1.193   1.201  15.828  0.9799  0.1617 -0.7524
 4225SOL    HW124137   1.226   1.289  15.846  0.5816  0.1399  0.1214
 4225SOL    HW224138   1.158   1.176  15.914  0.1967  0.5330 -0.9604
 4226SOL     OW24139   1.745   1.959   7.518 -0.1724  0.2106  0.6770
 4226SOL    HW124140   1.804   1.934   7.448 -1.8603  0.6070 -0.8866
 4226SOL    HW224141   1.746   1.882   7.575  1.1110  2.0375  3.1447
 4227SOL     OW24142   2.088   4.573   6.627  0.1048  0.1025  0.3383
 4227SOL    HW124143   2.094   4.647   6.687  0.2086 -0.2491  0.7595
 4227SOL    HW224144   2.183   4.565   6.625 -0.1168 -2.4099 -0.7475
 4228SOL     OW24145   0.813   2.530   3.410  0.3384  0.1059  0.4316
 4228SOL    HW124146   0.721   2.536   3.384  1.3818  2.0467 -2.8396
 4228SOL    HW224147   0.837   2.601   3.350  1.5707 -0.0644  0.7381
 4229SOL     OW24148   3.981   2.392  17.365  0.2536 -0.1556  0.0627
 4229SOL    HW124149   3.997   2.351  17.280 -0.2141 -0.3519  0.0703
 4229SOL    HW224150   4.059   2.447  17.362 -0.0646  0.3066  0.1395
 4230SOL     OW24151   4.229   4.153   4.714 -0.3474 -0.0201 -0.2451
 4230SOL    HW124152   4.186   4.237   4.729  0.0460  0.2032 -0.3658
 4230SOL    HW224153   4.231   4.157   4.618  0.6817 -1.4537 -0.2791
 4231SOL     OW24154   2.964   3.183   2.898  0.7292  0.0733 -0.2418
 4231SOL    HW124155   2.914   3.260   2.924  0.6194  0.0894 -0.4991
 4231SOL    HW224156   2.957   3.201   2.804 -1.3280  1.7172  0.2363
 4232SOL     OW24157   2.951   1.075   2.271  0.4707  0.1741  0.5130
 4232SOL    HW124158   2.930   1.014   2.200  1.5175 -0.8102  1.0622
 4232SOL    HW224159   3.038   1.045   2.297 -0.1333 -2.1798 -0.1982
 4233SOL     OW24160   2.269   4.054   6.961  0.1246 -0.0573 -0.3854
 4233SOL    HW124161   2.199   4.013   6.910  0.2214 -1.1945  0.3867
 4233SOL    HW224162   2.323   3.978   6.940 -3.0988 -2.6841  0.6935
 4234SOL     OW24163   0.642   2.473   6.587  0.2261 -0.2405 -0.0683
 4234SOL    HW124164   0.721   2.506   6.545  0.4143  0.6655  0.9759
 4234SOL    HW224165   0.672   2.389   6.621 -1.1420 -0.1892  1.2828
 4235SOL     OW24166   1.348   3.061   5.235 -0.3359  0.2577  0.2741
 4235SOL    HW124167   1.263   3.100   5.254  0.4958  2.7955 -1.2239
 4235SOL    HW224168   1.334   3.006   5.157  1.2822  1.3592 -0.8028
 4236SOL     OW24169   0.559   4.303  10.214 -0.8609  0.4545 -0.3599
 4236SOL    HW124170   0.532   4.385  10.172 -1.2752  0.5055  0.0069
 4236SOL    HW224171   0.627   4.277  10.152 -1.5437 -1.1287 -0.4386
 4237SOL     OW24172   4.130   1.757   4.599  0.1112 -0.5072 -0.2812
 4237SOL    HW124173   4.084   1.711   4.669 -2.2439  1.5617 -0.4675
 4237SOL    HW224174   4.102   1.706   4.524 -0.9385  1.8009 -1.4669
 4238SOL     OW24175   1.525   0.715   3.141  0.4225 -0.2000 -0.2212
 4238SOL    HW124176   1.450   0.742   3.194  0.6152  0.6559 -0.3941
 4238SOL    HW224177   1.571   0.663   3.207 -0.8788 -1.3041 -0.1644
 4239SOL     OW24178   3.747   1.448  14.807  0.1605 -0.4477  0.0617
 4239SOL    HW124179   3.685   1.509  14.766 -0.2315 -0.3598  0.7902
 4239SOL    HW224180   3.703   1.365  14.823  0.6012 -0.5693  0.6504
 4240SOL     OW24181   2.567   4.396   1.586 -0.0447 -0.1977 -0.1057
 4240SOL    HW124182   2.622   4.463   1.546 -0.5584  0.8446  0.9298
 4240SOL    HW224183   2.531   4.355   1.507 -1.9871 -0.3407  0.8341
 4241SOL     OW24184   0.850   3.074  14.184 -0.5689  0.3774 -0.1015
 4241SOL    HW124185   0.755   3.072  14.176 -0.5525  1.4938 -0.5232
 4241SOL    HW224186   0.859   3.167  14.203  1.1971  0.2957 -0.5058
 4242SOL     OW24187   0.355   0.782   2.594 -0.0462 -0.2113 -0.1679
 4242SOL    HW124188   0.336   0.796   2.502 -0.5416 -0.9315 -0.1737
 4242SOL    HW224189   0.435   0.728   2.595 -1.7754 -2.6905  3.7857
 4243SOL     OW24190   2.695   1.535   4.105  0.2634  0.0922 -0.5144
 4243SOL    HW124191   2.665   1.602   4.167 -0.2513 -1.5740  1.0374
 4243SOL    HW224192   2.661   1.457   4.150  2.1819 -0.9446 -0.8940
 4244SOL     OW24193   0.976   1.450   8.577  0.0291 -0.1480  0.3128
 4244SOL    HW124194   0.965   1.500   8.658 -0.0064  1.4270 -0.6703
 4244SOL    HW224195   0.913   1.493   8.520  1.3095  1.4707  0.1178
 4245SOL     OW24196   0.753   1.042  15.194 -0.1125 -0.2850 -0.3109
 4245SOL    HW124197   0.814   0.981  15.236 -0.9980  1.1470  3.1012
 4245SOL    HW224198   0.706   0.969  15.153 -0.7288 -1.0577  1.7763
 4246SOL     OW24199   0.034   4.609   3.201 -0.0093 -0.4392  0.3836
 4246SOL    HW124200   0.087   4.680   3.236  1.2930 -1.0948 -0.2638
 4246SOL    HW224201   4.682   4.608   3.258 -0.8018  1.9013 -0.6600
 4247SOL     OW24202   3.336   0.869   4.245  0.0584 -0.0334 -0.0920
 4247SOL    HW124203   3.425   0.837   4.235  0.2951  0.3154  0.8840
 4247SOL    HW224204   3.345   0.911   4.331 -2.5289  1.2656 -0.4396
 4248SOL     OW24205   1.484   0.406   4.391 -0.3235  0.3510 -0.2516
 4248SOL    HW124206   1.461   0.365   4.308 -2.5382 -1.3479  1.2011
 4248SOL    HW224207   1.410   0.381   4.447  0.3484  2.2895  1.5206
 4249SOL     OW24208   0.112   3.966   6.714  0.0051 -0.1862  0.3783
 4249SOL    HW124209   0.116   4.007   6.628 -1.7501 -0.8846 -0.0369
 4249SOL    HW224210   0.207   3.958   6.722  0.1772  0.1703 -1.3680
 4250SOL     OW24211   1.346   2.392   2.599 -0.3278 -0.1363 -0.5051
 4250SOL    HW124212   1.431   2.409   2.639 -1.5413  2.3195  1.0221
 4250SOL    HW224213   1.320   2.303   2.625 -2.4209  1.0484  1.4200
 4251SOL     OW24214   3.764   2.046   5.961  0.7748 -0.4174 -0.2717
 4251SOL    HW124215   3.817   2.116   5.922  0.8551  0.0704  0.7232
 4251SOL    HW224216   3.817   2.020   6.036  0.7962  1.9463  0.5451
 4252SOL     OW24217   3.133   1.552   7.341 -0.4716  0.5497  0.3889
 4252SOL    HW124218   3.181   1.540   7.424 -0.5428  1.1485  0.5125
 4252SOL    HW224219   3.199   1.525   7.277  0.9805  0.3399  1.9568
 4253SOL     OW24220   0.722   1.582  12.916 -0.1557  0.3178 -0.4118
 4253SOL    HW124221   0.627   1.590  12.923 -0.0463 -0.3292  1.6864
 4253SOL    HW224222   0.737   1.645  12.986  1.1493 -0.9027  0.4149
 4254SOL     OW24223   2.086   0.892   3.151  0.8556 -0.0635 -0.3958
 4254SOL    HW124224   2.134   0.972   3.170 -1.0504  0.7781  0.9191
 4254SOL    HW224225   2.010   0.925   3.102 -0.2869 -1.5642  0.3886
 4255SOL     OW24226   0.213   3.696   1.109 -0.7301 -0.0315  0.2101
 4255SOL    HW124227   0.159   3.762   1.066 -0.3783 -0.4986 -0.9363
 4255SOL    HW224228   0.150   3.646   1.161 -0.1819 -0.1236  0.7876
 4256SOL     OW24229   4.464   0.728   1.827  0.0648  0.2423  0.0159
 4256SOL    HW124230   4.503   0.804   1.784  2.1080 -0.4943  0.5617
 4256SOL    HW224231   4.380   0.726   1.782  1.5133  0.7397 -2.7060
 4257SOL     OW24232   3.053   2.425   9.405 -0.2775  0.2774 -0.9111
 4257SOL    HW124233   3.094   2.424   9.319  0.4567  2.3416 -0.5741
 4257SOL    HW224234   3.056   2.335   9.437 -2.0762 -0.1462 -1.9059
 4258SOL     OW24235   3.153   3.135   1.993  0.0147  0.4484 -0.2893
 4258SOL    HW124236   3.131   3.166   2.081  0.0675 -0.2610 -0.0272
 4258SOL    HW224237   3.127   3.211   1.941 -2.6291 -0.4063 -0.2369
 4259SOL     OW24238   4.200   3.871   8.518 -0.3535 -0.3193 -0.4472
 4259SOL    HW124239   4.127   3.865   8.578  0.0241  2.5803  0.2857
 4259SOL    HW224240   4.251   3.793   8.542  0.7292  0.9701  1.4045
 4260SOL     OW24241   3.757   4.323   3.995 -0.1576 -0.2541  0.0912
 4260SOL    HW124242   3.686   4.260   3.981 -1.9976  1.6867  0.7133
 4260SOL    HW224243   3.825   4.295   3.934  0.3965  1.4904 -0.0897
 4261SOL     OW24244   1.800   2.579  14.811 -0.4348  0.1596 -0.0175
 4261SOL    HW124245   1.734   2.516  14.842  0.2211  0.0719  1.2059
 4261SOL    HW224246   1.868   2.571  14.878 -0.2110 -1.8218 -0.4943
 4262SOL     OW24247   0.580   2.371   9.949  0.9424  0.0369 -0.0391
 4262SOL    HW124248   0.602   2.285   9.915  1.8045  0.1380  0.2725
 4262SOL    HW224249   0.664   2.398   9.985  2.6769 -1.4391 -2.9990
 4263SOL     OW24250   0.043   1.633   1.799  0.1640 -0.6361 -0.1546
 4263SOL    HW124251   4.702   1.700   1.781  0.0119 -0.8771 -0.4977
 4263SOL    HW224252   0.038   1.638   1.894 -0.5368  1.5577 -0.3109
 4264SOL     OW24253   0.181   1.320   9.240 -0.3869 -0.0755 -0.1087
 4264SOL    HW124254   0.188   1.275   9.324 -1.5328  0.8057  0.4404
 4264SOL    HW224255   0.217   1.259   9.175  1.8876  0.1067  0.9669
 4265SOL     OW24256   0.962   1.368   0.984 -0.8530  0.3365 -0.4148
 4265SOL    HW124257   0.934   1.298   0.926 -0.5837  0.1751 -0.3485
 4265SOL    HW224258   0.910   1.439   0.946  3.4745  3.5664 -0.3082
 4266SOL     OW24259   3.887   2.830   5.160  0.0174  0.5901 -0.2652
 4266SOL    HW124260   3.901   2.899   5.095 -0.5303  0.5601 -0.4198
 4266SOL    HW224261   3.834   2.773   5.105  2.0273 -0.3472 -1.2252
 4267SOL     OW24262   4.103   2.659   1.093 -0.0453 -0.0856 -0.2049
 4267SOL    HW124263   4.167   2.592   1.118 -0.1475 -0.1484 -0.1132
 4267SOL    HW224264   4.060   2.613   1.021 -2.6692  0.5028  1.0264
 4268SOL     OW24265   4.192   3.698   8.169  0.1972  0.0973 -0.1267
 4268SOL    HW124266   4.201   3.785   8.209 -0.8442 -0.1917  0.7262
 4268SOL    HW224267   4.098   3.684   8.174 -0.1448  1.7662 -2.1394
 4269SOL     OW24268   1.631   1.771   1.336 -0.1590 -0.0024 -0.1778
 4269SOL    HW124269   1.654   1.689   1.293  0.5982  0.2077 -0.1676
 4269SOL    HW224270   1.542   1.746   1.363  0.9320 -3.1083  0.5204
 4270SOL     OW24271   1.659   2.920   2.451  0.4056 -0.4976 -0.3886
 4270SOL    HW124272   1.702   2.962   2.376 -0.1558  0.0201 -0.4158
 4270SOL    HW224273   1.723   2.852   2.473  0.5759 -0.1377  0.2357
 4271SOL     OW24274   1.295   3.039  13.425  0.6633  0.5035  0.6312
 4271SOL    HW124275   1.238   3.095  13.479 -0.2493  0.1920 -0.0032
 4271SOL    HW224276   1.229   2.978  13.391  0.9005 -0.4234  1.8271
 4272SOL     OW24277   4.653   3.848   3.918 -0.1617  0.1080 -0.5504
 4272SOL    HW124278   4.586   3.815   3.978  0.6910  2.7196  1.8620
 4272SOL    HW224279   4.632   3.806   3.835  1.4744 -3.1000  0.6598
 4273SOL     OW24280   1.767   4.165   1.804  0.5492  0.8617 -0.3225
 4273SOL    HW124281   1.715   4.085   1.793  0.8339  0.5224  0.7413
 4273SOL    HW224282   1.779   4.169   1.899 -0.5527  0.6236 -0.1734
 4274SOL     OW24283   1.095   4.407   5.950  0.0302 -0.5542 -0.2952
 4274SOL    HW124284   1.176   4.365   5.921  0.7315 -0.6621  1.8488
 4274SOL    HW224285   1.033   4.341   5.919  1.6824 -2.8136  1.2115
 4275SOL     OW24286   1.488   3.047   9.052 -0.2321  0.0566  0.1634
 4275SOL    HW124287   1.483   3.109   9.125 -0.2644 -2.4190  2.2659
 4275SOL    HW224288   1.496   3.109   8.979  1.4320  1.4373  1.5268
 4276SOL     OW24289   3.564   4.256  10.857  0.2484 -0.5806  0.1728
 4276SOL    HW124290   3.505   4.324  10.826  1.1934 -0.2214 -0.8673
 4276SOL    HW224291   3.512   4.205  10.918  0.4687 -1.0547 -0.0295
 4277SOL     OW24292   2.514   1.336   4.254  0.0359  0.3999 -0.3738
 4277SOL    HW124293   2.485   1.280   4.326 -0.4277  0.1939 -0.7201
 4277SOL    HW224294   2.433   1.352   4.205  0.1091 -0.4853 -0.7768
 4278SOL     OW24295   3.151   0.605   9.001  0.5714 -0.2117 -0.3589
 4278SOL    HW124296   3.141   0.513   8.976 -1.1934  0.3650 -1.7659
 4278SOL    HW224297   3.207   0.596   9.078  0.4548  1.9921 -0.0121
 4279SOL     OW24298   3.641   4.682   8.060  0.3512 -0.1822  0.0822
 4279SOL    HW124299   3.646   4.669   7.965  2.1534 -1.3837  0.3467
 4279SOL    HW224300   3.575   0.026   8.066 -1.4618 -2.0916  2.2034
 4280SOL     OW24301   0.441   2.655   3.543  0.6316  0.3203 -0.0643
 4280SOL    HW124302   0.396   2.637   3.460 -1.9050 -0.8514  1.5555
 4280SOL    HW224303   0.499   2.719   3.503 -2.1806  1.9643 -1.5803
 4281SOL     OW24304   0.814   1.307  11.887 -0.2261  0.0223  0.1302
 4281SOL    HW124305   0.903   1.275  11.871 -0.0894  0.0170  0.9218
 4281SOL    HW224306   0.759   1.245  11.838 -0.4681 -0.4816  1.0473
 4282SOL     OW24307   4.064   2.840  13.070  0.4313 -0.0962  0.1083
 4282SOL    HW124308   4.020   2.846  12.985 -1.0354 -0.3612  0.8486
 4282SOL    HW224309   4.069   2.744  13.072  0.8545 -0.0518  1.1227
 4283SOL     OW24310   0.072   3.077   1.377  0.3829 -0.0525 -0.0550
 4283SOL    HW124311   0.056   3.125   1.458  0.3883 -0.5388  0.2367
 4283SOL    HW224312   0.167   3.079   1.365  0.2663  2.2107 -0.4621
 4284SOL     OW24313   1.635   1.818   5.891  0.2607  0.0957  0.0719
 4284SOL    HW124314   1.553   1.769   5.886 -0.8406  2.0881 -2.1143
 4284SOL    HW224315   1.604   1.909   5.894 -3.8667 -1.3909  2.3286
 4285SOL     OW24316   2.250   1.078   1.086 -0.4014  0.3111  0.4864
 4285SOL    HW124317   2.342   1.055   1.070 -0.8881 -1.6902  0.5126
 4285SOL    HW224318   2.199   1.020   1.029  0.0015  0.0120  0.4295
 4286SOL     OW24319   1.815   0.342   2.522 -0.1903  0.7491  0.3418
 4286SOL    HW124320   1.868   0.289   2.581 -3.4573 -1.4702  1.2688
 4286SOL    HW224321   1.872   0.417   2.506  2.2471 -0.9572  1.0393
 4287SOL     OW24322   4.712   2.835  11.826 -0.2231  0.1552 -0.0198
 4287SOL    HW124323   0.028   2.753  11.798  1.7590  1.0770  0.1746
 4287SOL    HW224324   4.618   2.826  11.812 -0.2730  0.7621 -0.0806
 4288SOL     OW24325   0.738   1.313   6.779 -0.1835  0.2397  0.1599
 4288SOL    HW124326   0.683   1.298   6.702  1.0123 -0.8285 -0.4848
 4288SOL    HW224327   0.778   1.228   6.799  0.9179  1.1777  1.9327
 4289SOL     OW24328   4.583   4.476   4.802  0.2758 -0.7959 -0.1931
 4289SOL    HW124329   4.584   4.489   4.897  0.3346  0.7871 -0.4239
 4289SOL    HW224330   4.644   4.402   4.808  0.6516 -0.3218  2.0710
 4290SOL     OW24331   2.796   3.045   4.894 -0.2991  0.4934  0.3333
 4290SOL    HW124332   2.869   2.991   4.863 -2.7523 -2.7156  0.1992
 4290SOL    HW224333   2.834   3.094   4.967 -0.4139  0.6862  0.2641
 4291SOL     OW24334   0.256   1.742   8.285 -0.3446  0.0002 -0.3404
 4291SOL    HW124335   0.258   1.783   8.372 -1.8923  0.9920 -0.7694
 4291SOL    HW224336   0.164   1.717   8.278  0.1441 -1.6297 -0.8604
 4292SOL     OW24337   4.152   2.223   8.952 -0.2392  0.7222 -0.1508
 4292SOL    HW124338   4.207   2.235   8.875  2.2362 -2.3346  1.1311
 4292SOL    HW224339   4.222   2.178   8.999 -1.1911 -1.2615 -0.5960
 4293SOL     OW24340   2.016   0.754  13.300  0.0031 -0.1115  0.1923
 4293SOL    HW124341   2.090   0.746  13.361 -0.8889 -0.1222  1.2752
 4293SOL    HW224342   1.955   0.804  13.354 -0.4318 -1.2937  0.7928
 4294SOL     OW24343   2.634   1.748   9.230 -0.1171  0.2209  0.2144
 4294SOL    HW124344   2.625   1.759   9.324  0.9258  2.1090  0.1131
 4294SOL    HW224345   2.568   1.811   9.201 -2.7049 -1.8891  1.6209
 4295SOL     OW24346   3.133   3.415  14.038 -0.6001 -0.1126 -0.3006
 4295SOL    HW124347   3.085   3.457  13.967  0.7385 -2.5069 -2.6841
 4295SOL    HW224348   3.063   3.402  14.101  0.4381  0.4534  0.9735
 4296SOL     OW24349   0.488   0.567   2.908  0.2004  0.6956 -0.1073
 4296SOL    HW124350   0.564   0.614   2.941 -0.1764  0.3582  1.2184
 4296SOL    HW224351   0.426   0.581   2.980  0.1152  1.3329 -0.3031
 4297SOL     OW24352   3.729   2.583   6.631 -0.0534  0.6195  0.7679
 4297SOL    HW124353   3.651   2.637   6.624  0.2294  0.5739 -2.4763
 4297SOL    HW224354   3.682   2.500   6.634  0.5172  0.3256  1.8921
 4298SOL     OW24355   1.073   0.559   3.061 -0.0506  0.2852  0.1631
 4298SOL    HW124356   0.984   0.559   3.098 -0.5341  1.3729 -1.0091
 4298SOL    HW224357   1.079   0.645   3.019 -0.5282  0.7439  1.0224
 4299SOL     OW24358   0.531   2.800   9.290  0.2116  0.1695  0.0695
 4299SOL    HW124359   0.562   2.878   9.244  0.7466  0.2038  0.5005
 4299SOL    HW224360   0.562   2.731   9.231 -1.6405 -0.7982  0.2221
 4300SOL     OW24361   1.887   2.196   5.625  0.0061 -0.0403 -0.0166
 4300SOL    HW124362   1.799   2.234   5.618 -0.1605  0.0935  2.5764
 4300SOL    HW224363   1.882   2.103   5.607 -2.1724  0.5958 -2.6641
 4301SOL     OW24364   3.607   0.696  10.537  0.5145  0.5055 -0.2419
 4301SOL    HW124365   3.671   0.768  10.534  0.9521  0.0570 -1.6113
 4301SOL    HW224366   3.658   0.624  10.499 -1.3608 -0.7733 -0.2883
 4302SOL     OW24367   2.529   3.025  17.169  0.2641  0.2513 -0.1485
 4302SOL    HW124368   2.481   3.011  17.088 -0.0032 -3.1740  0.5711
 4302SOL    HW224369   2.619   3.024  17.135 -0.5557  3.3274 -2.3516
 4303SOL     OW24370   2.916   1.804   6.147  0.3694  0.3880 -0.3457
 4303SOL    HW124371   2.991   1.770   6.196  0.3168  0.8275  0.0384
 4303SOL    HW224372   2.908   1.740   6.077  0.0690 -0.7912  0.7645
 4304SOL     OW24373   0.828   1.454   1.878 -0.3652  0.0977  0.1740
 4304SOL    HW124374   0.869   1.385   1.826 -1.7227 -1.0559  0.6259
 4304SOL    HW224375   0.786   1.403   1.948  0.3460  0.1534  0.6357
 4305SOL     OW24376   3.566   0.320   6.056 -0.0658 -0.1176  0.3607
 4305SOL    HW124377   3.604   0.398   6.016 -0.0199  0.1400  0.8981
 4305SOL    HW224378   3.502   0.307   5.986  0.5237  0.6103 -0.3091
 4306SOL     OW24379   2.881   1.378  10.917  0.1276  0.1892 -0.8761
 4306SOL    HW124380   2.927   1.294  10.922 -0.7885 -0.3256 -1.2076
 4306SOL    HW224381   2.935   1.444  10.961 -1.1765  0.4790  0.3076
 4307SOL     OW24382   1.901   1.220   6.343  0.1126  0.0169  0.3928
 4307SOL    HW124383   1.843   1.276   6.292 -0.9975 -0.6364  0.9368
 4307SOL    HW224384   1.944   1.160   6.282 -2.6717  1.2855 -2.8194
 4308SOL     OW24385   0.705   2.653  11.655 -0.3913 -0.2616 -0.1284
 4308SOL    HW124386   0.673   2.640  11.566 -1.4880 -2.5946  0.6166
 4308SOL    HW224387   0.797   2.630  11.648 -0.4021 -0.1512 -0.6375
 4309SOL     OW24388   3.736   2.456   3.959 -0.0640  0.7952  0.4013
 4309SOL    HW124389   3.669   2.389   3.947 -2.0559  2.6270  1.4233
 4309SOL    HW224390   3.753   2.449   4.053 -1.3986 -1.3967  0.4916
 4310SOL     OW24391   2.112   2.436   6.277  0.4092  0.4527  0.3368
 4310SOL    HW124392   2.143   2.467   6.192 -2.2671  0.6973 -0.5354
 4310SOL    HW224393   2.123   2.343   6.259 -0.6814  0.0656  1.6980
 4311SOL     OW24394   1.251   4.177   8.332 -0.1743  0.2640 -0.8878
 4311SOL    HW124395   1.312   4.192   8.260 -0.3153 -0.8115 -1.2342
 4311SOL    HW224396   1.293   4.225   8.404 -1.2300  0.1036 -0.1701
 4312SOL     OW24397   4.312   0.847  10.805  0.1820  0.4250 -0.3237
 4312SOL    HW124398   4.295   0.753  10.799  1.2176  0.4365 -3.6235
 4312SOL    HW224399   4.302   0.874  10.714  1.0355 -0.2529 -0.6175
 4313SOL     OW24400   3.957   3.915   6.674 -0.0565 -0.9684  0.2803
 4313SOL    HW124401   3.896   3.901   6.601 -0.5919  0.8233  0.3740
 4313SOL    HW224402   3.895   3.939   6.743  1.9343  0.5344  1.5221
 4314SOL     OW24403   3.376   1.571   2.892 -0.4346 -0.3834 -0.5767
 4314SOL    HW124404   3.456   1.611   2.859 -0.3196 -1.1347 -1.2161
 4314SOL    HW224405   3.316   1.645   2.884 -1.2721 -1.1539 -1.5335
 4315SOL     OW24406   1.726   1.820   2.681  0.4440  0.5279  0.2758
 4315SOL    HW124407   1.779   1.898   2.664  0.6326  0.2375 -0.5116
 4315SOL    HW224408   1.800   1.763   2.702 -0.4851  0.1439  2.4422
 4316SOL     OW24409   3.084   0.824  11.235  0.7413  0.0745 -0.1194
 4316SOL    HW124410   3.030   0.858  11.306 -1.5177 -0.7091 -1.4716
 4316SOL    HW224411   3.127   0.907  11.211 -3.0983  1.5797 -1.7037
 4317SOL     OW24412   1.020   4.567   3.735  1.0431 -0.2752  0.2625
 4317SOL    HW124413   1.048   4.556   3.826  0.0005 -0.3478  0.5773
 4317SOL    HW224414   0.930   4.542   3.755  1.2275 -1.1018  0.0445
 4318SOL     OW24415   1.576   0.093   5.307  0.2792  0.4760  0.0331
 4318SOL    HW124416   1.659   0.063   5.269  0.5760 -0.2795  1.2835
 4318SOL    HW224417   1.556   0.017   5.361  1.9131 -0.8903 -1.2999
 4319SOL     OW24418   4.392   3.738  17.193 -0.0391 -0.1263 -0.1498
 4319SOL    HW124419   4.416   3.778  17.277 -2.0978  3.3244 -1.2117
 4319SOL    HW224420   4.473   3.732  17.144 -0.4083  1.0091 -0.9028
 4320SOL     OW24421   2.944   2.622  11.590 -0.0055 -0.3449  0.2363
 4320SOL    HW124422   2.962   2.708  11.628 -0.0055 -0.6256  0.8690
 4320SOL    HW224423   2.959   2.575  11.672  3.6017 -3.4626 -2.2216
 4321SOL     OW24424   1.169   3.668   4.118 -0.2867 -0.6312  0.1211
 4321SOL    HW124425   1.171   3.757   4.153  0.0075  0.0988 -1.8048
 4321SOL    HW224426   1.134   3.621   4.194  0.7254  1.3040  1.7928
 4322SOL     OW24427   3.036   2.104  16.741 -0.4821  0.0295 -0.1446
 4322SOL    HW124428   2.995   2.067  16.819  1.9634 -0.1645  1.0606
 4322SOL    HW224429   3.009   2.194  16.759  2.1196  0.7695  0.0291
 4323SOL     OW24430   1.843   0.378   4.325  0.3624 -0.0962 -0.8867
 4323SOL    HW124431   1.902   0.381   4.401 -0.5816  1.8992 -0.2334
 4323SOL    HW224432   1.896   0.342   4.254  0.6063 -1.0382 -0.2348
 4324SOL     OW24433   1.696   4.627   4.271 -0.7456  0.3196 -0.2213
 4324SOL    HW124434   1.676   4.680   4.194  0.9911  2.4163  0.7685
 4324SOL    HW224435   1.621   4.630   4.330  0.2785  0.1683  1.1040
 4325SOL     OW24436   3.948   2.512   0.928  0.0130  0.7437  0.1046
 4325SOL    HW124437   3.873   2.466   0.965 -0.1385  1.0700  0.1980
 4325SOL    HW224438   3.913   2.569   0.859 -1.9573 -0.0552  0.4656
 4326SOL     OW24439   4.299   3.416   0.038 -0.5795 -0.3371 -0.4519
 4326SOL    HW124440   4.308   3.511   0.050 -1.3096 -0.1494 -1.3656
 4326SOL    HW224441   4.312   3.429  17.645 -2.2456 -2.6105 -1.0124
 4327SOL     OW24442   4.048   1.812  10.153  0.2196 -0.0706 -0.0036
 4327SOL    HW124443   4.086   1.893  10.186  1.5694 -1.1871  1.1735
 4327SOL    HW224444   3.988   1.799  10.226  0.9304 -1.8661  0.2614
 4328SOL     OW24445   4.205   0.926  10.034 -0.3430  0.1806 -0.0708
 4328SOL    HW124446   4.214   0.976  10.115  0.3260 -0.1177  0.0364
 4328SOL    HW224447   4.122   0.951   9.994 -1.2425 -0.2767  1.4969
 4329SOL     OW24448   3.866   0.207  16.443 -0.3615  0.6504  0.3043
 4329SOL    HW124449   3.902   0.126  16.478 -0.4581  0.7732  0.6872
 4329SOL    HW224450   3.901   0.199  16.354 -2.9770  1.0401 -0.7523
 4330SOL     OW24451   0.752   4.243   7.433 -0.1945 -0.8099 -0.4540
 4330SOL    HW124452   0.810   4.308   7.393  3.1960 -2.5561  1.6600
 4330SOL    HW224453   0.798   4.161   7.417  2.4933  0.0689  2.6414
 4331SOL     OW24454   1.163   3.248  13.574  0.3736  0.4694  0.1119
 4331SOL    HW124455   1.213   3.325  13.546  2.6017 -1.2419 -0.5997
 4331SOL    HW224456   1.138   3.281  13.661 -1.1227  0.5944 -0.3625
 4332SOL     OW24457   3.288   3.301   8.277  0.1504  0.4342  0.0575
 4332SOL    HW124458   3.344   3.334   8.206 -2.4254  1.4486 -1.4894
 4332SOL    HW224459   3.199   3.325   8.252  0.0761 -0.4305 -0.5079
 4333SOL     OW24460   1.799   4.186  10.707  0.5133 -0.0693  0.4988
 4333SOL    HW124461   1.710   4.149  10.707  0.6100 -0.3650 -3.7049
 4333SOL    HW224462   1.787   4.253  10.774  0.5905  0.2249  0.2140
 4334SOL     OW24463   3.422   4.292   4.072 -0.0683  0.7115 -0.2221
 4334SOL    HW124464   3.353   4.229   4.092  0.1190  0.6941  0.3780
 4334SOL    HW224465   3.491   4.239   4.114 -0.1857  1.2995  0.7101
 4335SOL     OW24466   1.964   1.065   6.957 -0.0764 -0.2953 -0.2375
 4335SOL    HW124467   1.965   1.075   7.052 -1.4844  1.2587 -0.3943
 4335SOL    HW224468   1.975   0.970   6.958 -0.3288 -0.3277 -0.8989
 4336SOL     OW24469   0.298   3.312  12.865 -0.4111  0.1143 -0.0453
 4336SOL    HW124470   0.384   3.325  12.904 -0.4895  0.5352 -0.0111
 4336SOL    HW224471   0.306   3.222  12.832 -0.8474  0.1902 -0.3735
 4337SOL     OW24472   3.056   1.456  14.312  0.3904  0.3958  0.5643
 4337SOL    HW124473   3.005   1.382  14.278  2.5649 -0.4496 -0.8047
 4337SOL    HW224474   3.011   1.468  14.396 -0.0597  1.4581  0.1678
 4338SOL     OW24475   1.379   2.413   6.026  0.3658 -0.5131 -0.3987
 4338SOL    HW124476   1.357   2.421   6.119  2.1923  2.1567 -0.2109
 4338SOL    HW224477   1.474   2.420   6.029  0.2124  1.6011  0.1136
 4339SOL     OW24478   0.121   3.754   4.139  0.0445  0.1905  0.2909
 4339SOL    HW124479   0.046   3.745   4.080 -0.4940 -2.1817  1.3262
 4339SOL    HW224480   0.076   3.773   4.222 -0.9158  2.8522 -0.8514
 4340SOL     OW24481   3.668   4.649   1.899 -0.3834  0.2960  0.1899
 4340SOL    HW124482   3.623   4.599   1.966 -0.9937  1.6170  0.7731
 4340SOL    HW224483   3.732   4.587   1.863  0.3158  0.6920  0.7431
 4341SOL     OW24484   0.935   0.223   1.613  0.5011  0.2237 -0.0826
 4341SOL    HW124485   0.872   0.150   1.616  1.1080 -0.3500 -1.1398
 4341SOL    HW224486   1.006   0.190   1.668  1.2637  1.1866 -0.4941
 4342SOL     OW24487   0.766   3.400   7.903  0.1528 -0.6747 -0.0136
 4342SOL    HW124488   0.753   3.317   7.950  0.4341  0.3385  1.8436
 4342SOL    HW224489   0.685   3.410   7.853 -0.6584 -0.2688  1.3636
 4343SOL     OW24490   0.478   2.047   6.172 -0.7502 -0.1157  0.1018
 4343SOL    HW124491   0.498   1.953   6.182  0.5804  0.1515 -0.0502
 4343SOL    HW224492   0.382   2.049   6.172 -0.7724 -0.5835 -4.7626
 4344SOL     OW24493   2.995   3.538  15.088  0.3931 -0.1160 -0.4038
 4344SOL    HW124494   2.978   3.469  15.024 -0.6735 -1.0075  0.8368
 4344SOL    HW224495   3.090   3.544  15.093  0.3065  0.1132  0.8188
 4345SOL     OW24496   3.671   2.071  13.769  0.1902 -0.2171  0.3684
 4345SOL    HW124497   3.719   1.994  13.738 -0.8495 -0.8232  0.2581
 4345SOL    HW224498   3.736   2.140  13.755 -0.1631  0.1429  0.4857
 4346SOL     OW24499   0.521   3.424   6.571 -0.1686  0.2149  0.2217
 4346SOL    HW124500   0.601   3.384   6.536 -0.0617 -0.0913  0.8070
 4346SOL    HW224501   0.475   3.424   6.487  0.9384  0.9386 -0.3726
 4347SOL     OW24502   1.693   4.004  11.527  0.4869 -0.6399 -0.0722
 4347SOL    HW124503   1.623   4.067  11.543  1.6699 -0.0119  2.6199
 4347SOL    HW224504   1.660   3.937  11.587  0.0896 -0.1345  0.2690
 4348SOL     OW24505   4.441   0.006   8.098 -0.3198 -0.2045  0.4923
 4348SOL    HW124506   4.385   4.677   8.042 -0.0723  0.8451 -0.7709
 4348SOL    HW224507   4.502   4.665   8.129 -0.7842 -1.0885 -0.4660
 4349SOL     OW24508   0.170   0.404  16.568  0.0764  0.3152  0.6929
 4349SOL    HW124509   0.224   0.481  16.553  0.4969  0.0718  0.9766
 4349SOL    HW224510   0.080   0.419  16.537 -0.1895 -1.6432  0.4719
 4350SOL     OW24511   4.482   2.304   8.302  0.2605 -0.2917 -0.0272
 4350SOL    HW124512   4.462   2.223   8.350  1.1205  0.1792  1.1153
 4350SOL    HW224513   4.570   2.321   8.334  0.1618  1.9837 -1.0059
 4351SOL     OW24514   2.642   4.723   5.322  0.4667 -0.1468 -0.7243
 4351SOL    HW124515   2.688   4.673   5.389 -3.0485 -1.8318  0.4323
 4351SOL    HW224516   2.552   4.700   5.344  0.2172 -0.0361 -1.6430
 4352SOL     OW24517   3.026   3.893   3.574 -0.5587 -0.2687 -0.2066
 4352SOL    HW124518   3.023   3.972   3.521 -0.3862  0.4894  0.9103
 4352SOL    HW224519   3.119   3.896   3.596 -1.0835  1.5769  1.7815
 4353SOL     OW24520   2.525   3.800   8.916 -0.3977 -0.0853 -0.0854
 4353SOL    HW124521   2.608   3.797   8.965 -0.8130 -1.7473  0.5473
 4353SOL    HW224522   2.501   3.892   8.916 -0.3677 -0.0826 -0.9578
 4354SOL     OW24523   1.421   4.071   4.397 -0.2714 -0.0767  0.0255
 4354SOL    HW124524   1.465   4.078   4.312 -3.1405  0.0109 -1.4517
 4354SOL    HW224525   1.363   4.143   4.373 -0.4407 -0.4897 -0.8075
 4355SOL     OW24526   1.995   1.842   3.175  0.2646  0.1037 -0.1172
 4355SOL    HW124527   2.087   1.816   3.177  0.2244 -0.0645 -0.4915
 4355SOL    HW224528   1.986   1.865   3.267  2.9822 -1.2291  0.4826
 4356SOL     OW24529   3.371   4.540   3.172 -0.6270 -0.8952 -0.3323
 4356SOL    HW124530   3.447   4.570   3.123  1.1563 -1.6222  1.9912
 4356SOL    HW224531   3.316   4.520   3.096 -1.8620  0.3455  0.2464
 4357SOL     OW24532   2.828   4.362  11.421 -0.0932  0.1741 -0.1055
 4357SOL    HW124533   2.770   4.376  11.496  0.8335  1.9432  0.2789
 4357SOL    HW224534   2.910   4.348  11.469  0.4777 -1.7429 -1.6309
 4358SOL     OW24535   1.337   2.919   0.157  0.5059 -0.0301 -0.1817
 4358SOL    HW124536   1.406   2.881   0.102 -0.2441 -1.1279 -0.3668
 4358SOL    HW224537   1.283   2.841   0.167 -0.7769  1.0048  0.8331
 4359SOL     OW24538   2.901   1.899   4.956 -0.3782  0.2258 -0.0546
 4359SOL    HW124539   2.848   1.822   4.974  0.9697 -0.8650 -0.6749
 4359SOL    HW224540   2.906   1.895   4.860  0.7197  0.4073 -0.0080
 4360SOL     OW24541   0.287   3.796   2.402 -0.1768 -0.2063  0.3734
 4360SOL    HW124542   0.291   3.746   2.321 -2.0822  0.0542  0.1224
 4360SOL    HW224543   0.380   3.793   2.425 -0.3565 -0.2727  1.0954
 4361SOL     OW24544   4.043   1.512   5.634 -0.0954 -0.9761  0.4345
 4361SOL    HW124545   4.026   1.458   5.557 -0.4428  1.8229 -1.4503
 4361SOL    HW224546   4.110   1.453   5.670  3.4800  0.7970 -3.3744
 4362SOL     OW24547   2.977   1.612   4.551  0.1760  0.2411 -0.4489
 4362SOL    HW124548   2.890   1.576   4.568  0.2428  0.0622 -0.4870
 4362SOL    HW224549   2.958   1.705   4.558 -0.2360  0.0604  0.9760
 4363SOL     OW24550   4.362   1.790   2.060 -0.0100 -0.6676  0.3771
 4363SOL    HW124551   4.311   1.827   2.133  1.1572  1.9145 -0.1216
 4363SOL    HW224552   4.357   1.700   2.091  2.0482 -1.2454 -0.9832
 4364SOL     OW24553   2.572   3.256   6.148  0.0234 -0.1904  0.1777
 4364SOL    HW124554   2.478   3.270   6.162 -0.1301 -1.3033  0.1984
 4364SOL    HW224555   2.591   3.193   6.217 -0.0785  0.4938  0.8358
 4365SOL     OW24556   3.015   2.835  10.295 -0.6291  0.3179  0.3101
 4365SOL    HW124557   3.013   2.906  10.230 -2.3690 -1.5119 -1.6641
 4365SOL    HW224558   3.100   2.792  10.290 -2.6042 -3.3999 -1.5674
 4366SOL     OW24559   0.035   0.221   3.954 -0.0498  0.5266 -0.0448
 4366SOL    HW124560   0.020   0.202   3.861  2.0894  1.5475 -0.6047
 4366SOL    HW224561   0.038   0.316   3.959  0.2745  0.5128  0.0325
 4367SOL     OW24562   0.643   0.430   0.284 -0.1807  0.0633 -0.5780
 4367SOL    HW124563   0.656   0.463   0.373 -2.1388  0.1780 -0.3375
 4367SOL    HW224564   0.602   0.345   0.296 -0.4321  0.1657 -0.7001
 4368SOL     OW24565   0.393   1.666  10.569  0.6563  0.7285  0.5711
 4368SOL    HW124566   0.478   1.689  10.607  0.3039  0.1863  1.6919
 4368SOL    HW224567   0.403   1.573  10.551  1.1182  0.9772 -0.4630
 4369SOL     OW24568   0.792   1.322   3.956  0.1230 -0.3992  0.1384
 4369SOL    HW124569   0.804   1.398   3.900 -0.8579 -1.9648 -2.1960
 4369SOL    HW224570   0.884   1.307   3.977  0.3619  0.4750 -0.2939
 4370SOL     OW24571   4.709   1.275  10.911 -0.0491  0.5879  0.0018
 4370SOL    HW124572   4.637   1.224  10.948  0.9068 -0.0527  1.0078
 4370SOL    HW224573   4.677   1.345  10.855 -0.7035  0.4440  0.1983
 4371SOL     OW24574   0.743   1.586   6.784  0.0736 -0.4540  0.1449
 4371SOL    HW124575   0.710   1.503   6.751 -0.9041  0.8579 -2.2149
 4371SOL    HW224576   0.676   1.601   6.851  0.4035  1.0903  0.1272
 4372SOL     OW24577   1.319   3.949   9.052  0.2059  0.4804  0.5604
 4372SOL    HW124578   1.239   3.898   9.058 -0.1713  1.0630  0.5004
 4372SOL    HW224579   1.348   3.914   9.137 -0.8981 -0.9615  0.3221
 4373SOL     OW24580   2.444   3.332   3.096 -0.6002 -0.0318  0.4825
 4373SOL    HW124581   2.429   3.298   3.184 -0.4766 -2.4364 -0.4258
 4373SOL    HW224582   2.539   3.345   3.093 -0.4800 -1.2841 -1.2410
 4374SOL     OW24583   2.020   1.455   2.115  0.2037 -0.2380  0.0760
 4374SOL    HW124584   2.032   1.405   2.035  1.3417 -0.1836  0.2075
 4374SOL    HW224585   1.989   1.386   2.174  1.6769  0.6528  1.9193
 4375SOL     OW24586   2.507   3.336   7.064 -0.1747 -0.2789  0.4122
 4375SOL    HW124587   2.437   3.367   7.122  1.8385  1.2465  2.0216
 4375SOL    HW224588   2.474   3.364   6.979  0.3059 -2.2090 -0.4098
 4376SOL     OW24589   1.467   2.746   2.260 -0.1296  0.4658  0.7534
 4376SOL    HW124590   1.481   2.791   2.177  3.0021 -3.3992 -0.7778
 4376SOL    HW224591   1.435   2.821   2.311  0.1688  0.9011  0.2923
 4377SOL     OW24592   3.828   3.842   9.293  0.1179 -0.6324 -0.8668
 4377SOL    HW124593   3.855   3.932   9.276  0.1792 -0.5204 -0.1793
 4377SOL    HW224594   3.899   3.820   9.353 -0.4808 -0.5644 -0.1287
 4378SOL     OW24595   2.968   0.501   6.529  1.0611 -0.4851  0.1598
 4378SOL    HW124596   3.014   0.467   6.606  0.5966 -2.6132 -0.4754
 4378SOL    HW224597   3.035   0.497   6.461 -0.4666  1.6255 -1.4656
 4379SOL     OW24598   3.415   4.506   2.314 -0.2228 -0.3388 -0.3364
 4379SOL    HW124599   3.323   4.489   2.293 -0.2348  2.7649 -2.7772
 4379SOL    HW224600   3.438   4.454   2.391  1.8700 -0.0448 -0.7833
 4380SOL     OW24601   0.311   3.280  17.191 -0.6953  0.3455 -0.1225
 4380SOL    HW124602   0.268   3.197  17.170  1.9280 -0.8412 -0.7859
 4380SOL    HW224603   0.289   3.348  17.128 -2.6200 -0.2543 -0.0775
 4381SOL     OW24604   3.151   0.682   0.006 -0.3332  0.2046 -0.2597
 4381SOL    HW124605   3.167   0.743  17.635  0.9513 -1.2733 -1.2173
 4381SOL    HW224606   3.118   0.746   0.069  0.0426  1.2076 -1.0743
 4382SOL     OW24607   2.468   1.791  12.151 -0.2379 -0.6004  0.5657
 4382SOL    HW124608   2.440   1.810  12.240  2.3193 -1.4645  1.5631
 4382SOL    HW224609   2.562   1.806  12.158 -0.3857  0.6547 -0.1151
 4383SOL     OW24610   3.388   0.541  15.300  0.5639 -0.3176  0.0736
 4383SOL    HW124611   3.400   0.484  15.376 -0.2393  2.7313  2.5152
 4383SOL    HW224612   3.434   0.497  15.229 -0.2909  0.7736 -1.1381
 4384SOL     OW24613   4.696   3.642   4.346  0.0737 -0.3468 -0.4704
 4384SOL    HW124614   4.612   3.680   4.369  0.4139 -0.2075  0.5330
 4384SOL    HW224615   4.681   3.608   4.257  2.1592 -1.5132 -0.3849
 4385SOL     OW24616   2.925   4.155   3.073 -0.0533 -0.6147  0.1528
 4385SOL    HW124617   2.874   4.113   3.004 -0.0012 -0.0459 -0.2324
 4385SOL    HW224618   2.989   4.084   3.083 -0.6778 -1.1534  0.3026
 4386SOL     OW24619   3.980   4.233  13.895 -0.1407 -0.5371 -0.0058
 4386SOL    HW124620   3.907   4.285  13.929  0.1714  0.8770 -1.4763
 4386SOL    HW224621   4.038   4.294  13.849 -0.0620 -1.6003 -1.3097
 4387SOL     OW24622   2.504   1.859   4.173 -0.7180 -0.2711 -0.2226
 4387SOL    HW124623   2.557   1.796   4.221 -0.6466  0.9398  1.2960
 4387SOL    HW224624   2.450   1.803   4.117 -0.4594  0.0325 -0.7799
 4388SOL     OW24625   1.056   0.055  12.996  0.2584  0.2437 -0.1800
 4388SOL    HW124626   1.077   0.090  13.083 -0.0255  1.5256 -0.6273
 4388SOL    HW224627   0.964   0.033  13.009  0.0798  0.3616 -1.2847
 4389SOL     OW24628   3.113   3.911   9.493  0.0968 -0.4484 -0.1017
 4389SOL    HW124629   3.150   3.942   9.410 -0.0689  0.1349  0.0436
 4389SOL    HW224630   3.156   3.827   9.512 -3.2212 -2.3548 -0.9757
 4390SOL     OW24631   4.689   1.348  15.424 -0.0393  0.4806  0.0623
 4390SOL    HW124632   4.705   1.377  15.334  0.0251 -0.7926 -0.3488
 4390SOL    HW224633   4.612   1.399  15.449  0.8874  1.8163  0.1395
 4391SOL     OW24634   1.395   2.887  16.865 -0.3276 -0.3681 -0.0404
 4391SOL    HW124635   1.353   2.810  16.827  1.4574 -0.7803 -1.2194
 4391SOL    HW224636   1.411   2.946  16.791 -2.6014 -1.7387 -1.6321
 4392SOL     OW24637   1.572   3.052   0.325  0.2124  0.8707  0.1571
 4392SOL    HW124638   1.533   3.070   0.410 -2.5762 -0.7703 -0.7695
 4392SOL    HW224639   1.511   3.101   0.269  0.8331  0.7135 -0.6475
 4393SOL     OW24640   0.030   0.067   5.344 -0.0926  0.1394  0.0348
 4393SOL    HW124641   4.695   0.096   5.413 -1.2581 -1.8679 -0.1320
 4393SOL    HW224642   0.117   0.091   5.378 -0.1378 -1.0139  0.9690
 4394SOL     OW24643   4.708   3.523   3.839 -0.1289  0.5274 -0.0529
 4394SOL    HW124644   4.664   3.439   3.846  0.0626  0.3390 -1.1920
 4394SOL    HW224645   4.651   3.570   3.778  0.8617  1.9059  0.0684
 4395SOL     OW24646   0.548   0.183   0.299  0.1380  0.3860 -1.0904
 4395SOL    HW124647   0.576   0.169   0.389  0.4073  0.2085 -1.2035
 4395SOL    HW224648   0.559   0.095   0.263 -1.0263 -0.2625  0.0975
 4396SOL     OW24649   3.844   0.097   2.045  0.0518  0.3171 -0.1869
 4396SOL    HW124650   3.778   0.053   1.991  1.5903 -0.8611 -1.1048
 4396SOL    HW224651   3.900   0.027   2.077  0.8169  1.6123  1.2699
 4397SOL     OW24652   1.509   4.346   4.969 -0.5995  0.2013  0.2048
 4397SOL    HW124653   1.505   4.307   4.882  1.7979 -1.6294  0.9112
 4397SOL    HW224654   1.417   4.338   4.994 -0.6647 -0.4428 -0.2468
 4398SOL     OW24655   1.685   4.493   5.113  0.5151  0.3409  0.4983
 4398SOL    HW124656   1.735   4.418   5.146  0.3718 -0.2244 -0.5689
 4398SOL    HW224657   1.631   4.448   5.048  0.2001  0.2815  0.8006
 4399SOL     OW24658   2.717   3.870   1.729  0.3751  0.7678 -0.0371
 4399SOL    HW124659   2.697   3.891   1.820  0.2672  1.3579 -0.1977
 4399SOL    HW224660   2.685   3.950   1.689  3.5473  1.8956 -0.3529
 4400SOL     OW24661   3.233   1.277   4.960  0.0462  0.7478  0.1640
 4400SOL    HW124662   3.187   1.210   5.011  0.4092 -1.5727 -2.5921
 4400SOL    HW224663   3.176   1.345   4.996  1.3411  1.1064  1.5519
 4401SOL     OW24664   3.243   2.336   8.718  0.0540 -0.2046 -0.0149
 4401SOL    HW124665   3.331   2.363   8.744  0.3961 -1.1180 -0.2212
 4401SOL    HW224666   3.226   2.420   8.676 -2.5637  0.2516  1.9530
 4402SOL     OW24667   3.741   0.785  12.393 -0.5477 -0.1700  0.0057
 4402SOL    HW124668   3.791   0.831  12.326  0.5730  1.6718  2.0900
 4402SOL    HW224669   3.812   0.769  12.455  0.3187  1.9039 -0.4445
 4403SOL     OW24670   3.559   3.639   7.062 -0.2692  0.0516  0.6248
 4403SOL    HW124671   3.531   3.560   7.107 -0.9113 -0.6226 -0.9432
 4403SOL    HW224672   3.649   3.608   7.052 -0.9040 -2.0321  1.4021
 4404SOL     OW24673   4.306   2.498   6.348  0.0355  0.5054  0.1903
 4404SOL    HW124674   4.400   2.515   6.344 -0.0876  0.6684 -2.4331
 4404SOL    HW224675   4.297   2.485   6.442 -0.7654 -1.8380 -0.2227
 4405SOL     OW24676   2.379   3.228   3.951 -0.5227  0.0467  0.9949
 4405SOL    HW124677   2.405   3.254   3.862 -1.4847 -0.9216  0.4248
 4405SOL    HW224678   2.399   3.313   3.991 -1.3527 -0.5202  2.5961
 4406SOL     OW24679   1.008   3.206   5.024 -0.0254  0.4454  0.1599
 4406SOL    HW124680   0.963   3.269   5.079  0.9627  0.4926  0.9097
 4406SOL    HW224681   1.051   3.260   4.957  1.1159  0.8106  1.2029
 4407SOL     OW24682   2.827   4.138  13.213 -0.3226 -0.0483  0.0757
 4407SOL    HW124683   2.922   4.147  13.208 -0.2433 -1.0215 -0.2094
 4407SOL    HW224684   2.802   4.228  13.194  1.0789  0.1053 -1.0751
 4408SOL     OW24685   0.350   3.091   2.190  0.1232  0.3103 -0.3635
 4408SOL    HW124686   0.352   3.103   2.285 -1.0337  0.9711 -0.4271
 4408SOL    HW224687   0.437   3.115   2.160 -0.0389  0.6344 -0.5682
 4409SOL     OW24688   4.412   3.797  13.068 -0.1462  0.2344 -0.1696
 4409SOL    HW124689   4.410   3.861  13.139 -1.4424  1.6376 -1.4672
 4409SOL    HW224690   4.334   3.816  13.016  0.1738  0.4632 -0.5684
 4410SOL     OW24691   1.867   1.811   5.727 -0.1107 -0.8233  0.3682
 4410SOL    HW124692   1.942   1.838   5.780 -0.2481 -0.7569  0.5289
 4410SOL    HW224693   1.805   1.800   5.799 -2.6770  1.9462 -1.4229
 4411SOL     OW24694   4.598   2.157   3.731  0.6349 -0.2536 -0.1636
 4411SOL    HW124695   4.613   2.119   3.645 -0.3396 -1.7244  0.3136
 4411SOL    HW224696   4.641   2.240   3.714 -0.3581  0.2263 -0.3550
 4412SOL     OW24697   2.724   0.544  14.668 -0.1127  0.5982 -0.2602
 4412SOL    HW124698   2.683   0.529  14.583 -1.0041  3.2862 -0.2860
 4412SOL    HW224699   2.813   0.518  14.642  0.3197  0.4290  1.3797
 4413SOL     OW24700   0.291   0.984   0.450 -0.0701  0.4656  0.2073
 4413SOL    HW124701   0.377   1.003   0.411 -0.1544 -1.3682 -0.8835
 4413SOL    HW224702   0.277   0.898   0.411 -1.3042  0.4865  0.6367
 4414SOL     OW24703   0.951   0.997   7.872  0.1613 -0.4342 -0.1265
 4414SOL    HW124704   0.896   0.980   7.948  0.2113  1.7422  0.4181
 4414SOL    HW224705   1.019   0.930   7.883  1.6977  1.1405  0.0520
 4415SOL     OW24706   3.255   3.576  10.141  0.3758  0.4583  0.0552
 4415SOL    HW124707   3.318   3.503  10.136 -0.0269 -0.0077  1.6048
 4415SOL    HW224708   3.304   3.645  10.184  2.2367 -1.4883  1.0686
 4416SOL     OW24709   4.211   4.509   5.294  0.0041  0.1832  0.2227
 4416SOL    HW124710   4.137   4.561   5.325 -0.7270 -1.1249  0.6609
 4416SOL    HW224711   4.186   4.490   5.203  0.3499 -0.2284  0.2080
 4417SOL     OW24712   1.723   0.493   6.132  0.0975 -0.2767  0.0595
 4417SOL    HW124713   1.700   0.575   6.088 -1.0817  0.9649  3.0126
 4417SOL    HW224714   1.809   0.522   6.163 -0.5217  2.8214 -1.1344
 4418SOL     OW24715   1.242   1.762   2.953 -0.1753  0.2652 -0.1905
 4418SOL    HW124716   1.188   1.805   3.020 -0.8759  1.2367 -1.3778
 4418SOL    HW224717   1.295   1.711   3.014 -0.4542  0.4028  0.1676
 4419SOL     OW24718   0.656   1.821   5.729  0.0349  0.9761 -0.0092
 4419SOL    HW124719   0.698   1.754   5.674 -2.5732 -0.0958 -0.6891
 4419SOL    HW224720   0.572   1.777   5.742  0.3848  0.4984  0.6673
 4420SOL     OW24721   3.358   2.206  16.941 -0.0323 -0.3383  0.3747
 4420SOL    HW124722   3.297   2.278  16.924  2.1894  1.9675  2.1784
 4420SOL    HW224723   3.382   2.211  17.033 -0.4407 -1.7064  0.5518
 4421SOL     OW24724   4.355   4.278   2.642  0.3993 -0.3615  0.3585
 4421SOL    HW124725   4.352   4.208   2.707 -1.2086 -1.0144 -0.4306
 4421SOL    HW224726   4.295   4.242   2.577 -0.2321  0.5665  0.4291
 4422SOL     OW24727   1.045   2.575   5.948 -0.0484 -0.2896 -0.7347
 4422SOL    HW124728   1.123   2.579   6.003 -0.4884 -1.2163 -0.0260
 4422SOL    HW224729   1.011   2.489   5.973 -1.6178  0.8723  1.1926
 4423SOL     OW24730   4.551   1.128  11.060  0.2190  0.2887 -0.7349
 4423SOL    HW124731   4.631   1.102  11.105 -0.4062 -0.0672  0.1612
 4423SOL    HW224732   4.495   1.161  11.130 -3.2707 -2.1026 -2.3847
 4424SOL     OW24733   1.825   3.263   2.456  0.2028  0.3570 -0.1918
 4424SOL    HW124734   1.786   3.187   2.499 -0.1280  0.0514 -1.0383
 4424SOL    HW224735   1.751   3.282   2.399  1.2592  0.8483 -1.4015
 4425SOL     OW24736   1.444   0.159  11.597  0.0615 -0.0097  1.0935
 4425SOL    HW124737   1.421   0.136  11.687  1.4031  1.5460  1.8296
 4425SOL    HW224738   1.411   0.082  11.551 -1.1271  0.0326  1.8591
 4426SOL     OW24739   3.686   2.690   3.810 -0.4885 -0.0240  0.1830
 4426SOL    HW124740   3.718   2.610   3.853  0.0675 -0.8050 -1.7080
 4426SOL    HW224741   3.767   2.741   3.807 -1.7846  2.0895  1.3955
 4427SOL     OW24742   2.937   2.783   1.469  0.1304 -0.1856 -0.2639
 4427SOL    HW124743   2.886   2.846   1.520  1.2923  0.1452  0.4894
 4427SOL    HW224744   3.027   2.815   1.479 -0.2831  0.7995  0.3167
 4428SOL     OW24745   4.040   4.162   2.083  0.0898  0.1267 -0.4422
 4428SOL    HW124746   4.019   4.175   1.990 -0.2030  1.1987 -0.2299
 4428SOL    HW224747   3.955   4.175   2.126  0.6378  4.1747 -0.5051
 4429SOL     OW24748   4.602   3.521   3.261  0.3048 -0.4469  0.4413
 4429SOL    HW124749   4.624   3.523   3.354 -0.5137  1.0374  0.6053
 4429SOL    HW224750   4.684   3.483   3.228 -0.0867 -1.8642  1.1377
 4430SOL     OW24751   3.698   1.350   5.346 -0.0403 -0.1014  0.5348
 4430SOL    HW124752   3.674   1.392   5.428 -0.7288  0.6521 -0.0522
 4430SOL    HW224753   3.614   1.338   5.302 -1.2183  1.4567  2.3929
 4431SOL     OW24754   4.570   3.169   1.268  0.3493  1.0646  0.4511
 4431SOL    HW124755   4.566   3.133   1.179  1.3273 -0.6747  1.1085
 4431SOL    HW224756   4.653   3.130   1.295 -0.1734 -0.2069  0.2416
 4432SOL     OW24757   2.061   3.647  10.493 -0.3039 -0.6466 -0.2077
 4432SOL    HW124758   1.971   3.674  10.474 -0.1932  0.1529  0.4090
 4432SOL    HW224759   2.096   3.727  10.532  2.1046 -1.6676 -0.2330
 4433SOL     OW24760   4.556   2.108   1.231  0.0279 -0.7155  0.9032
 4433SOL    HW124761   4.586   2.180   1.287 -0.6778 -0.3503  0.8111
 4433SOL    HW224762   4.633   2.097   1.174 -1.2392  0.2347 -0.9979
 4434SOL     OW24763   1.235   1.685   8.821  0.2272  0.0590  0.2869
 4434SOL    HW124764   1.307   1.694   8.884 -1.3834  1.0643  1.9564
 4434SOL    HW224765   1.268   1.754   8.764 -0.6625  0.2063 -0.0462
 4435SOL     OW24766   3.557   4.588   2.956  0.1033 -0.4258  0.3867
 4435SOL    HW124767   3.539   4.501   2.920  2.2383 -1.4314  1.7643
 4435SOL    HW224768   3.539   4.636   2.875 -1.6945  0.8834  1.5721
 4436SOL     OW24769   3.243   0.342   9.004  0.1823  0.7124 -0.4129
 4436SOL    HW124770   3.279   0.317   9.089 -0.0041 -0.3507 -0.6444
 4436SOL    HW224771   3.326   0.359   8.960 -0.2816  2.1089 -0.7576
 4437SOL     OW24772   2.021   4.278   7.640  0.4224 -0.0714 -0.1734
 4437SOL    HW124773   2.045   4.263   7.548  0.8940  0.0575 -0.0707
 4437SOL    HW224774   2.008   4.187   7.665 -1.6811 -0.4506 -2.6037
 4438SOL     OW24775   3.588   2.837   5.609 -0.2393 -0.7013 -0.6815
 4438SOL    HW124776   3.610   2.803   5.522 -0.5944 -0.9670 -0.6697
 4438SOL    HW224777   3.603   2.930   5.592 -2.1958 -0.2478 -0.0112
 4439SOL     OW24778   4.188   2.699  10.011  0.1450  0.2704  0.4693
 4439SOL    HW124779   4.099   2.729  10.029  0.2849  1.5105 -0.9164
 4439SOL    HW224780   4.172   2.658   9.926 -1.2403  1.1582  0.2995
 4440SOL     OW24781   0.399   4.554   0.790  0.0920  0.6190 -0.9196
 4440SOL    HW124782   0.424   4.463   0.800 -1.8075  0.2083  0.1897
 4440SOL    HW224783   0.389   4.572   0.696 -2.8746 -2.0639 -1.1114
 4441SOL     OW24784   2.103   1.791   1.503 -0.1253 -0.5952  0.6951
 4441SOL    HW124785   2.110   1.847   1.425  1.1857 -0.0866  1.1805
 4441SOL    HW224786   2.191   1.810   1.536  0.3345  0.7572 -1.2440
 4442SOL     OW24787   0.935   2.513  11.627  0.0903  0.4272 -0.6860
 4442SOL    HW124788   0.966   2.451  11.561 -0.8784 -0.2074 -0.5408
 4442SOL    HW224789   1.009   2.571  11.645  0.3001  0.3174 -1.1823
 4443SOL     OW24790   4.459   1.213   7.331 -0.9115  1.0951 -0.1174
 4443SOL    HW124791   4.476   1.274   7.403  1.0476 -1.0729  1.2443
 4443SOL    HW224792   4.540   1.203   7.282 -1.2616  2.2153 -0.9177
 4444SOL     OW24793   0.457   0.377   2.744 -1.1970  0.3129 -0.4744
 4444SOL    HW124794   0.505   0.314   2.797  1.1462  3.9050  1.6752
 4444SOL    HW224795   0.469   0.452   2.803  2.5179  1.0548 -2.1680
 4445SOL     OW24796   2.638   3.152   4.667  0.3761  0.2836 -0.1053
 4445SOL    HW124797   2.706   3.088   4.648 -0.1264 -0.1226 -0.5190
 4445SOL    HW224798   2.656   3.180   4.757  2.4708  4.6739 -1.8830
 4446SOL     OW24799   3.683   2.294   8.219  0.4546 -0.2188 -0.4119
 4446SOL    HW124800   3.737   2.309   8.296  1.1873 -3.4014 -0.3067
 4446SOL    HW224801   3.616   2.360   8.239  0.7677 -0.3182  0.9661
 4447SOL     OW24802   1.429   3.095  10.699  0.0419  0.4604  0.0855
 4447SOL    HW124803   1.374   3.123  10.626  0.6217  0.1248 -0.4888
 4447SOL    HW224804   1.412   3.000  10.697 -0.5208  0.5384  1.1961
 4448SOL     OW24805   3.298   2.720  17.591 -0.4266 -0.3855  0.4894
 4448SOL    HW124806   3.366   2.654  17.587  1.0821  1.0922  1.8651
 4448SOL    HW224807   3.334   2.784  17.530  1.5220 -0.2830  1.7482
 4449SOL     OW24808   3.824   0.278   2.284  0.2729  0.1031 -0.1897
 4449SOL    HW124809   3.813   0.374   2.282 -2.7153 -0.2162  0.2224
 4449SOL    HW224810   3.819   0.254   2.192 -0.6178 -0.4081 -0.0096
 4450SOL     OW24811   0.245   1.031   6.052  0.0243 -0.2990 -0.4074
 4450SOL    HW124812   0.187   0.970   6.008 -0.6540 -2.1072  3.0666
 4450SOL    HW224813   0.296   0.979   6.114  0.1339 -0.2424 -0.4486
 4451SOL     OW24814   0.168   3.334  13.148  0.6998 -0.2014  0.1918
 4451SOL    HW124815   0.116   3.254  13.151  0.1823  0.0896 -1.0206
 4451SOL    HW224816   0.249   3.288  13.171  1.2366  0.9725  0.6364
 4452SOL     OW24817   3.180   4.007   6.821 -0.0973  0.4017 -0.3193
 4452SOL    HW124818   3.150   4.018   6.912 -1.1987 -3.1417 -0.2219
 4452SOL    HW224819   3.177   4.097   6.789  2.5021  1.0778  1.3177
 4453SOL     OW24820   1.793   1.528   8.429  0.2090 -0.2297  0.1809
 4453SOL    HW124821   1.777   1.578   8.349 -0.6115 -0.6267  0.1045
 4453SOL    HW224822   1.845   1.594   8.475  1.2790  0.7738 -2.4747
 4454SOL     OW24823   3.713   1.263   9.030 -0.2051  0.1306  0.1350
 4454SOL    HW124824   3.639   1.300   8.982  0.0350 -0.1090 -0.4264
 4454SOL    HW224825   3.686   1.171   9.031 -0.1357  0.0909 -0.8630
 4455SOL     OW24826   4.132   1.948  17.579  0.4590 -0.2999 -0.4360
 4455SOL    HW124827   4.039   1.971  17.572  0.6071  0.7257  0.8237
 4455SOL    HW224828   4.167   2.037  17.587  0.9863 -0.4014 -1.7815
 4456SOL     OW24829   2.085   1.856   4.875  0.1443 -0.3744 -0.5000
 4456SOL    HW124830   2.062   1.831   4.965  0.6347 -3.5537 -1.2770
 4456SOL    HW224831   2.001   1.890   4.844  0.2002 -0.6073 -0.8985
 4457SOL     OW24832   3.612   0.407   5.075 -0.1814  0.0010 -0.8323
 4457SOL    HW124833   3.661   0.340   5.122 -0.7743  0.4019  0.3381
 4457SOL    HW224834   3.664   0.412   4.995  3.3809 -0.1525  1.5030
 4458SOL     OW24835   4.553   0.643   2.080  0.4551 -0.1071 -0.3374
 4458SOL    HW124836   4.508   0.679   2.004  0.7985 -1.0195 -0.9788
 4458SOL    HW224837   4.527   0.551   2.079 -0.9172  0.2838 -0.2101
 4459SOL     OW24838   2.822   3.972  14.830  0.1466  0.1195  0.3208
 4459SOL    HW124839   2.820   3.879  14.852  0.4511 -0.0629 -0.4268
 4459SOL    HW224840   2.734   4.000  14.857 -0.1004 -1.0470  0.7101
 4460SOL     OW24841   3.362   1.781  17.435 -0.5852  0.1870  0.3437
 4460SOL    HW124842   3.368   1.840  17.360  2.8471  0.2237  0.6879
 4460SOL    HW224843   3.267   1.766  17.431 -0.5023  0.1693 -1.6766
 4461SOL     OW24844   0.538   1.528  11.042  0.7825 -0.5460 -0.0689
 4461SOL    HW124845   0.474   1.534  10.970  0.2080 -0.9859  0.4018
 4461SOL    HW224846   0.518   1.445  11.085 -0.6664  0.0752  0.4754
 4462SOL     OW24847   2.029   3.869   6.560  0.2330  0.0800 -0.4473
 4462SOL    HW124848   1.947   3.864   6.512 -0.0436 -0.2209  0.0574
 4462SOL    HW224849   2.087   3.897   6.489  2.7242 -1.5431  0.9167
 4463SOL     OW24850   3.597   2.876   8.738  0.5026 -0.5296 -0.0746
 4463SOL    HW124851   3.508   2.905   8.758  1.2919  0.7749  1.5786
 4463SOL    HW224852   3.631   2.954   8.693 -2.7996  0.7606 -0.3367
 4464SOL     OW24853   0.204   1.692   3.325  0.5651  0.6415  0.1726
 4464SOL    HW124854   0.228   1.785   3.331 -2.4427  1.5624 -1.8839
 4464SOL    HW224855   0.295   1.664   3.324 -0.3553 -2.3816  0.0040
 4465SOL     OW24856   3.528   2.580   0.368 -0.4553 -0.0058  0.2182
 4465SOL    HW124857   3.434   2.594   0.381 -0.1597  1.1045  1.2288
 4465SOL    HW224858   3.536   2.494   0.409 -1.1872 -0.7906 -1.3072
 4466SOL     OW24859   3.968   4.188   7.418 -0.3087  0.2770  0.0864
 4466SOL    HW124860   3.994   4.236   7.339 -1.9345 -0.8459 -1.1277
 4466SOL    HW224861   3.874   4.177   7.400 -0.8575  0.7872  2.6640
 4467SOL     OW24862   2.543   3.345   6.558  0.0016 -0.2680  0.5164
 4467SOL    HW124863   2.526   3.389   6.475  2.0304  0.4040  0.4488
 4467SOL    HW224864   2.559   3.419   6.617  0.6366  1.7575 -2.2264
 4468SOL     OW24865   4.663   1.260   1.494 -0.1146  0.1904  0.1590
 4468SOL    HW124866   4.642   1.166   1.495  0.4208  0.0721  0.5365
 4468SOL    HW224867   4.675   1.271   1.400  2.6355  1.8398  0.6831
 4469SOL     OW24868   0.199   2.076   1.888 -0.1994 -0.1726  0.4928
 4469SOL    HW124869   0.112   2.084   1.926 -0.6396  0.6364 -0.6701
 4469SOL    HW224870   0.210   2.153   1.832  1.4819 -0.5029  0.3643
 4470SOL     OW24871   4.275   1.739   1.798 -0.0096  0.6292 -0.2551
 4470SOL    HW124872   4.299   1.729   1.890 -2.5653 -1.3983  0.1746
 4470SOL    HW224873   4.302   1.651   1.771 -0.4750 -0.1750  1.8892
 4471SOL     OW24874   1.240   1.357   1.854  0.0056  0.3572  0.1044
 4471SOL    HW124875   1.329   1.335   1.882  0.0839  0.7013  0.1292
 4471SOL    HW224876   1.178   1.313   1.913 -1.9776  1.4002 -1.1945
 4472SOL     OW24877   3.966   0.365  11.559  0.3484 -0.4469  0.3900
 4472SOL    HW124878   4.014   0.395  11.482 -0.0588  0.6279  0.5586
 4472SOL    HW224879   3.899   0.430  11.576  0.2655 -0.1841 -0.9224
 4473SOL     OW24880   3.401   3.826   8.195 -0.2108 -0.3222  0.2508
 4473SOL    HW124881   3.485   3.871   8.187  0.7466 -2.4080 -1.3747
 4473SOL    HW224882   3.426   3.754   8.252  2.0005  0.7380  0.6030
 4474SOL     OW24883   3.082   4.092  17.432  0.4420 -0.4390  0.1648
 4474SOL    HW124884   3.101   4.001  17.454  1.8180 -0.3497 -0.6981
 4474SOL    HW224885   3.101   4.095  17.338 -2.4295 -1.0538 -0.4339
 4475SOL     OW24886   3.017   2.639   8.457  0.0622 -0.0116  0.7467
 4475SOL    HW124887   3.081   2.708   8.473  0.8254 -0.4728 -0.3829
 4475SOL    HW224888   3.070   2.560   8.466  0.9843  0.5486  0.1827
 4476SOL     OW24889   1.798   1.626   2.024 -0.3523  0.6114  0.3750
 4476SOL    HW124890   1.829   1.606   2.113  2.0292  1.1198 -0.3297
 4476SOL    HW224891   1.861   1.583   1.966 -1.5956 -0.0493 -0.4605
 4477SOL     OW24892   2.862   2.405   2.534 -0.3398  0.3339  0.8003
 4477SOL    HW124893   2.864   2.433   2.626 -1.3892  0.5236  0.7663
 4477SOL    HW224894   2.893   2.479   2.481  1.3931  1.9582  4.0573
 4478SOL     OW24895   0.932   3.579   2.659 -0.3281  0.1288 -0.7712
 4478SOL    HW124896   0.980   3.626   2.590 -0.4496  3.3311  1.3184
 4478SOL    HW224897   0.908   3.654   2.713  0.0613  0.2360 -0.7450
 4479SOL     OW24898   4.670   1.512   0.330 -0.7923  0.0009 -0.0245
 4479SOL    HW124899   4.715   1.522   0.414 -1.3843  0.1514  0.2765
 4479SOL    HW224900   4.711   1.586   0.285  2.7384 -1.5968  0.5497
 4480SOL     OW24901   4.190   0.409   1.997 -0.2139 -0.1999  0.0627
 4480SOL    HW124902   4.168   0.333   1.943 -1.1949 -0.0671  0.2858
 4480SOL    HW224903   4.107   0.455   2.009  0.1055  0.5669 -0.6512
 4481SOL     OW24904   3.976   1.361   5.394 -0.1009 -0.6439 -0.2451
 4481SOL    HW124905   3.883   1.355   5.372  0.0074  1.2623 -1.2101
 4481SOL    HW224906   4.008   1.403   5.314  0.0738 -1.2666 -0.5059
 4482SOL     OW24907   4.096   2.739   4.877 -0.7408  0.6552  0.0046
 4482SOL    HW124908   4.069   2.684   4.804 -1.6426  0.0998  0.7597
 4482SOL    HW224909   4.144   2.810   4.834  0.3765  0.8852  1.6421
 4483SOL     OW24910   0.585   0.489   6.271  0.4467  0.1611  0.2675
 4483SOL    HW124911   0.636   0.447   6.341 -0.8577  0.3361  1.3264
 4483SOL    HW224912   0.531   0.545   6.326  1.0563 -1.0028  2.1020
 4484SOL     OW24913   0.667   1.179   3.600  0.3567 -0.4820  0.0841
 4484SOL    HW124914   0.628   1.262   3.573  2.3158 -0.2677 -2.1642
 4484SOL    HW224915   0.588   1.133   3.631  0.7434 -0.8352  0.5499
 4485SOL     OW24916   3.803   4.235   0.615  0.4964  0.3080 -0.7582
 4485SOL    HW124917   3.762   4.254   0.699  1.3554  1.2927 -0.5705
 4485SOL    HW224918   3.734   4.190   0.566 -0.3390  2.9496 -2.0073
 4486SOL     OW24919   2.343   3.583   8.524 -0.2637  0.0919 -0.6937
 4486SOL    HW124920   2.339   3.501   8.475 -0.5496 -0.5373  0.3938
 4486SOL    HW224921   2.320   3.550   8.611  0.0791  1.3821 -0.1079
 4487SOL     OW24922   4.407   2.445   2.882 -0.6037  0.1567  0.0419
 4487SOL    HW124923   4.396   2.498   2.803 -1.2622 -0.2061 -0.1060
 4487SOL    HW224924   4.330   2.389   2.875  0.3182 -1.1501  0.5691
 4488SOL     OW24925   3.752   2.142   2.097 -0.1104  0.4639 -0.4483
 4488SOL    HW124926   3.668   2.108   2.126  0.5375 -1.3100 -0.6209
 4488SOL    HW224927   3.722   2.228   2.067 -2.1708 -0.4604 -0.9983
 4489SOL     OW24928   0.791   3.140   9.410 -0.0367  0.0550 -0.6798
 4489SOL    HW124929   0.743   3.098   9.481 -2.9562  0.4939 -2.4057
 4489SOL    HW224930   0.773   3.081   9.337  0.2472 -1.1938  0.2607
 4490SOL     OW24931   4.143   2.068   4.130  0.3530  0.0281  0.6208
 4490SOL    HW124932   4.207   2.022   4.075 -2.4994 -2.5147 -0.5807
 4490SOL    HW224933   4.165   2.036   4.217 -2.1278  0.2067  1.3126
 4491SOL     OW24934   4.190   0.159   6.994 -0.2451  0.0649 -0.3703
 4491SOL    HW124935   4.213   0.066   6.998 -0.8979 -0.0846 -0.1636
 4491SOL    HW224936   4.211   0.174   6.901  1.6559  0.4074  0.1181
 4492SOL     OW24937   3.196   2.679   4.132  0.0825 -0.3254  0.6295
 4492SOL    HW124938   3.288   2.700   4.115 -0.1917 -1.5827 -2.2949
 4492SOL    HW224939   3.169   2.739   4.202 -0.1578  0.6769 -0.3216
 4493SOL     OW24940   2.368   2.586   1.738  0.2324 -0.0355 -0.1382
 4493SOL    HW124941   2.453   2.622   1.715  0.6618  0.1736  1.8169
 4493SOL    HW224942   2.392   2.518   1.801  0.2651  1.9786  1.9912
 4494SOL     OW24943   2.087   1.248  17.112 -0.2479  0.1751  0.3872
 4494SOL    HW124944   2.035   1.198  17.049 -0.8044  0.7941  0.3578
 4494SOL    HW224945   2.047   1.224  17.195  2.8420 -0.2867  1.7626
 4495SOL     OW24946   2.250   4.293   9.278 -0.2553 -0.1243  0.0001
 4495SOL    HW124947   2.161   4.261   9.292 -0.2327 -1.1431 -2.1335
 4495SOL    HW224948   2.266   4.322   9.368  1.3839 -0.6948 -0.1057
 4496SOL     OW24949   3.270   3.427  14.290 -0.3852 -0.3953 -0.1708
 4496SOL    HW124950   3.342   3.383  14.245 -1.4917 -2.4595  0.0518
 4496SOL    HW224951   3.213   3.443  14.215 -1.6870 -0.3934  0.8267
 4497SOL     OW24952   3.148   0.170   5.155 -0.1969 -0.2783 -0.7641
 4497SOL    HW124953   3.081   0.104   5.172 -0.4551  0.9420  2.9914
 4497SOL    HW224954   3.098   0.245   5.189 -0.4765 -0.2745 -1.1850
 4498SOL     OW24955   4.202   4.024   3.336  0.2554  0.0486  0.1121
 4498SOL    HW124956   4.114   4.024   3.299 -0.1289 -0.1954  1.0082
 4498SOL    HW224957   4.194   3.936   3.373 -1.1567 -0.2352 -0.8628
 4499SOL     OW24958   1.276   0.287   8.557  0.1326 -0.5183 -0.2598
 4499SOL    HW124959   1.249   0.336   8.480  1.3941  0.0263 -0.3544
 4499SOL    HW224960   1.365   0.321   8.562 -0.3505  1.1132 -2.9412
 4500SOL     OW24961   1.737   3.599   2.618 -0.2038 -0.2388 -0.0323
 4500SOL    HW124962   1.653   3.645   2.615 -0.0154  0.1972  1.4262
 4500SOL    HW224963   1.753   3.573   2.527 -0.2836 -0.8044  0.1178
 4501SOL     OW24964   2.981   1.228   4.487  0.0777 -0.2390  0.6624
 4501SOL    HW124965   3.020   1.182   4.412  0.7355 -1.2656  1.6245
 4501SOL    HW224966   2.908   1.263   4.437  0.7229 -1.9736 -1.5032
 4502SOL     OW24967   1.731   4.080  14.426 -0.2858 -0.4914  0.9151
 4502SOL    HW124968   1.705   4.118  14.511  0.7465 -1.0661  1.4889
 4502SOL    HW224969   1.712   3.989  14.445 -0.2642 -0.7756 -0.4351
 4503SOL     OW24970   3.613   3.201   9.909 -0.2204  0.5170  0.0147
 4503SOL    HW124971   3.673   3.127   9.915  0.8177  1.3550 -0.0295
 4503SOL    HW224972   3.544   3.169   9.850 -1.6068  1.4787  1.1155
 4504SOL     OW24973   3.781   3.330   7.366 -0.1788 -0.4341 -0.6350
 4504SOL    HW124974   3.780   3.332   7.270 -0.6481 -0.5402 -0.6321
 4504SOL    HW224975   3.735   3.412   7.383 -0.5448 -0.4964 -1.3162
 4505SOL     OW24976   4.317   0.939   7.622  0.5125 -0.0163  0.5967
 4505SOL    HW124977   4.409   0.947   7.597 -0.8578  1.7086 -3.9917
 4505SOL    HW224978   4.280   0.893   7.547 -0.0942 -0.1642  0.9872
 4506SOL     OW24979   3.477   1.329   6.781  0.0821 -0.3052  0.5551
 4506SOL    HW124980   3.480   1.401   6.844 -1.2667  2.8593 -2.9548
 4506SOL    HW224981   3.565   1.292   6.782 -0.4899 -1.7429 -2.1565
 4507SOL     OW24982   2.796   4.446   6.682  0.0460 -0.0598 -0.1986
 4507SOL    HW124983   2.760   4.452   6.594  0.0767  1.2209 -0.1229
 4507SOL    HW224984   2.726   4.412   6.738 -0.7062  1.6064 -0.1128
 4508SOL     OW24985   0.647   2.178   8.842  0.2386  0.4219  0.2205
 4508SOL    HW124986   0.578   2.113   8.833  0.8306 -0.3786  1.4875
 4508SOL    HW224987   0.602   2.236   8.903  1.2595 -0.7817  2.1049
 4509SOL     OW24988   2.990   1.732   3.467  0.2037 -0.2169 -0.1339
 4509SOL    HW124989   2.971   1.822   3.493 -0.4953 -0.0617 -1.2055
 4509SOL    HW224990   3.072   1.716   3.514  1.0293 -1.5740 -2.0541
 4510SOL     OW24991   0.385   2.045   7.847 -0.1052 -0.2955  0.4542
 4510SOL    HW124992   0.372   1.971   7.907 -2.0602  0.2266  0.6711
 4510SOL    HW224993   0.422   1.990   7.778 -0.0362  0.5123 -0.1473
 4511SOL     OW24994   2.990   4.627  11.346  0.2143  0.2962  0.2135
 4511SOL    HW124995   2.922   4.570  11.310 -0.0682  0.3030  0.7406
 4511SOL    HW224996   2.987   4.611  11.440 -1.9394  1.6726  0.3802
 4512SOL     OW24997   0.955   1.288  14.597 -0.3307  0.3220 -0.7110
 4512SOL    HW124998   0.954   1.375  14.558 -1.5585  0.6702  0.0922
 4512SOL    HW224999   0.870   1.281  14.641 -0.5746 -3.7990 -1.8576
 4513SOL     OW25000   3.253   4.432   2.964  0.7392  0.2042  0.0515
 4513SOL    HW125001   3.294   4.389   2.889  0.7462 -0.1386  0.2520
 4513SOL    HW225002   3.186   4.480   2.916  2.0381 -0.7235 -2.7009
 4514SOL     OW25003   0.385   1.593   5.539 -0.4156  0.2907  0.4021
 4514SOL    HW125004   0.409   1.664   5.479 -0.7610 -0.6253 -0.8070
 4514SOL    HW225005   0.297   1.580   5.505  0.5394  0.3208 -2.0810
 4515SOL     OW25006   3.568   0.218   6.605 -0.0334 -0.1050  0.1738
 4515SOL    HW125007   3.517   0.180   6.676  2.1409 -1.3929  1.0500
 4515SOL    HW225008   3.580   0.134   6.560  0.2476  0.8798 -1.6186
 4516SOL     OW25009   3.097   3.044   1.033 -0.3269 -0.8352 -0.4789
 4516SOL    HW125010   3.115   3.101   1.108 -0.9893 -0.6544 -0.4545
 4516SOL    HW225011   3.177   2.992   1.028  3.0571  4.4964 -1.3312
 4517SOL     OW25012   4.381   1.818  16.901  0.4641 -0.0168 -0.2159
 4517SOL    HW125013   4.289   1.840  16.884  0.5619  0.9488  0.5528
 4517SOL    HW225014   4.381   1.728  16.867 -0.5984  1.0114 -2.9464
 4518SOL     OW25015   1.752   2.709   6.717  0.0317 -0.2036  0.1070
 4518SOL    HW125016   1.677   2.693   6.660  0.1517 -1.2375  0.2463
 4518SOL    HW225017   1.743   2.641   6.784  1.4475 -1.9665 -1.5139
 4519SOL     OW25018   0.402   2.521   7.604 -0.1902  0.3621 -0.2818
 4519SOL    HW125019   0.483   2.515   7.655 -0.0480 -1.4059 -0.7084
 4519SOL    HW225020   0.390   2.615   7.592 -1.5713  0.1489 -0.4914
 4520SOL     OW25021   1.730   0.165   3.805  0.4581 -0.4449  0.5274
 4520SOL    HW125022   1.750   0.258   3.795 -0.5064 -0.0410  2.3341
 4520SOL    HW225023   1.817   0.127   3.796  0.6964  0.8830 -2.6929
 4521SOL     OW25024   3.819   4.435  10.830  0.1071  0.4128  0.1006
 4521SOL    HW125025   3.859   4.348  10.830  0.7027  0.6894 -0.8560
 4521SOL    HW225026   3.731   4.409  10.860  0.1881 -0.6277 -0.5674
 4522SOL     OW25027   3.990   4.311   8.955  0.0823  0.1132 -0.8723
 4522SOL    HW125028   3.950   4.234   8.915 -0.4451 -1.4863  2.6859
 4522SOL    HW225029   3.955   4.305   9.044  0.1042  1.4949 -0.7739
 4523SOL     OW25030   3.908   3.531   9.165 -0.0862  0.4694 -0.2055
 4523SOL    HW125031   3.933   3.442   9.192  2.4907  0.7303 -1.7532
 4523SOL    HW225032   3.958   3.574   9.234 -0.4640 -1.9929  1.5986
 4524SOL     OW25033   0.995   2.296   5.844  0.4195  0.1887 -0.2569
 4524SOL    HW125034   1.031   2.215   5.810 -0.6857  0.3740 -1.8427
 4524SOL    HW225035   0.917   2.314   5.792  1.9559  0.0324 -2.6323
 4525SOL     OW25036   2.094   0.250   2.028 -0.1014 -0.1372  0.2162
 4525SOL    HW125037   2.044   0.244   2.108  0.3664  3.1733  0.7558
 4525SOL    HW225038   2.183   0.246   2.062 -0.4552  0.5811  1.2169
 4526SOL     OW25039   2.168   2.742   2.098  0.3680  0.7591 -0.3092
 4526SOL    HW125040   2.122   2.810   2.050 -1.9002  0.5341  1.5368
 4526SOL    HW225041   2.260   2.760   2.076  0.1982 -1.4005 -2.8462
 4527SOL     OW25042   0.468   0.927  14.821 -0.3112  0.7196  0.4075
 4527SOL    HW125043   0.524   0.975  14.760  0.1368  0.3934  0.5683
 4527SOL    HW225044   0.516   0.845  14.828 -3.0483 -0.9778 -0.7434
 4528SOL     OW25045   1.056   4.076   3.445  0.0313 -0.3980 -0.1273
 4528SOL    HW125046   1.083   4.168   3.443 -0.7932 -0.0591  3.2568
 4528SOL    HW225047   1.141   4.040   3.470  0.1803 -0.3493 -0.5744
 4529SOL     OW25048   3.842   2.698   6.371 -0.0942  0.0321 -0.0507
 4529SOL    HW125049   3.927   2.734   6.344 -0.6190  1.0809 -0.3104
 4529SOL    HW225050   3.863   2.630   6.435  0.5175 -0.7926 -1.1194
 4530SOL     OW25051   4.597   2.469   3.062 -0.1161 -0.3690 -0.6533
 4530SOL    HW125052   4.628   2.555   3.034 -0.4712  0.5249  1.7004
 4530SOL    HW225053   4.528   2.458   2.996  0.4559  0.9556 -1.4745
 4531SOL     OW25054   1.148   4.603   3.239 -0.4248  0.4520 -0.0204
 4531SOL    HW125055   1.127   4.620   3.331 -0.1656  1.4028 -0.1413
 4531SOL    HW225056   1.074   4.635   3.189 -1.0770  2.3636  2.1509
 4532SOL     OW25057   0.466   4.494   1.409 -0.5515 -0.2219  0.4985
 4532SOL    HW125058   0.484   4.464   1.498  1.6883 -1.6876 -0.4412
 4532SOL    HW225059   0.392   4.555   1.410  1.4911  2.1920  1.3996
 4533SOL     OW25060   0.361   1.259   0.535 -0.4519  0.1729 -0.8530
 4533SOL    HW125061   0.308   1.185   0.504  1.5136 -1.7991  0.5082
 4533SOL    HW225062   0.378   1.293   0.448  1.6999 -1.7508 -1.1659
 4534SOL     OW25063   0.236   1.039   8.454 -1.0435  0.8819  0.4462
 4534SOL    HW125064   0.164   0.980   8.472 -1.7753  1.9022  0.8833
 4534SOL    HW225065   0.187   1.086   8.387 -1.7040  0.9106  0.9495
 4535SOL     OW25066   2.588   4.628   4.750  0.3224  0.4266  0.0193
 4535SOL    HW125067   2.618   4.719   4.752  0.1369  0.4209  4.0277
 4535SOL    HW225068   2.668   4.584   4.721 -1.0916 -1.1141 -1.5302
 4536SOL     OW25069   1.402   2.044  14.064 -0.1588 -0.6101  0.2510
 4536SOL    HW125070   1.366   2.042  13.975  1.2412 -2.1835 -0.2773
 4536SOL    HW225071   1.328   2.088  14.106  1.1236 -0.1823  2.0677
 4537SOL     OW25072   3.725   4.448   4.981 -0.1041  0.2316  0.3163
 4537SOL    HW125073   3.689   4.384   5.042  1.3770  0.4113  1.3766
 4537SOL    HW225074   3.698   4.525   5.031 -0.1393  2.1929 -2.6680
 4538SOL     OW25075   3.283   0.740   2.262  0.4002  0.4586  0.5104
 4538SOL    HW125076   3.352   0.693   2.308  0.9434  1.9701  1.2261
 4538SOL    HW225077   3.246   0.670   2.208 -0.0013  0.3111  0.9777
 4539SOL     OW25078   3.511   2.658   6.293  0.3127 -0.0361  0.2411
 4539SOL    HW125079   3.418   2.637   6.291 -0.3051  2.7456  0.0858
 4539SOL    HW225080   3.544   2.569   6.279  2.5441  0.6296  1.1893
 4540SOL     OW25081   1.304   4.694   7.148  0.2950  0.1820  0.0183
 4540SOL    HW125082   1.331   0.018   7.225  1.3214  0.3820 -0.4766
 4540SOL    HW225083   1.300   4.604   7.181  1.3363  0.8522  1.9422
 4541SOL     OW25084   1.567   0.116   2.846  0.0787 -0.2800 -0.0915
 4541SOL    HW125085   1.490   0.107   2.902 -0.7317  2.8196 -0.7614
 4541SOL    HW225086   1.546   0.195   2.798 -0.7908 -0.3268  0.2070
 4542SOL     OW25087   2.916   3.751   7.952 -0.1742 -0.5839 -0.0888
 4542SOL    HW125088   2.911   3.833   8.002 -2.6260 -0.1932 -0.9527
 4542SOL    HW225089   2.845   3.754   7.888  0.8222 -1.4602 -1.2264
 4543SOL     OW25090   0.522   4.340   7.011 -0.3001 -0.1163 -0.2429
 4543SOL    HW125091   0.597   4.353   6.953  0.3960 -0.0628  0.6716
 4543SOL    HW225092   0.446   4.348   6.953 -0.1980 -0.7384 -0.4655
 4544SOL     OW25093   3.628   0.715   6.675  0.5404 -0.3178 -0.2852
 4544SOL    HW125094   3.638   0.620   6.682  0.8451 -0.3611 -1.3413
 4544SOL    HW225095   3.533   0.727   6.683  0.6993  0.5977  0.2521
 4545SOL     OW25096   0.506   1.922   8.602 -0.0224  0.3139 -0.0270
 4545SOL    HW125097   0.422   1.901   8.561 -0.6879 -1.2023  2.1250
 4545SOL    HW225098   0.571   1.875   8.550  0.0204  1.4301 -0.9929
 4546SOL     OW25099   4.091   3.675   3.282  0.3067  0.1780 -0.0888
 4546SOL    HW125100   4.158   3.608   3.273  0.6705  0.3232  1.4814
 4546SOL    HW225101   4.107   3.719   3.199 -0.7696 -1.2044 -1.0274
 4547SOL     OW25102   1.617   4.077  15.425 -0.0580 -0.0505  0.2620
 4547SOL    HW125103   1.634   4.051  15.516 -1.1894 -0.3163  0.3964
 4547SOL    HW225104   1.564   4.004  15.393 -1.4703  1.0200  0.1643
 4548SOL     OW25105   3.331   0.325   4.987  0.1639  0.0502 -0.2068
 4548SOL    HW125106   3.308   0.259   5.052 -1.6704  0.0716 -0.8307
 4548SOL    HW225107   3.409   0.361   5.030 -0.4853  0.9520  0.2109
 4549SOL     OW25108   4.248   1.575   8.630 -0.3855  0.3026 -0.1663
 4549SOL    HW125109   4.329   1.547   8.673  0.4115  0.2644 -1.7060
 4549SOL    HW225110   4.195   1.495   8.631 -0.7894  0.5595 -0.7486
 4550SOL     OW25111   2.160   3.689  11.115 -0.5973 -0.4609  0.2861
 4550SOL    HW125112   2.184   3.686  11.023  1.8965  2.9702  0.8484
 4550SOL    HW225113   2.071   3.653  11.113 -1.0028  0.4662  1.9446
 4551SOL     OW25114   4.453   3.833   3.514  0.5002  0.6906 -0.8452
 4551SOL    HW125115   4.446   3.897   3.443 -2.0532 -0.8756 -2.0159
 4551SOL    HW225116   4.426   3.893   3.583 -0.3923  0.7210 -1.2227
 4552SOL     OW25117   2.856   0.492   3.679  0.4014 -0.6780  0.2418
 4552SOL    HW125118   2.862   0.536   3.764 -0.5737  1.9534 -1.0691
 4552SOL    HW225119   2.893   0.554   3.617 -0.2114  0.2403  0.8101
 4553SOL     OW25120   2.722   4.081   6.092 -0.1635 -0.1469 -0.6794
 4553SOL    HW125121   2.773   4.161   6.086 -1.2561  0.4724 -1.7813
 4553SOL    HW225122   2.788   4.012   6.095 -0.7690 -0.6553  1.1745
 4554SOL     OW25123   2.548   3.054  10.952  0.1077  0.0494  0.0811
 4554SOL    HW125124   2.629   3.022  10.913 -0.8271 -2.1490 -0.0179
 4554SOL    HW225125   2.573   3.067  11.044 -0.4083 -1.9079  0.4894
 4555SOL     OW25126   0.522   2.984   3.737  0.5843 -0.0755  0.3659
 4555SOL    HW125127   0.466   2.989   3.814  1.3117 -1.6803  1.0055
 4555SOL    HW225128   0.565   2.900   3.750 -1.6874 -1.3429 -0.3306
 4556SOL     OW25129   1.096   3.234   0.532 -0.5144  0.0143 -0.2162
 4556SOL    HW125130   1.142   3.273   0.606  1.2643 -1.2751 -0.6426
 4556SOL    HW225131   1.081   3.142   0.557  2.6668 -1.2791 -3.0827
 4557SOL     OW25132   0.450   1.440   2.316  0.5609 -0.0705 -0.2307
 4557SOL    HW125133   0.430   1.532   2.330 -0.4879 -0.3203 -0.0689
 4557SOL    HW225134   0.373   1.415   2.265  0.2232 -2.0431  1.2149
 4558SOL     OW25135   3.041   0.138  11.674  0.2827  0.2016 -0.2597
 4558SOL    HW125136   2.971   0.073  11.672  0.2862  0.2607 -1.7798
 4558SOL    HW225137   3.117   0.103  11.628  0.9040  0.3165  0.6650
 4559SOL     OW25138   2.189   2.251   1.112  0.0014 -0.1621  0.0774
 4559SOL    HW125139   2.184   2.337   1.071  1.2425 -0.0083  0.2335
 4559SOL    HW225140   2.149   2.196   1.045 -2.3951 -0.3015  1.6208
 4560SOL     OW25141   2.640   3.077  12.446  0.1814  0.2288  0.4487
 4560SOL    HW125142   2.647   2.988  12.480 -1.5388 -0.3786 -0.7899
 4560SOL    HW225143   2.602   3.059  12.359 -1.0059  1.0688  0.8004
 4561SOL     OW25144   3.986   3.194   2.573 -0.5727 -0.3376 -0.0638
 4561SOL    HW125145   3.906   3.148   2.549 -0.1107 -1.5645  0.6787
 4561SOL    HW225146   4.049   3.122   2.564 -0.1286  0.1910 -1.1784
 4562SOL     OW25147   1.630   2.191   2.247 -0.1032 -0.3995 -0.1128
 4562SOL    HW125148   1.721   2.218   2.257 -0.1355  0.5299 -2.3405
 4562SOL    HW225149   1.571   2.266   2.249  0.0434 -0.3096  1.5557
 4563SOL     OW25150   0.474   3.102   8.285  0.2070 -0.3965  0.1814
 4563SOL    HW125151   0.461   3.089   8.191  0.4551 -0.6209  0.1784
 4563SOL    HW225152   0.555   3.052   8.295  0.9944  0.7299 -0.4803
 4564SOL     OW25153   2.935   3.541  16.330 -0.7599 -0.5266  0.3390
 4564SOL    HW125154   2.913   3.450  16.312 -1.3110 -0.2513 -0.3609
 4564SOL    HW225155   2.913   3.579  16.245  0.8319  2.2891  1.1884
 4565SOL     OW25156   4.435   3.289   4.105 -0.4989  0.0886 -0.2555
 4565SOL    HW125157   4.346   3.294   4.070 -1.2641 -2.0095  1.3066
 4565SOL    HW225158   4.496   3.286   4.032  0.5376  1.2969  0.5695
 4566SOL     OW25159   0.681   4.372  10.681 -0.5766 -0.2046 -0.4597
 4566SOL    HW125160   0.646   4.459  10.697 -2.5028 -1.1461  0.5683
 4566SOL    HW225161   0.668   4.341  10.771  1.0714 -0.4221 -0.3015
 4567SOL     OW25162   2.983   3.420   6.993  0.1768  0.3509  0.2162
 4567SOL    HW125163   2.934   3.347   6.957  1.0079  0.3852 -0.9818
 4567SOL    HW225164   2.989   3.382   7.081  1.2319  1.1150  0.4716
 4568SOL     OW25165   0.496   1.696   3.349 -0.0832 -0.6367 -0.0094
 4568SOL    HW125166   0.542   1.628   3.300 -0.9993 -0.0828 -1.6572
 4568SOL    HW225167   0.525   1.774   3.301  0.2792  0.0900  1.4070
 4569SOL     OW25168   1.496   3.148   9.689  0.2141 -0.1737  0.1337
 4569SOL    HW125169   1.502   3.125   9.782  1.6677  1.6049  0.4935
 4569SOL    HW225170   1.583   3.121   9.660  0.3049  0.5081 -0.2388
 4570SOL     OW25171   1.111   3.947   3.773 -0.1878  0.2809 -0.8517
 4570SOL    HW125172   1.023   3.952   3.809 -0.4254 -3.6993 -0.9391
 4570SOL    HW225173   1.103   3.899   3.691 -0.0237  0.1769 -0.8076
 4571SOL     OW25174   0.516   0.488   3.793  0.5574 -0.3734  0.3227
 4571SOL    HW125175   0.500   0.416   3.732 -0.6510  0.9261 -0.8875
 4571SOL    HW225176   0.583   0.535   3.743 -0.9948  0.0965 -1.3179
 4572SOL     OW25177   0.611   4.507   8.228  0.3252 -0.4277  0.7292
 4572SOL    HW125178   0.579   4.442   8.165  1.9259  0.2117 -0.7391
 4572SOL    HW225179   0.532   4.510   8.282 -2.1007 -0.2846 -2.8185
 4573SOL     OW25180   4.420   4.322   1.971  0.0651  0.2123  0.1015
 4573SOL    HW125181   4.350   4.385   1.956 -1.4559 -0.9647  2.3211
 4573SOL    HW225182   4.464   4.362   2.046  2.9134 -1.3307 -0.7055
 4574SOL     OW25183   4.234   1.638   2.273  0.8659  0.3869 -0.2529
 4574SOL    HW125184   4.141   1.652   2.255  0.6330 -0.8363 -0.0349
 4574SOL    HW225185   4.239   1.546   2.299 -0.6292  0.0376 -1.2483
 4575SOL     OW25186   1.668   2.503  12.091  0.4891 -0.1227 -0.0413
 4575SOL    HW125187   1.663   2.455  12.009  2.0105 -2.2203  1.1123
 4575SOL    HW225188   1.756   2.541  12.080 -0.2618  1.3820 -0.8662
 4576SOL     OW25189   3.712   4.145   5.308 -0.1198  0.1966  0.1056
 4576SOL    HW125190   3.711   4.049   5.305 -1.0042  0.2404 -0.9237
 4576SOL    HW225191   3.649   4.154   5.380 -0.0389  0.7447  0.1064
 4577SOL     OW25192   2.493   0.947  15.014  0.0397  0.0352 -0.5114
 4577SOL    HW125193   2.502   0.986  14.928 -1.4827 -1.1899 -1.2237
 4577SOL    HW225194   2.510   1.025  15.067  3.2126 -2.5506  2.3080
 4578SOL     OW25195   2.713   3.018   1.488  0.1202 -0.7110  1.3598
 4578SOL    HW125196   2.687   3.101   1.449 -0.2391 -1.4234  0.0600
 4578SOL    HW225197   2.651   3.007   1.560 -0.8222 -2.2671  0.3303
 4579SOL     OW25198   3.727   3.606   2.923  0.2318 -0.2264  0.1852
 4579SOL    HW125199   3.765   3.674   2.979 -0.9831  1.3537 -0.8919
 4579SOL    HW225200   3.635   3.632   2.931  0.1499 -0.6473  0.6514
 4580SOL     OW25201   4.182   1.318   2.295  0.5198 -0.9839  0.3224
 4580SOL    HW125202   4.134   1.256   2.350  1.7184 -2.9474 -0.8167
 4580SOL    HW225203   4.182   1.280   2.207 -0.4122  0.0387 -0.1103
 4581SOL     OW25204   1.783   3.864   0.346  0.2341  0.0675  0.3246
 4581SOL    HW125205   1.859   3.910   0.311  0.3447 -1.7458 -1.8094
 4581SOL    HW225206   1.816   3.775   0.342 -0.9772 -0.4177  1.0131
 4582SOL     OW25207   3.063   0.985   8.048  0.3629 -0.2628 -0.0079
 4582SOL    HW125208   3.069   1.043   8.123  0.2470 -0.0205 -0.1867
 4582SOL    HW225209   2.990   0.931   8.079  0.4268 -0.8052 -0.7686
 4583SOL     OW25210   2.126   0.679  11.822  0.4378  0.0798  0.2741
 4583SOL    HW125211   2.083   0.594  11.826  0.3977  0.2501  3.4099
 4583SOL    HW225212   2.129   0.717  11.910  0.5492  0.0142  0.2992
 4584SOL     OW25213   0.857   4.477   4.460 -0.1653  0.4254  0.1754
 4584SOL    HW125214   0.770   4.441   4.443 -0.0854  0.7723 -0.9243
 4584SOL    HW225215   0.870   4.448   4.551 -1.1243  0.0107  0.1816
 4585SOL     OW25216   4.670   1.523   4.942  0.5622  1.1360  0.4732
 4585SOL    HW125217   4.617   1.468   5.000  0.0962 -0.3353 -1.3550
 4585SOL    HW225218   4.617   1.602   4.940  1.2182  1.4782 -2.5879
 4586SOL     OW25219   0.486   1.005  10.386 -0.6800  0.0883 -0.0013
 4586SOL    HW125220   0.421   0.936  10.396 -1.1815  0.7385  1.2758
 4586SOL    HW225221   0.447   1.073  10.332  1.9873  1.5735 -0.0875
 4587SOL     OW25222   3.295   0.414   6.954 -0.2525 -0.6469 -0.1605
 4587SOL    HW125223   3.214   0.400   6.905 -0.5232  2.1173 -0.5049
 4587SOL    HW225224   3.284   0.330   6.998  0.7343 -0.9745 -0.5256
 4588SOL     OW25225   3.535   0.414  16.003  0.6632 -0.2155  0.1634
 4588SOL    HW125226   3.478   0.407  16.079 -0.7942 -1.2927 -1.0131
 4588SOL    HW225227   3.485   0.361  15.941  3.0004 -0.7801 -1.2650
 4589SOL     OW25228   3.866   3.451   5.327 -0.1945 -0.0577  0.1392
 4589SOL    HW125229   3.887   3.482   5.415  0.2536  1.0035 -0.3410
 4589SOL    HW225230   3.880   3.359   5.349 -0.0204 -0.1913 -0.5255
 4590SOL     OW25231   3.416   0.990   5.706  0.2656 -0.5863 -0.0992
 4590SOL    HW125232   3.346   0.981   5.770 -1.8914 -2.0672 -2.6636
 4590SOL    HW225233   3.407   1.082   5.683  2.3557 -0.0589  1.2178
 4591SOL     OW25234   1.978   4.237   2.492  0.2839 -0.4936  0.5836
 4591SOL    HW125235   2.035   4.284   2.552 -0.4610 -0.4039  1.2287
 4591SOL    HW225236   1.900   4.232   2.547 -0.5181 -0.5380 -0.5598
 4592SOL     OW25237   1.505   1.430  10.438  0.5730  0.2182  0.3443
 4592SOL    HW125238   1.423   1.399  10.399  0.4683  1.7782 -0.6716
 4592SOL    HW225239   1.574   1.386  10.390  1.2222 -1.4296  2.7720
 4593SOL     OW25240   1.112   3.093  16.528  0.1580 -0.3786  0.4180
 4593SOL    HW125241   1.166   3.094  16.607  0.5712  1.1443  0.1208
 4593SOL    HW225242   1.101   2.998  16.527 -0.5099 -0.2921 -0.1632
 4594SOL     OW25243   0.103   2.376   3.158 -0.3634  0.3642  0.1385
 4594SOL    HW125244   0.148   2.394   3.075 -0.4613 -4.0225 -0.8239
 4594SOL    HW225245   0.013   2.393   3.130 -0.3451 -0.6790 -0.5368
 4595SOL     OW25246   1.759   0.516  10.085 -0.0838  0.0510 -0.2969
 4595SOL    HW125247   1.851   0.509  10.060  0.0001  0.3309 -0.0550
 4595SOL    HW225248   1.730   0.424  10.085 -1.8855  0.6009 -2.2946
 4596SOL     OW25249   3.555   3.300   8.811  0.5302 -0.0829 -0.4285
 4596SOL    HW125250   3.643   3.334   8.823  0.9302 -0.1769 -3.1412
 4596SOL    HW225251   3.555   3.276   8.718  0.9402  0.2723 -0.5151
 4597SOL     OW25252   0.787   4.045   1.307 -0.5337 -0.0969 -0.4947
 4597SOL    HW125253   0.778   4.106   1.380 -2.1700 -0.2481 -0.5746
 4597SOL    HW225254   0.748   4.099   1.239  0.9426  1.8022  0.1613
 4598SOL     OW25255   1.256   0.727   6.501  0.4132  0.2514  0.6237
 4598SOL    HW125256   1.194   0.768   6.561 -0.6299  0.4665 -0.6144
 4598SOL    HW225257   1.314   0.802   6.492 -1.6752  1.7109 -0.6843
 4599SOL     OW25258   0.545   3.731   2.715  0.1881  0.2528 -0.2683
 4599SOL    HW125259   0.520   3.692   2.631 -2.4565  0.5416  0.4056
 4599SOL    HW225260   0.459   3.759   2.746 -0.3719 -0.7382 -0.9193
 4600SOL     OW25261   1.545   0.927   4.880  0.6039 -0.3264 -0.3112
 4600SOL    HW125262   1.591   0.866   4.823 -0.4798  0.2697 -1.8346
 4600SOL    HW225263   1.467   0.878   4.908  0.4030  0.2240  0.0906
 4601SOL     OW25264   4.139   3.169  10.847 -0.4368  0.1697 -0.3370
 4601SOL    HW125265   4.113   3.138  10.934 -0.0547 -0.2872 -0.3838
 4601SOL    HW225266   4.210   3.230  10.867  0.3846 -0.6167 -0.8536
 4602SOL     OW25267   0.610   0.869   4.464  0.1126  0.0472 -0.5049
 4602SOL    HW125268   0.647   0.782   4.449  2.5036  1.1892 -1.2380
 4602SOL    HW225269   0.574   0.865   4.552  1.7037 -1.3482  0.0664
 4603SOL     OW25270   1.633   4.226   0.836  0.3911 -0.2095 -0.2698
 4603SOL    HW125271   1.573   4.154   0.854 -2.0737  1.5097 -1.6269
 4603SOL    HW225272   1.572   4.294   0.807  1.2659  0.3508 -0.7879
 4604SOL     OW25273   2.166   2.506   5.999  0.3408 -0.2166  0.3178
 4604SOL    HW125274   2.073   2.527   5.986  0.2604  0.1233  1.4062
 4604SOL    HW225275   2.195   2.512   5.908 -0.6988 -1.7975 -0.1230
 4605SOL     OW25276   3.183   4.160   2.625 -0.2082 -0.3464  0.0784
 4605SOL    HW125277   3.148   4.143   2.538 -1.7649 -1.5944  0.9402
 4605SOL    HW225278   3.242   4.233   2.606 -0.9162  0.1862 -0.0458
 4606SOL     OW25279   1.296   3.429   7.995  0.1093 -0.4324 -0.1832
 4606SOL    HW125280   1.296   3.488   8.071 -0.2210 -0.6104 -0.0445
 4606SOL    HW225281   1.209   3.454   7.962 -0.1402 -1.0577  0.0067
 4607SOL     OW25282   1.175   4.694   8.757 -0.3716 -0.0547 -0.0288
 4607SOL    HW125283   1.106   4.673   8.820 -0.2688  0.4380  0.2492
 4607SOL    HW225284   1.126   4.691   8.675 -0.3670 -0.4584 -0.0165
 4608SOL     OW25285   4.025   0.040  17.469  0.0447  0.2683 -0.0420
 4608SOL    HW125286   3.999   4.684  17.513  0.8682  0.6897  1.2189
 4608SOL    HW225287   3.943   0.066  17.427 -0.5786  1.2636  1.7574
 4609SOL     OW25288   1.998   2.565   9.780 -0.0763 -0.3143 -0.4046
 4609SOL    HW125289   2.050   2.490   9.809  0.0951  0.3548  0.9921
 4609SOL    HW225290   2.061   2.612   9.725 -0.7126  2.1855  1.0303
 4610SOL     OW25291   3.463   4.157   5.475 -0.4220 -0.2672 -0.5709
 4610SOL    HW125292   3.368   4.163   5.467 -0.4365 -0.1281 -0.2802
 4610SOL    HW225293   3.484   4.250   5.485  3.4428 -1.0746 -1.4214
 4611SOL     OW25294   2.891   2.451   5.153 -0.2549  0.0884 -0.6585
 4611SOL    HW125295   2.806   2.485   5.124 -1.0387 -0.7754  0.6466
 4611SOL    HW225296   2.866   2.359   5.148  0.2131 -0.1410  1.4731
 4612SOL     OW25297   0.504   3.521  15.415  0.6662  0.0617 -0.5960
 4612SOL    HW125298   0.520   3.540  15.508  0.8152 -0.3216 -0.5464
 4612SOL    HW225299   0.518   3.607  15.375  0.7275  1.5561  2.6574
 4613SOL     OW25300   4.654   0.999   3.268  0.6343  0.5401  0.2171
 4613SOL    HW125301   4.569   1.032   3.236  0.3753 -0.4760 -0.1343
 4613SOL    HW225302   4.620   0.953   3.344  0.0052  0.1740 -0.2836
 4614SOL     OW25303   4.569   1.265   9.578 -0.4449  0.3656  0.4287
 4614SOL    HW125304   4.642   1.231   9.629  0.2758  3.2943  1.3534
 4614SOL    HW225305   4.554   1.204   9.506 -1.2402  0.6017  0.3866
 4615SOL     OW25306   0.255   3.361   8.583  0.3337  0.3849 -0.1895
 4615SOL    HW125307   0.246   3.333   8.492 -2.3724 -3.5250  1.2868
 4615SOL    HW225308   0.285   3.451   8.575  0.7972  0.1575 -1.0561
 4616SOL     OW25309   4.456   2.075   9.990 -0.4657  0.2268  0.3908
 4616SOL    HW125310   4.377   2.126   9.972 -0.4390 -0.4076 -1.5275
 4616SOL    HW225311   4.479   2.091  10.082 -0.6741 -2.1370  0.8423
 4617SOL     OW25312   0.764   3.454   4.204 -0.0443 -0.0870 -0.3332
 4617SOL    HW125313   0.696   3.502   4.250  0.0600 -1.7575  1.5452
 4617SOL    HW225314   0.770   3.369   4.248  0.1534  0.0272 -0.1377
 4618SOL     OW25315   2.784   2.908   7.981 -0.0627  0.1434  0.5347
 4618SOL    HW125316   2.835   2.965   8.039  0.7786  0.2451 -0.2906
 4618SOL    HW225317   2.714   2.960   7.942  0.0293 -0.8365 -0.9334
 4619SOL     OW25318   0.070   1.106   7.795  0.0102 -0.6299  0.4223
 4619SOL    HW125319   0.034   1.017   7.789  0.2968 -0.6837 -0.5967
 4619SOL    HW225320   0.124   1.107   7.874  0.8129  0.4150 -0.1375
 4620SOL     OW25321   1.088   3.611   5.632  0.3673  0.2379  0.7188
 4620SOL    HW125322   1.179   3.601   5.660  0.7315 -1.9008 -1.1833
 4620SOL    HW225323   1.078   3.702   5.605 -2.5973 -0.0034  0.9713
 4621SOL     OW25324   0.701   1.309  16.884  0.2289  0.2800  0.0593
 4621SOL    HW125325   0.781   1.361  16.894  1.2306 -0.9333 -1.5398
 4621SOL    HW225326   0.665   1.296  16.972 -0.5318 -0.2011 -0.3153
 4622SOL     OW25327   0.932   4.269  16.889 -0.1166  0.0776 -0.1950
 4622SOL    HW125328   0.878   4.209  16.837 -0.1778 -0.3744  0.4036
 4622SOL    HW225329   0.896   4.252  16.976  1.7432  0.3846  0.6346
 4623SOL     OW25330   4.483   2.151  10.251 -0.3996  0.1567  0.2152
 4623SOL    HW125331   4.462   2.140  10.344  0.9434 -1.5036  0.3365
 4623SOL    HW225332   4.564   2.201  10.260 -0.3347  0.3760 -1.6891
 4624SOL     OW25333   2.022   0.477   7.513  0.0988  0.0297 -0.1854
 4624SOL    HW125334   1.998   0.469   7.421 -0.5645  0.7258 -0.0701
 4624SOL    HW225335   2.116   0.462   7.501  0.1639  0.0560  0.2733
 4625SOL     OW25336   2.915   3.458   6.648 -0.6480 -0.3745  0.0639
 4625SOL    HW125337   3.003   3.449   6.685 -1.8523  1.3523  3.3568
 4625SOL    HW225338   2.865   3.502   6.716 -2.2610 -0.3783 -1.1315
 4626SOL     OW25339   3.583   2.450   9.463  0.0994 -0.9242 -0.1585
 4626SOL    HW125340   3.535   2.506   9.402 -1.1212 -0.8989  0.8388
 4626SOL    HW225341   3.652   2.423   9.402  2.4493  1.6962  1.3496
 4627SOL     OW25342   2.570   2.460   0.890  0.3988 -0.0132 -0.2926
 4627SOL    HW125343   2.555   2.479   0.797  1.5903  0.9374 -0.2939
 4627SOL    HW225344   2.507   2.524   0.925  1.1162  1.1933 -1.1833
 4628SOL     OW25345   1.951   0.151  17.520  0.2175  0.6263 -0.3090
 4628SOL    HW125346   1.875   0.094  17.536 -0.6722  1.7592 -0.4962
 4628SOL    HW225347   1.902   0.233  17.521  3.2269  2.4435 -1.9682
 4629SOL     OW25348   4.559   2.586   6.288 -0.2855  0.1020  0.2011
 4629SOL    HW125349   4.587   2.497   6.263  0.4523  0.5998 -0.7474
 4629SOL    HW225350   4.563   2.634   6.206  0.9259 -0.6497 -0.1788
 4630SOL     OW25351   1.447   2.507  15.511 -0.1502  0.1537 -0.3250
 4630SOL    HW125352   1.370   2.556  15.485 -0.9627 -1.4005 -0.8672
 4630SOL    HW225353   1.401   2.444  15.566  1.1712  0.8243  1.5724
 4631SOL     OW25354   1.003   3.019   5.382 -0.3276 -0.2627 -0.4266
 4631SOL    HW125355   1.004   2.982   5.294  0.5468 -2.9372  0.7197
 4631SOL    HW225356   0.987   3.111   5.362 -1.7603 -0.1370  1.2253
 4632SOL     OW25357   1.376   2.585   7.783  0.2136 -0.1290  0.4107
 4632SOL    HW125358   1.341   2.532   7.711  0.0578  0.1188  0.3024
 4632SOL    HW225359   1.462   2.545   7.794  0.2492  0.0802  0.8911
 4633SOL     OW25360   2.052   0.023   0.698  0.0146 -0.7485  0.4456
 4633SOL    HW125361   2.049   0.003   0.604  0.0550  1.2368  0.0126
 4633SOL    HW225362   1.961   0.005   0.721 -0.1364  1.2442  1.4426
 4634SOL     OW25363   0.574   3.546   7.024 -0.2289  0.0486 -0.0349
 4634SOL    HW125364   0.555   3.584   6.939 -0.5301 -1.3033 -0.5801
 4634SOL    HW225365   0.493   3.496   7.041 -0.6383  0.8017  0.2319
 4635SOL     OW25366   1.263   0.972   7.902 -0.2297  0.2211 -0.7324
 4635SOL    HW125367   1.201   1.021   7.849 -0.6484 -0.2916 -0.7179
 4635SOL    HW225368   1.221   0.886   7.902 -1.5395  0.8690 -1.3383
 4636SOL     OW25369   2.569   1.316   0.593 -0.5616 -0.4597  0.0129
 4636SOL    HW125370   2.481   1.342   0.565 -0.6281 -0.1579  0.5089
 4636SOL    HW225371   2.542   1.242   0.647  3.3075 -0.0785  2.4757
 4637SOL     OW25372   0.029   4.704   7.902 -0.5152 -0.1276  0.0107
 4637SOL    HW125373   0.039   0.073   7.915  2.6830 -0.4207 -0.3051
 4637SOL    HW225374   4.659   4.688   7.898 -0.4190 -0.1386 -2.6345
 4638SOL     OW25375   3.396   1.512   5.526  0.5881  0.1098 -0.0048
 4638SOL    HW125376   3.311   1.529   5.485 -0.1166  0.1349  1.4490
 4638SOL    HW225377   3.417   1.587   5.582 -1.6655  0.6211  0.1749
 4639SOL     OW25378   3.156   2.140   1.799  0.7455 -0.5492 -0.3244
 4639SOL    HW125379   3.225   2.148   1.864  0.5593  3.9857 -0.6906
 4639SOL    HW225380   3.153   2.048   1.772 -2.6692 -0.5846  0.1778
 4640SOL     OW25381   0.983   4.412   3.480  0.1827  0.5630 -0.2817
 4640SOL    HW125382   1.040   4.483   3.510  1.3384 -0.7860  0.7239
 4640SOL    HW225383   0.963   4.359   3.557 -1.0816  1.3531 -0.0684
 4641SOL     OW25384   3.836   3.929   9.009 -0.6536  1.1872 -0.4030
 4641SOL    HW125385   3.854   3.835   9.015 -1.3811  1.2034  1.8462
 4641SOL    HW225386   3.879   3.960   9.088 -0.3687  0.0972 -0.1256
 4642SOL     OW25387   0.104   4.246  15.497 -0.1691 -0.3235 -0.5142
 4642SOL    HW125388   0.098   4.225  15.590  1.5758 -1.5626 -0.6778
 4642SOL    HW225389   0.107   4.341  15.510  0.6215 -0.5103  0.6485
 4643SOL     OW25390   3.275   4.247  15.978 -0.3118  0.1886  0.0618
 4643SOL    HW125391   3.281   4.316  16.044  1.2536 -1.3192  1.4712
 4643SOL    HW225392   3.358   4.236  15.932 -0.1134  0.2006  0.4225
 4644SOL     OW25393   1.134   4.127   8.939 -0.0133  0.3355 -0.1211
 4644SOL    HW125394   1.201   4.067   8.971 -1.4159 -0.2337  1.7168
 4644SOL    HW225395   1.130   4.105   8.846  0.2534 -1.8734  0.4121
 4645SOL     OW25396   0.603   0.006  15.724 -0.2865  0.3101  0.0918
 4645SOL    HW125397   0.531   4.672  15.703 -0.1367  0.3756 -0.6239
 4645SOL    HW225398   0.563   0.082  15.765  2.9698  0.8831  2.2222
 4646SOL     OW25399   4.147   0.720   1.802 -0.1355 -0.4836 -0.4306
 4646SOL    HW125400   4.087   0.684   1.867  0.6929  1.5340  1.4600
 4646SOL    HW225401   4.120   0.811   1.804  0.3712 -0.3209 -0.8421
 4647SOL     OW25402   3.682   3.330   7.764 -0.1398  0.0020  0.1805
 4647SOL    HW125403   3.765   3.287   7.743 -1.1481 -1.5495 -0.6413
 4647SOL    HW225404   3.710   3.410   7.808 -0.2720  0.3645 -0.3865
 4648SOL     OW25405   1.506   1.140  14.903  0.0204 -0.1474 -0.0491
 4648SOL    HW125406   1.482   1.226  14.939 -1.1819 -1.5788  2.6062
 4648SOL    HW225407   1.551   1.172  14.825 -0.5277  0.7713  0.0066
 4649SOL     OW25408   1.471   2.955  11.417 -0.2776 -0.1362 -0.1084
 4649SOL    HW125409   1.566   2.942  11.421 -0.6747 -2.7809  0.6941
 4649SOL    HW225410   1.441   2.865  11.401  3.6999 -0.9406 -3.3583
 4650SOL     OW25411   1.688   2.613   2.348 -0.3649  0.6395 -0.4789
 4650SOL    HW125412   1.765   2.664   2.325  0.5859 -0.0832  1.0527
 4650SOL    HW225413   1.612   2.667   2.327  0.2228  1.3819 -0.6583
 4651SOL     OW25414   3.470   0.816   5.951  0.4398 -0.3825 -0.1821
 4651SOL    HW125415   3.554   0.860   5.941 -0.1694  1.0363  0.8921
 4651SOL    HW225416   3.493   0.784   6.038  0.8514  0.8688  0.1809
 4652SOL     OW25417   0.756   1.391   5.545 -0.1867  0.3499 -0.0191
 4652SOL    HW125418   0.679   1.341   5.519  0.6209 -0.2918 -1.1786
 4652SOL    HW225419   0.728   1.457   5.609 -1.3958 -1.5406  1.3790
 4653SOL     OW25420   3.023   1.285  13.401 -0.5196 -0.1321  0.3580
 4653SOL    HW125421   3.058   1.282  13.312 -0.9099 -0.5990  0.2183
 4653SOL    HW225422   3.104   1.259  13.445 -1.2631 -0.4716  1.5050
 4654SOL     OW25423   0.237   3.953   7.291 -0.1720 -0.6944 -0.3014
 4654SOL    HW125424   0.311   3.940   7.350  0.3388 -1.5936 -1.1361
 4654SOL    HW225425   0.192   3.873   7.318 -2.6845  1.3598  1.6055
 4655SOL     OW25426   0.018   0.837   1.795 -0.0530  0.2125 -0.3438
 4655SOL    HW125427   0.077   0.849   1.721  0.9588  0.6733  0.5430
 4655SOL    HW225428   4.681   0.903   1.764 -2.7430 -2.8080 -1.4084
 4656SOL     OW25429   0.823   2.267  13.382 -0.0251  0.2529  0.1551
 4656SOL    HW125430   0.839   2.326  13.309 -2.6949  2.0718  1.0339
 4656SOL    HW225431   0.873   2.326  13.437 -0.9632  0.5356  0.7118
 4657SOL     OW25432   1.507   3.941   6.785 -0.8881  0.5779  0.2147
 4657SOL    HW125433   1.555   3.952   6.703 -0.9451  1.0312  0.2429
 4657SOL    HW225434   1.548   3.861   6.820 -1.3859  0.0664 -0.3686
 4658SOL     OW25435   1.598   2.289  13.936  0.5517  0.3944  0.2047
 4658SOL    HW125436   1.687   2.256  13.949 -0.6325 -2.8553  0.0350
 4658SOL    HW225437   1.557   2.236  13.868  1.1828  1.4570 -1.0164
 4659SOL     OW25438   0.304   4.344   7.818  0.3865  0.0721  0.0183
 4659SOL    HW125439   0.291   4.432   7.783  0.8647  0.5182  1.0033
 4659SOL    HW225440   0.253   4.301   7.748  1.3750 -0.8230 -0.1473
 4660SOL     OW25441   0.329   1.470   7.628 -0.4559 -0.2957  0.5239
 4660SOL    HW125442   0.403   1.469   7.567  1.0878  2.3770  2.3439
 4660SOL    HW225443   0.355   1.410   7.698 -3.4616 -0.6514  1.3355
 4661SOL     OW25444   1.774   3.442  10.664  0.4029 -0.0537  0.0194
 4661SOL    HW125445   1.720   3.434  10.585 -0.8218  0.3231  0.8210
 4661SOL    HW225446   1.796   3.535  10.664  1.2515 -0.2552  1.0128
 4662SOL     OW25447   0.667   2.938   4.068 -0.2157  0.0085 -0.2207
 4662SOL    HW125448   0.619   2.971   3.992  2.4546 -0.4190 -2.0890
 4662SOL    HW225449   0.593   2.929   4.128  0.6787 -1.7475  0.6386
 4663SOL     OW25450   4.140   3.669   4.874 -0.1102 -0.1172 -0.3585
 4663SOL    HW125451   4.181   3.645   4.957 -0.0737 -3.8420 -1.4125
 4663SOL    HW225452   4.149   3.580   4.838  0.0739 -0.0397 -0.5080
 4664SOL     OW25453   0.222   2.364   2.562  0.1773 -0.3925 -0.8465
 4664SOL    HW125454   0.242   2.280   2.519 -1.5982 -0.7087 -1.0558
 4664SOL    HW225455   0.186   2.405   2.483 -0.7806  0.3344 -0.0140
 4665SOL     OW25456   2.940   4.453   3.927 -0.1716 -0.6117  0.2261
 4665SOL    HW125457   2.869   4.403   3.967 -0.7269  0.4417  0.5541
 4665SOL    HW225458   3.002   4.463   3.998  0.1950 -1.6440  0.0594
 4666SOL     OW25459   0.619   4.643   1.977 -0.4508  0.5466  0.1524
 4666SOL    HW125460   0.527   4.632   1.954 -0.4080  4.2137 -1.5706
 4666SOL    HW225461   0.628   0.013   1.980 -0.1848  0.5149  0.4814
 4667SOL     OW25462   4.332   3.974   0.233  0.3299  0.0193  0.4148
 4667SOL    HW125463   4.339   4.038   0.304  1.0203 -1.2133  1.4516
 4667SOL    HW225464   4.421   3.941   0.224 -0.3385 -1.5132 -0.5710
 4668SOL     OW25465   2.569   1.896   8.778  0.2812  0.2582 -0.1076
 4668SOL    HW125466   2.571   1.815   8.726 -0.5988 -0.6130  1.2180
 4668SOL    HW225467   2.647   1.876   8.831 -0.9850  0.3201  1.7840
 4669SOL     OW25468   3.624   0.755   7.874 -0.6636 -0.6958 -0.3096
 4669SOL    HW125469   3.643   0.661   7.869 -0.6816 -0.8020  1.5176
 4669SOL    HW225470   3.636   0.784   7.965 -1.6101  0.0068 -0.4114
 4670SOL     OW25471   0.113   0.988   1.470  0.4660 -0.1684 -0.0635
 4670SOL    HW125472   0.122   1.034   1.387 -1.3121  0.2461 -0.0361
 4670SOL    HW225473   0.017   0.982   1.474  0.5641 -0.8297  1.2301
 4671SOL     OW25474   4.092   4.572  15.295 -0.0715  0.2171 -0.2328
 4671SOL    HW125475   4.028   4.508  15.325  1.4023 -0.6353  1.0456
 4671SOL    HW225476   4.028   4.622  15.243 -2.7602 -2.1052  0.8901
 4672SOL     OW25477   0.604   0.891   1.549  0.0524  0.1694  0.2391
 4672SOL    HW125478   0.638   0.838   1.621  1.9862  1.7745  0.4936
 4672SOL    HW225479   0.641   0.978   1.558 -0.4937  0.6238 -1.9338
 4673SOL     OW25480   2.806   2.687   2.871 -0.5531 -0.2066  0.4556
 4673SOL    HW125481   2.800   2.778   2.897  2.5606 -0.2362  1.2638
 4673SOL    HW225482   2.815   2.638   2.953 -1.2257 -3.2449 -1.2891
 4674SOL     OW25483   1.416   1.667  16.952 -0.4854  0.4655  0.1013
 4674SOL    HW125484   1.482   1.623  17.005 -1.2597 -2.4088 -1.3119
 4674SOL    HW225485   1.446   1.758  16.950 -0.0114  0.2725 -1.5441
 4675SOL     OW25486   4.563   2.638   1.506 -0.4621 -0.2244  0.0322
 4675SOL    HW125487   4.551   2.724   1.545  0.8716  0.3735 -0.8374
 4675SOL    HW225488   4.638   2.671   1.456 -0.1532 -0.0769  0.5905
 4676SOL     OW25489   4.449   3.533   4.634 -0.5007  0.2772  0.1931
 4676SOL    HW125490   4.462   3.573   4.720  0.3778 -1.7527  1.0255
 4676SOL    HW225491   4.433   3.603   4.571 -0.7213 -0.7664 -0.9020
 4677SOL     OW25492   2.267   0.321   4.066  0.6223  0.1086 -0.3004
 4677SOL    HW125493   2.263   0.286   3.977  0.4801 -2.3605  0.6616
 4677SOL    HW225494   2.290   0.239   4.111 -1.5450 -0.7106 -0.7031
 4678SOL     OW25495   3.279   0.416   2.269  0.1610 -0.4266 -0.0383
 4678SOL    HW125496   3.213   0.347   2.263 -0.1133 -0.3210  1.8850
 4678SOL    HW225497   3.333   0.404   2.191 -0.0847 -1.6807 -0.0193
 4679SOL     OW25498   4.003   1.075   8.563  0.2528 -0.3105  0.0236
 4679SOL    HW125499   4.089   1.092   8.600  0.0574  2.7092 -0.8621
 4679SOL    HW225500   4.026   1.077   8.470  0.1092 -2.1989 -0.0578
 4680SOL     OW25501   2.231   3.161   3.494 -0.5560 -0.4043  0.7561
 4680SOL    HW125502   2.194   3.156   3.405 -0.9484 -1.5739  0.9877
 4680SOL    HW225503   2.322   3.176   3.468 -1.0887  1.2138 -0.2097
 4681SOL     OW25504   0.178   0.966   3.317  0.4724 -0.5390  0.8122
 4681SOL    HW125505   0.189   0.873   3.293 -2.1641 -0.4603 -0.7178
 4681SOL    HW225506   0.084   0.982   3.308  1.0436  1.0341 -2.5573
 4682SOL     OW25507   1.577   2.790  13.014 -0.2379  0.0885  0.4714
 4682SOL    HW125508   1.603   2.867  12.964  1.7071 -1.3696 -0.7604
 4682SOL    HW225509   1.657   2.738  13.003 -0.6806 -0.6695  0.8220
 4683SOL     OW25510   2.733   1.645   3.377  0.2384  0.2929  0.1566
 4683SOL    HW125511   2.742   1.559   3.419  0.4692  1.2408  2.0529
 4683SOL    HW225512   2.813   1.690   3.405 -0.1241  0.0756  1.5126
 4684SOL     OW25513   3.303   0.572   3.418  0.0823 -0.0407  1.1830
 4684SOL    HW125514   3.272   0.654   3.381  0.1173 -0.9456 -0.8259
 4684SOL    HW225515   3.231   0.509   3.412  1.0657 -0.9690 -0.8596
 4685SOL     OW25516   3.670   2.723   5.374  0.1344 -1.0547 -0.4758
 4685SOL    HW125517   3.699   2.638   5.406  0.3483 -0.1967  1.6131
 4685SOL    HW225518   3.716   2.731   5.290 -0.1572 -1.8442 -0.7046
 4686SOL     OW25519   1.050   1.103   3.670  0.8315 -0.4273 -0.2688
 4686SOL    HW125520   1.011   1.170   3.727 -0.1195 -2.1147  1.0782
 4686SOL    HW225521   1.119   1.071   3.728 -0.3018 -0.8812  0.8404
 4687SOL     OW25522   0.872   1.954   9.266  0.0358 -0.7003  0.3797
 4687SOL    HW125523   0.836   1.999   9.190  0.1552  0.6418  1.1202
 4687SOL    HW225524   0.949   1.913   9.226  0.3765  0.7132 -0.4104
 4688SOL     OW25525   3.620   0.989   5.366  0.4788  0.3416  0.0200
 4688SOL    HW125526   3.661   0.935   5.433 -0.3325 -0.9206 -0.5178
 4688SOL    HW225527   3.542   1.008   5.419 -1.2981 -3.0499 -1.3877
 4689SOL     OW25528   4.629   3.982   1.823 -0.0743  0.0796  0.9299
 4689SOL    HW125529   4.702   3.958   1.881  0.6558  0.5199  0.1891
 4689SOL    HW225530   4.670   4.021   1.746 -1.5176 -0.8409 -0.3103
 4690SOL     OW25531   2.110   3.094  10.807  0.1404 -0.4885  0.6994
 4690SOL    HW125532   2.155   3.012  10.788 -0.1954 -0.4808 -0.1320
 4690SOL    HW225533   2.024   3.093  10.764  1.8764 -0.6569 -2.7061
 4691SOL     OW25534   2.594   3.082   7.092  0.0958 -0.2689  0.8716
 4691SOL    HW125535   2.563   3.173   7.096 -1.1217 -0.6671  0.5396
 4691SOL    HW225536   2.517   3.050   7.044 -0.4142 -2.5681  3.2661
 4692SOL     OW25537   1.513   4.145   5.219 -0.0028  0.2675 -0.0608
 4692SOL    HW125538   1.418   4.152   5.213 -0.1272 -0.2501  1.3335
 4692SOL    HW225539   1.541   4.077   5.158  2.9023  0.9563  0.4597
 4693SOL     OW25540   0.824   1.417   8.920  0.0786 -0.2019  0.1435
 4693SOL    HW125541   0.876   1.489   8.884  0.1546 -0.4900 -0.3201
 4693SOL    HW225542   0.736   1.454   8.912  0.9369  1.6330 -0.9125
 4694SOL     OW25543   3.149   4.688   3.844  0.1658 -0.1297 -0.1225
 4694SOL    HW125544   3.183   4.720   3.761  2.9443 -1.5325  0.4831
 4694SOL    HW225545   3.062   4.661   3.814 -0.9755  0.7140  2.4238
 4695SOL     OW25546   3.072   3.616   5.827 -0.2783  0.1537  1.0712
 4695SOL    HW125547   3.110   3.647   5.745 -0.0129 -0.1105  1.0942
 4695SOL    HW225548   3.073   3.521   5.821 -1.3475  0.1824  0.6034
 4696SOL     OW25549   3.282   2.813   3.095 -0.3087 -0.2804  0.4740
 4696SOL    HW125550   3.302   2.906   3.091 -2.7870  0.2569  0.4012
 4696SOL    HW225551   3.371   2.780   3.101  1.2437  4.1407  1.0876
 4697SOL     OW25552   3.408   4.669   9.112  0.5175  0.3302  0.1700
 4697SOL    HW125553   3.456   4.644   9.033  0.8763 -1.1900  0.8610
 4697SOL    HW225554   3.315   4.660   9.092  0.5535 -1.1718  0.6442
 4698SOL     OW25555   2.912   3.256  11.780 -0.6049 -0.0262  0.4446
 4698SOL    HW125556   2.892   3.242  11.873  1.6079 -2.2878  0.5531
 4698SOL    HW225557   2.858   3.189  11.739  1.1625 -0.7538 -0.6869
 4699SOL     OW25558   0.707   1.806   1.548  0.3325 -0.1033 -0.3153
 4699SOL    HW125559   0.773   1.751   1.590 -1.6845 -1.2132  1.3824
 4699SOL    HW225560   0.635   1.744   1.539 -1.5526  2.3636 -1.9948
 4700SOL     OW25561   2.369   4.112  10.434  0.0888  0.5343 -0.0641
 4700SOL    HW125562   2.409   4.051  10.372  1.3011 -1.2254  2.4139
 4700SOL    HW225563   2.426   4.121  10.511  1.6732 -3.4733 -0.7625
 4701SOL     OW25564   3.381   1.897   8.120  0.5497  0.2014  0.5254
 4701SOL    HW125565   3.374   1.969   8.057 -1.4488  1.4656  2.1950
 4701SOL    HW225566   3.447   1.934   8.178  0.5077  0.8114  0.1871
 4702SOL     OW25567   3.450   3.491   9.371  0.4944  0.5542  0.7036
 4702SOL    HW125568   3.472   3.561   9.310  0.9576 -1.1001 -1.0406
 4702SOL    HW225569   3.473   3.409   9.328  0.7767 -0.1584  2.1916
 4703SOL     OW25570   2.117   4.163   4.405 -0.2910  0.1550  0.3780
 4703SOL    HW125571   2.089   4.082   4.363  0.5508  0.1064 -0.1032
 4703SOL    HW225572   2.212   4.150   4.408 -0.5172 -1.7814 -0.8927
 4704SOL     OW25573   0.226   4.234  10.522 -0.3136  0.1870 -0.4282
 4704SOL    HW125574   0.223   4.194  10.608 -0.7792 -0.0381 -0.5515
 4704SOL    HW225575   0.319   4.243  10.502 -1.1281  3.9360 -2.6172
 4705SOL     OW25576   3.957   4.050   3.249  0.2809 -0.3486 -0.2030
 4705SOL    HW125577   3.890   4.113   3.222  0.8858  0.1911 -0.4292
 4705SOL    HW225578   3.907   3.974   3.221 -0.2790 -0.5773  1.3953
 4706SOL     OW25579   1.049   0.464   2.803 -0.4483  0.7153  0.0585
 4706SOL    HW125580   1.061   0.383   2.853 -2.3789  0.0460 -0.5537
 4706SOL    HW225581   1.072   0.521   2.876 -1.5781 -3.3625  3.6019
 4707SOL     OW25582   3.982   1.175  17.346  0.4506 -0.4256 -0.3308
 4707SOL    HW125583   3.976   1.112  17.274 -0.1503 -1.2322  0.4261
 4707SOL    HW225584   4.069   1.159  17.382  0.5230  1.4410  0.3240
 4708SOL     OW25585   2.465   0.146   4.248 -0.4355 -0.8619  0.1224
 4708SOL    HW125586   2.547   0.139   4.297  0.3677 -0.7656 -1.2216
 4708SOL    HW225587   2.413   0.192   4.315 -3.1573 -1.3599 -1.6644
 4709SOL     OW25588   0.823   0.790   3.865 -0.0631  0.0564  1.0389
 4709SOL    HW125589   0.791   0.874   3.835  2.1299  1.5938  3.0163
 4709SOL    HW225590   0.876   0.832   3.932  0.7599 -0.1578  0.5198
 4710SOL     OW25591   1.098   1.164   7.741 -0.2001  0.1735  0.3306
 4710SOL    HW125592   1.124   1.097   7.677 -0.4829  0.5552 -0.1895
 4710SOL    HW225593   1.034   1.112   7.790 -0.4375  0.4789  0.3431
 4711SOL     OW25594   0.046   3.649  13.093 -0.4381  0.0405 -0.3198
 4711SOL    HW125595   0.060   3.723  13.151  1.3673  1.4369 -2.5223
 4711SOL    HW225596   4.687   3.611  13.118 -0.7925  0.2428 -1.2040
 4712SOL     OW25597   3.956   4.297   4.834  0.1788 -0.8165 -0.0932
 4712SOL    HW125598   3.906   4.351   4.896 -1.9976 -0.8902 -1.7814
 4712SOL    HW225599   3.889   4.303   4.767  0.5562 -0.2078 -0.4199
 4713SOL     OW25600   3.481   2.263  16.041  0.5426  0.1328  0.2787
 4713SOL    HW125601   3.459   2.219  15.959  0.5695  0.2557  0.2067
 4713SOL    HW225602   3.576   2.268  16.033  0.3914 -0.5307 -2.0956
 4714SOL     OW25603   2.403   1.646   4.026 -0.3646  0.4172 -0.1583
 4714SOL    HW125604   2.317   1.618   3.996 -0.0842 -0.0414 -0.5430
 4714SOL    HW225605   2.452   1.657   3.945  0.7413 -1.7181  0.2077
 4715SOL     OW25606   3.121   1.923   8.740  0.0256  0.0542  0.6708
 4715SOL    HW125607   3.172   1.958   8.813  0.8371 -3.4065  1.7921
 4715SOL    HW225608   3.157   1.834   8.739 -1.8725 -0.7238 -0.4357
 4716SOL     OW25609   2.865   4.443   8.974  0.3198  0.2153 -0.2740
 4716SOL    HW125610   2.942   4.388   8.987  1.2984  1.2723 -1.4991
 4716SOL    HW225611   2.845   4.483   9.059  1.2020 -0.1116  0.0855
 4717SOL     OW25612   4.682   3.060  15.131  0.2202 -0.4559 -0.2149
 4717SOL    HW125613   4.589   3.075  15.117 -0.2238 -1.1962  1.8600
 4717SOL    HW225614   4.691   2.965  15.124  0.6919 -0.4605  0.4225
 4718SOL     OW25615   3.306   4.226  17.669 -0.2793 -0.0207 -0.0043
 4718SOL    HW125616   3.381   4.199  17.616 -0.7083 -0.7819 -0.2274
 4718SOL    HW225617   3.261   4.287  17.610  3.0903  1.0556 -1.4356
 4719SOL     OW25618   2.000   1.718  10.264 -0.3822  0.2426 -0.4625
 4719SOL    HW125619   1.999   1.763  10.180 -0.7139 -0.1537 -0.6735
 4719SOL    HW225620   1.992   1.625  10.241 -1.0335  0.4216 -0.9501
 4720SOL     OW25621   2.306   4.171  12.805  0.3906  0.0155 -0.1638
 4720SOL    HW125622   2.378   4.190  12.744 -0.1112 -1.6908 -1.2928
 4720SOL    HW225623   2.357   4.161  12.885  4.0614 -0.1029 -2.5195
 4721SOL     OW25624   3.284   4.413   5.778 -0.4941  0.2703 -0.1622
 4721SOL    HW125625   3.287   4.475   5.851 -4.2523 -1.2226  1.3034
 4721SOL    HW225626   3.324   4.338   5.822  2.2407  2.1534  0.5340
 4722SOL     OW25627   2.477   2.757   2.820  0.5142 -0.0951  0.0695
 4722SOL    HW125628   2.534   2.829   2.848  1.6130 -1.4310  1.3035
 4722SOL    HW225629   2.530   2.714   2.753  1.1557  2.9605 -1.3576
 4723SOL     OW25630   0.360   0.788  15.507 -0.2456  0.3178  0.0600
 4723SOL    HW125631   0.334   0.847  15.579  1.3278  0.7549  0.2576
 4723SOL    HW225632   0.301   0.714  15.521  1.3635 -1.0771 -0.5801
 4724SOL     OW25633   3.211   3.899   9.847 -0.3467 -0.6125 -0.2246
 4724SOL    HW125634   3.157   3.948   9.908  2.9353  0.4593  1.8282
 4724SOL    HW225635   3.246   3.971   9.795 -2.5206  0.3397 -0.3417
 4725SOL     OW25636   3.341   1.478   9.081 -0.2247  0.3780 -0.0990
 4725SOL    HW125637   3.252   1.472   9.115  0.6538 -1.0140  1.9717
 4725SOL    HW225638   3.394   1.507   9.155 -0.5020 -0.1883  0.3160
 4726SOL     OW25639   4.697   1.157  12.079  0.8005 -0.3557  0.2981
 4726SOL    HW125640   4.641   1.196  12.011  0.1884  0.1298  1.0793
 4726SOL    HW225641   0.028   1.230  12.106  0.4711 -0.5327  1.4352
 4727SOL     OW25642   0.048   3.978   4.689  0.0121 -0.7567  0.6195
 4727SOL    HW125643   0.061   3.930   4.771  1.9142 -2.1844 -0.5258
 4727SOL    HW225644   4.679   3.967   4.675  0.5088 -2.4605 -1.4857
 4728SOL     OW25645   1.396   0.755  16.860 -0.2469  0.5996  0.3793
 4728SOL    HW125646   1.480   0.718  16.832 -0.5545  1.4159 -1.6390
 4728SOL    HW225647   1.397   0.732  16.953  2.4436  0.5009  0.3374
 4729SOL     OW25648   1.762   2.894  16.730 -0.2769  0.2110  0.0427
 4729SOL    HW125649   1.831   2.837  16.696 -0.4184  0.2274 -0.2736
 4729SOL    HW225650   1.768   2.963  16.664  0.3872 -0.0010 -0.1186
 4730SOL     OW25651   0.952   2.056   2.905 -0.4291  0.0428  0.2977
 4730SOL    HW125652   0.932   2.138   2.861 -1.4765  0.5866  1.7765
 4730SOL    HW225653   1.045   2.070   2.926 -0.1040  1.8961 -2.4349
 4731SOL     OW25654   4.272   2.969   7.781  0.2775  0.5190 -0.3859
 4731SOL    HW125655   4.227   2.956   7.864 -1.9810 -0.9053 -1.8211
 4731SOL    HW225656   4.198   2.996   7.726 -1.5507  1.1185  2.3828
 4732SOL     OW25657   0.373   4.074   5.688 -0.0260  0.0791 -0.1980
 4732SOL    HW125658   0.402   4.046   5.774 -2.5795  0.3168  0.7345
 4732SOL    HW225659   0.425   4.154   5.681  1.4509 -0.9538 -1.0675
 4733SOL     OW25660   3.095   2.944   7.623 -0.5526 -0.3132  0.1124
 4733SOL    HW125661   3.035   2.873   7.601  1.0620 -1.8315  0.6118
 4733SOL    HW225662   3.168   2.924   7.566 -0.3147  1.2571 -0.1476
 4734SOL     OW25663   1.403   1.243  12.118 -0.8232 -0.1341  0.2047
 4734SOL    HW125664   1.432   1.287  12.038  2.3905  1.6338  2.3347
 4734SOL    HW225665   1.394   1.152  12.089 -0.0944  0.2955 -1.3432
 4735SOL     OW25666   4.654   4.289   6.815  0.4857  0.6695  0.3517
 4735SOL    HW125667   4.667   4.228   6.888 -1.5213  0.0319  0.1745
 4735SOL    HW225668   4.708   4.253   6.744  0.8921  0.7464  0.6179
 4736SOL     OW25669   4.332   4.491   4.493  0.1490 -0.1074  0.5464
 4736SOL    HW125670   4.336   4.568   4.436  0.2022 -0.4919  0.0344
 4736SOL    HW225671   4.261   4.450   4.444 -0.4390  1.0472  0.4238
 4737SOL     OW25672   1.788   4.156   2.654 -0.5985 -0.0519 -0.4350
 4737SOL    HW125673   1.776   4.212   2.731  1.8365 -1.8106  1.2674
 4737SOL    HW225674   1.750   4.073   2.685  2.0300 -0.7915  0.8603
 4738SOL     OW25675   2.063   4.418  11.243  0.7160 -0.1023  0.1189
 4738SOL    HW125676   2.007   4.430  11.320  1.4614  1.8765  0.3432
 4738SOL    HW225677   2.036   4.334  11.205 -1.9970  1.4155 -1.2592
 4739SOL     OW25678   4.649   1.531   6.320  0.3234 -0.0349  0.0765
 4739SOL    HW125679   4.625   1.618   6.353  0.2923  0.0253 -0.1058
 4739SOL    HW225680   4.583   1.512   6.254 -1.9741  2.0243  1.7881
 4740SOL     OW25681   0.384   4.068  13.755  0.7504  0.9374  0.2686
 4740SOL    HW125682   0.353   4.158  13.765  1.0111  1.1000 -0.3704
 4740SOL    HW225683   0.307   4.014  13.771 -0.6196  3.2768  1.5528
 4741SOL     OW25684   0.601   2.296   6.140 -0.1340  0.5169  0.1084
 4741SOL    HW125685   0.524   2.349   6.163 -0.6476 -0.5854  0.9112
 4741SOL    HW225686   0.571   2.207   6.160  0.5406  0.3154  0.2169
 4742SOL     OW25687   3.131   4.361   9.564 -0.2839 -0.1245 -0.3304
 4742SOL    HW125688   3.138   4.431   9.499  0.1409  0.0878 -0.0543
 4742SOL    HW225689   3.109   4.411   9.643  0.5559 -0.7897  0.3165
 4743SOL     OW25690   2.741   0.608  17.686 -0.2380  0.2507  0.6877
 4743SOL    HW125691   2.772   0.689  17.645 -0.4919 -0.3202 -0.6258
 4743SOL    HW225692   2.808   0.540  17.687  1.7646  2.2391 -0.7407
 4744SOL     OW25693   4.472   3.092  12.832  0.3210  0.4920 -0.0288
 4744SOL    HW125694   4.404   3.035  12.795  0.2680  0.1100  0.6551
 4744SOL    HW225695   4.442   3.101  12.922  2.4122 -0.2555  0.7353
 4745SOL     OW25696   2.689   4.550   3.749 -0.2491 -0.3165  0.2048
 4745SOL    HW125697   2.636   4.477   3.781 -0.8273 -0.0935 -0.2360
 4745SOL    HW225698   2.639   4.626   3.778  0.1701 -0.2559  0.7699
 4746SOL     OW25699   4.725   0.855   3.717  0.2548 -0.5656  0.4687
 4746SOL    HW125700   0.071   0.853   3.781 -0.8672 -0.8535  1.7074
 4746SOL    HW225701   4.675   0.776   3.733 -0.2651 -0.5853 -1.3043
 4747SOL     OW25702   2.903   3.576   6.255  0.0365  0.4769  0.3237
 4747SOL    HW125703   2.968   3.620   6.309  0.9923  0.6699 -0.9945
 4747SOL    HW225704   2.891   3.501   6.313  2.8656  0.9665  1.5540
 4748SOL     OW25705   0.319   0.680   6.901 -0.1384  0.3899  0.0463
 4748SOL    HW125706   0.344   0.636   6.982 -0.8743  0.4346  0.2998
 4748SOL    HW225707   0.229   0.649   6.894 -0.0205 -0.1418  0.8856
 4749SOL     OW25708   1.271   2.639   4.499  0.0887  0.3486  0.2322
 4749SOL    HW125709   1.214   2.568   4.531 -0.6489  1.0530  0.4818
 4749SOL    HW225710   1.312   2.606   4.419 -0.1297 -1.9552  1.0723
 4750SOL     OW25711   2.934   3.237   8.846 -0.1717 -0.1228  0.3986
 4750SOL    HW125712   2.998   3.267   8.911  2.6226 -3.8152 -0.6406
 4750SOL    HW225713   2.984   3.269   8.771 -0.5384 -1.8568 -0.5785
 4751SOL     OW25714   3.515   1.894  12.399 -1.1507 -0.6229 -0.3349
 4751SOL    HW125715   3.434   1.934  12.430 -1.5488 -0.2397 -1.8709
 4751SOL    HW225716   3.579   1.942  12.451  0.2221 -3.9767  1.0794
 4752SOL     OW25717   2.640   4.429  11.982 -0.3502 -0.1906 -0.0725
 4752SOL    HW125718   2.554   4.445  11.942  1.3364  1.1096 -3.1745
 4752SOL    HW225719   2.627   4.349  12.033  1.0339  0.3086  1.0317
 4753SOL     OW25720   0.881   1.503   7.028 -0.0514 -0.0632  0.3837
 4753SOL    HW125721   0.823   1.571   6.993 -1.4179 -0.1081  2.5659
 4753SOL    HW225722   0.829   1.462   7.097  0.3141 -0.2478  0.5490
 4754SOL     OW25723   0.057   3.340   5.924  0.0650  0.3026  0.0713
 4754SOL    HW125724   4.719   3.412   5.925  1.8250  1.8381  0.0627
 4754SOL    HW225725   0.039   3.307   6.012 -1.3049  2.7071  0.7028
 4755SOL     OW25726   3.626   2.545   2.370  0.3746 -0.2959  0.2405
 4755SOL    HW125727   3.660   2.631   2.346 -0.4049 -0.3774 -1.1075
 4755SOL    HW225728   3.664   2.533   2.458  2.1295  0.3687 -0.4356
 4756SOL     OW25729   3.732   0.987   5.978  0.0384  0.2571  0.1929
 4756SOL    HW125730   3.761   1.009   5.889 -0.6035  1.9037  0.3894
 4756SOL    HW225731   3.666   1.051   6.004  1.5814  2.0716 -0.3287
 4757SOL     OW25732   4.162   0.986  14.567 -0.5865  0.2011 -0.7481
 4757SOL    HW125733   4.126   0.898  14.581  1.8151 -1.0062 -2.1561
 4757SOL    HW225734   4.197   0.967  14.480 -0.5265 -1.0254 -0.4603
 4758SOL     OW25735   4.650   1.767   1.444  0.4419  0.7816 -0.3871
 4758SOL    HW125736   4.694   1.706   1.385  0.5539 -0.3134  0.8146
 4758SOL    HW225737   4.629   1.706   1.515  0.6949 -0.0176 -0.9973
 4759SOL     OW25738   0.768   3.186   2.601  0.0947  0.2689  0.0469
 4759SOL    HW125739   0.838   3.202   2.538 -0.5530 -0.2666 -0.8038
 4759SOL    HW225740   0.786   3.096   2.626  1.8891  0.6226  0.0398
 4760SOL     OW25741   0.291   0.687   5.563  0.0359 -0.0452  0.5487
 4760SOL    HW125742   0.323   0.771   5.595  0.3942  0.6901 -1.7105
 4760SOL    HW225743   0.355   0.669   5.494  0.0131  0.0961  0.4899
 4761SOL     OW25744   1.545   4.371   2.091 -0.1270 -0.0569  0.3193
 4761SOL    HW125745   1.616   4.337   2.146  0.4100 -0.6833 -0.7715
 4761SOL    HW225746   1.480   4.301   2.097  0.1062 -0.0127  3.7479
 4762SOL     OW25747   3.300   2.941   8.759  0.1677  0.2725  0.7501
 4762SOL    HW125748   3.277   3.033   8.742  0.0891 -0.3205 -2.2260
 4762SOL    HW225749   3.279   2.905   8.673 -1.4793  3.3420 -0.1501
 4763SOL     OW25750   2.857   2.992   1.258 -0.1585 -0.6739 -0.3760
 4763SOL    HW125751   2.916   3.059   1.295 -1.5530  0.6928 -0.6191
 4763SOL    HW225752   2.815   2.956   1.336 -1.5851  1.1308 -0.3201
 4764SOL     OW25753   2.670   1.306   7.170  0.1467 -0.3431 -0.3363
 4764SOL    HW125754   2.749   1.340   7.213 -1.9376  2.4199  1.3068
 4764SOL    HW225755   2.650   1.370   7.101 -0.3877  1.1444  1.1821
 4765SOL     OW25756   3.976   1.969   6.128  0.2826 -0.3111 -0.0572
 4765SOL    HW125757   3.938   1.886   6.156 -0.2091  0.0268  0.2786
 4765SOL    HW225758   4.001   1.999   6.216  1.8566 -2.1632  0.1220
 4766SOL     OW25759   1.777   2.887   4.216  0.0334 -0.0403  0.4438
 4766SOL    HW125760   1.799   2.927   4.132  0.9854 -0.2157  0.6099
 4766SOL    HW225761   1.767   2.967   4.268 -0.4699  0.1087  0.1100
 4767SOL     OW25762   1.868   3.871   5.593  0.5426  0.1481  0.0118
 4767SOL    HW125763   1.923   3.903   5.522  1.2767  1.7244  1.3016
 4767SOL    HW225764   1.917   3.796   5.629  0.2965  0.7134  1.5340
 4768SOL     OW25765   2.757   4.646   2.813 -0.0058  0.5380 -0.1820
 4768SOL    HW125766   2.672   4.607   2.792 -0.2616  0.4682  1.0128
 4768SOL    HW225767   2.781   4.612   2.899  0.5114  2.3007  0.3685
 4769SOL     OW25768   4.150   0.639   0.449  0.8690 -0.3051 -0.3884
 4769SOL    HW125769   4.179   0.636   0.358 -2.2599 -0.8621 -1.3878
 4769SOL    HW225770   4.149   0.548   0.476  0.7976  0.1419  1.0950
 4770SOL     OW25771   4.132   2.097   1.456  0.2636 -0.1815 -0.4411
 4770SOL    HW125772   4.162   2.173   1.506  0.1726  0.3957 -1.2602
 4770SOL    HW225773   4.175   2.116   1.372 -1.5107 -1.1273 -1.5730
 4771SOL     OW25774   3.985   1.365   2.896  0.2704  0.1189  0.1212
 4771SOL    HW125775   3.939   1.317   2.828  0.3661  1.5842 -0.9851
 4771SOL    HW225776   4.052   1.410   2.844  0.9718  0.0502  0.9661
 4772SOL     OW25777   3.163   2.251   7.534  0.3372 -0.6138 -0.2728
 4772SOL    HW125778   3.238   2.192   7.533  2.2727  1.8879 -1.6321
 4772SOL    HW225779   3.123   2.222   7.616 -1.5626  1.1077 -0.5867
 4773SOL     OW25780   1.658   3.599   1.209  0.0876 -0.1391  0.4597
 4773SOL    HW125781   1.736   3.644   1.242 -0.1759  1.6728 -1.3675
 4773SOL    HW225782   1.599   3.598   1.285 -1.1088 -0.9264 -0.4733
 4774SOL     OW25783   0.105   3.162  12.555 -0.2145  0.3831  0.0188
 4774SOL    HW125784   0.189   3.208  12.550  0.1276 -0.1590  0.8207
 4774SOL    HW225785   0.127   3.070  12.542 -0.3138  0.2555  0.7933
 4775SOL     OW25786   1.292   0.884   7.372  0.3825  0.2928 -0.0758
 4775SOL    HW125787   1.384   0.909   7.380  0.6272 -0.0840 -1.6883
 4775SOL    HW225788   1.299   0.789   7.382  0.0282  0.1564 -1.0390
 4776SOL     OW25789   0.814   3.143   8.624 -0.2334  0.0286  0.1680
 4776SOL    HW125790   0.722   3.162   8.644 -0.4507  0.6076 -1.3596
 4776SOL    HW225791   0.819   3.048   8.634  0.9581  0.0613 -0.1509
 4777SOL     OW25792   3.685   2.375   1.991  0.4489  0.2640 -0.5460
 4777SOL    HW125793   3.736   2.420   1.924  1.0328  0.4353  0.0138
 4777SOL    HW225794   3.604   2.378   1.941 -0.7261 -0.1956  1.3308
 4778SOL     OW25795   3.076   3.550   2.088 -0.6278  0.2799 -0.6355
 4778SOL    HW125796   3.063   3.483   2.022  0.5088 -0.9336  0.3716
 4778SOL    HW225797   3.011   3.616   2.063 -1.4461 -0.4379 -0.4138
 4779SOL     OW25798   3.760   3.076   0.273  0.1544  0.2783  0.6324
 4779SOL    HW125799   3.828   3.021   0.235 -0.8852  0.4486 -1.4634
 4779SOL    HW225800   3.789   3.080   0.365 -1.5097  1.5667  1.1111
 4780SOL     OW25801   2.611   0.274   5.302  0.9284  0.2266  0.2206
 4780SOL    HW125802   2.619   0.257   5.209  0.1396 -1.0195  0.3757
 4780SOL    HW225803   2.623   0.187   5.341 -2.9148  0.0927  1.1005
 4781SOL     OW25804   3.459   2.177  13.918 -0.1152 -0.1018  0.3359
 4781SOL    HW125805   3.520   2.126  13.865 -0.8881  0.8021 -1.4611
 4781SOL    HW225806   3.518   2.236  13.965  2.4242 -0.8624 -1.8743
 4782SOL     OW25807   4.692   3.451   6.693  0.0323  0.1112 -0.0507
 4782SOL    HW125808   4.706   3.517   6.625 -1.7272  0.3249 -0.2146
 4782SOL    HW225809   4.601   3.466   6.719 -0.1053 -0.1094 -0.4020
 4783SOL     OW25810   0.836   4.300   5.307  1.1220 -0.1555  0.4452
 4783SOL    HW125811   0.754   4.329   5.348  0.7945 -0.2015 -0.1656
 4783SOL    HW225812   0.809   4.212   5.283  1.5282 -0.9618  2.9600
 4784SOL     OW25813   3.044   4.221   5.896  0.0845  0.0696  0.3021
 4784SOL    HW125814   3.035   4.130   5.869 -3.2241  0.2858  0.6671
 4784SOL    HW225815   3.059   4.218   5.990 -1.4976 -1.5552  0.4997
 4785SOL     OW25816   1.534   0.467   4.996 -0.0861 -0.6095  0.1034
 4785SOL    HW125817   1.517   0.502   5.083  0.6351  1.0523 -0.4107
 4785SOL    HW225818   1.630   0.471   4.992  0.0406 -3.3985  0.6778
 4786SOL     OW25819   0.121   4.352   8.184  0.0672  0.2093 -0.1225
 4786SOL    HW125820   0.062   4.303   8.242  0.0704  0.4242  0.0646
 4786SOL    HW225821   0.162   4.279   8.139 -2.6349 -1.3033 -0.1144
 4787SOL     OW25822   0.136   1.963   9.555 -0.3212  0.7101 -0.0593
 4787SOL    HW125823   0.195   2.038   9.563 -0.5829  0.6155  2.7195
 4787SOL    HW225824   0.156   1.936   9.465 -0.5656  2.0143 -0.5029
 4788SOL     OW25825   1.304   2.214  13.830 -0.1954 -0.0234  0.3509
 4788SOL    HW125826   1.255   2.275  13.884  2.8782  1.9348  0.9068
 4788SOL    HW225827   1.242   2.199  13.759  2.1898  0.9105 -1.9420
 4789SOL     OW25828   0.476   0.651   5.397 -0.8146  0.3606  0.1245
 4789SOL    HW125829   0.520   0.727   5.360 -1.7634  0.8126 -0.0614
 4789SOL    HW225830   0.504   0.584   5.334 -0.5105 -0.0180  0.6596
 4790SOL     OW25831   2.722   1.200   6.466  0.2588  0.1493 -0.8829
 4790SOL    HW125832   2.817   1.202   6.456  0.1967 -1.3911 -1.6645
 4790SOL    HW225833   2.709   1.289   6.500 -2.6108 -0.5581 -0.0744
 4791SOL     OW25834   2.461   0.926  11.971 -0.2116 -0.2781 -0.4562
 4791SOL    HW125835   2.414   0.918  12.054 -0.2440  1.1266 -0.3414
 4791SOL    HW225836   2.387   0.918  11.910 -0.5680 -0.6868  0.0290
 4792SOL     OW25837   4.595   4.524   5.068  0.2492 -0.1720  0.1641
 4792SOL    HW125838   4.680   4.482   5.059  0.9649  0.9849  1.5887
 4792SOL    HW225839   4.539   4.447   5.071 -0.1411  0.1474  1.4106
 4793SOL     OW25840   4.486   4.449   1.491  0.5662 -1.0813 -0.0351
 4793SOL    HW125841   4.493   4.362   1.529  1.6160 -0.8773  0.2599
 4793SOL    HW225842   4.408   4.448   1.436  0.4267 -1.4622  0.1693
 4794SOL     OW25843   3.584   2.814   8.391 -0.0994  0.0283  0.4524
 4794SOL    HW125844   3.607   2.906   8.398  0.4804  0.0715 -2.2217
 4794SOL    HW225845   3.499   2.822   8.348 -0.4997 -0.1274  1.2228
 4795SOL     OW25846   4.181   3.360   6.293  0.2305 -1.0124 -0.2455
 4795SOL    HW125847   4.247   3.290   6.291  0.6128 -0.6620  0.1292
 4795SOL    HW225848   4.172   3.384   6.201 -1.0189 -0.5324  0.0044
 4796SOL     OW25849   4.661   3.227   8.763 -0.1508 -0.0521 -0.4632
 4796SOL    HW125850   4.725   3.297   8.773  0.6208 -0.9585  0.8745
 4796SOL    HW225851   4.587   3.273   8.802 -1.2838 -0.8496 -1.6402
 4797SOL     OW25852   2.029   2.429   8.646 -0.4059  0.0565 -0.3178
 4797SOL    HW125853   1.982   2.512   8.656 -1.6621 -0.3993 -2.5567
 4797SOL    HW225854   2.032   2.400   8.737  1.3430  1.7572  0.1647
 4798SOL     OW25855   1.742   1.650   9.168  0.3611 -0.3488  0.5402
 4798SOL    HW125856   1.651   1.620   9.160 -0.3856  2.4539 -1.6991
 4798SOL    HW225857   1.744   1.716   9.099 -1.2464  0.8473  1.6233
 4799SOL     OW25858   3.955   2.149  10.367  0.3044  0.4957  0.3687
 4799SOL    HW125859   4.015   2.082  10.334 -1.9965 -1.4834  0.2775
 4799SOL    HW225860   4.026   2.213  10.364 -0.6720  1.5941  0.6968
 4800SOL     OW25861   1.404   0.574   4.740  0.1624  0.0321 -0.0373
 4800SOL    HW125862   1.406   0.569   4.835  2.9740 -1.4169 -0.2049
 4800SOL    HW225863   1.498   0.558   4.732 -0.2001 -1.3701 -1.5773
 4801SOL     OW25864   1.127   3.760   8.816 -0.2881  0.7998 -0.3217
 4801SOL    HW125865   1.079   3.795   8.891 -0.2929 -0.7267  0.3667
 4801SOL    HW225866   1.151   3.833   8.758  0.2442  0.0044 -1.0939
 4802SOL     OW25867   1.274   3.695   2.950 -0.1619  0.5214  0.2465
 4802SOL    HW125868   1.182   3.678   2.972  0.6227 -0.0097  2.9902
 4802SOL    HW225869   1.271   3.666   2.859 -0.0263 -1.4783  0.8974
 4803SOL     OW25870   2.296   1.534  16.334  0.3919  0.0874 -0.0193
 4803SOL    HW125871   2.207   1.535  16.299  1.2194  0.6091 -2.0794
 4803SOL    HW225872   2.271   1.482  16.411 -0.1018  3.4971  2.0906
 4804SOL     OW25873   2.839   2.989  10.891 -0.3315  0.0106  0.5212
 4804SOL    HW125874   2.853   2.908  10.939  1.0185  0.3295  0.6577
 4804SOL    HW225875   2.931   3.013  10.879 -0.1829 -0.1581  1.3524
 4805SOL     OW25876   2.771   0.538   5.774 -0.5988 -0.1642 -0.7217
 4805SOL    HW125877   2.762   0.603   5.705 -0.8555  0.4215 -0.1433
 4805SOL    HW225878   2.694   0.483   5.760 -0.7723 -0.2293  0.4462
 4806SOL     OW25879   2.673   1.554  16.396 -0.5375 -0.5212 -0.1183
 4806SOL    HW125880   2.640   1.566  16.485 -1.7565 -2.7614 -0.2847
 4806SOL    HW225881   2.729   1.632  16.392 -0.2303 -0.7113  0.3654
 4807SOL     OW25882   1.539   2.723  11.673 -0.2634  0.3870  0.0847
 4807SOL    HW125883   1.511   2.702  11.584 -0.2450 -0.7331  0.3375
 4807SOL    HW225884   1.621   2.674  11.681 -0.8828 -0.7511 -0.5412
 4808SOL     OW25885   0.968   0.320  17.235  0.3919  0.1448  0.5422
 4808SOL    HW125886   0.909   0.379  17.282 -0.8097  1.9419 -3.1866
 4808SOL    HW225887   0.902   0.256  17.208  1.4058 -0.0709 -1.4213
 4809SOL     OW25888   0.815   3.798  15.340 -0.3719 -0.7499 -0.4817
 4809SOL    HW125889   0.795   3.891  15.350  1.0725 -0.8914  3.5707
 4809SOL    HW225890   0.732   3.762  15.308 -0.3168 -0.8735 -0.4863
 4810SOL     OW25891   0.862   0.876   4.303  0.3735 -0.3013 -0.2761
 4810SOL    HW125892   0.772   0.902   4.325 -0.8975 -2.3330 -3.0553
 4810SOL    HW225893   0.920   0.936   4.350 -0.1902  0.4201 -0.4885
 4811SOL     OW25894   0.796   2.388  13.914 -0.1286 -0.1326 -0.3460
 4811SOL    HW125895   0.807   2.413  13.822  1.3628 -0.9131 -0.3923
 4811SOL    HW225896   0.811   2.475  13.951  0.1953 -0.1487 -0.4355
 4812SOL     OW25897   2.690   1.473   4.552 -0.4979 -0.5769 -0.3978
 4812SOL    HW125898   2.652   1.522   4.625 -1.4768 -2.1598  0.1492
 4812SOL    HW225899   2.632   1.399   4.534  0.5762 -1.7184  0.9283
 4813SOL     OW25900   1.834   0.940  10.076  0.7909  0.6444 -0.0895
 4813SOL    HW125901   1.902   0.986  10.125  0.6192  0.9823 -0.1696
 4813SOL    HW225902   1.781   1.016  10.053  1.4262  0.9130 -0.6745
 4814SOL     OW25903   1.631   4.363   9.869 -0.7703 -0.3784 -0.3087
 4814SOL    HW125904   1.572   4.380   9.943 -0.2236  1.7611 -0.3556
 4814SOL    HW225905   1.621   4.268   9.868  1.4553 -0.6110  1.5034
 4815SOL     OW25906   2.258   2.143   1.858  0.9431 -0.3733 -0.5985
 4815SOL    HW125907   2.252   2.144   1.762  0.3922 -0.5897 -0.5685
 4815SOL    HW225908   2.323   2.076   1.882  1.7048  0.4043 -0.5118
 4816SOL     OW25909   0.217   0.450   1.937 -0.6498 -0.2277 -0.1477
 4816SOL    HW125910   0.176   0.482   2.017 -1.4619  0.9275 -1.0238
 4816SOL    HW225911   0.174   0.504   1.870 -1.7100  1.2180  1.7026
 4817SOL     OW25912   1.723   2.515   5.279  0.0674 -0.1067  0.0859
 4817SOL    HW125913   1.644   2.552   5.240 -0.4456  0.4616  1.6662
 4817SOL    HW225914   1.713   2.423   5.255  2.5613 -0.0496 -1.1661
 4818SOL     OW25915   0.527   1.794   6.012 -0.3148 -0.6155 -0.0120
 4818SOL    HW125916   0.484   1.756   5.935 -0.4572 -0.6174  0.0692
 4818SOL    HW225917   0.570   1.716   6.047 -2.8331 -1.5655  0.9979
 4819SOL     OW25918   3.217   3.368   1.423  0.6895 -0.2644 -0.1385
 4819SOL    HW125919   3.309   3.344   1.433  1.5111  2.6628 -0.4440
 4819SOL    HW225920   3.191   3.367   1.515  0.0319 -2.1021 -0.3562
 4820SOL     OW25921   2.861   3.879   4.936 -0.4366 -0.0157 -0.8699
 4820SOL    HW125922   2.897   3.936   4.868  0.0753  0.8982  0.1612
 4820SOL    HW225923   2.942   3.858   4.982 -1.0743 -1.9152 -0.6216
 4821SOL     OW25924   2.295   0.749   7.040 -0.4603  0.1090 -0.6631
 4821SOL    HW125925   2.388   0.749   7.019 -0.0851  0.1147  1.0793
 4821SOL    HW225926   2.285   0.680   7.105 -2.9973  2.3118  1.2861
 4822SOL     OW25927   1.613   3.193   3.446  0.1459  0.2982 -0.3979
 4822SOL    HW125928   1.604   3.140   3.367  2.9572  0.7003 -0.9895
 4822SOL    HW225929   1.574   3.276   3.422 -0.1731  0.8349  1.9165
 4823SOL     OW25930   0.068   2.403   2.052  0.1690  0.4088 -0.5893
 4823SOL    HW125931   0.052   2.451   1.971 -0.8585  1.3517  0.1690
 4823SOL    HW225932   0.141   2.347   2.025 -0.3503 -0.8693  0.6251
 4824SOL     OW25933   4.403   0.701   4.363  0.4156 -0.1103  0.4456
 4824SOL    HW125934   4.342   0.738   4.426 -0.3652 -0.2879 -0.2016
 4824SOL    HW225935   4.458   0.776   4.343 -1.7270  0.6483 -2.6412
 4825SOL     OW25936   0.580   0.355   3.239  0.4675  0.1265  0.0403
 4825SOL    HW125937   0.522   0.426   3.269  0.7901 -0.0802  1.1703
 4825SOL    HW225938   0.664   0.394   3.263  1.5402 -0.4564 -2.7806
 4826SOL     OW25939   1.765   3.235   4.863  0.3257  0.0434 -0.0272
 4826SOL    HW125940   1.854   3.258   4.891 -0.6551 -0.6947  3.6565
 4826SOL    HW225941   1.778   3.232   4.768  1.5804  0.5127  0.1235
 4827SOL     OW25942   2.553   4.194   1.264  0.8781  0.7108  0.0262
 4827SOL    HW125943   2.470   4.205   1.311  1.2726 -1.8349  1.3501
 4827SOL    HW225944   2.526   4.192   1.172  3.8658 -4.0485 -0.7399
 4828SOL     OW25945   4.038   4.068  16.913 -0.0008  0.4860 -0.2811
 4828SOL    HW125946   3.956   4.040  16.954 -1.1647  1.2862 -2.0896
 4828SOL    HW225947   4.100   4.035  16.978  0.3115  0.5705 -0.5367
 4829SOL     OW25948   4.505   3.525  10.868  0.0697 -0.5099  0.2978
 4829SOL    HW125949   4.588   3.490  10.836  0.3790  2.0392 -1.6742
 4829SOL    HW225950   4.469   3.587  10.805 -0.0435 -0.1283  0.7378
 4830SOL     OW25951   1.944   1.470  10.119  0.4224 -0.7351 -0.4237
 4830SOL    HW125952   1.942   1.498  10.028 -0.5490  1.4079  0.2708
 4830SOL    HW225953   1.892   1.390  10.110  1.5061 -1.4746 -0.0904
 4831SOL     OW25954   4.335   2.646   8.537  0.1448  1.0721  0.5336
 4831SOL    HW125955   4.260   2.597   8.572 -0.8049  0.9987 -1.6074
 4831SOL    HW225956   4.409   2.618   8.591  0.6207 -1.4702 -1.4510
 4832SOL     OW25957   4.161   0.255   8.159 -0.1220  0.2317  0.1501
 4832SOL    HW125958   4.136   0.268   8.067 -1.5928 -1.2807  0.3406
 4832SOL    HW225959   4.214   0.333   8.178 -0.0073 -0.1567  1.4276
 4833SOL     OW25960   3.148   3.474  11.382  0.2804 -0.4774  0.4071
 4833SOL    HW125961   3.087   3.452  11.452  1.1206  0.5998  1.4823
 4833SOL    HW225962   3.106   3.437  11.304 -0.7491  1.1226  0.1935
 4834SOL     OW25963   0.703   1.823   0.814  0.6804  0.1883 -0.3262
 4834SOL    HW125964   0.642   1.891   0.785 -1.5998 -1.7878 -0.1124
 4834SOL    HW225965   0.781   1.878   0.821 -0.1398  1.2905  0.1835
 4835SOL     OW25966   1.079   4.389   6.876  0.5092 -0.0005  0.5932
 4835SOL    HW125967   1.161   4.380   6.925  0.0071  1.3842  1.7022
 4835SOL    HW225968   1.049   4.474   6.909 -0.7617 -0.5035  0.7252
 4836SOL     OW25969   2.437   1.881   9.468  0.1133  0.6719  0.0302
 4836SOL    HW125970   2.474   1.962   9.501  0.3141  0.4861  0.2629
 4836SOL    HW225971   2.390   1.905   9.388  0.9155 -0.8160 -0.8850
 4837SOL     OW25972   2.264   0.898   2.366  0.2174 -0.8210  0.6999
 4837SOL    HW125973   2.327   0.857   2.424  2.1050 -0.1319 -0.8747
 4837SOL    HW225974   2.324   0.932   2.300 -0.8537 -0.4397 -0.0944
 4838SOL     OW25975   2.108   2.348   5.563 -0.3077 -0.3901  0.5711
 4838SOL    HW125976   2.063   2.416   5.513  0.5805  0.7787  1.3404
 4838SOL    HW225977   2.035   2.304   5.606 -1.9229  0.5034 -1.2877
 4839SOL     OW25978   0.268   1.240   9.500  0.4250 -0.2428 -0.1024
 4839SOL    HW125979   0.259   1.146   9.486  0.7783  0.0156 -2.0204
 4839SOL    HW225980   0.201   1.253   9.567  0.0235  3.5178 -1.1935
 4840SOL     OW25981   0.564   3.043   5.921  0.7132  0.1219  0.3073
 4840SOL    HW125982   0.494   2.981   5.941  1.0340 -0.0013  1.0313
 4840SOL    HW225983   0.574   3.036   5.826  3.1063  0.8338  0.5101
 4841SOL     OW25984   2.902   2.085   5.858  0.1181 -0.4557  0.2788
 4841SOL    HW125985   2.820   2.037   5.866 -0.8343  1.2351  0.9158
 4841SOL    HW225986   2.968   2.025   5.824 -0.0660  0.7127 -2.1758
 4842SOL     OW25987   3.082   1.904   4.209  0.2181  0.7586 -0.6047
 4842SOL    HW125988   3.039   1.988   4.221 -1.2382 -0.0658  0.0110
 4842SOL    HW225989   3.166   1.929   4.171  1.3292 -2.9219 -0.6388
 4843SOL     OW25990   4.198   2.092   2.243 -0.1349  0.0676 -0.1426
 4843SOL    HW125991   4.226   2.018   2.296  1.5896  2.2055  1.9125
 4843SOL    HW225992   4.273   2.151   2.248  0.9311 -1.3700  0.7337
 4844SOL     OW25993   0.492   3.063  12.471 -0.6054 -0.8128 -0.1976
 4844SOL    HW125994   0.528   3.010  12.400  0.8245 -1.3527  0.9148
 4844SOL    HW225995   0.402   3.053  12.440  0.4906 -0.5022 -3.4291
 4845SOL     OW25996   1.031   0.369  13.707  0.8283 -0.3346  0.2863
 4845SOL    HW125997   1.074   0.443  13.665  0.9452 -1.1814 -1.0649
 4845SOL    HW225998   0.951   0.415  13.732  0.2394  0.7009 -3.5217
 4846SOL     OW25999   3.304   3.560  13.821  0.2964  0.7769  0.2563
 4846SOL    HW126000   3.376   3.545  13.759 -0.4041  3.4378 -1.2321
 4846SOL    HW226001   3.328   3.517  13.902 -4.1817 -3.4938 -0.7409
 4847SOL     OW26002   0.299   4.032   4.769 -0.1109 -0.4809 -0.3465
 4847SOL    HW126003   0.219   4.011   4.721  1.2153 -1.4720 -2.1291
 4847SOL    HW226004   0.357   3.989   4.706 -1.4960  0.5977 -2.3756
 4848SOL     OW26005   2.391   4.109   4.368  0.2465  0.0942 -0.2109
 4848SOL    HW126006   2.443   4.029   4.376  2.0123  1.4255  1.5119
 4848SOL    HW226007   2.412   4.160   4.446  2.9835 -0.2316 -0.7227
 4849SOL     OW26008   3.210   3.776   5.976 -0.0658 -0.6202 -0.2312
 4849SOL    HW126009   3.248   3.699   6.019  0.9754 -0.8069 -1.4718
 4849SOL    HW226010   3.138   3.739   5.924 -2.1093  2.1744  0.6006
 4850SOL     OW26011   2.733   4.585  14.614  0.0461  0.3872  0.2060
 4850SOL    HW126012   2.758   4.617  14.527 -0.6817  1.9302  0.5856
 4850SOL    HW226013   2.812   4.535  14.637 -1.6592 -1.8785  1.1736
 4851SOL     OW26014   4.433   1.260   3.556  0.1395  0.3129 -0.3548
 4851SOL    HW126015   4.351   1.210   3.552  1.2022 -1.6861  2.3213
 4851SOL    HW226016   4.478   1.212   3.626 -1.6343 -0.9690 -0.0914
 4852SOL     OW26017   3.013   2.239   8.862  0.0236 -0.1766  0.1940
 4852SOL    HW126018   3.089   2.226   8.919 -0.8371 -1.2112  1.0921
 4852SOL    HW226019   3.065   2.250   8.782 -0.4582  1.3968  0.0921
 4853SOL     OW26020   0.971   4.623   2.428 -0.3390  0.3322  0.0249
 4853SOL    HW126021   0.930   4.549   2.472 -2.7823  2.9545  2.1347
 4853SOL    HW226022   1.055   4.615   2.473 -0.0252  1.1015 -0.4305
 4854SOL     OW26023   2.628   0.235   4.027 -0.1638  0.3414 -0.6297
 4854SOL    HW126024   2.549   0.201   3.984 -2.0306  2.8447  0.8876
 4854SOL    HW226025   2.592   0.255   4.113  0.8042  2.0626 -0.6318
 4855SOL     OW26026   0.394   3.119  14.933  0.1161 -0.4114 -0.3424
 4855SOL    HW126027   0.334   3.127  15.007  0.0267  0.9482 -0.5542
 4855SOL    HW226028   0.421   3.210  14.930 -1.6720  0.1599  0.8771
 4856SOL     OW26029   2.371   1.699   7.425 -0.3828  0.4508 -0.3707
 4856SOL    HW126030   2.290   1.669   7.383 -0.9282  1.1218  0.2162
 4856SOL    HW226031   2.332   1.774   7.469 -0.6679 -0.0983  0.3154
 4857SOL     OW26032   2.971   4.097   7.820 -0.2174 -0.4462 -0.1538
 4857SOL    HW126033   2.965   4.178   7.769  0.3137  0.4435  1.1904
 4857SOL    HW226034   3.048   4.106   7.876  0.6984 -1.4640 -1.2541
 4858SOL     OW26035   3.686   0.911   5.647  0.1244 -0.0371  0.4262
 4858SOL    HW126036   3.601   0.935   5.683  0.4790  2.2928 -0.3050
 4858SOL    HW226037   3.736   0.984   5.684 -2.2465  1.7318  0.1384
 4859SOL     OW26038   1.193   3.635   8.216 -0.5624 -0.4226  0.1640
 4859SOL    HW126039   1.116   3.654   8.163 -0.2641  1.5457  0.4532
 4859SOL    HW226040   1.262   3.676   8.165  0.2467 -3.3688 -1.1482
 4860SOL     OW26041   4.654   3.432   1.629 -0.1876  0.4413 -1.0192
 4860SOL    HW126042   4.689   3.515   1.663 -0.6649  0.6737 -1.0838
 4860SOL    HW226043   4.561   3.456   1.624 -0.8492 -2.5091 -3.1191
 4861SOL     OW26044   3.149   1.329  13.785 -0.1928 -0.0951 -0.5432
 4861SOL    HW126045   3.152   1.417  13.746 -0.5472  0.4168  0.5735
 4861SOL    HW226046   3.229   1.321  13.838  1.3893  0.8909 -2.7778
 4862SOL     OW26047   3.483   4.127   7.918 -0.6522 -0.1868 -0.0175
 4862SOL    HW126048   3.543   4.198   7.938 -1.0992  0.2950 -0.4000
 4862SOL    HW226049   3.518   4.069   7.986 -0.8974 -1.0223 -0.6093
 4863SOL     OW26050   2.405   1.830   1.946 -0.0168  0.1147 -0.4891
 4863SOL    HW126051   2.462   1.759   1.916 -0.7992 -1.2423  1.2016
 4863SOL    HW226052   2.327   1.774   1.955 -2.2717  3.2620 -0.4038
 4864SOL     OW26053   0.926   0.363   0.046 -0.1805 -0.4804 -0.3431
 4864SOL    HW126054   0.970   0.355  17.662 -0.3568 -2.1156 -0.2672
 4864SOL    HW226055   0.988   0.330   0.111  0.0548 -0.6911 -0.6771
 4865SOL     OW26056   0.904   1.133  10.608  0.2004 -0.4884  0.0465
 4865SOL    HW126057   0.892   1.102  10.518 -0.8831 -0.2521  0.1109
 4865SOL    HW226058   0.810   1.136  10.625 -0.1497 -0.9313 -1.7622
 4866SOL     OW26059   4.078   2.775  15.857 -0.0992  0.0726 -0.7284
 4866SOL    HW126060   4.009   2.758  15.921 -0.0672 -0.9617 -0.9725
 4866SOL    HW226061   4.048   2.730  15.778  0.2263 -1.9536  0.2982
 4867SOL     OW26062   3.562   3.794  10.568 -0.3691  0.6771  0.6955
 4867SOL    HW126063   3.604   3.752  10.643 -0.8425  2.0914  1.7651
 4867SOL    HW226064   3.634   3.794  10.504 -1.2054  2.8897 -0.2529
 4868SOL     OW26065   0.842   1.381   7.328 -0.3624  0.5957 -0.7354
 4868SOL    HW126066   0.865   1.387   7.421  1.6048  0.9366 -1.2539
 4868SOL    HW226067   0.874   1.468   7.307  0.5651  0.5410  0.4447
 4869SOL     OW26068   3.983   4.028   5.589 -0.1043 -0.4381 -0.4637
 4869SOL    HW126069   3.913   4.008   5.651  0.5188 -1.6509 -0.1677
 4869SOL    HW226070   3.962   4.120   5.570 -0.7780 -0.5156 -0.0835
 4870SOL     OW26071   0.367   2.546  10.544  0.2105 -0.3849  0.0438
 4870SOL    HW126072   0.289   2.516  10.590  1.2042 -0.3724  1.7552
 4870SOL    HW226073   0.334   2.576  10.460 -1.4519  1.4220  1.3560
 4871SOL     OW26074   1.422   3.250  13.269 -0.2583  0.1319 -0.1920
 4871SOL    HW126075   1.492   3.193  13.237 -0.3248  0.2469 -0.5403
 4871SOL    HW226076   1.397   3.199  13.346  1.6533 -1.1568 -0.4125
 4872SOL     OW26077   0.577   0.274   7.913  0.2488  0.1269 -0.2277
 4872SOL    HW126078   0.644   0.328   7.954 -0.0403 -0.5937  1.1649
 4872SOL    HW226079   0.503   0.320   7.951 -0.7273 -1.0100 -0.7356
 4873SOL     OW26080   2.853   1.338  16.393  0.2458  0.0879  0.4142
 4873SOL    HW126081   2.895   1.360  16.310  2.4912 -1.9144  0.9895
 4873SOL    HW226082   2.797   1.414  16.405 -0.3692 -0.5209  1.4219
 4874SOL     OW26083   4.533   0.823   7.246 -0.4972 -0.0591  0.0947
 4874SOL    HW126084   4.552   0.859   7.159  2.7084  0.2745  0.8992
 4874SOL    HW226085   4.516   0.733   7.218  1.8551 -1.2657  2.4738
 4875SOL     OW26086   2.459   0.436   8.796 -0.6276 -0.2313  0.0864
 4875SOL    HW126087   2.513   0.439   8.717  2.0856  2.0513  2.0573
 4875SOL    HW226088   2.517   0.458   8.869  1.4850 -0.8670 -1.4110
 4876SOL     OW26089   4.229   3.873  12.892 -0.0479 -0.9314  0.1324
 4876SOL    HW126090   4.214   3.892  12.799 -2.0955 -0.4586  0.5540
 4876SOL    HW226091   4.142   3.899  12.922 -0.6653 -1.9721 -0.7726
 4877SOL     OW26092   4.229   2.944   9.482 -0.0316  0.1248  0.1658
 4877SOL    HW126093   4.302   2.908   9.532 -1.1094  1.0516  2.4549
 4877SOL    HW226094   4.239   2.890   9.404  0.6638  0.7604 -0.1811
 4878SOL     OW26095   3.256   2.087   0.324 -0.3534 -0.0120 -0.1567
 4878SOL    HW126096   3.289   2.120   0.241  0.3736  0.5663  0.3610
 4878SOL    HW226097   3.202   2.012   0.300 -0.0231 -0.4533  0.4935
 4879SOL     OW26098   2.748   2.380  14.353  0.0506 -0.5539 -0.4325
 4879SOL    HW126099   2.705   2.458  14.318  0.4839 -0.1351 -0.0403
 4879SOL    HW226100   2.675   2.325  14.383  0.0319 -1.9436 -3.0798
 4880SOL     OW26101   0.488   4.138   8.532  0.1016 -0.1829  0.0244
 4880SOL    HW126102   0.565   4.144   8.475 -0.6741  2.5056 -0.7509
 4880SOL    HW226103   0.462   4.230   8.540 -2.5416 -1.0904  1.6750
 4881SOL     OW26104   2.932   0.035   4.372 -0.9588  0.4223 -0.1326
 4881SOL    HW126105   3.026   0.052   4.369 -0.9515  0.5829  1.1085
 4881SOL    HW226106   2.896   0.061   4.287 -3.1606 -1.5909  0.1892
 4882SOL     OW26107   0.934   3.097   9.751  0.0352 -0.4545 -0.1730
 4882SOL    HW126108   0.861   3.054   9.707  0.4213  1.1799 -2.4004
 4882SOL    HW226109   1.013   3.071   9.705  0.6543 -0.0407  0.6468
 4883SOL     OW26110   2.964   4.171   9.496  0.3576 -0.3358  0.4304
 4883SOL    HW126111   3.027   4.240   9.517 -0.5683  1.0632 -1.3804
 4883SOL    HW226112   3.014   4.094   9.522  1.1246 -0.6737 -1.9966
 4884SOL     OW26113   0.792   3.527   8.453  0.0268 -0.6639  0.0278
 4884SOL    HW126114   0.701   3.506   8.473  0.1595 -0.0926  1.2685
 4884SOL    HW226115   0.836   3.512   8.537 -1.3699  1.6828  1.1981
 4885SOL     OW26116   0.390   4.420   7.557  0.0990 -0.5129 -0.5494
 4885SOL    HW126117   0.463   4.435   7.497 -0.0753  0.3051 -0.5544
 4885SOL    HW226118   0.402   4.481   7.630 -2.9521 -0.6798  0.0709
 4886SOL     OW26119   2.448   3.791   6.563 -0.3710 -0.5257 -0.4045
 4886SOL    HW126120   2.534   3.826   6.541 -1.0539  0.0542 -2.1250
 4886SOL    HW226121   2.468   3.710   6.610  1.1929 -0.4048 -0.8485
 4887SOL     OW26122   1.611   3.713  16.250 -0.0557 -0.2755 -0.3377
 4887SOL    HW126123   1.531   3.759  16.275  0.6005  0.6522  0.0474
 4887SOL    HW226124   1.675   3.761  16.303  1.9829 -2.7473 -0.5784
 4888SOL     OW26125   2.514   0.736  11.208  0.0777  0.7647  0.0280
 4888SOL    HW126126   2.562   0.655  11.188  0.3935  0.3924  2.2958
 4888SOL    HW226127   2.504   0.723  11.303 -0.7829  2.5148  0.1692
 4889SOL     OW26128   3.794   1.428  12.062 -0.2796 -0.1575 -0.2033
 4889SOL    HW126129   3.810   1.334  12.073 -3.0048 -0.9556 -3.2681
 4889SOL    HW226130   3.881   1.468  12.055  0.1712 -0.6152  2.7041
 4890SOL     OW26131   2.891   2.653  12.886  0.3448  0.4495 -0.2232
 4890SOL    HW126132   2.900   2.748  12.879  1.1121  0.4049  0.1906
 4890SOL    HW226133   2.819   2.652  12.950  0.5974 -0.6030  0.0345
 4891SOL     OW26134   0.903   0.834  15.270 -0.7544  0.1823  0.1744
 4891SOL    HW126135   0.908   0.739  15.266  3.0551  0.4009  0.0459
 4891SOL    HW226136   0.996   0.856  15.266 -0.6692 -0.5261 -1.7446
 4892SOL     OW26137   4.723   3.098   7.964 -0.0853  0.1476 -0.4468
 4892SOL    HW126138   0.057   3.050   7.905 -0.0131 -0.7805  0.3726
 4892SOL    HW226139   0.061   3.167   7.982  0.7770 -0.6484 -0.3640
 4893SOL     OW26140   3.253   3.589  12.837  0.5425 -0.0254 -0.4150
 4893SOL    HW126141   3.179   3.532  12.857  1.4225 -0.7982  0.6412
 4893SOL    HW226142   3.224   3.639  12.761 -0.2755  1.5359  0.9161
 4894SOL     OW26143   1.060   3.910   4.974 -0.2246  0.2932 -0.5283
 4894SOL    HW126144   1.096   3.841   4.917 -0.1789  0.2723 -0.4743
 4894SOL    HW226145   1.102   3.883   5.056  1.4117  0.0767 -1.4220
 4895SOL     OW26146   2.514   2.980   8.795  0.6689 -0.4784 -0.0829
 4895SOL    HW126147   2.521   3.076   8.795 -1.5001 -0.3176 -1.2666
 4895SOL    HW226148   2.528   2.965   8.888 -0.4287 -1.7983 -0.1373
 4896SOL     OW26149   2.969   3.143   4.196  0.2003  0.3152  0.3280
 4896SOL    HW126150   2.997   3.071   4.254  1.4250 -0.1912 -0.9044
 4896SOL    HW226151   3.013   3.128   4.113 -1.3065  0.3599 -0.4850
 4897SOL     OW26152   0.338   1.529   2.600 -0.1926 -0.2371 -0.1578
 4897SOL    HW126153   0.394   1.457   2.573  0.4141  0.5203 -0.9260
 4897SOL    HW226154   0.390   1.562   2.672 -2.0261  0.9549  0.6306
 4898SOL     OW26155   2.570   3.968   7.698 -0.2697 -0.0287 -0.4247
 4898SOL    HW126156   2.547   4.061   7.693 -2.7776 -0.5887  0.4064
 4898SOL    HW226157   2.616   3.981   7.781  2.1865  0.7899 -1.9027
 4899SOL     OW26158   2.836   1.600   4.915 -0.1330 -0.5081  0.1697
 4899SOL    HW126159   2.775   1.575   4.984 -1.3451  0.3532 -0.5929
 4899SOL    HW226160   2.780   1.589   4.838  1.5094  1.4054 -1.3117
 4900SOL     OW26161   1.248   3.637  15.418  0.2536  0.0411  0.2952
 4900SOL    HW126162   1.186   3.579  15.374 -1.1974  2.5176 -0.9252
 4900SOL    HW226163   1.190   3.695  15.467 -0.1935  3.2714 -4.1287
 4901SOL     OW26164   0.282   4.219   2.816  0.6226 -0.0412  0.2015
 4901SOL    HW126165   0.371   4.250   2.799  1.8471 -2.3945  2.3496
 4901SOL    HW226166   0.276   4.146   2.756 -0.0062  0.4702 -0.3529
 4902SOL     OW26167   3.582   3.710   9.233  0.6671 -0.1443 -0.4046
 4902SOL    HW126168   3.532   3.792   9.225  0.1285 -0.1585  2.8525
 4902SOL    HW226169   3.670   3.737   9.258  0.6454 -0.0523 -0.4267
 4903SOL     OW26170   1.539   3.005  14.337  0.2917  0.4071  0.4102
 4903SOL    HW126171   1.554   3.080  14.394 -0.0632 -0.1171  1.1887
 4903SOL    HW226172   1.623   2.980  14.299  0.7386  2.9022 -0.2603
 4904SOL     OW26173   2.683   3.273  13.205 -0.2697 -0.5981  0.1685
 4904SOL    HW126174   2.664   3.200  13.264 -0.7542  0.8545  1.8101
 4904SOL    HW226175   2.778   3.285  13.200 -0.4701  0.1654 -1.5544
 4905SOL     OW26176   0.260   3.356   0.604 -0.0453  0.7678 -0.3457
 4905SOL    HW126177   0.319   3.309   0.546  1.1392  0.1478  1.3592
 4905SOL    HW226178   0.223   3.284   0.655  2.8829 -0.0382  0.6156
 4906SOL     OW26179   1.930   2.136  13.413 -0.3686 -0.0420 -0.2156
 4906SOL    HW126180   1.897   2.047  13.399  0.1107 -0.0402 -1.3651
 4906SOL    HW226181   2.002   2.123  13.474 -1.3167 -1.1447  0.6867
 4907SOL     OW26182   3.853   4.645  12.955  0.4755  0.4585 -0.3180
 4907SOL    HW126183   3.942   4.646  12.989  0.9993 -0.2040 -1.7070
 4907SOL    HW226184   3.823   4.701  13.027 -0.5397  3.3971 -2.9818
 4908SOL     OW26185   1.684   2.168   6.268 -0.7851 -0.2404  0.3477
 4908SOL    HW126186   1.681   2.263   6.277 -1.1132 -0.1334 -0.9574
 4908SOL    HW226187   1.704   2.138   6.357 -2.8097 -1.6405  0.3257
 4909SOL     OW26188   2.550   2.947  10.193  0.3245  0.0085 -0.1851
 4909SOL    HW126189   2.605   2.889  10.246  1.3557 -0.6530 -1.9523
 4909SOL    HW226190   2.619   2.984  10.138  1.7882 -0.1114  1.5586
 4910SOL     OW26191   0.017   0.233   6.563  0.1248 -0.0781  0.1384
 4910SOL    HW126192   0.103   0.193   6.553  0.3500  0.7536 -1.2934
 4910SOL    HW226193   0.040   0.300   6.627 -0.0491 -1.4335  1.6256
 4911SOL     OW26194   3.269   2.769   4.727 -0.4470  0.2110  0.2451
 4911SOL    HW126195   3.297   2.828   4.797  1.5923 -1.4888  0.8526
 4911SOL    HW226196   3.207   2.715   4.777 -0.7174 -0.4695 -0.8239
 4912SOL     OW26197   2.867   3.953   7.571 -0.3767 -0.0917 -0.3035
 4912SOL    HW126198   2.881   3.865   7.607 -0.7529 -0.9784 -2.3417
 4912SOL    HW226199   2.900   4.002   7.646 -2.8253  1.5986 -0.3694
 4913SOL     OW26200   4.413   0.557   0.230 -0.8674  0.4842  0.5079
 4913SOL    HW126201   4.417   0.462   0.216  0.5043  0.7743 -1.1374
 4913SOL    HW226202   4.368   0.593   0.153 -1.2319 -3.2089 -1.0319
 4914SOL     OW26203   2.468   1.376   6.129  0.1239 -0.0892  0.9036
 4914SOL    HW126204   2.466   1.304   6.193 -1.3678 -1.1961 -0.3975
 4914SOL    HW226205   2.410   1.438   6.174 -1.8423  0.3992 -2.3204
 4915SOL     OW26206   4.577   3.831   9.103  0.1101 -0.0054  0.6986
 4915SOL    HW126207   4.485   3.837   9.076 -0.0409 -0.1638  1.1677
 4915SOL    HW226208   4.626   3.845   9.022  2.3116 -0.8514  1.8936
 4916SOL     OW26209   2.481   3.401   8.051 -0.5093  0.0048  0.1865
 4916SOL    HW126210   2.416   3.378   7.984  0.6783 -0.9247 -0.6358
 4916SOL    HW226211   2.475   3.320   8.101  0.4780  1.1952  2.2257
 4917SOL     OW26212   1.081   2.090   7.143  0.7463  0.0505  0.0592
 4917SOL    HW126213   1.017   2.036   7.096 -0.9388  1.5895  0.6011
 4917SOL    HW226214   1.110   2.017   7.197 -0.8762 -0.3170  0.4479
 4918SOL     OW26215   3.847   3.730  13.558  0.0223  0.4139 -0.0010
 4918SOL    HW126216   3.803   3.770  13.633  2.0239  0.4576  1.1313
 4918SOL    HW226217   3.789   3.752  13.485 -1.2134  1.9318  1.4214
 4919SOL     OW26218   1.905   1.477   9.069  0.1853  0.3793 -0.1445
 4919SOL    HW126219   1.847   1.540   9.113 -0.6514 -1.8789  2.0059
 4919SOL    HW226220   1.863   1.399   9.106 -2.1851  1.7148 -0.0147
 4920SOL     OW26221   4.061   1.457   8.388  0.8955  0.1285 -0.6329
 4920SOL    HW126222   4.075   1.387   8.324 -0.1748 -1.0163  0.3870
 4920SOL    HW226223   4.095   1.407   8.462 -1.8525 -1.1951 -0.2504
 4921SOL     OW26224   3.647   2.095   0.419 -0.7701  0.7558 -0.3386
 4921SOL    HW126225   3.692   2.118   0.338 -0.3365 -1.8895 -0.8260
 4921SOL    HW226226   3.709   2.032   0.455  0.5408  1.2929 -1.6734
 4922SOL     OW26227   4.668   2.672  17.627  0.2223  0.2147  0.2832
 4922SOL    HW126228   4.715   2.629  17.699 -2.5826 -0.4602  1.6848
 4922SOL    HW226229   4.578   2.648  17.647  0.4522  0.2817  1.3941
 4923SOL     OW26230   3.262   4.122   3.807  0.3179  0.2588  0.3449
 4923SOL    HW126231   3.219   4.207   3.796 -0.0301  0.0987  0.5095
 4923SOL    HW226232   3.268   4.115   3.902  1.2571  1.0752  0.3499
 4924SOL     OW26233   4.163   3.851   6.948 -0.2303 -0.3905  0.6847
 4924SOL    HW126234   4.166   3.788   6.876 -1.7604 -1.3944  1.4955
 4924SOL    HW226235   4.073   3.835   6.976  0.2158  0.6688  2.6995
 4925SOL     OW26236   1.471   3.398   4.278  0.3116 -0.0485  0.2662
 4925SOL    HW126237   1.416   3.411   4.201 -0.2756 -0.8111  0.5571
 4925SOL    HW226238   1.420   3.342   4.337 -0.1697 -1.0084 -1.0691
 4926SOL     OW26239   1.556   4.295   3.302 -0.4763 -0.1108  0.1738
 4926SOL    HW126240   1.524   4.348   3.229 -1.1493 -0.0204  0.5393
 4926SOL    HW226241   1.547   4.348   3.380  0.4820 -1.7037  1.3737
 4927SOL     OW26242   4.297   2.680   8.880  0.0525 -0.8150  0.3829
 4927SOL    HW126243   4.302   2.767   8.840  0.9854 -1.4301 -0.8353
 4927SOL    HW226244   4.227   2.701   8.942  0.7790  0.8143  0.6513
 4928SOL     OW26245   0.439   0.974   3.421  0.1184 -1.1278  0.1768
 4928SOL    HW126246   0.353   0.978   3.380  0.1494 -0.6841  0.1636
 4928SOL    HW226247   0.407   0.953   3.509  0.6991 -1.9250  0.2019
 4929SOL     OW26248   2.677   1.621   5.945 -0.1947  0.0507 -0.5043
 4929SOL    HW126249   2.644   1.603   5.857 -1.0687  0.9284 -0.3545
 4929SOL    HW226250   2.738   1.550   5.963 -1.0799 -0.5930 -0.0034
 4930SOL     OW26251   2.482   1.731   4.988 -0.6748 -0.5761 -0.1636
 4930SOL    HW126252   2.410   1.729   5.050  0.4106  0.2732  1.1289
 4930SOL    HW226253   2.558   1.760   5.038 -0.9250 -1.5490  0.7567
 4931SOL     OW26254   4.621   4.323  16.200  0.2929  0.0103 -0.4998
 4931SOL    HW126255   4.543   4.289  16.244  1.3963 -1.3725  0.3477
 4931SOL    HW226256   4.611   4.419  16.203 -0.3024 -0.0918  1.2162
 4932SOL     OW26257   2.087   4.517  14.734  0.2538  0.5591  0.0373
 4932SOL    HW126258   2.089   4.436  14.683  0.5349 -0.4357  1.6517
 4932SOL    HW226259   2.004   4.558  14.710 -0.9020 -1.3387  0.8826
 4933SOL     OW26260   2.102   0.187   7.068 -0.0247 -0.0227 -0.8860
 4933SOL    HW126261   2.173   0.249   7.057  2.2173 -2.6474 -1.2216
 4933SOL    HW226262   2.068   0.170   6.980 -0.3827 -0.8390 -0.5918
 4934SOL     OW26263   4.214   0.897   5.674  0.2509 -0.0775  0.2109
 4934SOL    HW126264   4.237   0.989   5.684 -1.1036  0.1936  0.7547
 4934SOL    HW226265   4.298   0.854   5.687  0.1107 -0.2156  0.6567
 4935SOL     OW26266   4.358   3.684   0.045 -0.1822 -0.0143  0.5077
 4935SOL    HW126267   4.431   3.727   0.090  0.6040 -0.6233 -0.1683
 4935SOL    HW226268   4.277   3.711   0.089  0.2523  0.2818  1.1255
 4936SOL     OW26269   1.162   4.631   6.690 -0.1489 -0.0377  0.0055
 4936SOL    HW126270   1.129   4.597   6.607  2.8542 -0.4571 -0.9896
 4936SOL    HW226271   1.087   4.636   6.750  0.1282  0.5774  0.3015
 4937SOL     OW26272   3.318   3.451   8.040  0.1670 -0.1473 -0.2537
 4937SOL    HW126273   3.226   3.461   8.015  0.6772  0.9061 -1.6826
 4937SOL    HW226274   3.355   3.456   7.952 -0.2280  0.7135 -0.3710
 4938SOL     OW26275   2.368   2.867   7.198 -0.4044  0.3162  0.1063
 4938SOL    HW126276   2.372   2.785   7.248 -0.5731  1.0276  1.3011
 4938SOL    HW226277   2.371   2.934   7.267  1.9285  0.1816  0.1332
 4939SOL     OW26278   0.067   2.853   7.321  0.3007 -0.3487  0.6109
 4939SOL    HW126279   0.004   2.787   7.351 -0.1727 -0.0678  0.2375
 4939SOL    HW226280   0.076   2.834   7.227 -1.0319 -0.4304  0.4996
 4940SOL     OW26281   4.188   1.749   3.314 -0.1531  0.1967  0.0355
 4940SOL    HW126282   4.192   1.758   3.409  0.1068 -0.8710  0.1191
 4940SOL    HW226283   4.268   1.697   3.302  0.8834  1.8315 -0.2871
 4941SOL     OW26284   2.338   3.515   6.090 -0.3621 -0.0407 -0.4017
 4941SOL    HW126285   2.324   3.428   6.128  1.4675 -0.2324 -0.1825
 4941SOL    HW226286   2.280   3.514   6.013  0.1380  2.0069 -0.7968
 4942SOL     OW26287   1.887   4.015   6.365 -0.1025 -0.3590 -0.1224
 4942SOL    HW126288   1.835   4.063   6.301  0.7767  1.4793  0.5350
 4942SOL    HW226289   1.903   4.084   6.429 -1.0554 -2.5831  2.5548
 4943SOL     OW26290   2.324   4.538   4.604  0.5465  1.1532  0.4636
 4943SOL    HW126291   2.262   4.596   4.560  0.5861 -0.4997 -1.7777
 4943SOL    HW226292   2.393   4.597   4.636  0.8839  1.1070 -0.1803
 4944SOL     OW26293   4.337   3.250   7.217  0.5059  0.4511  0.1139
 4944SOL    HW126294   4.379   3.248   7.303 -1.0620  2.6693  0.9307
 4944SOL    HW226295   4.343   3.343   7.197  0.5994  0.2806 -0.6574
 4945SOL     OW26296   4.012   0.417   4.140 -0.2983 -0.1182 -0.2038
 4945SOL    HW126297   4.027   0.347   4.203  1.0094  1.4775  1.2765
 4945SOL    HW226298   4.068   0.378   4.073 -1.3452  1.3895 -1.9537
 4946SOL     OW26299   3.504   2.605  11.893  0.3896  0.3664 -0.0731
 4946SOL    HW126300   3.440   2.608  11.822 -3.0986 -2.3716  2.9230
 4946SOL    HW226301   3.572   2.548  11.857 -2.2276 -2.9276  0.1406
 4947SOL     OW26302   0.724   1.713   4.715 -0.1920 -0.5054 -0.5187
 4947SOL    HW126303   0.796   1.755   4.668  0.6612  0.6479  1.7976
 4947SOL    HW226304   0.736   1.626   4.679 -0.3045 -0.0475 -1.6472
 4948SOL     OW26305   3.379   0.996  10.980 -0.0862 -0.0687  0.4434
 4948SOL    HW126306   3.421   0.924  11.028  2.4021  2.2612  1.7505
 4948SOL    HW226307   3.381   0.952  10.896  1.4443  1.3175 -0.2438
 4949SOL     OW26308   1.805   0.431   1.860 -0.3453  0.3693  0.1613
 4949SOL    HW126309   1.864   0.355   1.859 -0.0177  0.6364 -0.9670
 4949SOL    HW226310   1.859   0.494   1.813  0.3582 -0.4203 -0.1022
 4950SOL     OW26311   4.639   0.768   5.063 -0.0844 -0.3278 -0.1245
 4950SOL    HW126312   4.694   0.771   4.985  0.9444  0.3230  0.6355
 4950SOL    HW226313   4.582   0.691   5.066  0.4376 -0.6784  0.6971
 4951SOL     OW26314   2.207   0.507   2.235  0.4848  0.6421 -0.2262
 4951SOL    HW126315   2.281   0.447   2.231  0.8050  1.1036 -1.2376
 4951SOL    HW226316   2.141   0.463   2.182  1.3409 -1.5749  0.5420
 4952SOL     OW26317   2.973   4.343   8.273  0.4389  0.5621 -0.3711
 4952SOL    HW126318   3.005   4.398   8.344 -2.9399 -0.3246  1.8350
 4952SOL    HW226319   2.945   4.266   8.322 -1.2012  2.6717  2.0108
 4953SOL     OW26320   1.417   1.580   7.015 -0.1274 -0.3613  0.2482
 4953SOL    HW126321   1.371   1.519   6.956 -4.9445  0.1470  3.4562
 4953SOL    HW226322   1.361   1.657   7.010  2.9602  1.6014 -3.5199
 4954SOL     OW26323   0.918   4.338   4.696  0.3598 -0.1184 -0.0889
 4954SOL    HW126324   0.904   4.248   4.726 -1.0630 -0.5285 -1.9767
 4954SOL    HW226325   1.014   4.333   4.695  0.4286  1.7274 -3.0151
 4955SOL     OW26326   3.988   1.949   1.653  0.0390  0.2327 -0.2656
 4955SOL    HW126327   4.031   2.005   1.589  0.2759  1.2663  0.8113
 4955SOL    HW226328   3.896   1.975   1.645 -0.3339 -1.2631 -1.0236
 4956SOL     OW26329   4.035   3.389  15.808 -0.3328  0.3856 -0.6168
 4956SOL    HW126330   4.020   3.332  15.733 -0.2745 -2.7225  1.7361
 4956SOL    HW226331   3.956   3.443  15.797  0.6758  1.9283 -0.3119
 4957SOL     OW26332   2.710   0.382  11.405 -0.3663 -0.1562  0.2392
 4957SOL    HW126333   2.804   0.369  11.421 -0.0620 -0.0304 -1.4783
 4957SOL    HW226334   2.672   0.301  11.440 -0.9587 -0.7115 -1.7040
 4958SOL     OW26335   0.193   1.360  11.107  0.0839 -0.0981 -0.4162
 4958SOL    HW126336   0.107   1.326  11.082  0.1908 -0.8726  0.2740
 4958SOL    HW226337   0.177   1.449  11.077 -0.4296  0.4425  1.5074
 4959SOL     OW26338   1.674   0.936  15.976 -0.0753 -0.4029  0.6570
 4959SOL    HW126339   1.683   0.843  15.956  0.9442 -0.4077  1.1391
 4959SOL    HW226340   1.581   0.949  15.956  0.3462  0.4730 -0.7742
 4960SOL     OW26341   2.582   2.127  11.660 -0.4113 -0.5054  0.8151
 4960SOL    HW126342   2.553   2.039  11.634 -0.5420  0.2053 -1.3630
 4960SOL    HW226343   2.609   2.156  11.573 -0.6279 -0.6781  0.6903
 4961SOL     OW26344   4.236   0.265   0.310 -0.0387 -0.4190 -0.3296
 4961SOL    HW126345   4.205   0.311   0.388  2.4852  0.9544 -0.1356
 4961SOL    HW226346   4.182   0.186   0.305 -0.7007  0.0118 -0.0662
 4962SOL     OW26347   0.146   1.967   2.608 -0.5287 -0.4661  0.8575
 4962SOL    HW126348   0.160   2.020   2.529  2.2415 -1.1594  0.8918
 4962SOL    HW226349   0.077   2.006   2.662 -1.5686  0.5426 -1.2101
 4963SOL     OW26350   0.913   2.591   3.641 -0.3541  0.0499  0.2842
 4963SOL    HW126351   0.880   2.576   3.552  0.1008  1.3536 -0.0982
 4963SOL    HW226352   0.927   2.503   3.675 -0.4417  0.2382  0.8249
 4964SOL     OW26353   0.200   3.011   5.376 -0.5359 -1.0252  0.3576
 4964SOL    HW126354   0.294   3.000   5.360 -0.3204  2.9945 -1.1291
 4964SOL    HW226355   0.173   2.919   5.369 -0.9397 -0.8588 -0.2629
 4965SOL     OW26356   2.653   2.333   5.899  0.8670 -0.1617  0.8187
 4965SOL    HW126357   2.702   2.413   5.880  1.0574 -0.3284  0.6082
 4965SOL    HW226358   2.576   2.354   5.846  0.8559  0.5903  1.1192
 4966SOL     OW26359   4.641   1.266   5.333  0.6437  0.0971 -0.1697
 4966SOL    HW126360   4.621   1.179   5.368 -0.3531  0.8821  1.1970
 4966SOL    HW226361   4.590   1.325   5.387 -0.4908 -0.6074 -0.4645
 4967SOL     OW26362   1.479   0.094   6.043 -0.0323 -0.1403  0.4290
 4967SOL    HW126363   1.545   0.157   6.070 -0.4539  0.3220  0.3849
 4967SOL    HW226364   1.433   0.142   5.975  0.0010 -1.2625 -0.3921
 4968SOL     OW26365   2.017   2.502  10.910 -0.0455  0.1100  0.3954
 4968SOL    HW126366   2.075   2.579  10.908  2.5252 -1.7874  1.6077
 4968SOL    HW226367   2.007   2.476  10.818 -0.5949  0.9079  0.2287
 4969SOL     OW26368   3.721   4.269   3.633 -0.0468  0.3757 -0.1011
 4969SOL    HW126369   3.642   4.299   3.590 -0.0875 -0.3714 -0.5526
 4969SOL    HW226370   3.679   4.206   3.692  1.0364 -2.4629 -2.3550
 4970SOL     OW26371   3.502   3.487   7.533 -0.2012  0.0854  0.7847
 4970SOL    HW126372   3.497   3.393   7.518 -0.3384  0.3762 -0.9520
 4970SOL    HW226373   3.459   3.485   7.618 -1.5780  0.8010  0.1036
 4971SOL     OW26374   2.075   1.685   7.948 -0.7303 -1.0714  0.1425
 4971SOL    HW126375   2.086   1.643   7.862 -0.9649 -0.9704  0.0645
 4971SOL    HW226376   2.000   1.742   7.933  0.7207  0.6764 -0.4295
 4972SOL     OW26377   2.226   0.033   5.568 -0.2080  0.9444  0.1207
 4972SOL    HW126378   2.133   0.012   5.562 -0.2223  0.8829  0.5225
 4972SOL    HW226379   2.246   0.048   5.660  0.8474  0.3338 -0.0092
 4973SOL     OW26380   2.403   1.924   2.201  0.7375  0.0789 -0.3413
 4973SOL    HW126381   2.399   1.898   2.109  0.9100  0.1380 -0.3654
 4973SOL    HW226382   2.428   2.016   2.209 -2.1708  1.0708 -2.7900
 4974SOL     OW26383   3.160   1.899  12.717 -0.1032  0.1528  0.0134
 4974SOL    HW126384   3.128   1.814  12.748 -2.3793  1.2073  0.6217
 4974SOL    HW226385   3.185   1.942  12.799  2.7964 -1.0711 -0.2278
 4975SOL     OW26386   0.360   1.023   2.781 -0.0652  0.5108  0.8519
 4975SOL    HW126387   0.390   0.956   2.719  1.0494 -0.4503  2.4237
 4975SOL    HW226388   0.438   1.034   2.835  1.1485 -3.5691 -0.0300
 4976SOL     OW26389   0.843   3.120   1.777 -0.1116 -0.3333 -0.4895
 4976SOL    HW126390   0.889   3.109   1.861  0.6459  0.0423 -0.8548
 4976SOL    HW226391   0.754   3.114   1.812  0.1399 -3.4335 -0.3590
 4977SOL     OW26392   2.749   2.702   7.103  0.2097 -0.0284 -0.0632
 4977SOL    HW126393   2.786   2.686   7.190  1.7708 -3.4955 -1.3582
 4977SOL    HW226394   2.824   2.687   7.045  0.6229 -0.3853  0.5613
 4978SOL     OW26395   1.115   0.220  13.268 -0.3068  0.2582 -0.5676
 4978SOL    HW126396   1.206   0.237  13.244 -0.4343 -0.8013 -1.7754
 4978SOL    HW226397   1.066   0.301  13.260 -1.5800 -0.5716 -1.2063
 4979SOL     OW26398   1.890   4.204  16.530  0.0885  0.2383  0.2513
 4979SOL    HW126399   1.975   4.222  16.570 -0.5789  2.8573  0.4758
 4979SOL    HW226400   1.907   4.130  16.472  1.1500  0.7043 -0.0307
 4980SOL     OW26401   4.144   2.901  10.656 -0.5039  0.2696 -0.0992
 4980SOL    HW126402   4.211   2.917  10.722  0.3363  0.0509 -0.8979
 4980SOL    HW226403   4.192   2.864  10.582 -1.6575 -0.0755 -0.6697
 4981SOL     OW26404   4.349   3.113   6.241 -0.0851 -0.0023 -0.6395
 4981SOL    HW126405   4.428   3.060   6.249 -0.8844 -1.4957 -2.4597
 4981SOL    HW226406   4.290   3.072   6.304  0.7126 -0.9871 -0.5345
 4982SOL     OW26407   4.470   2.800   3.201 -0.1564  0.1764 -0.0771
 4982SOL    HW126408   4.545   2.740   3.203  0.6339  1.1237 -1.2113
 4982SOL    HW226409   4.399   2.744   3.173 -0.1952  0.0486  0.2858
 4983SOL     OW26410   3.754   2.149  13.416 -0.6443 -0.3521  0.3339
 4983SOL    HW126411   3.708   2.066  13.404 -0.2420 -0.8415  2.1545
 4983SOL    HW226412   3.812   2.121  13.487  1.1362 -1.0129 -1.3808
 4984SOL     OW26413   0.778   2.618   5.792 -0.6119 -0.4411  0.1007
 4984SOL    HW126414   0.863   2.624   5.836 -0.5101  0.6233 -0.2333
 4984SOL    HW226415   0.715   2.657   5.852 -0.1762  0.1123  0.1981
 4985SOL     OW26416   1.390   2.026   3.031 -0.2095  0.3761 -0.0308
 4985SOL    HW126417   1.470   2.064   3.068  0.6036 -0.3422 -1.0390
 4985SOL    HW226418   1.440   1.954   2.992  2.0846  2.3038 -0.6718
 4986SOL     OW26419   4.004   0.101   4.831 -0.0743 -0.2659 -0.3097
 4986SOL    HW126420   4.093   0.065   4.840 -0.0048  0.0980  0.4463
 4986SOL    HW226421   4.022   0.184   4.876  0.1916 -1.2378  1.3657
 4987SOL     OW26422   0.467   3.412   3.367  0.0628  0.2710  0.2879
 4987SOL    HW126423   0.378   3.429   3.397 -1.3672 -0.8303 -3.2975
 4987SOL    HW226424   0.490   3.338   3.423  1.9235 -1.3659 -2.6660
 4988SOL     OW26425   2.153   1.502   7.729  0.3114 -0.2496 -0.1996
 4988SOL    HW126426   2.074   1.453   7.754  0.8286  0.1355  2.2063
 4988SOL    HW226427   2.222   1.437   7.737 -1.3284 -2.0224 -0.2938
 4989SOL     OW26428   2.779   4.722  16.965  0.1949  0.4289 -0.2371
 4989SOL    HW126429   2.853   0.053  16.944  1.0814 -0.7350 -0.2185
 4989SOL    HW226430   2.717   0.056  17.009  1.1504  1.3742 -0.1420
 4990SOL     OW26431   4.005   4.265   0.383 -0.1095 -0.6354  0.0345
 4990SOL    HW126432   3.920   4.298   0.355 -0.0432 -1.7484 -1.4379
 4990SOL    HW226433   3.980   4.197   0.446  1.6940  1.9969  3.5613
 4991SOL     OW26434   0.573   3.727   2.441 -0.3620 -0.5808 -0.3235
 4991SOL    HW126435   0.621   3.795   2.394  1.5925 -1.7408  0.0234
 4991SOL    HW226436   0.627   3.652   2.418  0.2668  0.8308 -3.3818
 4992SOL     OW26437   3.059   4.551   6.992 -0.5120  0.5959  0.3160
 4992SOL    HW126438   2.978   4.543   7.042 -2.0790 -3.7325 -2.9250
 4992SOL    HW226439   3.100   4.618   7.047  1.1390 -1.6840  1.9049
 4993SOL     OW26440   1.267   0.317  13.924 -0.0740 -0.0408  0.1192
 4993SOL    HW126441   1.305   0.232  13.946 -0.5576 -0.3036 -0.0586
 4993SOL    HW226442   1.195   0.284  13.870 -1.9312  0.9570  1.9805
 4994SOL     OW26443   0.039   1.523  15.141  0.2132  0.4481 -0.3329
 4994SOL    HW126444   0.032   1.501  15.048  3.7739  3.7646 -1.4132
 4994SOL    HW226445   4.675   1.553  15.161 -0.2060 -1.9305  1.2829
 4995SOL     OW26446   2.342   3.220  17.143 -0.1628  0.1100 -0.1099
 4995SOL    HW126447   2.405   3.157  17.179 -1.6523 -1.4877 -0.3193
 4995SOL    HW226448   2.261   3.194  17.187 -0.6707  1.0076 -0.5238
 4996SOL     OW26449   2.255   1.774   9.050 -0.2064 -0.3855 -0.6419
 4996SOL    HW126450   2.163   1.792   9.031  0.1438  0.9147 -1.1209
 4996SOL    HW226451   2.277   1.861   9.082 -0.6173 -1.0568  1.4459
 4997SOL     OW26452   1.392   1.755  13.079  0.5236  0.2181  0.0131
 4997SOL    HW126453   1.344   1.798  13.008  1.2759 -0.4839 -0.9178
 4997SOL    HW226454   1.408   1.828  13.138 -0.5234  2.6485 -2.7157
 4998SOL     OW26455   1.012   3.494   5.859 -0.1082 -0.1613  0.3868
 4998SOL    HW126456   1.031   3.524   5.770  0.4584  0.4520  0.7241
 4998SOL    HW226457   1.083   3.536   5.907  0.5588 -1.3116  0.4356
 4999SOL     OW26458   4.175   2.705   1.614  0.5969  0.2839  0.3866
 4999SOL    HW126459   4.150   2.677   1.702  0.6942 -4.3516 -1.0556
 4999SOL    HW226460   4.226   2.780   1.645 -1.2573  1.1253  1.3483
 5000SOL     OW26461   4.245   2.113  13.335  0.3570  0.2189  0.3414
 5000SOL    HW126462   4.299   2.155  13.401  3.4297 -1.2862 -1.1850
 5000SOL    HW226463   4.179   2.182  13.338  0.3867  0.2373  0.5492
 5001SOL     OW26464   4.387   2.112   9.005  0.2328  0.4575 -0.7502
 5001SOL    HW126465   4.467   2.154   9.037 -0.6962 -0.9776  3.4787
 5001SOL    HW226466   4.400   2.018   9.011  2.1382  0.8623  1.5263
 5002SOL     OW26467   2.477   0.263   6.430  0.2900 -0.3577  0.4957
 5002SOL    HW126468   2.384   0.248   6.409 -0.3469  3.3131  0.6516
 5002SOL    HW226469   2.500   0.342   6.381 -1.3468 -0.4368 -0.4174
 5003SOL     OW26470   3.354   4.716   2.530 -0.1894 -0.7557  0.2253
 5003SOL    HW126471   3.369   4.725   2.436  1.1987 -2.3962  0.3066
 5003SOL    HW226472   3.302   0.072   2.538 -0.2982 -0.8301  0.2742
 5004SOL     OW26473   2.240   2.948   3.698  0.5203 -0.1626 -0.2261
 5004SOL    HW126474   2.273   3.007   3.629  1.5457  1.4021  1.5726
 5004SOL    HW226475   2.191   3.006   3.757  0.1422 -0.8841  0.1635
 5005SOL     OW26476   4.715   3.999   4.244 -0.2746 -0.0766  0.2627
 5005SOL    HW126477   4.635   4.009   4.295 -1.3763  1.3500 -1.7343
 5005SOL    HW226478   0.054   4.008   4.314  0.0992  0.6339 -0.1784
 5006SOL     OW26479   0.727   2.912   1.467  0.4792 -0.0640 -0.6279
 5006SOL    HW126480   0.812   2.914   1.511  0.4221  0.9771 -0.5739
 5006SOL    HW226481   0.752   2.909   1.374  2.2766  0.9041 -0.1640
 5007SOL     OW26482   2.144   0.323  10.230  0.4257 -0.3947  0.0758
 5007SOL    HW126483   2.148   0.321  10.325 -0.0208 -0.0683  0.1063
 5007SOL    HW226484   2.226   0.282  10.204  1.1674  1.8127 -1.1149
 5008SOL     OW26485   4.541   2.064   3.973  0.1745 -0.1643  0.2615
 5008SOL    HW126486   4.576   2.097   3.891 -0.9103  0.1424 -0.0699
 5008SOL    HW226487   4.568   2.129   4.039 -1.3092  2.0096 -1.3053
 5009SOL     OW26488   3.020   2.987   3.485  0.8468 -0.8194  0.2629
 5009SOL    HW126489   2.971   3.015   3.562 -2.7514  0.8934 -2.6601
 5009SOL    HW226490   2.998   2.894   3.489 -0.6074 -0.4631  0.7172
 5010SOL     OW26491   0.842   3.175   1.380  0.0017  0.0574  0.2024
 5010SOL    HW126492   0.845   3.101   1.442 -0.1032  0.3814  0.5935
 5010SOL    HW226493   0.839   3.112   1.308 -0.7277 -0.7422  0.9352
 5011SOL     OW26494   4.236   0.872   4.483  0.0011  0.1011  0.0386
 5011SOL    HW126495   4.170   0.872   4.552 -1.4887 -1.6931 -1.4008
 5011SOL    HW226496   4.242   0.968   4.480 -1.5848  0.2286  1.2855
 5012SOL     OW26497   0.199   4.487   1.673 -0.5308 -0.2443 -0.2984
 5012SOL    HW126498   0.275   4.435   1.701  0.6284  1.5986 -0.0084
 5012SOL    HW226499   0.233   4.575   1.659  1.0148 -0.6510  0.8626
 5013SOL     OW26500   4.558   3.072   2.334 -0.1623  0.0013  0.1918
 5013SOL    HW126501   4.467   3.101   2.331  0.1994  0.7975 -2.8791
 5013SOL    HW226502   4.566   3.018   2.412  0.4186 -1.6172 -0.9794
 5014SOL     OW26503   2.423   4.305  17.070 -0.0642  0.0535  0.0035
 5014SOL    HW126504   2.440   4.325  17.162  0.8726  1.7311 -0.5405
 5014SOL    HW226505   2.333   4.276  17.086  0.3298 -2.7536 -2.7415
 5015SOL     OW26506   1.722   3.961  11.131  0.2458 -0.4423 -0.0477
 5015SOL    HW126507   1.759   4.015  11.201 -1.2595  2.0851 -1.2276
 5015SOL    HW226508   1.663   3.905  11.182 -0.9097 -0.5923 -1.5566
 5016SOL     OW26509   2.639   0.342   7.729 -0.3043 -0.2289  0.3531
 5016SOL    HW126510   2.553   0.343   7.772 -0.3784 -0.8639  0.2217
 5016SOL    HW226511   2.664   0.434   7.730  0.0932 -0.3264 -1.1379
 5017SOL     OW26512   4.245   4.720   7.482 -0.3404  0.0670 -0.0369
 5017SOL    HW126513   4.329   0.018   7.522  0.1621 -0.8049 -0.5752
 5017SOL    HW226514   4.256   4.625   7.487  2.8278  0.3761 -0.5537
 5018SOL     OW26515   1.711   0.961   8.217  0.0812 -0.9615  0.1022
 5018SOL    HW126516   1.755   0.902   8.279  2.3221 -0.6853 -1.2088
 5018SOL    HW226517   1.686   0.889   8.159  2.8659 -2.0592  0.2611
 5019SOL     OW26518   1.455   4.090   7.129 -0.9016  0.1791  0.5267
 5019SOL    HW126519   1.418   4.015   7.082  0.5222  1.2665 -2.2825
 5019SOL    HW226520   1.386   4.156   7.123  0.0116  0.9927 -0.9289
 5020SOL     OW26521   2.287   3.582  12.753  1.0128 -0.0149 -0.0996
 5020SOL    HW126522   2.230   3.629  12.692  3.1839  1.3607 -1.0493
 5020SOL    HW226523   2.228   3.583  12.828 -1.7045 -0.3220 -2.2286
 5021SOL     OW26524   3.065   2.925   4.310  0.5299  0.5300  0.7145
 5021SOL    HW126525   3.079   2.939   4.404  0.2088  0.8930  0.7079
 5021SOL    HW226526   2.974   2.896   4.300  0.0430  1.6024  1.9881
 5022SOL     OW26527   1.987   3.253   0.079  0.5344  0.6691  0.0139
 5022SOL    HW126528   2.073   3.260   0.120  0.3847  2.1516  0.0739
 5022SOL    HW226529   1.973   3.342   0.046  1.7860  0.6069 -0.6646
 5023SOL     OW26530   0.107   0.287  10.072  0.0421  0.2624 -0.1988
 5023SOL    HW126531   0.033   0.341  10.101  1.3614  1.8074  0.2698
 5023SOL    HW226532   0.063   0.203  10.060  0.8498  0.0666 -1.7297
 5024SOL     OW26533   4.110   3.898   9.231  0.7424 -0.8134 -0.0893
 5024SOL    HW126534   4.174   3.962   9.263 -0.5654  0.5816 -0.2779
 5024SOL    HW226535   4.041   3.962   9.215  0.8832 -0.3198  1.2331
 5025SOL     OW26536   3.318   3.589  13.485  0.0948 -0.0882 -0.4500
 5025SOL    HW126537   3.396   3.608  13.537 -0.1636  0.8144 -0.3854
 5025SOL    HW226538   3.250   3.643  13.526  1.6249  1.4307  0.1087
 5026SOL     OW26539   3.142   0.350   6.688 -0.3708  0.6331  0.2451
 5026SOL    HW126540   3.088   0.278   6.656 -0.1754  0.5165  0.1830
 5026SOL    HW226541   3.225   0.305   6.701 -0.5142  0.7037  1.4185
 5027SOL     OW26542   1.883   1.460   8.033  0.1112  0.0684 -0.0893
 5027SOL    HW126543   1.848   1.375   8.059 -0.5483  0.9308  1.8199
 5027SOL    HW226544   1.810   1.493   7.982 -0.6127  1.3889  1.8258
 5028SOL     OW26545   0.138   4.001   7.692 -0.2262 -0.3296 -0.1240
 5028SOL    HW126546   0.048   4.025   7.673 -0.1908 -0.2539 -0.1956
 5028SOL    HW226547   0.179   4.062   7.630  0.7399 -0.6090  0.2359
 5029SOL     OW26548   1.739   0.988  16.345 -0.0785  0.1412 -0.0841
 5029SOL    HW126549   1.746   1.063  16.286 -1.3334  1.2410  1.1750
 5029SOL    HW226550   1.645   0.984  16.359  0.2003 -0.8391  1.3843
 5030SOL     OW26551   0.652   1.224   7.714 -0.0773 -0.2057  0.1782
 5030SOL    HW126552   0.668   1.191   7.803 -0.0501  2.1962  1.0689
 5030SOL    HW226553   0.578   1.172   7.684  0.0202 -0.8525  1.0630
 5031SOL     OW26554   2.036   2.006  13.853  0.3809 -0.3068 -0.4878
 5031SOL    HW126555   2.041   2.008  13.757 -2.8666 -1.9647 -0.6867
 5031SOL    HW226556   2.115   1.954  13.869  0.9577  0.7822  0.2202
 5032SOL     OW26557   2.706   1.391   7.872  0.0541 -0.3373  0.4070
 5032SOL    HW126558   2.736   1.438   7.950  0.5512  0.3073 -0.1683
 5032SOL    HW226559   2.611   1.395   7.883 -0.0801  1.7542 -1.4555
 5033SOL     OW26560   4.176   3.960   8.232  0.2864  0.4181 -0.3242
 5033SOL    HW126561   4.219   3.951   8.317 -0.6156 -1.9238 -0.1056
 5033SOL    HW226562   4.196   4.052   8.215  0.2654  0.6794  1.0366
 5034SOL     OW26563   1.092   0.848   1.502  0.3314 -0.8576  0.3185
 5034SOL    HW126564   1.092   0.942   1.482  1.2078 -1.0076 -0.4144
 5034SOL    HW226565   1.023   0.813   1.446 -0.7596 -0.3471  1.3376
 5035SOL     OW26566   3.188   4.275   6.740  0.0096  0.8798  0.1973
 5035SOL    HW126567   3.121   4.299   6.804 -0.9762  0.0955 -0.5350
 5035SOL    HW226568   3.256   4.340   6.756 -2.0848  2.9518  0.5868
 5036SOL     OW26569   4.458   4.582   1.710 -0.6231  0.1693  0.3128
 5036SOL    HW126570   4.463   4.537   1.626  1.5722 -1.0167  1.1000
 5036SOL    HW226571   4.516   4.526   1.761  0.2842  0.3038 -0.5840
 5037SOL     OW26572   0.266   1.149   2.408 -0.3378  0.4674  0.1102
 5037SOL    HW126573   0.249   1.242   2.391 -0.4249  0.1953 -1.2966
 5037SOL    HW226574   0.357   1.154   2.436 -0.9651 -1.5752  2.4370
 5038SOL     OW26575   0.741   1.061   3.859 -0.0301 -0.6970  0.6475
 5038SOL    HW126576   0.765   1.148   3.893 -0.2384 -0.4736  0.2254
 5038SOL    HW226577   0.679   1.077   3.788 -0.3082 -1.3827  0.7460
 5039SOL     OW26578   1.176   1.247   2.099  0.2481 -0.6334  0.3809
 5039SOL    HW126579   1.185   1.159   2.061  0.8711 -0.1693 -0.5375
 5039SOL    HW226580   1.245   1.242   2.165  0.1969 -0.3938  0.4534
 5040SOL     OW26581   3.455   0.771  15.482  0.6373  0.0742  0.0662
 5040SOL    HW126582   3.381   0.828  15.462  0.2474 -0.7237 -0.7402
 5040SOL    HW226583   3.446   0.706  15.413 -0.1220  0.4496 -0.1845
 5041SOL     OW26584   3.846   1.372   7.644  0.1892  0.1194  0.0229
 5041SOL    HW126585   3.900   1.425   7.702 -0.8349  2.1099 -0.8651
 5041SOL    HW226586   3.787   1.323   7.701  1.6574 -0.9224  0.6591
 5042SOL     OW26587   0.698   2.282   1.678 -0.1440 -0.0772 -0.3454
 5042SOL    HW126588   0.658   2.196   1.667  0.4831 -0.3592 -0.4557
 5042SOL    HW226589   0.768   2.274   1.743  1.4036 -0.1808 -2.0357
 5043SOL     OW26590   3.668   3.852   6.514  0.2615  0.1340  0.1004
 5043SOL    HW126591   3.587   3.870   6.563 -0.1625 -2.0245  0.1919
 5043SOL    HW226592   3.641   3.779   6.459  1.0545 -0.1937  0.1560
 5044SOL     OW26593   3.307   1.080  11.594  0.2670  0.2793  0.1169
 5044SOL    HW126594   3.295   1.115  11.683 -1.4856 -0.8922  0.3522
 5044SOL    HW226595   3.267   1.145  11.536  1.8679  1.7237  0.6198
 5045SOL     OW26596   1.947   1.070   8.585  0.5199  0.5526  0.4868
 5045SOL    HW126597   2.022   1.056   8.642 -0.2774  1.5499  1.7708
 5045SOL    HW226598   1.990   1.072   8.500 -0.9303  0.1038 -0.2624
 5046SOL     OW26599   1.722   1.413   3.153  0.3644 -0.1493  0.0697
 5046SOL    HW126600   1.632   1.407   3.120  0.0445 -0.7319  1.0421
 5046SOL    HW226601   1.751   1.493   3.110 -2.4190  1.5025  1.2440
 5047SOL     OW26602   1.660   2.200  13.462 -0.0368 -0.2302 -0.3389
 5047SOL    HW126603   1.752   2.178  13.444 -0.3522 -1.2572 -0.6947
 5047SOL    HW226604   1.631   2.113  13.486 -0.5494  0.5839  1.9413
 5048SOL     OW26605   2.730   1.453  15.244  0.1569  0.7214 -0.0740
 5048SOL    HW126606   2.716   1.519  15.176 -3.6848 -0.0709 -0.0689
 5048SOL    HW226607   2.679   1.479  15.321  2.4672  0.7920  1.4161
 5049SOL     OW26608   4.696   3.652   7.330 -0.2884 -0.9273 -0.8505
 5049SOL    HW126609   4.636   3.617   7.397 -0.5002  1.9011  0.4345
 5049SOL    HW226610   0.043   3.691   7.380 -2.3205  1.0185  0.5670
 5050SOL     OW26611   1.754   0.063  14.270  0.8657 -0.4904 -0.0255
 5050SOL    HW126612   1.753   0.099  14.181 -2.2260 -0.6640 -0.0609
 5050SOL    HW226613   1.714   0.137  14.316 -0.7270 -1.3913  0.0341
 5051SOL     OW26614   2.151   2.409   9.421  0.0929  0.7955  1.0468
 5051SOL    HW126615   2.078   2.454   9.378  0.5184  0.4422 -0.0225
 5051SOL    HW226616   2.103   2.348   9.478 -0.0469 -1.7792 -1.8370
 5052SOL     OW26617   0.067   0.460   3.016 -0.2214  0.0584 -0.4387
 5052SOL    HW126618   4.716   0.420   3.059 -0.8320  2.1382  0.4369
 5052SOL    HW226619   0.127   0.386   3.012  0.4973  0.6474 -0.4838
 5053SOL     OW26620   2.217   2.035   6.125 -0.3033  0.1187  0.0736
 5053SOL    HW126621   2.218   1.952   6.173 -0.5117  0.3628  0.4988
 5053SOL    HW226622   2.147   2.081   6.171  0.6845  2.1569 -0.4550
 5054SOL     OW26623   1.301   1.469  16.767 -0.4072 -0.2050  0.0914
 5054SOL    HW126624   1.343   1.383  16.765 -1.1284 -0.4738 -3.5300
 5054SOL    HW226625   1.346   1.507  16.842  1.1834  2.4830 -2.2212
 5055SOL     OW26626   2.953   1.542   8.009  0.4871  0.3887  0.7677
 5055SOL    HW126627   2.999   1.477   8.063 -0.2040 -1.4979 -0.8812
 5055SOL    HW226628   2.873   1.562   8.058  1.2763 -1.2588  2.7270
 5056SOL     OW26629   3.207   1.010   2.357  0.5634 -0.1167  0.1129
 5056SOL    HW126630   3.249   0.926   2.338 -1.0179 -0.9382  0.2902
 5056SOL    HW226631   3.228   1.010   2.450  1.4324  0.0833 -0.0793
 5057SOL     OW26632   4.644   3.575   5.950  0.3422 -0.3443 -0.6919
 5057SOL    HW126633   4.595   3.612   6.024  0.2113 -2.9263  0.5191
 5057SOL    HW226634   4.702   3.648   5.932 -0.6231  0.7100  0.4747
 5058SOL     OW26635   2.298   4.540   8.597  0.2418 -0.1972 -0.1795
 5058SOL    HW126636   2.234   4.476   8.629 -1.1555  0.6268 -1.3454
 5058SOL    HW226637   2.376   4.487   8.583  0.3890  0.2269 -0.9766
 5059SOL     OW26638   4.228   3.049   2.091 -0.0360  0.0825 -0.1237
 5059SOL    HW126639   4.162   3.011   2.149 -1.9105 -0.4702 -2.6181
 5059SOL    HW226640   4.184   3.131   2.070 -0.0653 -0.3549 -1.8220
 5060SOL     OW26641   2.060   1.487   4.344 -0.0235 -0.1394  0.0277
 5060SOL    HW126642   2.142   1.535   4.334  0.2103 -0.4962  0.2167
 5060SOL    HW226643   2.068   1.434   4.265  0.2800  2.1779 -1.5024
 5061SOL     OW26644   0.106   2.374   8.841 -0.8798  0.1276  0.6497
 5061SOL    HW126645   0.059   2.421   8.910 -1.4668  0.9456 -0.3152
 5061SOL    HW226646   0.120   2.292   8.888 -3.1455 -0.7692 -0.2396
 5062SOL     OW26647   3.690   0.058  15.325  0.4965  0.1032 -0.7034
 5062SOL    HW126648   3.597   0.081  15.328  0.7204  0.6223  2.3887
 5062SOL    HW226649   3.731   0.144  15.325  0.0447  0.3170  1.0949
 5063SOL     OW26650   2.395   1.366   8.867 -0.5959  0.0658 -0.4995
 5063SOL    HW126651   2.347   1.357   8.785  1.1096  0.5252 -1.5462
 5063SOL    HW226652   2.421   1.458   8.868  0.7447 -0.3041 -2.2527
 5064SOL     OW26653   0.352   0.226  13.672  0.2902 -0.2416  0.1950
 5064SOL    HW126654   0.399   0.290  13.619 -0.2272 -2.3457 -2.8451
 5064SOL    HW226655   0.343   0.274  13.754  0.6352 -0.9913  0.6712
 5065SOL     OW26656   3.499   3.875   4.257  0.2130  0.1140  0.5955
 5065SOL    HW126657   3.452   3.953   4.286 -0.4685 -1.1058  2.7852
 5065SOL    HW226658   3.449   3.813   4.311 -0.5466  1.2351  1.1685
 5066SOL     OW26659   0.959   2.244   7.984  0.0378 -0.5786 -0.2318
 5066SOL    HW126660   0.870   2.220   7.957 -0.3690  1.2548 -0.4923
 5066SOL    HW226661   0.949   2.325   8.033 -0.4082 -0.8314  0.0918
 5067SOL     OW26662   0.477   4.660   4.821 -0.2094 -0.0120 -0.3070
 5067SOL    HW126663   0.548   4.599   4.802 -1.2533 -1.0110 -0.9664
 5067SOL    HW226664   0.412   4.607   4.867  0.8566 -1.7113 -0.7587
 5068SOL     OW26665   4.140   1.075   3.899  0.1645 -0.2033  0.2890
 5068SOL    HW126666   4.097   1.057   3.816  0.3565  1.4713 -0.1833
 5068SOL    HW226667   4.218   1.127   3.875 -1.2923  0.6857 -2.4970
 5069SOL     OW26668   0.904   2.187   0.639 -0.2938  0.1438 -0.4726
 5069SOL    HW126669   0.998   2.205   0.647 -0.2471 -0.0389 -0.6138
 5069SOL    HW226670   0.896   2.099   0.676 -2.9699 -0.3703 -2.3421
 5070SOL     OW26671   4.239   4.182  12.088  0.7140  0.0209 -0.0419
 5070SOL    HW126672   4.313   4.242  12.099  1.5287 -0.6768 -1.7422
 5070SOL    HW226673   4.180   4.206  12.159  0.7314  2.2680 -0.7694
 5071SOL     OW26674   0.042   2.894   3.231  0.2183 -0.8909  0.4973
 5071SOL    HW126675   4.724   2.974   3.261 -1.4672 -1.1802 -1.1479
 5071SOL    HW226676   0.130   2.908   3.264  0.5264 -0.7089 -0.3916
 5072SOL     OW26677   1.740   3.871  13.513 -0.3344 -0.1574 -0.3234
 5072SOL    HW126678   1.830   3.865  13.479  0.4235 -2.3804  2.0513
 5072SOL    HW226679   1.760   3.884  13.606 -0.9192 -1.7859  0.0424
 5073SOL     OW26680   3.554   0.944   2.823 -0.1206  0.0740 -0.1568
 5073SOL    HW126681   3.491   0.968   2.890  1.0539  2.2215  0.1596
 5073SOL    HW226682   3.606   1.025   2.818 -0.3337  0.3684  2.5812
 5074SOL     OW26683   4.198   2.759   3.741 -0.1892  0.4583  0.4415
 5074SOL    HW126684   4.155   2.696   3.682 -2.1657  2.7231 -0.5284
 5074SOL    HW226685   4.289   2.749   3.715  0.1685  1.3866  1.3272
 5075SOL     OW26686   3.262   0.018   5.766  0.0684  0.3285 -0.4064
 5075SOL    HW126687   3.213   4.661   5.768  0.6896 -0.0350 -0.0991
 5075SOL    HW226688   3.197   0.079   5.801 -0.1203 -0.0555 -0.0945
 5076SOL     OW26689   3.758   0.865  14.728 -0.7528  0.4343  0.1917
 5076SOL    HW126690   3.689   0.836  14.787  0.1257  2.3194  2.1407
 5076SOL    HW226691   3.721   0.841  14.642 -0.7316 -0.4809  0.4325
 5077SOL     OW26692   4.127   1.214   5.053  0.3522  0.3267  0.3095
 5077SOL    HW126693   4.211   1.177   5.080 -0.0959 -2.6990 -2.4086
 5077SOL    HW226694   4.069   1.141   5.075 -0.7621  0.5512 -1.9263
 5078SOL     OW26695   0.783   2.965  12.574  0.3343 -0.0167  0.7099
 5078SOL    HW126696   0.852   2.920  12.623  0.8009 -0.3673 -0.2749
 5078SOL    HW226697   0.731   2.895  12.536  1.7937 -2.1080  2.5706
 5079SOL     OW26698   4.201   1.716   3.583 -0.5554 -0.5633 -0.2469
 5079SOL    HW126699   4.284   1.671   3.567  0.8208  1.4215  1.3392
 5079SOL    HW226700   4.165   1.700   3.670 -1.1507  0.1090 -0.3715
 5080SOL     OW26701   0.322   0.140  10.979  0.0098  0.4231 -0.1587
 5080SOL    HW126702   0.344   0.050  10.953  2.0293  0.8742 -0.0676
 5080SOL    HW226703   0.328   0.184  10.895  0.7840 -1.0855 -0.8980
 5081SOL     OW26704   2.432   2.184   6.572 -0.1872 -0.1176  0.3370
 5081SOL    HW126705   2.381   2.263   6.589  1.9632  0.8100  2.5975
 5081SOL    HW226706   2.447   2.195   6.478  1.0739  2.0638  0.7974
 5082SOL     OW26707   4.225   2.612   5.983  0.0642 -0.0725 -0.4813
 5082SOL    HW126708   4.280   2.535   5.973 -0.4962 -0.5862  0.4342
 5082SOL    HW226709   4.291   2.678   5.962 -0.1290  0.0361 -0.7480
 5083SOL     OW26710   3.801   3.018   1.116 -0.3029 -0.3288  0.0228
 5083SOL    HW126711   3.771   3.069   1.041 -2.2805 -0.4235  0.7506
 5083SOL    HW226712   3.826   2.932   1.083  0.1421 -0.6626  1.2372
 5084SOL     OW26713   3.515   1.097   8.784  0.3557  0.0925 -0.6069
 5084SOL    HW126714   3.473   1.182   8.768  2.0891  1.0097 -0.2910
 5084SOL    HW226715   3.442   1.042   8.813  0.9609 -0.1629  0.4306
 5085SOL     OW26716   4.350   1.344   5.232 -0.3870  0.2216  0.4234
 5085SOL    HW126717   4.401   1.419   5.261  1.4090 -0.6125 -0.5705
 5085SOL    HW226718   4.402   1.329   5.153  1.4036  2.2909  1.2266
 5086SOL     OW26719   0.297   1.561   1.393 -0.4805  0.0855 -0.5554
 5086SOL    HW126720   0.273   1.576   1.484 -0.3093  0.5999 -0.5982
 5086SOL    HW226721   0.360   1.629   1.371 -0.2683  0.4825  1.3161
 5087SOL     OW26722   1.662   0.530   2.081 -0.2568 -0.0443  0.7380
 5087SOL    HW126723   1.650   0.472   2.156 -1.3108  0.8787  1.2713
 5087SOL    HW226724   1.722   0.483   2.023 -0.7728  0.1363  0.0560
 5088SOL     OW26725   4.472   0.946   0.919  0.0188  0.5697  0.1510
 5088SOL    HW126726   4.378   0.925   0.915  0.3047 -0.4604 -1.2917
 5088SOL    HW226727   4.473   0.974   0.827  0.6792  0.3576  0.0984
 5089SOL     OW26728   4.690   2.825  10.452  0.0083 -0.0244 -0.6310
 5089SOL    HW126729   4.624   2.860  10.512 -1.1165 -0.4271 -1.6191
 5089SOL    HW226730   4.688   2.734  10.482  0.7771 -0.4477 -1.8828
 5090SOL     OW26731   2.804   3.463   5.277  0.3044  0.3290 -0.3760
 5090SOL    HW126732   2.886   3.511   5.295  1.3991 -1.2285 -1.1921
 5090SOL    HW226733   2.756   3.511   5.210  0.4527  0.6702 -0.2373
 5091SOL     OW26734   3.451   4.144   4.340 -0.1278 -0.2606 -0.3492
 5091SOL    HW126735   3.525   4.160   4.398 -0.5974  0.4480  0.0437
 5091SOL    HW226736   3.384   4.183   4.397 -1.0420 -1.2662 -0.7282
 5092SOL     OW26737   0.891   1.573  11.289  0.0223  0.4856 -0.0239
 5092SOL    HW126738   0.902   1.600  11.198  2.6218 -1.0002 -0.1329
 5092SOL    HW226739   0.981   1.551  11.311  0.2071  0.4233 -0.8607
 5093SOL     OW26740   1.212   3.051   9.631 -0.3180  0.6499 -0.1997
 5093SOL    HW126741   1.291   3.103   9.646 -0.4923  1.3083 -1.5609
 5093SOL    HW226742   1.167   3.095   9.558  0.5469  1.6714 -0.1204
 5094SOL     OW26743   3.387   3.955   7.738 -0.0852  0.0605  0.0399
 5094SOL    HW126744   3.422   4.018   7.801  0.6569  1.7476 -2.0808
 5094SOL    HW226745   3.326   3.908   7.795  0.9309 -0.5236  0.6566
 5095SOL     OW26746   1.619   1.776   2.446 -0.1457 -0.0116  0.1000
 5095SOL    HW126747   1.639   1.793   2.538  2.3333 -2.9532  0.0934
 5095SOL    HW226748   1.703   1.797   2.405  0.9232 -0.3275  2.1234
 5096SOL     OW26749   1.301   2.880   3.044  0.1076  0.3964  1.0686
 5096SOL    HW126750   1.377   2.916   2.998 -0.6354 -1.6419 -1.7380
 5096SOL    HW226751   1.340   2.808   3.093 -0.4131 -2.2354 -2.4151
 5097SOL     OW26752   2.234   1.183  12.128  0.2526 -0.0251 -0.3714
 5097SOL    HW126753   2.231   1.088  12.116 -0.2237 -0.0119 -0.3580
 5097SOL    HW226754   2.229   1.223  12.041  2.9781  1.4707  0.1766
 5098SOL     OW26755   1.448   2.277   0.928  0.5920  0.3269  0.5655
 5098SOL    HW126756   1.368   2.275   0.981  0.3178 -0.3383  0.1331
 5098SOL    HW226757   1.519   2.266   0.990  0.1580  0.5222  1.0977
 5099SOL     OW26758   2.489   0.434   3.119 -0.2497  0.0298  0.0048
 5099SOL    HW126759   2.447   0.353   3.148  2.9627 -0.4589  3.3042
 5099SOL    HW226760   2.582   0.416   3.105  0.0761  1.1768  0.6901
 5100SOL     OW26761   2.841   0.812   7.055  0.9103 -0.1517 -0.0689
 5100SOL    HW126762   2.811   0.804   6.965 -0.6322 -0.9965  0.5212
 5100SOL    HW226763   2.807   0.901   7.068  1.4475  0.4090 -2.5992
 5101SOL     OW26764   0.201   1.967   1.565 -0.0973 -0.3219  0.0097
 5101SOL    HW126765   0.278   1.950   1.619  0.0858 -0.3429 -0.2577
 5101SOL    HW226766   0.216   1.914   1.487 -1.2841 -1.3041  0.4660
 5102SOL     OW26767   0.891   3.460   8.214  0.6937 -0.2309 -0.2728
 5102SOL    HW126768   0.906   3.368   8.236 -0.3691 -0.5616 -0.9465
 5102SOL    HW226769   0.854   3.489   8.297  2.1317  0.1568  0.2425
 5103SOL     OW26770   0.120   1.875   7.823 -0.1627 -0.2855  0.1411
 5103SOL    HW126771   0.162   1.828   7.895  0.7802  0.5304  0.1312
 5103SOL    HW226772   0.143   1.823   7.746 -0.6983 -0.8685  0.3728
 5104SOL     OW26773   4.145   0.709  11.222 -0.2891 -0.0297 -0.7618
 5104SOL    HW126774   4.189   0.643  11.275 -2.4070 -0.2116  0.7798
 5104SOL    HW226775   4.064   0.722  11.272 -1.0698 -1.5387 -1.6239
 5105SOL     OW26776   0.187   3.389   0.165  0.8454  0.3608  0.1087
 5105SOL    HW126777   0.240   3.330   0.219  0.1414 -0.7603 -0.4309
 5105SOL    HW226778   0.165   3.458   0.228 -0.3445 -0.0843  0.1874
 5106SOL     OW26779   1.387   1.506  13.020 -0.1020 -0.2239  0.5011
 5106SOL    HW126780   1.365   1.577  13.080 -0.0337 -0.8141  1.2275
 5106SOL    HW226781   1.355   1.546  12.940  1.1266  1.7711  1.0256
 5107SOL     OW26782   0.402   4.601   9.428  0.3649 -0.1669  0.3689
 5107SOL    HW126783   0.461   4.558   9.366  0.4084  2.1942 -1.2233
 5107SOL    HW226784   0.342   4.649   9.370  0.4459 -1.6616 -0.9509
 5108SOL     OW26785   1.704   1.916  14.244 -0.3937 -0.1691  0.1116
 5108SOL    HW126786   1.743   1.959  14.168 -0.2274 -1.5712 -0.5867
 5108SOL    HW226787   1.610   1.932  14.237 -0.0890  1.8440  0.7067
 5109SOL     OW26788   0.001   2.134   1.482 -0.6072  0.1858  0.4246
 5109SOL    HW126789   4.720   2.204   1.547  0.1854  0.1288  0.5607
 5109SOL    HW226790   0.057   2.068   1.524  0.2598  0.2295 -0.6674
 5110SOL     OW26791   2.727   1.322   3.845  0.0625 -0.1966  0.0057
 5110SOL    HW126792   2.790   1.386   3.812 -2.2987  1.9128 -0.5330
 5110SOL    HW226793   2.720   1.347   3.937 -0.2932 -1.2797  0.2695
 5111SOL     OW26794   0.053   0.439   4.454  0.1903 -0.4139 -0.3787
 5111SOL    HW126795   4.717   0.480   4.393  0.6791  0.0480 -0.5483
 5111SOL    HW226796   0.123   0.402   4.401  1.2014 -0.1012  0.7282
 5112SOL     OW26797   2.199   2.853   2.733  0.1142  0.4325 -0.2893
 5112SOL    HW126798   2.174   2.787   2.668  0.3155  0.5552 -0.4907
 5112SOL    HW226799   2.281   2.824   2.773 -0.0340  1.7626  0.9810
 5113SOL     OW26800   0.322   3.285   7.329 -0.5961 -0.7270 -0.6301
 5113SOL    HW126801   0.333   3.192   7.307  0.5494 -0.0379 -2.8964
 5113SOL    HW226802   0.239   3.305   7.286 -0.4090  0.5306 -0.3916
 5114SOL     OW26803   2.224   3.033   6.414 -0.3638 -0.1204 -0.1114
 5114SOL    HW126804   2.212   2.976   6.491  0.6382  0.1707  0.2601
 5114SOL    HW226805   2.204   2.980   6.337  1.5714  0.4940 -1.0515
 5115SOL     OW26806   1.339   0.733   3.956  0.2350 -0.5529 -0.3970
 5115SOL    HW126807   1.362   0.645   3.927  1.4077 -0.3546 -0.0685
 5115SOL    HW226808   1.395   0.758   4.029 -0.3873  0.9474 -0.4379
 5116SOL     OW26809   0.522   3.816   5.628  0.0702 -0.3670 -0.0411
 5116SOL    HW126810   0.483   3.900   5.651  1.8780  0.9024 -1.5920
 5116SOL    HW226811   0.452   3.753   5.643  1.3262 -1.7529 -0.0103
 5117SOL     OW26812   3.972   2.773   3.887 -0.2677 -0.0699  0.0336
 5117SOL    HW126813   4.046   2.785   3.828  0.5302  0.6045  1.1682
 5117SOL    HW226814   3.994   2.685   3.917  2.9266 -0.0949 -2.4104
 5118SOL     OW26815   2.623   4.359   5.144 -0.1131 -0.0525 -0.1765
 5118SOL    HW126816   2.672   4.416   5.204  0.5240  1.8971 -2.5673
 5118SOL    HW226817   2.545   4.332   5.192 -0.0501  0.9099  0.4873
 5119SOL     OW26818   3.869   2.836   9.223  0.4809 -0.3758  0.3836
 5119SOL    HW126819   3.820   2.916   9.205 -0.1471 -0.3910  2.0375
 5119SOL    HW226820   3.930   2.826   9.150  0.2495 -1.9130  0.3976
 5120SOL     OW26821   0.874   1.118   6.985 -0.1484  0.5721  0.1259
 5120SOL    HW126822   0.809   1.122   7.056 -0.1541  2.1488  0.0286
 5120SOL    HW226823   0.954   1.131   7.036  0.8789 -1.3930 -1.0070
 5121SOL     OW26824   1.417   0.433   6.213  0.0219 -1.2134 -0.2783
 5121SOL    HW126825   1.481   0.455   6.145  0.4294 -0.7242  0.2669
 5121SOL    HW226826   1.377   0.519   6.224  1.0704 -0.7575  0.0228
 5122SOL     OW26827   2.387   2.121   7.935  0.1480 -0.3839  0.5928
 5122SOL    HW126828   2.336   2.179   7.993  1.3441  0.6726  0.5918
 5122SOL    HW226829   2.378   2.038   7.983 -0.4369 -0.6564  0.0065
 5123SOL     OW26830   4.415   0.295   5.688 -0.6768  0.6588 -0.0575
 5123SOL    HW126831   4.467   0.230   5.735 -0.7738 -0.7532 -1.9175
 5123SOL    HW226832   4.370   0.245   5.620 -1.2920  1.5817 -0.3303
 5124SOL     OW26833   1.138   1.414  12.573 -0.0666 -0.4654  0.5013
 5124SOL    HW126834   1.084   1.486  12.605  1.9951  1.6319 -0.8154
 5124SOL    HW226835   1.128   1.355  12.647 -0.7829 -0.1469  0.6581
 5125SOL     OW26836   2.014   1.484   7.134  1.0604 -0.6739 -0.0060
 5125SOL    HW126837   2.094   1.459   7.087  0.3051 -0.6288 -1.3416
 5125SOL    HW226838   2.043   1.488   7.225 -0.7360  0.0916  0.5166
 5126SOL     OW26839   1.450   0.474   3.879 -0.4800 -0.5736 -0.1948
 5126SOL    HW126840   1.495   0.436   3.954 -0.4643 -2.1216 -0.9883
 5126SOL    HW226841   1.427   0.396   3.829 -2.5036 -1.5090  2.2135
 5127SOL     OW26842   0.655   4.618   5.066 -0.3388  0.0309 -0.3489
 5127SOL    HW126843   0.666   4.632   4.972 -2.6418  3.6041 -0.0722
 5127SOL    HW226844   0.728   4.564   5.096 -0.4516  1.4146  2.3154
 5128SOL     OW26845   2.386   2.404   4.111  0.2858 -0.5423 -0.2829
 5128SOL    HW126846   2.388   2.319   4.068  3.4725 -0.8716  0.5459
 5128SOL    HW226847   2.297   2.409   4.148  1.4430  1.7644  2.1567
 5129SOL     OW26848   1.439   3.950   5.535  0.0243 -0.4068 -0.0674
 5129SOL    HW126849   1.515   4.000   5.503 -0.8242  1.7937  1.3392
 5129SOL    HW226850   1.432   3.893   5.459  1.6462 -0.7741  0.0461
 5130SOL     OW26851   2.756   0.254   1.856  0.5909  0.5582 -0.4611
 5130SOL    HW126852   2.783   0.227   1.944 -2.4549  0.7969  0.5333
 5130SOL    HW226853   2.770   0.349   1.855 -2.5916  1.0292 -0.9827
 5131SOL     OW26854   1.616   0.879   9.851  0.7809 -0.0351  0.0342
 5131SOL    HW126855   1.698   0.835   9.873 -0.7548 -2.4373  0.8652
 5131SOL    HW226856   1.613   0.878   9.756  1.1955  1.3509  0.0062
 5132SOL     OW26857   1.108   2.327   5.217 -0.2753 -0.2817 -0.3329
 5132SOL    HW126858   1.174   2.261   5.235  1.9289  1.7062 -1.1227
 5132SOL    HW226859   1.023   2.282   5.213 -1.3142  1.8938 -3.4294
 5133SOL     OW26860   4.579   4.500   0.187 -0.4149  0.2607 -0.0088
 5133SOL    HW126861   4.513   4.568   0.203 -0.6438  0.4303 -1.6478
 5133SOL    HW226862   4.534   4.436   0.131  1.3350  0.4003 -1.5556
 5134SOL     OW26863   1.840   2.957   7.280  0.5462  0.4912  1.0881
 5134SOL    HW126864   1.833   2.898   7.355  0.9733 -1.2340 -0.2053
 5134SOL    HW226865   1.929   2.993   7.279  1.4079 -1.6661 -1.6389
 5135SOL     OW26866   0.471   3.075   2.427  0.0889  0.1316  0.0328
 5135SOL    HW126867   0.535   3.004   2.428  0.0563  0.1112  0.6232
 5135SOL    HW226868   0.529   3.133   2.475 -2.1706  0.9874  1.7623
 5136SOL     OW26869   3.663   1.496   4.083  0.0376  0.3477  0.0231
 5136SOL    HW126870   3.638   1.508   4.175  0.4797 -0.0425  0.1981
 5136SOL    HW226871   3.577   1.510   4.043  0.4768  0.1192 -0.9923
 5137SOL     OW26872   2.426   4.486   8.202  0.4590  0.0715  0.2389
 5137SOL    HW126873   2.402   4.542   8.276 -0.2262  0.6665 -0.4358
 5137SOL    HW226874   2.522   4.490   8.202  0.4030  1.3026 -1.0697
 5138SOL     OW26875   1.651   1.518   6.648  0.3742  0.4523  0.0572
 5138SOL    HW126876   1.641   1.476   6.733 -0.8062 -0.0770 -0.3447
 5138SOL    HW226877   1.728   1.472   6.615  0.5549 -0.6656  2.0640
 5139SOL     OW26878   3.980   4.496  12.707  0.4080  0.1456  0.3562
 5139SOL    HW126879   3.955   4.589  12.707 -1.3115 -0.3041  1.4447
 5139SOL    HW226880   4.054   4.499  12.646 -1.1075  2.0302 -1.4019
 5140SOL     OW26881   1.051   1.929   6.587  0.3575  0.2208 -0.6384
 5140SOL    HW126882   0.999   1.957   6.512  0.7916  1.4778 -0.4734
 5140SOL    HW226883   1.128   1.896   6.541 -0.1221  1.4099 -2.3007
 5141SOL     OW26884   4.390   0.637  13.058 -0.1690 -0.3018 -0.1120
 5141SOL    HW126885   4.319   0.702  13.050 -0.0781  0.0288  1.8241
 5141SOL    HW226886   4.343   0.563  13.096 -0.0957  0.8622  2.2550
 5142SOL     OW26887   0.459   0.038   3.419 -0.4074 -0.2730 -0.2608
 5142SOL    HW126888   0.393   4.704   3.456 -0.5976  1.4107  2.0338
 5142SOL    HW226889   0.403   0.082   3.355  0.9874  0.3438 -1.0442
 5143SOL     OW26890   3.364   2.720   3.616  0.4963 -0.1963 -0.5795
 5143SOL    HW126891   3.370   2.797   3.558  0.9789  0.8092  0.8047
 5143SOL    HW226892   3.446   2.676   3.592  0.4740 -0.6417  0.1756
 5144SOL     OW26893   2.956   1.400  16.167  0.1880  0.3698 -0.4180
 5144SOL    HW126894   2.896   1.423  16.096 -1.0505 -3.2701 -0.5600
 5144SOL    HW226895   2.987   1.483  16.201 -0.0704  1.5647 -3.1055
 5145SOL     OW26896   2.196   3.962   6.311 -0.1508 -0.1025 -0.1960
 5145SOL    HW126897   2.277   3.916   6.290 -0.2427 -0.8797  1.1628
 5145SOL    HW226898   2.221   4.045   6.352  1.2017  1.1687 -3.5649
 5146SOL     OW26899   3.731   1.938   4.965 -0.0324 -0.7231 -0.5298
 5146SOL    HW126900   3.768   1.944   5.053 -1.2653 -2.1178  0.0808
 5146SOL    HW226901   3.763   1.849   4.951  0.4359 -1.0401  2.3956
 5147SOL     OW26902   3.782   0.073   9.130 -0.1364 -0.5820  0.1650
 5147SOL    HW126903   3.774   4.711   9.090 -0.7760 -1.3452  1.8963
 5147SOL    HW226904   3.751   0.056   9.220 -2.0307  0.3018 -0.3086
 5148SOL     OW26905   3.131   2.878  13.279 -0.2111  0.0160  0.8011
 5148SOL    HW126906   3.192   2.805  13.268 -1.6391 -0.7564 -1.9334
 5148SOL    HW226907   3.047   2.835  13.265 -0.2621  1.0444 -2.1844
 5149SOL     OW26908   2.680   4.411   6.345  0.5429  0.2242 -0.4586
 5149SOL    HW126909   2.592   4.377   6.329  1.7253 -1.7273 -2.9007
 5149SOL    HW226910   2.682   4.501   6.315 -1.7274  0.0781 -1.0358
 5150SOL     OW26911   1.257   0.356   5.001 -0.7970 -0.2291 -0.3103
 5150SOL    HW126912   1.291   0.292   5.064  0.5989  1.5398  0.7035
 5150SOL    HW226913   1.321   0.425   5.013 -0.6959 -0.5146  0.7496
 5151SOL     OW26914   3.801   0.555   2.308 -0.0365 -0.1287  0.3447
 5151SOL    HW126915   3.723   0.592   2.349  0.3328 -0.5000  1.3714
 5151SOL    HW226916   3.826   0.633   2.259 -3.3703 -0.1707 -1.3869
 5152SOL     OW26917   0.556   3.410   7.701 -0.0003  0.2401 -0.2935
 5152SOL    HW126918   0.546   3.436   7.609  0.0001  1.7300  0.1144
 5152SOL    HW226919   0.588   3.322   7.686  1.0236  0.4360  0.7205
 5153SOL     OW26920   2.843   2.644  11.338  0.0517  0.2823  0.1318
 5153SOL    HW126921   2.858   2.652  11.432 -0.1281 -0.0802  0.1893
 5153SOL    HW226922   2.917   2.588  11.313 -2.2030 -2.2150 -0.9804
 5154SOL     OW26923   3.063   0.211   6.945  0.0729 -1.0764  0.1814
 5154SOL    HW126924   2.971   0.203   6.920  0.9075 -1.7641 -2.5498
 5154SOL    HW226925   3.063   0.140   7.010 -0.9237 -1.4208 -0.1860
 5155SOL     OW26926   3.366   4.183   8.473 -0.4853  0.3450  0.1147
 5155SOL    HW126927   3.435   4.136   8.519  1.0672 -2.2277 -4.9075
 5155SOL    HW226928   3.286   4.137   8.498 -0.4736 -0.7151 -1.8174
 5156SOL     OW26929   3.749   0.372   8.593 -1.0890  0.0461  0.0643
 5156SOL    HW126930   3.663   0.382   8.554 -0.7972 -0.5629 -0.7381
 5156SOL    HW226931   3.809   0.348   8.523 -0.6848  0.7795  0.1583
 5157SOL     OW26932   2.235   1.139   7.558 -0.1838 -0.2337 -0.0853
 5157SOL    HW126933   2.283   1.220   7.579  3.9346 -2.4650 -0.9252
 5157SOL    HW226934   2.225   1.141   7.463 -0.5373 -3.7550 -0.1122
 5158SOL     OW26935   2.458   3.339   8.773  0.1119  0.5834 -0.1473
 5158SOL    HW126936   2.412   3.269   8.819  0.9809 -0.0403 -0.2280
 5158SOL    HW226937   2.428   3.422   8.809 -1.5577  0.1255 -0.4716
 5159SOL     OW26938   2.856   0.018   8.480  0.4604 -0.0610  0.1182
 5159SOL    HW126939   2.890   4.710   8.563 -0.7084  2.4455  1.5835
 5159SOL    HW226940   2.828   0.107   8.500 -3.7433 -1.9552  2.4454
 5160SOL     OW26941   2.412   2.432   4.609 -0.1764  0.1675 -0.1963
 5160SOL    HW126942   2.364   2.350   4.621  0.9841 -0.4075  0.4811
 5160SOL    HW226943   2.393   2.474   4.693  0.1873  1.9334 -0.9954
 5161SOL     OW26944   1.880   1.492   4.898 -0.2924  0.8204  0.0541
 5161SOL    HW126945   1.814   1.546   4.853 -0.5677  0.0155 -0.5104
 5161SOL    HW226946   1.964   1.514   4.858  0.5299 -0.4555  1.0773
 5162SOL     OW26947   1.992   3.136   7.707  0.1912 -0.0615 -0.1028
 5162SOL    HW126948   1.991   3.199   7.779 -0.0830  0.2215 -0.3503
 5162SOL    HW226949   2.070   3.175   7.667  0.1642  1.7778  1.6085
 5163SOL     OW26950   4.228   1.786  14.833 -0.0484 -0.6307 -0.2681
 5163SOL    HW126951   4.133   1.798  14.841  0.6642  3.3481  1.8486
 5163SOL    HW226952   4.229   1.699  14.874 -0.8316 -0.1870  0.7104
 5164SOL     OW26953   3.226   4.580  13.168 -0.5678  0.2510  0.1041
 5164SOL    HW126954   3.239   4.662  13.215  0.5193 -0.6203  1.3122
 5164SOL    HW226955   3.200   4.614  13.082  0.7460  1.4297  0.1801
 5165SOL     OW26956   1.745   3.253  14.765  0.9934  0.1764 -0.0836
 5165SOL    HW126957   1.799   3.174  14.774  2.2943  1.3128  1.9808
 5165SOL    HW226958   1.706   3.253  14.852  1.1413  1.7666 -0.0174
 5166SOL     OW26959   2.234   2.315   1.365  0.2801  0.3248  0.4149
 5166SOL    HW126960   2.256   2.294   1.274 -0.4497  1.5748 -0.0501
 5166SOL    HW226961   2.301   2.265   1.413 -0.3507 -0.8546  0.0712
 5167SOL     OW26962   1.432   4.129   1.800  0.2117 -0.3906 -0.5309
 5167SOL    HW126963   1.430   4.138   1.895 -2.7654  1.0966 -0.7444
 5167SOL    HW226964   1.486   4.050   1.794 -0.1833 -0.8171  1.5878
 5168SOL     OW26965   4.308   2.274   8.708  0.1790 -0.1964  0.3603
 5168SOL    HW126966   4.242   2.343   8.715 -0.7672 -1.0306 -0.2720
 5168SOL    HW226967   4.387   2.324   8.729 -0.1442  0.7982 -0.7620
 5169SOL     OW26968   1.601   0.512   9.376 -0.4253  0.5084  0.3454
 5169SOL    HW126969   1.688   0.505   9.337 -0.1406 -1.9862  1.4551
 5169SOL    HW226970   1.621   0.488   9.466  1.8499 -1.0321 -0.5813
 5170SOL     OW26971   4.085   3.733   6.437  0.0709  0.2505  0.7084
 5170SOL    HW126972   4.067   3.813   6.388 -2.6237 -0.4331  0.5988
 5170SOL    HW226973   4.002   3.687   6.429 -0.2483  1.0490 -0.4134
 5171SOL     OW26974   4.237   1.809   1.156  0.2046 -0.3539  0.2251
 5171SOL    HW126975   4.300   1.849   1.216 -1.1614  0.7092  0.9293
 5171SOL    HW226976   4.187   1.772   1.228 -1.5461 -1.1553 -1.3886
 5172SOL     OW26977   2.893   1.727  15.522  0.0849 -0.0588  0.4314
 5172SOL    HW126978   2.955   1.741  15.451 -1.2981  2.4161 -0.2984
 5172SOL    HW226979   2.810   1.712  15.476  0.1647  1.5105 -0.2181
 5173SOL     OW26980   1.400   1.959   5.146  0.5154  0.1755  0.4315
 5173SOL    HW126981   1.434   1.938   5.233  1.8739 -3.5045 -0.9633
 5173SOL    HW226982   1.444   1.896   5.089  0.9190 -0.3142  1.2785
 5174SOL     OW26983   3.232   2.016   5.588 -0.2359  0.1201  0.2418
 5174SOL    HW126984   3.206   2.107   5.581  1.3967  0.4756 -1.1739
 5174SOL    HW226985   3.287   1.999   5.512 -1.0331  2.1772 -0.7643
 5175SOL     OW26986   3.047   3.925   6.448  0.2364 -0.2373 -0.3673
 5175SOL    HW126987   3.066   3.833   6.427  0.1372 -0.2494 -0.4087
 5175SOL    HW226988   3.123   3.948   6.500 -0.2499  0.4258  0.0492
 5176SOL     OW26989   1.778   0.627   5.723  0.4197  0.0293  0.2568
 5176SOL    HW126990   1.847   0.659   5.780  0.5896  0.3287 -0.1186
 5176SOL    HW226991   1.819   0.591   5.645 -0.2263 -0.7560  0.2761
 5177SOL     OW26992   0.499   0.632   3.267 -0.2464  0.1369 -0.0637
 5177SOL    HW126993   0.443   0.669   3.199 -0.8599  1.0295  0.9268
 5177SOL    HW226994   0.561   0.698   3.299  0.0126 -1.0799  1.8944
 5178SOL     OW26995   2.477   0.898   3.981  0.1474  0.5220 -1.0056
 5178SOL    HW126996   2.385   0.887   4.006  0.4253  1.6512  0.5222
 5178SOL    HW226997   2.509   0.809   3.999 -3.0800 -0.3775  0.2599
 5179SOL     OW26998   3.871   1.714   6.121 -0.2687 -0.0067  0.3649
 5179SOL    HW126999   3.932   1.683   6.055  0.8584 -0.9097  1.8355
 5179SOL    HW227000   3.782   1.691   6.095 -0.2548  2.1948 -1.6831
 5180SOL     OW27001   1.966   1.512   1.786 -0.0352  0.0192 -0.2856
 5180SOL    HW127002   1.908   1.564   1.731  0.2238  0.7906  0.1672
 5180SOL    HW227003   1.983   1.432   1.738  0.8157  0.4238 -0.6522
 5181SOL     OW27004   1.275   2.111   2.695  0.3691 -0.4194 -0.2441
 5181SOL    HW127005   1.238   2.032   2.655 -0.9023  0.7567 -1.3935
 5181SOL    HW227006   1.357   2.075   2.730  0.7169  1.3809  0.7785
 5182SOL     OW27007   4.344   0.891  10.544  0.0308  0.2195  0.0141
 5182SOL    HW127008   4.300   0.957  10.490  3.1833  0.5614 -2.1364
 5182SOL    HW227009   4.417   0.868  10.487 -1.3334 -1.5132 -1.0362
 5183SOL     OW27010   4.604   2.766  14.228 -0.8308 -0.5431 -0.8281
 5183SOL    HW127011   4.582   2.706  14.157  0.1815 -0.6268 -1.0713
 5183SOL    HW227012   4.646   2.703  14.286  0.7488  0.6110 -0.7402
 5184SOL     OW27013   4.631   2.370   1.606 -0.3378  0.5028  0.0109
 5184SOL    HW127014   4.566   2.306   1.636 -1.2064  1.8273  0.9478
 5184SOL    HW227015   4.583   2.419   1.540 -0.6856  1.5946  1.0740
 5185SOL     OW27016   2.489   0.578  11.955  0.3351 -0.1625 -0.6007
 5185SOL    HW127017   2.512   0.645  12.019  1.4993 -1.2866  0.1588
 5185SOL    HW227018   2.532   0.501  11.993  0.7951 -0.6606 -2.1247
 5186SOL     OW27019   3.746   2.261   6.747  0.1953  0.1392  0.4681
 5186SOL    HW127020   3.729   2.230   6.836  1.4017 -3.1998 -0.4724
 5186SOL    HW227021   3.841   2.258   6.751  0.1908 -2.2298 -0.9528
 5187SOL     OW27022   0.083   1.427   2.599  0.3178 -0.0912 -0.3800
 5187SOL    HW127023   0.079   1.377   2.681  0.2967 -0.8091 -0.8157
 5187SOL    HW227024   0.175   1.450   2.592  0.9348 -1.8521  1.7444
 5188SOL     OW27025   3.250   2.827   6.771  0.1924  0.0430 -0.1500
 5188SOL    HW127026   3.299   2.909   6.775  1.1327 -0.6725  2.6949
 5188SOL    HW227027   3.185   2.850   6.837 -1.9092  0.6667 -2.4748
 5189SOL     OW27028   2.016   1.416  11.668 -0.1606  0.3373 -0.1743
 5189SOL    HW127029   2.057   1.445  11.587  3.3616 -1.3832  1.0328
 5189SOL    HW227030   2.009   1.323  11.646 -1.1654 -0.0469  1.7382
 5190SOL     OW27031   0.061   0.622   6.885  0.0327  0.4676 -0.3394
 5190SOL    HW127032   4.720   0.654   6.824 -3.1192 -3.4174  0.9963
 5190SOL    HW227033   0.012   0.596   6.963  3.5480  0.9771  1.9910
 5191SOL     OW27034   3.127   1.028   7.426  0.1696  0.1280 -0.1609
 5191SOL    HW127035   3.170   1.025   7.511 -0.6843  0.6926  0.2871
 5191SOL    HW227036   3.126   0.935   7.400 -0.5799  0.5245 -1.5723
 5192SOL     OW27037   3.503   3.104   8.348 -0.6120 -0.2382  0.7959
 5192SOL    HW127038   3.416   3.127   8.317 -0.4707  2.9716  2.7680
 5192SOL    HW227039   3.547   3.095   8.263 -0.1219  2.3595  0.7818
 5193SOL     OW27040   3.126   3.182   6.314 -0.0968 -0.2756 -0.4978
 5193SOL    HW127041   3.168   3.241   6.250  0.6369 -0.3166 -0.0512
 5193SOL    HW227042   3.199   3.162   6.372  0.1594 -1.5852 -1.2673
 5194SOL     OW27043   1.804   4.224   2.122  0.2347 -0.5916  0.5984
 5194SOL    HW127044   1.781   4.210   2.214 -0.0284  0.8680  0.7551
 5194SOL    HW227045   1.894   4.245   2.144  0.0508 -1.0740  1.8013
 5195SOL     OW27046   0.691   3.188   4.337 -0.4767  0.1650  0.2196
 5195SOL    HW127047   0.619   3.125   4.342  1.4058 -1.9092  1.1769
 5195SOL    HW227048   0.641   3.269   4.353 -0.6820 -0.2241  1.5463
 5196SOL     OW27049   4.631   4.107   7.631  0.7576 -0.1760 -0.3801
 5196SOL    HW127050   4.613   4.106   7.536  0.1694 -1.1212 -0.2558
 5196SOL    HW227051   4.653   4.200   7.640 -2.2101  0.3725  1.0982
 5197SOL     OW27052   1.585   0.685   8.634 -0.1605  0.4982  0.3887
 5197SOL    HW127053   1.520   0.745   8.598 -0.2797 -0.0662 -0.3298
 5197SOL    HW227054   1.650   0.749   8.663  0.0332 -0.0209  1.1244
 5198SOL     OW27055   1.487   4.525  14.904 -0.0352 -0.2285 -0.1273
 5198SOL    HW127056   1.472   4.551  14.813  0.8258  1.2718  0.1559
 5198SOL    HW227057   1.426   4.452  14.914  1.7624 -1.2651  3.0245
 5199SOL     OW27058   0.705   0.575  15.068  0.5256 -0.2811 -0.1964
 5199SOL    HW127059   0.753   0.534  14.997  1.3596 -4.2074  2.6123
 5199SOL    HW227060   0.772   0.574  15.136  0.5519  0.4752 -0.2113
 5200SOL     OW27061   3.949   3.956  15.865 -0.2079  0.1655  0.4291
 5200SOL    HW127062   3.854   3.961  15.873 -0.1560  3.9096 -1.6442
 5200SOL    HW227063   3.985   3.998  15.943 -0.2530  3.1588 -1.1790
 5201SOL     OW27064   0.522   1.310   5.437  0.3755 -0.0814  0.1814
 5201SOL    HW127065   0.505   1.402   5.418  1.4871 -0.4590 -2.6323
 5201SOL    HW227066   0.458   1.306   5.508 -0.3877 -2.4388 -0.6334
 5202SOL     OW27067   0.237   2.389   9.141  0.3739 -0.2466 -0.4373
 5202SOL    HW127068   0.238   2.300   9.107 -1.0158  0.2774 -1.8268
 5202SOL    HW227069   0.149   2.419   9.119  0.5486 -0.3014 -1.2072
 5203SOL     OW27070   1.570   2.407   6.632 -0.1481 -0.0110  0.2906
 5203SOL    HW127071   1.525   2.491   6.629 -0.3229 -0.0059  3.1208
 5203SOL    HW227072   1.665   2.419   6.634 -0.0748 -0.6793  0.8242
 5204SOL     OW27073   0.374   3.913   6.695  0.2781  0.0923  0.0233
 5204SOL    HW127074   0.435   3.958   6.637  0.2316 -0.6504 -0.6063
 5204SOL    HW227075   0.433   3.882   6.764  0.0219  0.4828  0.4183
 5205SOL     OW27076   2.267   0.182  16.942 -0.2237  0.1975 -0.2195
 5205SOL    HW127077   2.317   0.261  16.921  0.9328 -0.7295 -0.9978
 5205SOL    HW227078   2.303   0.174  17.031  0.2124 -2.7041 -0.6393
 5206SOL     OW27079   0.882   1.283  17.677 -0.1912 -0.2442 -0.3602
 5206SOL    HW127080   0.919   1.194  17.676  1.4354  0.4340 -0.9458
 5206SOL    HW227081   0.853   1.295   0.066 -2.3192  1.6139 -1.2885
 5207SOL     OW27082   3.180   3.312  12.955 -0.3766 -1.0221  0.5300
 5207SOL    HW127083   3.157   3.225  12.990 -2.9201  0.2574  2.0947
 5207SOL    HW227084   3.153   3.369  13.027 -0.8639  0.1169 -0.5645
 5208SOL     OW27085   1.671   0.027   8.165 -0.2082 -0.3929  0.0412
 5208SOL    HW127086   1.583   0.005   8.195 -0.4008  0.1171 -0.1314
 5208SOL    HW227087   1.654   0.092   8.096 -0.7985 -1.0859 -0.4605
 5209SOL     OW27088   0.252   1.300   8.074  0.6959 -0.1543  0.1334
 5209SOL    HW127089   0.206   1.217   8.085 -2.1738  1.5688  0.9995
 5209SOL    HW227090   0.189   1.361   8.113  0.8649  0.7814 -1.0583
 5210SOL     OW27091   3.084   0.763   7.361  0.2648  0.1430 -0.3577
 5210SOL    HW127092   3.044   0.686   7.400  0.5598 -0.1599 -0.6530
 5210SOL    HW227093   3.169   0.724   7.339 -0.0688 -1.9581  2.0568
 5211SOL     OW27094   1.964   0.050  10.529  0.5656 -0.0346 -0.9975
 5211SOL    HW127095   1.958   0.132  10.481  2.6770 -1.1372 -3.1837
 5211SOL    HW227096   1.934   4.718  10.457 -0.5139 -0.8954  0.1343
 5212SOL     OW27097   1.929   1.501   1.203 -0.2524  0.0760  0.1113
 5212SOL    HW127098   1.945   1.524   1.294 -0.6136 -0.8635  0.4117
 5212SOL    HW227099   1.843   1.541   1.192 -0.1854  0.0681 -0.4708
 5213SOL     OW27100   4.466   2.011   9.368  0.4351  0.2553  0.1874
 5213SOL    HW127101   4.454   1.928   9.415  1.7665  0.2576  0.5366
 5213SOL    HW227102   4.516   2.062   9.432  0.1859  0.0345  0.5591
 5214SOL     OW27103   2.460   1.377   7.607 -0.1237 -0.0917  0.5872
 5214SOL    HW127104   2.489   1.342   7.523 -1.4408  0.3050 -0.0463
 5214SOL    HW227105   2.503   1.461   7.623 -1.3164  0.5155  0.5885
 5215SOL     OW27106   2.936   2.465  12.675  0.5912 -0.4063  0.4408
 5215SOL    HW127107   2.847   2.430  12.681 -0.2780  1.9380  1.4334
 5215SOL    HW227108   2.933   2.539  12.736  3.8509 -1.2187  1.5899
 5216SOL     OW27109   2.681   2.783   3.958  0.2571 -0.3944  0.4461
 5216SOL    HW127110   2.688   2.835   4.038  1.4843  0.0979  0.0208
 5216SOL    HW227111   2.615   2.842   3.922 -0.7119 -1.5634  0.3083
 5217SOL     OW27112   1.014   4.591   8.545 -0.1040 -0.2717  0.0058
 5217SOL    HW127113   0.932   4.571   8.500 -0.3724  1.6438 -0.3403
 5217SOL    HW227114   1.085   4.537   8.511 -0.2107 -1.1327  1.1633
 5218SOL     OW27115   1.750   2.392  16.826 -0.2191  0.1777  0.4762
 5218SOL    HW127116   1.784   2.442  16.901  1.1207  1.1117 -0.7659
 5218SOL    HW227117   1.697   2.462  16.787  0.5624  1.3258  1.4653
 5219SOL     OW27118   3.531   3.872  10.917  0.2652 -0.3137 -0.6069
 5219SOL    HW127119   3.474   3.904  10.847  0.5880 -1.9255 -1.6051
 5219SOL    HW227120   3.611   3.919  10.895 -0.2666  0.4856 -0.8287
 5220SOL     OW27121   2.642   3.098   6.417 -0.4997 -0.0299  0.4648
 5220SOL    HW127122   2.623   3.164   6.483 -2.0707  0.5893 -0.6037
 5220SOL    HW227123   2.611   3.022   6.468  0.8887 -1.8801 -1.4431
 5221SOL     OW27124   0.491   0.019   9.896 -0.0351  0.2464 -0.6041
 5221SOL    HW127125   0.561   0.052   9.840  0.2778  2.5618  1.1669
 5221SOL    HW227126   0.475   4.666   9.842  1.0837 -0.2620 -0.2004
 5222SOL     OW27127   4.582   0.756  15.247  0.0214  0.4623 -0.1995
 5222SOL    HW127128   4.626   0.772  15.331 -0.7851  1.4099  0.0356
 5222SOL    HW227129   4.662   0.745  15.194  0.8951  1.5178  0.8967
 5223SOL     OW27130   1.687   4.460  16.396  0.3985  0.1684  0.6835
 5223SOL    HW127131   1.696   4.494  16.307 -0.9761 -1.4608 -0.0926
 5223SOL    HW227132   1.637   4.530  16.436 -0.7778  1.7202 -3.5520
 5224SOL     OW27133   2.035   1.446   0.240  0.0025 -0.2713  0.6814
 5224SOL    HW127134   2.062   1.533   0.211  0.3091 -0.4505  0.4128
 5224SOL    HW227135   2.118   1.397   0.237  1.1799  1.6437  1.9674
 5225SOL     OW27136   1.642   2.623   1.896 -0.4835  0.0338  0.1119
 5225SOL    HW127137   1.605   2.599   1.981 -0.4079  0.5819  0.3001
 5225SOL    HW227138   1.679   2.541   1.864 -2.8612 -1.5759  1.4720
 5226SOL     OW27139   3.725   2.200   2.597  1.2715 -0.0064  0.1577
 5226SOL    HW127140   3.720   2.199   2.501 -0.2558  3.4919  0.2030
 5226SOL    HW227141   3.709   2.292   2.615 -1.4243 -0.3045 -0.7431
 5227SOL     OW27142   2.925   0.219  14.371 -0.4430  0.2962  0.5384
 5227SOL    HW127143   2.949   0.294  14.427 -1.4044  1.0507 -0.0553
 5227SOL    HW227144   2.991   0.222  14.302  0.9052  2.2609  1.8925
 5228SOL     OW27145   3.055   2.622   4.422  0.4210  0.3432 -0.2501
 5228SOL    HW127146   2.990   2.619   4.352  0.5008 -3.1063 -0.1960
 5228SOL    HW227147   2.997   2.637   4.496  0.9786  1.0088  0.0472
 5229SOL     OW27148   2.753   3.157   5.552 -0.2553  0.2628 -0.0723
 5229SOL    HW127149   2.775   3.160   5.458  1.1679  0.5562  0.2745
 5229SOL    HW227150   2.661   3.184   5.548  0.2071  1.6587 -1.6544
 5230SOL     OW27151   3.151   0.785   3.198 -0.2190 -0.5497  0.6314
 5230SOL    HW127152   3.127   0.709   3.144  0.4316 -0.7072  0.5604
 5230SOL    HW227153   3.088   0.787   3.270 -1.1203  1.2942 -0.2064
 5231SOL     OW27154   1.361   1.864  17.527 -0.1375  0.1232 -0.2664
 5231SOL    HW127155   1.392   1.941  17.575  0.8128 -1.3012  1.3736
 5231SOL    HW227156   1.429   1.850  17.462 -2.4545 -0.2718 -2.6288
 5232SOL     OW27157   4.315   1.251   2.606 -0.0097  0.2623  0.0672
 5232SOL    HW127158   4.392   1.195   2.612  0.1716  0.3003 -1.9392
 5232SOL    HW227159   4.367   1.323   2.570 -0.4395 -0.3855 -1.8128
 5233SOL     OW27160   3.879   1.805  17.396  0.4294  0.8050  0.7530
 5233SOL    HW127161   3.797   1.823  17.442  0.2044  2.9047 -0.4471
 5233SOL    HW227162   3.866   1.719  17.356  1.6056  2.0323 -2.3246
 5234SOL     OW27163   3.239   1.678   4.269 -0.4619 -0.1795  0.0295
 5234SOL    HW127164   3.202   1.614   4.208 -0.5863 -0.3351  0.2672
 5234SOL    HW227165   3.164   1.737   4.273 -1.2776 -1.0888 -1.4668
 5235SOL     OW27166   3.464   3.078   5.856 -0.4961 -0.2828 -0.2620
 5235SOL    HW127167   3.532   3.079   5.789 -1.4831  1.1993 -1.2570
 5235SOL    HW227168   3.416   3.159   5.836  1.8773  0.7422 -1.7729
 5236SOL     OW27169   1.274   1.885   2.281  0.3060  0.0347 -0.3471
 5236SOL    HW127170   1.256   1.978   2.267 -0.9787 -0.0749  0.6358
 5236SOL    HW227171   1.217   1.849   2.214 -1.9242  0.3872  1.3790
 5237SOL     OW27172   3.165   4.550   4.879 -1.1089  0.0944 -0.0306
 5237SOL    HW127173   3.222   4.518   4.949 -0.0903  0.4877 -0.6709
 5237SOL    HW227174   3.230   4.582   4.816 -1.2727 -2.2631 -1.3873
 5238SOL     OW27175   2.703   1.054   8.121  0.6378 -0.7050 -0.3454
 5238SOL    HW127176   2.787   1.099   8.115 -0.2792  0.8286 -1.5719
 5238SOL    HW227177   2.736   0.967   8.098 -1.1864 -1.6171  0.4668
 5239SOL     OW27178   4.064   4.238   6.142 -0.0719  0.2022  0.6055
 5239SOL    HW127179   4.020   4.215   6.060 -0.5055 -0.2896  0.9765
 5239SOL    HW227180   4.063   4.333   6.132  0.5401  0.4220  2.5746
 5240SOL     OW27181   3.438   2.736   8.956  0.4498 -0.0367  0.1779
 5240SOL    HW127182   3.464   2.827   8.944  1.4028 -0.3703 -0.2112
 5240SOL    HW227183   3.347   2.738   8.926  0.9398 -4.5167 -1.5530
 5241SOL     OW27184   2.381   2.049   5.904  0.3675 -0.2245  0.3938
 5241SOL    HW127185   2.318   2.032   5.974  0.3450 -0.3060  0.3542
 5241SOL    HW227186   2.455   2.070   5.961 -0.5724 -3.2122  2.6959
 5242SOL     OW27187   2.544   0.896   2.645 -0.1558  0.4422  0.0707
 5242SOL    HW127188   2.626   0.864   2.609  0.0418 -0.0771  0.9680
 5242SOL    HW227189   2.544   0.976   2.593  2.4839  0.2277 -0.2505
 5243SOL     OW27190   4.121   2.903   6.082 -0.0525 -0.4984 -0.2228
 5243SOL    HW127191   4.212   2.892   6.054  0.9712  2.2505  1.9286
 5243SOL    HW227192   4.084   2.840   6.021  0.9440 -1.4120  0.1282
 5244SOL     OW27193   1.064   2.974   4.660 -0.3136 -0.2609  0.1909
 5244SOL    HW127194   1.159   2.983   4.651 -0.6900  1.2203 -2.2579
 5244SOL    HW227195   1.035   3.064   4.645  0.6337 -0.1168 -0.7965
 5245SOL     OW27196   2.414   3.500   4.063  0.6694  0.3342  0.2293
 5245SOL    HW127197   2.438   3.591   4.047  1.5259  0.2826  1.1939
 5245SOL    HW227198   2.470   3.480   4.138 -0.4965  2.3304  1.6418
 5246SOL     OW27199   0.869   0.244  11.524  0.1527 -0.0043  0.2142
 5246SOL    HW127200   0.799   0.200  11.476 -0.5753  1.4109 -0.0280
 5246SOL    HW227201   0.844   0.336  11.512  2.3310  0.3461 -1.7122
 5247SOL     OW27202   4.518   4.689   2.919  0.3592  0.2344  0.2058
 5247SOL    HW127203   4.504   4.719   3.009 -1.0612 -1.0358  0.4022
 5247SOL    HW227204   4.582   4.618   2.919 -0.3129 -0.3736  2.3493
 5248SOL     OW27205   3.470   1.209   3.302 -0.1638  0.4420  0.3571
 5248SOL    HW127206   3.488   1.272   3.372  1.4014  1.8326 -1.3340
 5248SOL    HW227207   3.532   1.223   3.232  0.7536 -1.0866  0.8531
 5249SOL     OW27208   4.698   4.272  13.700  0.3222  0.4734 -0.6267
 5249SOL    HW127209   0.053   4.270  13.753 -0.7561 -0.7121  0.9864
 5249SOL    HW227210   4.621   4.284  13.755  1.5420  1.2133  0.9023
 5250SOL     OW27211   3.757   3.549  15.769 -0.7347 -0.3423  0.1706
 5250SOL    HW127212   3.692   3.613  15.739 -3.8712 -2.8650  1.5571
 5250SOL    HW227213   3.760   3.583  15.858 -1.9865 -2.9741  1.2401
 5251SOL     OW27214   4.425   0.763   2.473 -0.7870 -0.7210 -0.2045
 5251SOL    HW127215   4.481   0.814   2.414  0.5929 -1.9242  0.0507
 5251SOL    HW227216   4.342   0.793   2.437 -0.2857  0.0460 -0.7312
 5252SOL     OW27217   0.766   4.492  13.018 -0.2476  0.0084  0.1706
 5252SOL    HW127218   0.841   4.473  12.961  1.4793  2.2870  1.6996
 5252SOL    HW227219   0.786   4.582  13.046  0.8209  0.4510 -1.9318
 5253SOL     OW27220   2.060   2.190   9.160 -0.0552 -0.5661 -0.5183
 5253SOL    HW127221   2.083   2.152   9.245  1.7431  0.1047 -0.7081
 5253SOL    HW227222   2.128   2.257   9.160  1.8849 -2.5515  0.4427
 5254SOL     OW27223   3.277   4.271   4.625 -0.1695 -0.3466  0.7651
 5254SOL    HW127224   3.342   4.333   4.657 -0.7931 -1.0886  3.5284
 5254SOL    HW227225   3.194   4.316   4.643 -0.1503 -0.1048  0.2310
 5255SOL     OW27226   0.645   3.992   7.683 -0.1829  0.5546  0.4859
 5255SOL    HW127227   0.573   4.004   7.744 -0.7344  1.8777 -0.4389
 5255SOL    HW227228   0.602   4.014   7.601 -1.9190 -2.2325  0.6489
 5256SOL     OW27229   1.435   0.150   7.372 -0.3219  0.2205 -0.1972
 5256SOL    HW127230   1.490   0.076   7.397  0.4968  0.7958 -0.2934
 5256SOL    HW227231   1.508   0.212   7.362  0.5184 -0.9200 -1.1914
 5257SOL     OW27232   2.385   4.278   4.565  0.3601 -0.3553 -0.4117
 5257SOL    HW127233   2.427   4.258   4.648  1.4864  2.1417 -0.3939
 5257SOL    HW227234   2.364   4.369   4.585  0.2421 -0.5171  0.1913
 5258SOL     OW27235   1.380   3.976   4.695  0.0669 -0.1338 -0.0986
 5258SOL    HW127236   1.367   3.992   4.602  0.8522  0.2016 -0.1508
 5258SOL    HW227237   1.435   4.052   4.712 -0.7857  0.8924 -1.8806
 5259SOL     OW27238   0.473   1.863  10.296  0.2254  0.0731 -0.3169
 5259SOL    HW127239   0.553   1.850  10.345 -0.8224 -1.4289  1.0035
 5259SOL    HW227240   0.411   1.827  10.359 -0.9485  2.2387 -0.2141
 5260SOL     OW27241   2.630   0.510   6.747  0.3526  0.0697 -0.5417
 5260SOL    HW127242   2.581   0.427   6.746  2.2206 -1.0766  3.4806
 5260SOL    HW227243   2.654   0.515   6.654  1.7002 -1.3256 -0.2873
 5261SOL     OW27244   2.077   3.738   4.794 -0.0679  0.0825 -0.3853
 5261SOL    HW127245   2.045   3.658   4.752 -1.3111  1.3427 -1.8209
 5261SOL    HW227246   2.074   3.810   4.731 -0.2541 -0.6742 -1.2462
 5262SOL     OW27247   2.525   3.428  11.108 -0.3383  0.2369 -0.2330
 5262SOL    HW127248   2.489   3.508  11.147  2.4292  1.4394 -0.1311
 5262SOL    HW227249   2.464   3.366  11.148  0.0040 -1.1764 -1.9177
 5263SOL     OW27250   1.708   3.159   4.209 -0.7913 -0.3187  0.0349
 5263SOL    HW127251   1.685   3.231   4.267 -0.8771  0.0801 -0.4982
 5263SOL    HW227252   1.625   3.111   4.205  0.4944 -2.3415 -2.0955
 5264SOL     OW27253   0.411   0.171   4.140  0.4359  0.8278 -0.3482
 5264SOL    HW127254   0.456   0.123   4.209  2.6021  3.0865 -0.1619
 5264SOL    HW227255   0.469   0.152   4.067 -1.1281  1.6638 -1.8047
 5265SOL     OW27256   3.551   2.220   4.534  0.4917 -0.2703 -0.1261
 5265SOL    HW127257   3.570   2.129   4.508  3.0988  0.5313 -1.0585
 5265SOL    HW227258   3.594   2.226   4.619  1.9543 -2.0598 -0.7241
 5266SOL     OW27259   1.239   2.126   5.932 -0.1087 -1.0979 -0.1119
 5266SOL    HW127260   1.297   2.089   5.999  0.0155 -1.2143 -0.2847
 5266SOL    HW227261   1.278   2.213   5.944 -0.8678 -0.8234  0.3792
 5267SOL     OW27262   3.541   1.768   2.616 -0.2899 -0.3422 -0.0809
 5267SOL    HW127263   3.577   1.745   2.702 -0.3295  1.0143  0.3046
 5267SOL    HW227264   3.619   1.813   2.583 -1.8658  0.4980 -2.6231
 5268SOL     OW27265   4.398   2.085   8.431  0.5395  0.0499  0.0259
 5268SOL    HW127266   4.470   2.089   8.494  0.1349  0.2146  0.4841
 5268SOL    HW227267   4.416   1.998   8.395  0.8295 -0.3732  1.2051
 5269SOL     OW27268   2.495   0.676   3.612  0.3532 -0.3192  0.1546
 5269SOL    HW127269   2.447   0.647   3.690  2.9117  2.3937  2.7233
 5269SOL    HW227270   2.546   0.597   3.595 -1.6143 -1.4058 -0.7565
 5270SOL     OW27271   4.711   4.653   6.353  0.1321 -0.0712  0.5311
 5270SOL    HW127272   4.654   4.662   6.277  1.6758  0.2378 -0.5846
 5270SOL    HW227273   0.029   0.013   6.367  0.8633 -0.7176  2.1904
 5271SOL     OW27274   3.200   1.643   3.137  0.1624  0.1622 -0.0952
 5271SOL    HW127275   3.198   1.734   3.169  1.3654  0.2082 -0.1380
 5271SOL    HW227276   3.293   1.628   3.154  0.4420  0.6381 -1.1915
 5272SOL     OW27277   2.648   2.160   3.034 -0.2981 -0.5856  0.1576
 5272SOL    HW127278   2.675   2.070   3.052 -1.3636 -1.1703 -1.1335
 5272SOL    HW227279   2.597   2.144   2.954 -1.0142 -0.1336  0.5208
 5273SOL     OW27280   1.745   2.633  14.350 -0.5024  0.6531  0.2323
 5273SOL    HW127281   1.722   2.605  14.438 -0.2917 -0.0783  0.0544
 5273SOL    HW227282   1.821   2.580  14.328  0.2064  2.1231 -0.8401
 5274SOL     OW27283   1.347   4.589   1.584 -0.2695  0.3465  0.3107
 5274SOL    HW127284   1.369   4.651   1.654 -1.2457  4.2310 -2.7635
 5274SOL    HW227285   1.356   4.501   1.619  0.9908 -0.2144 -1.4204
 5275SOL     OW27286   0.799   3.647   1.991  0.4697  0.1170 -0.2471
 5275SOL    HW127287   0.884   3.629   1.951  0.5519 -2.2217  1.0212
 5275SOL    HW227288   0.755   3.563   1.981 -0.1203  0.4788 -0.6770
 5276SOL     OW27289   1.546   4.568  14.237 -0.2355  0.2113 -0.5598
 5276SOL    HW127290   1.579   4.646  14.280  2.0272  0.0315 -1.9863
 5276SOL    HW227291   1.607   4.568  14.163  1.1374 -0.5016  0.5669
 5277SOL     OW27292   2.563   4.357  13.202 -0.6220 -0.7137 -0.2403
 5277SOL    HW127293   2.593   4.404  13.280 -2.5800  0.4488 -0.1930
 5277SOL    HW227294   2.643   4.357  13.148 -0.4062  1.5724  0.0938
 5278SOL     OW27295   1.286   1.994   6.857  0.4848  0.3722  0.2205
 5278SOL    HW127296   1.238   1.964   6.779  3.4819 -0.4782 -1.2971
 5278SOL    HW227297   1.329   2.074   6.828 -2.1941  2.1619  1.1310
 5279SOL     OW27298   3.130   1.806   3.916  0.8261  0.1424  0.0728
 5279SOL    HW127299   3.209   1.823   3.967  0.9015  2.0227 -0.6726
 5279SOL    HW227300   3.070   1.757   3.972  1.3407  0.0303  0.5169
 5280SOL     OW27301   1.569   0.654   2.477 -0.2280  0.6042 -0.2595
 5280SOL    HW127302   1.663   0.647   2.460  0.5122  3.5437  2.6632
 5280SOL    HW227303   1.572   0.645   2.573 -0.0196 -1.7867 -0.4741
 5281SOL     OW27304   1.145   4.365   7.528 -0.0445  0.4988  0.5785
 5281SOL    HW127305   1.102   4.381   7.612 -2.0230 -0.6509 -0.2193
 5281SOL    HW227306   1.081   4.402   7.468 -1.1684 -1.9241  0.2761
 5282SOL     OW27307   0.832   2.701   6.397  0.0182 -0.0265  0.1904
 5282SOL    HW127308   0.827   2.639   6.325  0.2115  0.4885 -0.2718
 5282SOL    HW227309   0.876   2.773   6.351 -0.9724  0.7333  0.4077
 5283SOL     OW27310   1.301   0.814   9.807  0.1034 -0.2929 -0.4216
 5283SOL    HW127311   1.392   0.820   9.834  0.5856 -0.9902 -1.9157
 5283SOL    HW227312   1.253   0.810   9.890 -0.7969  1.0389 -0.8819
 5284SOL     OW27313   0.748   0.341   6.427 -0.1742 -0.6940 -0.1897
 5284SOL    HW127314   0.764   0.324   6.520  0.5455  0.4629 -0.1036
 5284SOL    HW227315   0.825   0.397   6.416  0.1198 -1.2053 -0.7100
 5285SOL     OW27316   2.949   2.447  13.321 -0.3737 -0.5011 -0.1526
 5285SOL    HW127317   2.904   2.411  13.397  3.3383 -0.4332  2.1066
 5285SOL    HW227318   2.881   2.461  13.255 -2.2729  1.3086  2.2406
 5286SOL     OW27319   2.533   4.180   2.031 -0.6897 -1.2853 -0.1256
 5286SOL    HW127320   2.447   4.197   2.071 -0.0356  1.4607  0.0984
 5286SOL    HW227321   2.494   4.168   1.945  1.3641 -0.6372 -1.1360
 5287SOL     OW27322   0.383   1.572  12.618  0.2322  0.4454 -0.0173
 5287SOL    HW127323   0.459   1.616  12.578 -0.8181  0.3388 -2.1410
 5287SOL    HW227324   0.401   1.486  12.579 -1.7739  1.2188 -2.6239
 5288SOL     OW27325   0.455   1.193  11.049 -0.2071 -0.4014 -0.0490
 5288SOL    HW127326   0.389   1.262  11.063  0.4614 -0.3785  3.0589
 5288SOL    HW227327   0.432   1.137  11.123 -1.0377 -0.4108 -0.3074
 5289SOL     OW27328   0.768   3.097   6.113  0.3075  0.3193  0.1873
 5289SOL    HW127329   0.838   3.156   6.085 -1.8774  1.0803 -3.7642
 5289SOL    HW227330   0.710   3.092   6.037 -0.6270  1.3194  0.8513
 5290SOL     OW27331   3.304   1.340  11.202 -0.2131 -0.1875 -0.3912
 5290SOL    HW127332   3.378   1.365  11.257 -1.3448  1.0322  0.5896
 5290SOL    HW227333   3.350   1.300  11.129 -0.3089 -0.5481 -0.2608
 5291SOL     OW27334   2.275   4.373   3.996 -0.2728 -0.2725 -0.1107
 5291SOL    HW127335   2.247   4.378   4.087  0.4169  1.1289  0.0099
 5291SOL    HW227336   2.331   4.297   4.010  0.0845 -0.0771 -0.4869
 5292SOL     OW27337   2.552   4.695   8.025 -0.2259  0.0515 -0.0249
 5292SOL    HW127338   2.497   0.000   8.098 -0.0730  2.4204 -0.8885
 5292SOL    HW227339   2.499   4.625   7.987 -2.6266  2.0530 -0.3604
 5293SOL     OW27340   2.416   4.355   5.533  0.1008  0.0423  0.5465
 5293SOL    HW127341   2.327   4.349   5.567 -0.2244  1.4304 -0.0352
 5293SOL    HW227342   2.453   4.434   5.573  2.5779 -0.9134  0.1652
 5294SOL     OW27343   1.273   1.457  10.294 -0.0157  0.3896 -0.0369
 5294SOL    HW127344   1.191   1.413  10.317 -0.7995  1.3398 -1.0585
 5294SOL    HW227345   1.233   1.543  10.281 -0.4128  0.3181  0.7474
 5295SOL     OW27346   3.101   3.619   0.357  0.5848  0.7493  0.0576
 5295SOL    HW127347   3.049   3.615   0.438  1.2522  1.3827  0.5119
 5295SOL    HW227348   3.035   3.625   0.288  1.0722 -2.8444 -0.6783
 5296SOL     OW27349   2.609   2.119   8.156 -0.7965 -0.2482 -0.2165
 5296SOL    HW127350   2.556   2.192   8.124  0.2859  1.1787  1.2102
 5296SOL    HW227351   2.630   2.070   8.077  0.7958  2.5793 -1.5554
 5297SOL     OW27352   3.110   2.284   9.778 -0.1528  0.1750  0.6627
 5297SOL    HW127353   3.173   2.325   9.838 -0.6550  2.7706 -0.5706
 5297SOL    HW227354   3.156   2.309   9.698 -1.1854 -1.5490 -0.4621
 5298SOL     OW27355   2.059   4.287  12.811 -0.8549  0.3510 -0.0523
 5298SOL    HW127356   2.076   4.378  12.836 -0.9160  1.0439 -2.5298
 5298SOL    HW227357   2.149   4.256  12.821 -0.7824 -0.0831 -2.0269
 5299SOL     OW27358   4.280   2.195   1.245  0.0895  0.3441  0.1797
 5299SOL    HW127359   4.257   2.173   1.155 -0.8049 -1.5245  0.8781
 5299SOL    HW227360   4.365   2.152   1.250 -0.3181 -0.3653  1.0638
 5300SOL     OW27361   0.177   2.254   7.904 -0.0194  0.0040  0.0693
 5300SOL    HW127362   0.214   2.290   7.985  1.1705 -1.5529  0.2183
 5300SOL    HW227363   0.248   2.198   7.872 -1.2411  0.4729 -3.3785
 5301SOL     OW27364   2.744   1.318   6.847 -0.1592 -0.0202  0.7353
 5301SOL    HW127365   2.689   1.255   6.892  2.0206 -0.9744  2.0662
 5301SOL    HW227366   2.687   1.345   6.775  0.0500  0.6241  0.8085
 5302SOL     OW27367   2.072   1.937   8.387  0.0266 -0.1566  0.1806
 5302SOL    HW127368   2.082   2.002   8.456  1.7839  0.4997 -0.6918
 5302SOL    HW227369   1.982   1.956   8.360  0.2796 -0.2689 -0.7440
 5303SOL     OW27370   3.911   0.713   2.976 -0.4083 -0.1960 -0.3035
 5303SOL    HW127371   3.938   0.784   2.917 -0.0207 -0.4124 -0.3865
 5303SOL    HW227372   3.846   0.757   3.031 -0.0944  0.0835 -0.1558
 5304SOL     OW27373   3.977   2.562   3.412  0.1950  0.4831  0.3309
 5304SOL    HW127374   3.915   2.610   3.467 -0.8815 -0.4851 -0.0377
 5304SOL    HW227375   3.939   2.551   3.324  0.8098  1.2404 -0.0333
 5305SOL     OW27376   2.300   3.257   6.632  0.0496 -0.0289  0.1125
 5305SOL    HW127377   2.366   3.274   6.565  1.4814  0.1866  1.5832
 5305SOL    HW227378   2.262   3.177   6.596 -0.5819  0.9467 -1.3879
 5306SOL     OW27379   3.686   0.677  12.721 -0.0003  0.0487  0.1209
 5306SOL    HW127380   3.654   0.652  12.634  1.5503  1.7348 -0.9512
 5306SOL    HW227381   3.637   0.621  12.781  0.2961 -1.0961 -0.7069
 5307SOL     OW27382   1.991   2.509   2.065  0.2415 -0.1477  0.3696
 5307SOL    HW127383   2.076   2.475   2.038 -0.0465  0.2586 -1.0574
 5307SOL    HW227384   2.018   2.579   2.125 -1.2770 -1.3662  2.4611
 5308SOL     OW27385   0.147   2.765   8.962 -0.1564  0.7347  0.1286
 5308SOL    HW127386   0.204   2.695   8.930 -1.1387 -1.0559  2.2648
 5308SOL    HW227387   0.203   2.823   9.013  1.4498 -0.0821 -0.7210
 5309SOL     OW27388   4.569   3.442   8.066 -0.0718 -0.6037  0.3101
 5309SOL    HW127389   4.515   3.496   8.125 -0.1910  0.3281 -0.6617
 5309SOL    HW227390   4.502   3.388   8.026  1.0815  1.2962 -4.1545
 5310SOL     OW27391   0.964   2.077   3.382 -0.4818  0.5969 -0.2167
 5310SOL    HW127392   1.041   2.078   3.325  0.0236 -1.4680  0.4225
 5310SOL    HW227393   0.896   2.055   3.319  1.2701 -2.4813 -1.0852
 5311SOL     OW27394   1.318   3.390  10.026 -0.0832 -0.3782 -0.1493
 5311SOL    HW127395   1.269   3.347  10.096 -0.7261 -1.7429 -1.4320
 5311SOL    HW227396   1.246   3.436   9.982 -1.3182 -0.4378  1.8010
 5312SOL     OW27397   1.416   0.111  14.029 -0.0689  0.3884 -0.2236
 5312SOL    HW127398   1.420   0.024  13.989 -0.7542  0.1925  0.1305
 5312SOL    HW227399   1.395   0.090  14.121 -0.8558  0.6038 -0.3533
 5313SOL     OW27400   2.542   3.876  13.462  0.0246 -0.0750  0.1918
 5313SOL    HW127401   2.576   3.875  13.372 -1.7243 -0.2201 -0.4567
 5313SOL    HW227402   2.611   3.926  13.506  0.3590  1.9009 -2.6080
 5314SOL     OW27403   1.549   4.347   1.681  0.4259  0.1324  0.1119
 5314SOL    HW127404   1.617   4.397   1.727  0.1502 -1.1631  1.9170
 5314SOL    HW227405   1.522   4.270   1.731  0.2402 -0.1895 -0.4820
 5315SOL     OW27406   1.967   4.722   5.461 -0.0682 -0.6216 -0.1190
 5315SOL    HW127407   1.917   0.070   5.497 -0.8771 -1.1050 -0.2513
 5315SOL    HW227408   1.938   4.720   5.369  0.2483 -0.3877 -0.2250
 5316SOL     OW27409   1.894   2.322   5.899  0.3122 -0.5374 -0.7982
 5316SOL    HW127410   1.910   2.245   5.952 -1.6793  0.2812  1.0078
 5316SOL    HW227411   1.882   2.282   5.813  1.1622 -0.3458 -1.0005
 5317SOL     OW27412   0.807   2.871  14.659 -0.1924  0.2994 -0.0154
 5317SOL    HW127413   0.735   2.841  14.715 -2.1597  2.6057 -1.3199
 5317SOL    HW227414   0.785   2.962  14.642  0.2171  0.2978 -0.5326
 5318SOL     OW27415   1.003   1.046   0.045 -0.4812 -0.2711  0.5352
 5318SOL    HW127416   0.927   0.989   0.031  0.4421 -1.1178 -1.0876
 5318SOL    HW227417   1.043   0.994   0.115 -2.4364 -0.5948  1.4148
 5319SOL     OW27418   0.572   3.266  17.282  0.1539  0.2161  0.1013
 5319SOL    HW127419   0.547   3.202  17.349 -0.6055  1.9014  1.4527
 5319SOL    HW227420   0.483   3.275  17.248 -1.4292  1.1449  4.3599
 5320SOL     OW27421   2.207   1.848   4.416  0.5846  0.9281 -0.7081
 5320SOL    HW127422   2.134   1.894   4.375 -1.8693 -1.7328  0.6256
 5320SOL    HW227423   2.215   1.759   4.383  0.0702 -0.4055  2.7783
 5321SOL     OW27424   2.429   3.065   2.587  0.2513  0.2411  0.4059
 5321SOL    HW127425   2.336   3.084   2.593 -0.2248 -1.0710 -2.7400
 5321SOL    HW227426   2.412   2.971   2.580  0.5097  0.0730  2.0326
 5322SOL     OW27427   3.085   4.494   4.563 -0.3923 -0.1430 -0.3263
 5322SOL    HW127428   3.112   4.568   4.619  0.1178 -0.1250 -0.5949
 5322SOL    HW227429   3.143   4.488   4.487  0.4272  0.9324  0.2086
 5323SOL     OW27430   0.909   1.173  12.814 -0.6348 -0.2356 -0.4667
 5323SOL    HW127431   0.833   1.229  12.800 -1.5217 -1.8724 -2.1084
 5323SOL    HW227432   0.947   1.223  12.886 -0.1532 -0.0487 -0.8506
 5324SOL     OW27433   4.136   0.160  14.518  0.4112 -0.5628  0.0906
 5324SOL    HW127434   4.113   0.192  14.430 -0.8891  0.8102  0.9478
 5324SOL    HW227435   4.110   0.233  14.573  4.0705  0.1232  0.9229
 5325SOL     OW27436   0.619   0.373   4.933  0.1059 -0.1890  0.1922
 5325SOL    HW127437   0.620   0.469   4.936 -0.2240 -0.2110  0.9971
 5325SOL    HW227438   0.698   0.361   4.881  0.4088 -1.7397  1.0372
 5326SOL     OW27439   4.235   1.610  15.373 -0.2806 -0.1384 -0.6310
 5326SOL    HW127440   4.276   1.674  15.314 -0.5728  0.1370 -0.5342
 5326SOL    HW227441   4.181   1.561  15.311 -0.2479  1.5690 -1.9999
 5327SOL     OW27442   1.149   1.131   8.294 -0.2224 -0.3379  0.1770
 5327SOL    HW127443   1.137   1.149   8.388  0.8091 -0.2138  0.2817
 5327SOL    HW227444   1.163   1.219   8.258 -1.7554  0.7197  2.1617
 5328SOL     OW27445   3.724   0.901  17.095 -0.1379 -0.0560 -0.7712
 5328SOL    HW127446   3.805   0.947  17.071 -1.6530  2.2653 -1.4216
 5328SOL    HW227447   3.655   0.963  17.074 -0.7620  0.1013  1.6749
 5329SOL     OW27448   0.398   0.574   7.123  0.0156 -0.3410 -0.6608
 5329SOL    HW127449   0.441   0.516   7.186  2.2584 -1.2957 -3.0834
 5329SOL    HW227450   0.329   0.619   7.173 -1.2165 -2.1942 -0.7128
 5330SOL     OW27451   4.036   3.050   1.470 -0.2611 -0.0101  0.5380
 5330SOL    HW127452   4.096   2.997   1.417 -0.2212  1.6273 -1.0948
 5330SOL    HW227453   4.104   3.099   1.517 -0.4878  0.8562 -0.0176
 5331SOL     OW27454   4.538   3.169   4.980 -0.0809 -0.2031  0.2841
 5331SOL    HW127455   4.617   3.119   4.999  0.8751  0.9961 -0.4956
 5331SOL    HW227456   4.507   3.187   5.069  1.7786  1.0344  0.6892
 5332SOL     OW27457   3.041   3.650   7.294  0.5881 -0.0244  0.2097
 5332SOL    HW127458   2.965   3.633   7.349  1.5668 -0.4307  1.4481
 5332SOL    HW227459   3.081   3.564   7.279  0.1400 -0.0938 -0.5955
 5333SOL     OW27460   4.712   4.261  14.559  0.4489 -0.1423 -0.1828
 5333SOL    HW127461   0.027   4.266  14.472  1.1586 -1.1704  0.0911
 5333SOL    HW227462   4.633   4.213  14.534  0.1196 -0.1938  0.9572
 5334SOL     OW27463   2.640   2.632   5.560 -0.0524  0.0328  0.4511
 5334SOL    HW127464   2.710   2.669   5.506  1.7796 -1.8882  1.4993
 5334SOL    HW227465   2.686   2.568   5.615 -0.0367 -0.4727 -0.1491
 5335SOL     OW27466   3.085   2.083   4.580 -0.2031 -0.1628 -0.4413
 5335SOL    HW127467   3.064   2.175   4.593  0.2976 -0.4577  2.4798
 5335SOL    HW227468   3.160   2.089   4.520 -1.4698 -0.5182 -2.0509
 5336SOL     OW27469   0.305   3.231  16.809 -0.4582  0.0930 -0.3042
 5336SOL    HW127470   0.280   3.311  16.856  0.0035 -0.1686  0.3757
 5336SOL    HW227471   0.346   3.262  16.728  0.2436 -2.7515 -1.0094
 5337SOL     OW27472   0.724   3.793   1.145  0.1767  0.2583 -0.2494
 5337SOL    HW127473   0.683   3.811   1.061 -0.4530  0.4555  0.1050
 5337SOL    HW227474   0.691   3.866   1.196 -1.9370  0.6234 -2.1238
 5338SOL     OW27475   3.590   3.516   2.511  0.0929  0.2801 -0.1690
 5338SOL    HW127476   3.675   3.491   2.475  1.0210 -1.0876  2.9563
 5338SOL    HW227477   3.573   3.599   2.466  0.2848  0.5996  0.3417
 5339SOL     OW27478   1.869   2.130   4.963 -0.3213  0.0479  0.4303
 5339SOL    HW127479   1.880   2.040   4.994 -0.0328  0.2346  0.8643
 5339SOL    HW227480   1.940   2.140   4.898 -2.1554  0.3511 -1.5317
 5340SOL     OW27481   4.175   4.043  16.083 -0.8920 -0.4766  0.2878
 5340SOL    HW127482   4.159   4.082  16.169  0.9576 -1.1424  0.9400
 5340SOL    HW227483   4.263   4.080  16.072 -1.0063 -0.5733 -0.9906
 5341SOL     OW27484   1.033   1.096  13.567  0.0810 -0.3231 -0.2202
 5341SOL    HW127485   0.953   1.118  13.614  0.0410  0.8994 -0.8679
 5341SOL    HW227486   1.090   1.167  13.597 -0.4347  0.6518 -1.5461
 5342SOL     OW27487   3.633   1.476  15.603 -0.4856  0.2375  0.0855
 5342SOL    HW127488   3.619   1.557  15.652 -1.0077 -1.0048  1.9929
 5342SOL    HW227489   3.700   1.439  15.661  0.3056  0.0213 -0.9599
 5343SOL     OW27490   1.983   3.998   8.821  0.3881  0.5758  0.0833
 5343SOL    HW127491   2.036   4.075   8.804  2.5672 -1.5462 -2.7738
 5343SOL    HW227492   1.963   4.020   8.912 -0.4713 -1.9328  0.5060
 5344SOL     OW27493   0.720   0.986   7.463  0.7166  1.0293 -0.4485
 5344SOL    HW127494   0.668   1.022   7.535  1.8770 -1.0086  1.3835
 5344SOL    HW227495   0.753   1.065   7.420 -1.2174  1.2108 -1.6043
 5345SOL     OW27496   1.623   2.339  11.884 -0.2732 -0.2022  0.2960
 5345SOL    HW127497   1.581   2.254  11.898  3.7847 -2.1901  0.5297
 5345SOL    HW227498   1.619   2.349  11.789 -0.0319 -1.8399  0.1260
 5346SOL     OW27499   1.907   0.236   9.919  0.5537  0.1535 -0.1342
 5346SOL    HW127500   1.887   0.219  10.012  0.1113  1.1831 -0.0470
 5346SOL    HW227501   1.985   0.289   9.936  0.4609  0.5884 -1.1006
 5347SOL     OW27502   3.391   2.665   5.674 -0.0003  0.2446  0.4270
 5347SOL    HW127503   3.366   2.608   5.602 -1.4939 -0.9909  1.9090
 5347SOL    HW227504   3.456   2.725   5.638  0.5908 -0.1419  0.8487
 5348SOL     OW27505   3.117   3.818   5.591 -0.8659  0.3053 -0.7962
 5348SOL    HW127506   3.208   3.836   5.570 -0.6666  0.0964 -0.1102
 5348SOL    HW227507   3.068   3.837   5.511 -0.7822 -2.6501 -1.5463
 5349SOL     OW27508   3.079   0.218   1.413  0.2622 -0.0712 -0.1556
 5349SOL    HW127509   3.018   0.214   1.340  1.7416  1.2962 -1.4479
 5349SOL    HW227510   3.133   0.142   1.389 -1.1946 -1.4815  0.9581
 5350SOL     OW27511   3.315   3.497   0.424  0.4639 -0.0076 -0.7063
 5350SOL    HW127512   3.236   3.549   0.417  1.0096  1.2081  2.0819
 5350SOL    HW227513   3.269   3.416   0.403 -1.9701  0.6694  2.0170
 5351SOL     OW27514   0.794   2.710  11.920  0.0959  0.0550 -0.4723
 5351SOL    HW127515   0.824   2.619  11.919  1.7727  0.6250 -1.8784
 5351SOL    HW227516   0.743   2.715  11.839  1.9311 -1.4436 -1.7169
 5352SOL     OW27517   2.916   4.389   2.247  0.1019  0.0055  0.0533
 5352SOL    HW127518   2.843   4.330   2.228  0.0809 -0.4655  1.6207
 5352SOL    HW227519   2.865   4.470   2.245 -0.5439 -0.4371 -1.6586
 5353SOL     OW27520   0.813   1.068   1.530 -0.2080 -0.8237  0.0134
 5353SOL    HW127521   0.819   0.995   1.468  1.2450  0.1947 -1.0509
 5353SOL    HW227522   0.810   1.137   1.464  1.3052  1.1458  1.9898
 5354SOL     OW27523   2.063   2.174   0.851  0.2951 -0.6057 -0.3140
 5354SOL    HW127524   2.075   2.113   0.779  1.0087  0.4116 -1.0607
 5354SOL    HW227525   1.969   2.190   0.866  0.7281  1.8374 -0.2098
 5355SOL     OW27526   1.812   3.455   9.579 -0.4310  0.0813  0.1751
 5355SOL    HW127527   1.741   3.461   9.643 -0.5171  0.6780  0.0277
 5355SOL    HW227528   1.877   3.399   9.622 -1.3897 -1.9427 -0.9906
 5356SOL     OW27529   1.811   0.349   5.654  0.6010  0.9293 -0.5982
 5356SOL    HW127530   1.857   0.396   5.584 -1.0047  1.0506 -1.5976
 5356SOL    HW227531   1.719   0.340   5.625  0.3447  0.0105  0.5014
 5357SOL     OW27532   0.849   3.558  12.557 -0.4492 -0.0923 -0.0594
 5357SOL    HW127533   0.877   3.615  12.485 -0.2515 -0.6936 -0.4674
 5357SOL    HW227534   0.775   3.607  12.592  0.4578  0.4536  1.0648
 5358SOL     OW27535   0.155   1.056  15.195  0.4912 -0.1470 -0.1150
 5358SOL    HW127536   0.218   0.988  15.219  0.8037 -0.5885 -2.2037
 5358SOL    HW227537   0.194   1.085  15.112  0.7514 -0.1399  0.0103
 5359SOL     OW27538   1.735   4.059   9.196  0.3527  0.4680  0.2658
 5359SOL    HW127539   1.726   4.065   9.291  0.4648  3.0946  0.1309
 5359SOL    HW227540   1.770   3.972   9.179  0.4044  0.6468 -0.5643
 5360SOL     OW27541   3.244   0.711   4.830 -0.5461 -0.4697  0.0041
 5360SOL    HW127542   3.191   0.790   4.841  0.9332  0.5951 -0.4770
 5360SOL    HW227543   3.317   0.729   4.772 -1.1220  0.7546 -0.3416
 5361SOL     OW27544   1.858   4.694   5.202  0.0105  0.3808  0.6863
 5361SOL    HW127545   1.904   0.012   5.130 -0.7418 -1.6085 -1.0086
 5361SOL    HW227546   1.800   4.642   5.146 -0.3038  1.0208  0.4193
 5362SOL     OW27547   1.172   2.245  16.198  0.2841 -0.1799 -0.1709
 5362SOL    HW127548   1.092   2.205  16.166 -0.0657  1.5693 -1.4852
 5362SOL    HW227549   1.216   2.243  16.113  0.1843 -2.4979 -0.1500
 5363SOL     OW27550   4.197   3.218  12.444 -0.2008 -0.3896  0.5135
 5363SOL    HW127551   4.166   3.202  12.534  2.0776  0.3348  1.4299
 5363SOL    HW227552   4.116   3.218  12.393  1.0567 -1.6540 -1.4894
 5364SOL     OW27553   4.408   1.591   3.279  0.3233 -0.0468 -0.6654
 5364SOL    HW127554   4.479   1.646   3.244  0.8385  0.5676  1.3407
 5364SOL    HW227555   4.434   1.501   3.261  1.2942 -0.0542  0.7780
 5365SOL     OW27556   1.777   1.015   1.666 -0.1589 -0.6465  0.0017
 5365SOL    HW127557   1.872   1.009   1.665 -0.1757 -0.9927  0.4448
 5365SOL    HW227558   1.761   1.099   1.709  0.9042  0.9144 -2.6278
 5366SOL     OW27559   3.619   3.671   2.097 -0.0162  0.3282 -0.1748
 5366SOL    HW127560   3.589   3.707   2.014 -2.0948  0.7227  0.7433
 5366SOL    HW227561   3.710   3.644   2.083  0.3391  1.5084 -0.1733
 5367SOL     OW27562   2.680   2.967   2.187  0.1926  0.2955  0.1684
 5367SOL    HW127563   2.656   2.914   2.111 -0.4368 -1.9734  1.9436
 5367SOL    HW227564   2.669   3.056   2.152 -0.8675  0.7683  1.6909
 5368SOL     OW27565   3.314   2.608   8.073  0.1692 -0.2996  0.2770
 5368SOL    HW127566   3.242   2.614   8.011  0.4343  1.7607  0.1512
 5368SOL    HW227567   3.371   2.553   8.019  3.4354  0.2619  3.0837
 5369SOL     OW27568   0.407   3.884   4.581  0.1899  0.4119 -0.1054
 5369SOL    HW127569   0.467   3.813   4.605 -0.9338 -0.4715  0.0598
 5369SOL    HW227570   0.332   3.840   4.542  1.6873 -1.9952 -0.2724
 5370SOL     OW27571   2.912   3.452   9.504 -0.2168  0.2995  0.4133
 5370SOL    HW127572   2.940   3.431   9.593  2.9661  0.3006 -0.5986
 5370SOL    HW227573   2.986   3.476   9.449  1.1756 -0.4042  1.9978
 5371SOL     OW27574   0.454   2.835   7.662 -0.1068  0.5168 -0.2804
 5371SOL    HW127575   0.426   2.925   7.677 -3.1507 -0.4610 -0.0989
 5371SOL    HW227576   0.423   2.819   7.572  1.0236 -1.6072 -0.3000
 5372SOL     OW27577   3.490   3.220   9.273 -0.8439  0.9303 -0.1611
 5372SOL    HW127578   3.537   3.191   9.351 -0.4532  0.5133 -0.5464
 5372SOL    HW227579   3.519   3.159   9.205 -1.4053 -0.3357  0.7399
 5373SOL     OW27580   4.475   1.521   9.498  0.0435  0.3162  0.0496
 5373SOL    HW127581   4.548   1.526   9.436  0.9098 -2.8861  0.8125
 5373SOL    HW227582   4.495   1.431   9.523  0.2775  0.3716  0.0577
 5374SOL     OW27583   1.300   1.227   2.707 -0.2764 -0.3051 -1.2906
 5374SOL    HW127584   1.354   1.304   2.726 -1.1748  0.4913 -2.0083
 5374SOL    HW227585   1.314   1.214   2.614  0.6018  0.8419 -1.3183
 5375SOL     OW27586   1.439   0.972  17.637 -0.4169 -0.2172 -0.1123
 5375SOL    HW127587   1.380   1.046  17.619 -2.6454 -2.0379 -0.2845
 5375SOL    HW227588   1.468   0.975   0.026 -0.1157 -1.2064 -0.1784
 5376SOL     OW27589   1.943   3.980  14.319 -0.9318  0.5737  0.2270
 5376SOL    HW127590   1.946   4.014  14.230 -1.9018  0.6471  0.2220
 5376SOL    HW227591   1.860   4.019  14.346  0.3917  1.4876  2.9309
 5377SOL     OW27592   1.944   0.412   4.598  0.1838 -0.5674  0.0653
 5377SOL    HW127593   1.867   0.358   4.618  0.9189 -0.9703  1.8239
 5377SOL    HW227594   1.980   0.396   4.685  2.9544  2.4396 -0.5242
 5378SOL     OW27595   0.591   2.568   5.240 -0.9397 -0.1246  0.1165
 5378SOL    HW127596   0.519   2.508   5.259 -0.2467 -1.1676 -0.5492
 5378SOL    HW227597   0.614   2.609   5.324 -1.2167 -1.5010  0.8694
 5379SOL     OW27598   0.705   0.072   1.362 -0.5195  0.3031  0.0218
 5379SOL    HW127599   0.708   4.712   1.406  1.4289  0.3793  0.0476
 5379SOL    HW227600   0.796   0.086   1.334 -0.1075  0.1973  1.3305
 5380SOL     OW27601   4.334   0.444  17.382 -0.3206  0.6523  0.2165
 5380SOL    HW127602   4.293   0.500  17.447 -1.0474  1.1634 -0.6901
 5380SOL    HW227603   4.286   0.362  17.398  2.1391 -1.2651 -2.1255
 5381SOL     OW27604   3.207   3.324   7.663  0.0766  0.6473  0.1432
 5381SOL    HW127605   3.192   3.274   7.583 -1.4871 -1.7466  1.9605
 5381SOL    HW227606   3.286   3.279   7.692  0.4409 -1.2477 -3.7572
 5382SOL     OW27607   4.022   1.458   2.008  0.0145 -0.1739 -0.8627
 5382SOL    HW127608   4.112   1.437   1.983  0.3374 -1.0860  1.0455
 5382SOL    HW227609   3.988   1.447   1.919  2.3050 -0.0071 -1.7643
 5383SOL     OW27610   3.786   4.320   4.586  0.7906  0.2950  0.2767
 5383SOL    HW127611   3.725   4.380   4.542 -0.8524 -1.6653 -0.1298
 5383SOL    HW227612   3.729   4.243   4.583  0.2877  0.6008  2.5457
 5384SOL     OW27613   2.681   1.487   2.258 -0.4011 -0.0507  0.3436
 5384SOL    HW127614   2.767   1.512   2.225  0.0762 -1.7347  0.3251
 5384SOL    HW227615   2.698   1.405   2.304 -4.1829 -0.2611  1.3410
 5385SOL     OW27616   0.426   3.450   7.979  0.0804 -0.1442  0.1124
 5385SOL    HW127617   0.350   3.395   8.000  1.0390 -0.8713  1.6681
 5385SOL    HW227618   0.451   3.430   7.889  0.7289  0.4704  0.1555
 5386SOL     OW27619   1.851   4.078  12.887 -0.1655 -0.0301  0.3321
 5386SOL    HW127620   1.906   4.150  12.854  0.1543 -1.2329 -1.7712
 5386SOL    HW227621   1.867   4.006  12.826 -1.9243  1.6488 -2.1469
 5387SOL     OW27622   0.118   0.152  16.447  0.1223  0.1100 -0.0235
 5387SOL    HW127623   0.101   0.067  16.488  0.4640 -0.5542 -1.2416
 5387SOL    HW227624   0.149   0.198  16.525 -0.1060  2.2270 -1.1908
 5388SOL     OW27625   2.744   2.120   7.272 -0.0892  0.3990  0.1743
 5388SOL    HW127626   2.684   2.129   7.347  0.7706 -0.7200  1.0006
 5388SOL    HW227627   2.684   2.127   7.198  0.3128  1.2335 -0.0730
 5389SOL     OW27628   2.171   0.359   9.579  0.3442 -0.4488 -0.0941
 5389SOL    HW127629   2.238   0.292   9.562  0.3831 -0.1464 -1.1316
 5389SOL    HW227630   2.192   0.414   9.504  0.2188 -0.6127 -0.2508
 5390SOL     OW27631   1.582   1.913   4.294 -0.0461 -0.5546  0.4593
 5390SOL    HW127632   1.649   1.846   4.281  1.6116  1.5410 -1.6424
 5390SOL    HW227633   1.610   1.988   4.242 -0.2370  0.2754  1.5501
 5391SOL     OW27634   3.771   1.022  12.759  0.2841  0.6810  0.1803
 5391SOL    HW127635   3.774   0.997  12.666 -1.3410  0.2505  0.2368
 5391SOL    HW227636   3.768   1.117  12.762  2.0857  0.6824  1.6090
 5392SOL     OW27637   0.657   0.258   7.030  0.1696 -0.0041 -0.5034
 5392SOL    HW127638   0.703   0.270   6.948  0.7713  1.2045  0.0144
 5392SOL    HW227639   0.723   0.197   7.064 -0.0946 -0.4892 -0.8666
 5393SOL     OW27640   4.018   2.252   6.818  0.1632 -0.4711 -0.1523
 5393SOL    HW127641   4.022   2.347   6.828 -3.1715 -0.3761  0.3327
 5393SOL    HW227642   4.021   2.226   6.910 -3.4113  0.1932  0.1478
 5394SOL     OW27643   1.087   0.275   6.507  0.3439 -0.0080  0.0618
 5394SOL    HW127644   1.074   0.342   6.440  3.0295  0.3892 -0.0448
 5394SOL    HW227645   1.082   0.328   6.587  0.2844 -1.3613  0.9561
 5395SOL     OW27646   1.272   2.122  16.454 -0.3489 -0.4331  0.4973
 5395SOL    HW127647   1.301   2.036  16.424  1.0662  1.1319 -2.6578
 5395SOL    HW227648   1.265   2.169  16.371 -0.4219  0.5265  1.0493
 5396SOL     OW27649   3.763   3.190   7.063 -0.5008 -0.4253 -0.1974
 5396SOL    HW127650   3.856   3.194   7.084 -0.3746  0.8018 -0.9557
 5396SOL    HW227651   3.760   3.100   7.031 -0.4687  0.9988 -4.3515
 5397SOL     OW27652   4.294   2.361  10.605  0.0855  0.0546 -0.3230
 5397SOL    HW127653   4.291   2.306  10.683 -1.1835 -0.4088 -0.6978
 5397SOL    HW227654   4.345   2.437  10.632  0.5014  0.0520 -1.1030
 5398SOL     OW27655   1.518   0.992   1.704  0.3255 -0.2909  0.7070
 5398SOL    HW127656   1.609   0.996   1.676  0.3248 -1.7808  0.4724
 5398SOL    HW227657   1.526   0.950   1.790 -2.6132  0.0058  1.1334
 5399SOL     OW27658   2.395   3.197   5.780 -0.0139 -0.4799 -0.0748
 5399SOL    HW127659   2.458   3.187   5.709  0.9858  2.1083  0.4336
 5399SOL    HW227660   2.436   3.143   5.847 -0.4035  0.2726  0.7710
 5400SOL     OW27661   0.028   0.481   2.494 -0.0952  0.4059 -0.2683
 5400SOL    HW127662   0.073   0.553   2.451  0.8918 -0.8436 -1.3379
 5400SOL    HW227663   0.071   0.465   2.579  1.1996 -0.8891 -1.1581
 5401SOL     OW27664   2.525   3.582   7.361  0.8499  0.1717  0.4115
 5401SOL    HW127665   2.436   3.604   7.333  0.4562  1.1641  2.4884
 5401SOL    HW227666   2.527   3.636   7.439  1.2385  1.6324 -0.6061
 5402SOL     OW27667   2.377   0.279   4.985 -0.0884 -0.6420  0.0582
 5402SOL    HW127668   2.425   0.331   4.920 -3.5903  0.7838 -1.3715
 5402SOL    HW227669   2.438   0.208   5.005 -0.0892 -0.5268  0.4568
 5403SOL     OW27670   2.450   3.540   5.735 -0.1176 -0.2840  0.2818
 5403SOL    HW127671   2.527   3.508   5.781  0.0970  1.5944  1.2565
 5403SOL    HW227672   2.377   3.481   5.755 -0.6463  0.6309  1.0832
 5404SOL     OW27673   0.636   3.426  17.654 -0.5311  0.7827 -0.0834
 5404SOL    HW127674   0.705   3.408   0.017 -0.5146 -2.8191 -1.1109
 5404SOL    HW227675   0.579   3.349  17.659  0.7487 -0.1241  0.4975
 5405SOL     OW27676   1.700   0.920  10.978  0.0409 -0.0261 -0.1905
 5405SOL    HW127677   1.714   0.950  10.888  0.7604 -0.3946 -0.1978
 5405SOL    HW227678   1.629   0.863  10.949 -1.4111  1.5543  0.2449
 5406SOL     OW27679   2.446   0.485  14.864 -0.3059 -0.4447  0.6884
 5406SOL    HW127680   2.466   0.393  14.881 -1.5652 -0.7083  0.7861
 5406SOL    HW227681   2.372   0.479  14.803  0.6734 -0.0989 -0.5287
 5407SOL     OW27682   2.900   1.967  14.741 -0.1693  0.0170 -0.2519
 5407SOL    HW127683   2.981   2.017  14.747 -0.3187  0.1799  0.4711
 5407SOL    HW227684   2.838   2.036  14.716 -1.9324 -0.4391  2.7616
 5408SOL     OW27685   2.067   3.207  10.124 -0.1147  0.3539  0.3042
 5408SOL    HW127686   2.145   3.152  10.119  0.7817  1.5101  1.6736
 5408SOL    HW227687   2.022   3.214  10.039  0.7431  0.3579 -0.1492
 5409SOL     OW27688   0.994   4.127   1.708 -0.1509  0.0821  0.2001
 5409SOL    HW127689   1.048   4.055   1.741 -1.6760 -1.4429 -0.5900
 5409SOL    HW227690   1.069   4.185   1.697  0.4595 -0.7341  0.0664
 5410SOL     OW27691   1.755   1.369   4.262 -0.0649 -0.3242 -0.0644
 5410SOL    HW127692   1.801   1.329   4.189 -1.3297  0.5068 -1.3099
 5410SOL    HW227693   1.794   1.333   4.342 -2.1492  0.5911  1.3536
 5411SOL     OW27694   2.592   4.531   9.804  1.1896  0.1150 -0.6463
 5411SOL    HW127695   2.686   4.523   9.818  0.7679 -2.3660  0.7154
 5411SOL    HW227696   2.566   4.458   9.861 -0.6333  1.7371  0.5952
 5412SOL     OW27697   2.606   4.463  17.353 -0.0967  0.0908 -0.7886
 5412SOL    HW127698   2.658   4.437  17.429 -0.2034 -0.7771 -1.0158
 5412SOL    HW227699   2.526   4.411  17.360 -0.2096  0.1775 -1.4476
 5413SOL     OW27700   3.897   3.692  12.971  0.8804 -0.3641 -0.3715
 5413SOL    HW127701   3.846   3.623  13.014 -0.5253  2.5440  2.6407
 5413SOL    HW227702   3.832   3.741  12.920  0.9538  1.1470  0.9969
 5414SOL     OW27703   0.242   1.243  17.118 -0.5904  0.1768 -0.5634
 5414SOL    HW127704   0.309   1.176  17.126 -0.8469 -0.1478 -1.1371
 5414SOL    HW227705   0.248   1.274  17.209  1.7316  1.0819 -1.0312
 5415SOL     OW27706   3.561   0.414   6.969 -0.9213  0.2386 -0.3934
 5415SOL    HW127707   3.594   0.408   6.880 -0.4881 -1.6926 -0.0942
 5415SOL    HW227708   3.467   0.429   6.960 -1.3508 -2.8684 -0.9047
 5416SOL     OW27709   0.658   3.139  14.423 -0.7267 -0.1420 -0.0298
 5416SOL    HW127710   0.599   3.204  14.386 -1.4345 -0.0108  1.3252
 5416SOL    HW227711   0.666   3.076  14.352 -3.9210 -0.0140 -0.4878
 5417SOL     OW27712   0.342   0.716   4.251  0.6694  0.1395 -0.0940
 5417SOL    HW127713   0.364   0.731   4.343 -1.8877 -1.1959  0.7268
 5417SOL    HW227714   0.400   0.780   4.209 -0.1838  0.6973 -0.4298
 5418SOL     OW27715   0.731   3.362   3.070  0.1437  0.4752 -0.7470
 5418SOL    HW127716   0.773   3.350   2.985  1.1853 -0.9993 -0.0221
 5418SOL    HW227717   0.668   3.430   3.045 -3.8494 -1.7854  3.3795
 5419SOL     OW27718   0.543   2.873  14.889 -0.1344  0.7364 -0.0373
 5419SOL    HW127719   0.627   2.889  14.932  0.6876  2.2945 -2.1940
 5419SOL    HW227720   0.496   2.953  14.915  0.9815  0.9956  1.1846
 5420SOL     OW27721   3.875   4.350   8.154  0.8372 -0.1555  0.4416
 5420SOL    HW127722   3.870   4.357   8.059  2.2166  0.5076  0.4010
 5420SOL    HW227723   3.863   4.256   8.165  0.2958 -0.0262  0.9707
 5421SOL     OW27724   3.175   1.063  11.177  0.3400  0.4292 -0.2853
 5421SOL    HW127725   3.228   1.044  11.099  1.2740 -0.1976  0.4875
 5421SOL    HW227726   3.117   1.125  11.134 -0.4254 -0.9690 -1.2836
 5422SOL     OW27727   0.238   2.538   6.849  0.1909 -0.2746  0.0965
 5422SOL    HW127728   0.160   2.486   6.828 -0.4914  1.2050 -1.0690
 5422SOL    HW227729   0.283   2.490   6.918 -0.5778  0.9024  1.4183
 5423SOL     OW27730   4.687   1.653   7.382  0.1849  0.3613  0.2828
 5423SOL    HW127731   4.707   1.746   7.369  0.4846  0.4163  1.1122
 5423SOL    HW227732   4.608   1.646   7.328  1.3159 -1.4117 -1.1639
 5424SOL     OW27733   4.006   3.602   7.181  0.0113 -0.1800 -0.0102
 5424SOL    HW127734   4.040   3.554   7.105  0.9948  1.0177 -0.3367
 5424SOL    HW227735   4.053   3.562   7.255 -0.8104 -0.3817  0.3965
 5425SOL     OW27736   0.716   0.830   1.795  0.4047 -0.1213 -0.4026
 5425SOL    HW127737   0.629   0.866   1.811 -0.3774 -0.8097 -2.9749
 5425SOL    HW227738   0.746   0.842   1.885  1.2115  0.8962 -0.7993
 5426SOL     OW27739   1.316   2.197   5.311 -0.6151  0.0087  0.4793
 5426SOL    HW127740   1.365   2.115   5.299 -0.0919  0.4365 -0.3378
 5426SOL    HW227741   1.330   2.225   5.402 -0.9608  0.9418  0.2395
 5427SOL     OW27742   0.086   1.691   0.199 -0.7176  0.2752  0.8614
 5427SOL    HW127743   0.093   1.782   0.227 -1.0057  0.3695  0.6371
 5427SOL    HW227744   0.123   1.692   0.110 -0.1777  0.6085  1.0921
 5428SOL     OW27745   2.463   1.153  16.601 -0.0498 -0.6302 -0.4343
 5428SOL    HW127746   2.432   1.119  16.684  1.2613 -0.0268  0.3078
 5428SOL    HW227747   2.547   1.188  16.632 -0.7519  1.0702 -0.4267
 5429SOL     OW27748   3.306   3.916   9.262  0.2552  0.2878  0.0895
 5429SOL    HW127749   3.272   3.876   9.182 -1.0788  2.2821 -0.3672
 5429SOL    HW227750   3.369   3.982   9.233 -0.1286  0.2558 -0.8105
 5430SOL     OW27751   0.226   3.416  13.868 -0.2650 -0.0067  0.1413
 5430SOL    HW127752   0.162   3.478  13.903 -0.7726 -1.1944  1.3243
 5430SOL    HW227753   0.175   3.335  13.872 -0.6283  0.2444  0.5333
 5431SOL     OW27754   2.341   2.216   8.381  0.0494 -0.1865 -0.6290
 5431SOL    HW127755   2.431   2.244   8.393  0.2868 -1.3186  0.1923
 5431SOL    HW227756   2.353   2.121   8.388  0.7178 -0.0644 -0.1256
 5432SOL     OW27757   0.948   4.405   7.323  0.2900 -0.0528  0.2388
 5432SOL    HW127758   0.945   4.496   7.293 -0.6962 -0.4275 -0.8103
 5432SOL    HW227759   0.922   4.366   7.239  1.7559  0.3821 -0.3993
 5433SOL     OW27760   0.485   0.907  16.674 -0.6897 -0.3552 -0.2185
 5433SOL    HW127761   0.552   0.896  16.608  0.5135  1.4339  0.6985
 5433SOL    HW227762   0.448   0.987  16.635 -0.2363  0.0232  0.1261
 5434SOL     OW27763   3.013   0.434   4.594  0.0018 -0.1501 -0.4739
 5434SOL    HW127764   3.107   0.452   4.592  0.9252 -5.2689 -1.5956
 5434SOL    HW227765   3.001   0.468   4.683 -2.9503  0.0925 -0.9600
 5435SOL     OW27766   0.100   4.237  15.767  0.5896 -0.2576 -0.3957
 5435SOL    HW127767   0.075   4.205  15.854 -2.3629 -0.8597 -1.4529
 5435SOL    HW227768   0.182   4.282  15.786 -0.2815  1.4642 -0.7644
 5436SOL     OW27769   2.059   3.368  13.847 -0.4777 -0.1231  0.5449
 5436SOL    HW127770   2.028   3.447  13.893  0.6366 -0.8085  2.4772
 5436SOL    HW227771   2.014   3.305  13.904  0.8457 -1.9232 -0.4179
 5437SOL     OW27772   3.799   2.329  12.712  0.5780  0.1304  0.4060
 5437SOL    HW127773   3.758   2.272  12.777  0.7571  0.5316  0.8708
 5437SOL    HW227774   3.826   2.398  12.773 -1.5080 -0.4032  1.9581
 5438SOL     OW27775   4.551   2.335   7.293  0.3822 -0.5724  0.6880
 5438SOL    HW127776   4.606   2.355   7.217  2.4954 -1.1430  2.0553
 5438SOL    HW227777   4.615   2.351   7.363  1.4468 -2.3268  0.1117
 5439SOL     OW27778   4.479   0.218   2.373  0.1934 -0.2444 -0.3148
 5439SOL    HW127779   4.458   0.275   2.446  2.4584  1.7530 -1.2264
 5439SOL    HW227780   4.489   0.292   2.313 -1.9554  0.5641  0.3349
 5440SOL     OW27781   0.900   2.560  14.290 -0.2989 -0.2881  0.0444
 5440SOL    HW127782   0.989   2.556  14.326  0.5233 -0.8815 -2.0822
 5440SOL    HW227783   0.865   2.629  14.347  0.1619  0.9445 -1.1659
 5441SOL     OW27784   3.743   3.353   0.195 -0.5619 -0.6552  0.1478
 5441SOL    HW127785   3.652   3.385   0.198 -0.9598 -1.9914  2.2184
 5441SOL    HW227786   3.738   3.258   0.204 -2.2955 -0.7209 -1.4961
 5442SOL     OW27787   3.683   4.710  15.016  0.0423 -0.1878 -0.1353
 5442SOL    HW127788   3.602   4.712  15.067 -0.0775 -2.6798 -0.2213
 5442SOL    HW227789   3.655   0.008  14.927 -3.1422  1.3192  1.2487
 5443SOL     OW27790   3.208   2.038   8.485 -0.8086 -0.1444 -0.5335
 5443SOL    HW127791   3.304   2.044   8.487 -0.7818 -0.6131 -0.3949
 5443SOL    HW227792   3.181   2.010   8.572 -0.6208 -0.2847 -0.5190
 5444SOL     OW27793   3.063   3.545   5.330  0.3625 -0.3416  0.0913
 5444SOL    HW127794   3.145   3.556   5.281 -0.4729 -0.2307 -1.2924
 5444SOL    HW227795   3.083   3.596   5.408  0.2230 -3.5610  2.2114
 5445SOL     OW27796   3.937   1.068  14.776 -0.3882  0.9197 -0.4028
 5445SOL    HW127797   3.879   0.993  14.789  0.5215  0.5986  1.7214
 5445SOL    HW227798   3.882   1.131  14.823  1.1335  1.3846  0.7339
 5446SOL     OW27799   2.784   2.489  12.029  0.1577  0.1230 -0.4269
 5446SOL    HW127800   2.876   2.472  12.049 -0.4897 -1.8640  0.8237
 5446SOL    HW227801   2.783   2.576  11.987 -1.6572  1.1701  1.7873
 5447SOL     OW27802   3.630   0.459   2.658 -0.6793 -0.0005  0.3422
 5447SOL    HW127803   3.651   0.437   2.749  0.5548  1.5522  0.4300
 5447SOL    HW227804   3.629   0.553   2.674  2.5160  0.3223 -1.2958
 5448SOL     OW27805   1.281   1.363   7.186  0.6836 -0.0610  0.3898
 5448SOL    HW127806   1.347   1.417   7.143  2.2379  0.0406  2.8596
 5448SOL    HW227807   1.330   1.301   7.241  1.1805  0.0673  0.0925
 5449SOL     OW27808   1.188   3.978   1.823 -1.0443  0.0892  0.3844
 5449SOL    HW127809   1.258   4.042   1.811 -1.2534  0.2692  0.0967
 5449SOL    HW227810   1.232   3.899   1.792 -2.1206  0.2840 -1.6377
 5450SOL     OW27811   3.310   2.536   3.829  0.4000 -0.5008 -0.7079
 5450SOL    HW127812   3.324   2.473   3.758 -0.1748  1.7295 -2.7723
 5450SOL    HW227813   3.332   2.619   3.787 -1.3835  1.3280  1.9439
 5451SOL     OW27814   3.962   0.388   5.264  0.0867 -0.2477  0.5780
 5451SOL    HW127815   4.045   0.389   5.311  0.5040 -0.3416 -0.1459
 5451SOL    HW227816   3.964   0.470   5.214 -0.2790 -0.6175 -0.0533
 5452SOL     OW27817   0.133   1.104   2.148 -0.0499 -0.2315 -0.6869
 5452SOL    HW127818   0.151   1.010   2.143 -0.6486 -0.4185  0.5599
 5452SOL    HW227819   0.177   1.114   2.233 -0.1106 -1.2586 -0.5357
 5453SOL     OW27820   4.371   3.792   7.114  0.3881 -0.3732 -0.3502
 5453SOL    HW127821   4.305   3.819   7.050 -1.2687  0.3931  1.6874
 5453SOL    HW227822   4.350   3.866   7.171  0.8535  0.2060 -0.9387
 5454SOL     OW27823   1.802   1.082  10.503 -0.7133 -0.6600  0.7963
 5454SOL    HW127824   1.789   1.003  10.450 -0.1851  0.0445 -0.3658
 5454SOL    HW227825   1.774   1.047  10.588 -2.5726 -3.9709 -1.1701
 5455SOL     OW27826   1.018   2.876   3.385 -0.0336 -0.1709 -0.3749
 5455SOL    HW127827   1.072   2.811   3.430  0.5077  0.4158 -0.1859
 5455SOL    HW227828   0.985   2.825   3.311 -0.2594 -0.9612  0.2677
 5456SOL     OW27829   3.367   2.052   8.787 -0.4590 -0.0977  0.2755
 5456SOL    HW127830   3.375   2.147   8.788  1.5310 -0.2684  0.5497
 5456SOL    HW227831   3.409   2.031   8.703  0.3826  2.7887 -0.0197
 5457SOL     OW27832   1.868   3.537   5.377 -0.3687  0.1271  0.6727
 5457SOL    HW127833   1.774   3.542   5.395 -0.9982 -0.6153 -2.4242
 5457SOL    HW227834   1.877   3.462   5.318 -1.5304  2.1739 -2.1168
 5458SOL     OW27835   0.606   2.959   0.607  0.0296  0.2357 -0.0424
 5458SOL    HW127836   0.662   2.989   0.679 -0.3679 -1.9711  1.1725
 5458SOL    HW227837   0.668   2.961   0.534 -0.0940 -0.1016 -0.1540
 5459SOL     OW27838   1.123   1.780   3.216  0.2444  0.1776  0.1695
 5459SOL    HW127839   1.165   1.865   3.228  0.5717 -0.0350  0.5116
 5459SOL    HW227840   1.139   1.741   3.302  3.7311 -2.0642 -1.4715
 5460SOL     OW27841   2.299   0.675   5.352  0.2029  0.3196 -0.2758
 5460SOL    HW127842   2.256   0.759   5.367  1.0938  0.2267  2.8460
 5460SOL    HW227843   2.331   0.664   5.441  1.5499  0.6222 -0.7255
 5461SOL     OW27844   0.786   3.521   1.085  0.5068 -0.2042  0.0906
 5461SOL    HW127845   0.714   3.549   1.028  0.8443 -0.9298 -0.6985
 5461SOL    HW227846   0.864   3.521   1.030  0.5484  0.2094  0.1486
 5462SOL     OW27847   0.685   0.125   0.540 -0.3156 -0.4849 -0.1269
 5462SOL    HW127848   0.668   0.083   0.624  1.4602  0.8807  0.8984
 5462SOL    HW227849   0.755   0.070   0.505 -1.2348 -1.2756 -0.7317
 5463SOL     OW27850   3.266   3.018   5.203  0.2221  0.8934 -0.3181
 5463SOL    HW127851   3.315   2.940   5.229  1.4509  0.4660 -3.9182
 5463SOL    HW227852   3.195   3.012   5.266 -0.8048 -2.3711 -1.8006
 5464SOL     OW27853   1.053   4.679  16.303 -0.7897 -0.7365  0.6489
 5464SOL    HW127854   1.005   4.637  16.374  0.8277 -5.6216 -1.1779
 5464SOL    HW227855   1.003   4.652  16.226  0.8205  1.6728 -1.2622
 5465SOL     OW27856   4.565   2.088   3.208  0.6301  0.4931  0.9167
 5465SOL    HW127857   4.497   2.041   3.256  1.4695 -0.9742  0.6647
 5465SOL    HW227858   4.627   2.016   3.199 -0.4403 -0.3319  0.2267
 5466SOL     OW27859   1.485   1.355   0.405  1.1271  0.2955 -0.1580
 5466SOL    HW127860   1.453   1.423   0.346  0.9987  1.4746  1.2730
 5466SOL    HW227861   1.499   1.405   0.485  2.1581  0.7603 -0.6259
 5467SOL     OW27862   3.830   2.375   7.962 -0.2676 -0.2641 -0.1305
 5467SOL    HW127863   3.774   2.357   8.037 -0.5941  1.4489  0.0425
 5467SOL    HW227864   3.915   2.348   7.997 -1.4255 -4.4093 -0.5644
 5468SOL     OW27865   3.903   2.545   3.138 -0.4667 -0.1424 -0.3753
 5468SOL    HW127866   3.841   2.612   3.167  3.2346  3.8771 -1.6854
 5468SOL    HW227867   3.841   2.472   3.138  0.4025 -0.8911  1.5054
 5469SOL     OW27868   3.348   0.225   3.367 -0.1519  0.2656  0.7395
 5469SOL    HW127869   3.420   0.288   3.371 -0.3397  0.4748  0.8754
 5469SOL    HW227870   3.272   0.284   3.376 -0.3422 -0.0694  1.3283
 5470SOL     OW27871   3.282   3.918   1.907  0.1689 -0.0281  0.5061
 5470SOL    HW127872   3.266   3.854   1.977  1.4170 -0.7819  0.0947
 5470SOL    HW227873   3.209   3.902   1.847 -0.2098  3.1982  0.1164
 5471SOL     OW27874   1.013   0.431   7.423 -0.6200 -0.5836 -0.2245
 5471SOL    HW127875   1.105   0.448   7.401 -0.8146  1.5819  0.6362
 5471SOL    HW227876   1.021   0.372   7.498 -2.0190  0.3086  0.6260
 5472SOL     OW27877   0.889   0.049  12.416  0.2794  0.3202  0.4226
 5472SOL    HW127878   0.823   0.029  12.482 -1.4997  1.4304 -1.0005
 5472SOL    HW227879   0.909   0.142  12.429  0.7278 -0.1580  3.1170
 5473SOL     OW27880   0.383   3.684  11.674 -0.5255 -0.2175  0.3264
 5473SOL    HW127881   0.351   3.774  11.682 -1.5383 -0.6462  1.1848
 5473SOL    HW227882   0.431   3.679  11.591 -0.2263 -1.4404  0.5756
 5474SOL     OW27883   0.873   1.087   2.633 -0.2850 -0.5009  0.6098
 5474SOL    HW127884   0.801   1.024   2.637 -1.6817  1.1268  0.9341
 5474SOL    HW227885   0.838   1.159   2.687  2.1586  0.9115  0.3044
 5475SOL     OW27886   2.571   3.303   9.608  0.1327  0.4245 -0.0033
 5475SOL    HW127887   2.584   3.392   9.576 -0.5070  0.7799  0.7189
 5475SOL    HW227888   2.508   3.280   9.540 -0.4072  1.3041  0.1937
 5476SOL     OW27889   1.145   4.509  12.262  0.4054  0.4316  0.4869
 5476SOL    HW127890   1.197   4.431  12.282 -2.1915 -1.0363  1.4369
 5476SOL    HW227891   1.084   4.480  12.195 -0.9329  2.9998  0.6064
 5477SOL     OW27892   1.558   2.388   3.715  0.4419 -0.1884 -0.0605
 5477SOL    HW127893   1.629   2.386   3.778  2.1163 -0.5462 -1.9515
 5477SOL    HW227894   1.592   2.316   3.661  0.4465  0.5436 -1.0427
 5478SOL     OW27895   0.834   4.002   6.976 -0.3416  0.5515 -0.5475
 5478SOL    HW127896   0.837   4.018   6.882 -1.3050 -1.6882 -0.9430
 5478SOL    HW227897   0.751   4.040   7.004 -1.2511 -0.3538 -2.0371
 5479SOL     OW27898   2.375   4.487   1.238 -0.1431  0.0258  0.3648
 5479SOL    HW127899   2.354   4.410   1.290  0.2694 -1.4654 -1.6453
 5479SOL    HW227900   2.350   4.463   1.148  2.3364 -0.5146 -0.1903
 5480SOL     OW27901   4.596   0.423   5.548 -0.6241  0.5419  0.5591
 5480SOL    HW127902   4.652   0.345   5.543  0.5688  1.4234  0.1903
 5480SOL    HW227903   4.531   0.401   5.615 -0.8810  1.3372  0.5634
 5481SOL     OW27904   2.724   1.220   0.931 -0.5743 -0.7505  0.0484
 5481SOL    HW127905   2.771   1.226   1.014  0.9996  0.2646 -0.9153
 5481SOL    HW227906   2.697   1.311   0.926 -0.5267 -0.6326  1.9194
 5482SOL     OW27907   3.951   1.642   2.226  0.3876  0.7474 -1.1523
 5482SOL    HW127908   3.945   1.575   2.157 -0.1429 -0.6541  0.2471
 5482SOL    HW227909   3.900   1.711   2.184 -1.5371  0.8142  1.2744
 5483SOL     OW27910   3.712   3.880   5.357  0.3152  0.1930  0.0414
 5483SOL    HW127911   3.690   3.869   5.450  2.4366  0.2699  0.5315
 5483SOL    HW227912   3.799   3.843   5.348  1.1521  2.1456  0.1380
 5484SOL     OW27913   4.550   1.114   3.869  0.7910 -1.1043  0.3048
 5484SOL    HW127914   4.490   1.046   3.838 -0.0430  0.4659 -1.4978
 5484SOL    HW227915   4.590   1.074   3.947  0.7746  0.7159  1.2371
 5485SOL     OW27916   1.372   1.999   7.632  0.2789  0.3020 -0.3038
 5485SOL    HW127917   1.349   1.910   7.657 -0.1027  1.2982  2.9339
 5485SOL    HW227918   1.366   1.982   7.538 -2.1847 -1.2030  0.1167
 5486SOL     OW27919   1.499   1.447   2.808  0.1560 -0.3934 -0.2164
 5486SOL    HW127920   1.591   1.425   2.792  0.5767  0.9805  0.3132
 5486SOL    HW227921   1.502   1.536   2.775 -1.5726 -0.4227 -0.4400
 5487SOL     OW27922   4.195   2.199  17.581 -0.0007  0.3030  0.7691
 5487SOL    HW127923   4.141   2.250  17.520 -1.0780 -2.0888 -0.3071
 5487SOL    HW227924   4.276   2.250  17.585  0.6357 -0.4785 -2.4440
 5488SOL     OW27925   1.007   1.393   5.066 -0.5678  0.4006  0.3892
 5488SOL    HW127926   0.951   1.433   4.999  0.4888 -0.9589 -1.3139
 5488SOL    HW227927   1.086   1.438   5.037  0.1387 -0.6943  0.5992
 5489SOL     OW27928   3.573   0.749   4.168 -0.2412  0.0069 -0.6860
 5489SOL    HW127929   3.557   0.732   4.075 -0.4373 -0.8418 -0.4923
 5489SOL    HW227930   3.597   0.664   4.206  1.4804  1.8554  2.3556
 5490SOL     OW27931   3.342   2.173   0.090 -0.2500  0.4605 -0.4964
 5490SOL    HW127932   3.389   2.248   0.053  0.0415  1.1381  1.2118
 5490SOL    HW227933   3.325   2.125   0.009  2.0397  0.4649 -0.9800
 5491SOL     OW27934   3.224   2.405   8.384 -0.3953  0.3809  0.4620
 5491SOL    HW127935   3.169   2.360   8.449 -0.9757  0.0246 -0.2806
 5491SOL    HW227936   3.190   2.365   8.304 -0.8963  1.3524  0.1881
 5492SOL     OW27937   2.834   4.450   9.896  0.1550 -0.1671  0.2409
 5492SOL    HW127938   2.830   4.357   9.878 -0.6733  0.3376 -2.0507
 5492SOL    HW227939   2.929   4.458   9.909 -0.0329  0.6504  1.1495
 5493SOL     OW27940   1.477   4.284   5.483 -0.2233 -0.5091 -0.6665
 5493SOL    HW127941   1.547   4.347   5.472 -0.6247  0.0349 -0.0680
 5493SOL    HW227942   1.496   4.230   5.406  0.8640  1.5042 -1.7996
 5494SOL     OW27943   4.677   0.224   8.006 -0.1503  0.5072  0.0596
 5494SOL    HW127944   0.009   0.235   8.082  0.2921 -0.2552 -0.1713
 5494SOL    HW227945   4.598   0.256   8.050  0.2722  3.2950 -1.1588
 5495SOL     OW27946   2.652   1.494  12.633  0.1738  0.2877 -0.1127
 5495SOL    HW127947   2.710   1.445  12.692  0.5500  0.0072 -0.7126
 5495SOL    HW227948   2.569   1.456  12.665  0.6675 -0.5102  0.2206
 5496SOL     OW27949   2.471   1.780   6.733 -0.0065 -0.4000 -0.2484
 5496SOL    HW127950   2.498   1.838   6.662 -1.5977 -1.0133 -1.3641
 5496SOL    HW227951   2.558   1.746   6.754 -0.0639 -0.6328 -0.3855
 5497SOL     OW27952   3.031   4.601  11.870 -0.3691 -0.7110  0.1681
 5497SOL    HW127953   3.116   4.575  11.904 -0.8432  1.3879  2.9076
 5497SOL    HW227954   2.975   4.565  11.939 -0.0950  1.0644  1.2999
 5498SOL     OW27955   0.577   0.052   0.784  0.4026 -0.3734  0.3457
 5498SOL    HW127956   0.515   0.123   0.796  1.1740  0.3498  0.0122
 5498SOL    HW227957   0.521   4.705   0.815  1.2903 -1.3957 -0.3920
 5499SOL     OW27958   3.550   0.401   5.443  0.9361  0.0228  0.1597
 5499SOL    HW127959   3.608   0.328   5.420  0.2768 -1.8116  4.3841
 5499SOL    HW227960   3.462   0.367   5.427  0.4559  1.5966 -0.5284
 5500SOL     OW27961   2.017   4.220  14.675  0.1616 -0.2809  0.0400
 5500SOL    HW127962   1.927   4.187  14.666  0.3107 -0.7179  0.1375
 5500SOL    HW227963   2.045   4.166  14.749  2.9342  0.5245 -0.4414
 5501SOL     OW27964   3.044   4.688   8.797 -0.0479  0.1194 -0.0424
 5501SOL    HW127965   2.963   4.653   8.835  1.0335 -1.0713  1.1095
 5501SOL    HW227966   3.104   4.668   8.869  1.9839  0.8916 -1.5263
 5502SOL     OW27967   3.052   3.218   1.283 -0.1381  0.6825 -0.2169
 5502SOL    HW127968   3.126   3.260   1.327 -1.8284  1.4117  1.9149
 5502SOL    HW227969   3.016   3.292   1.236 -0.5487  0.8825  0.4103
 5503SOL     OW27970   2.519   2.373  11.973  0.5283 -0.0161  0.3843
 5503SOL    HW127971   2.612   2.391  11.985  0.4767 -0.3744  1.3077
 5503SOL    HW227972   2.484   2.421  12.049  0.7954  0.1585  0.3974
 5504SOL     OW27973   2.542   0.382   9.353 -0.2295  0.2387 -0.2079
 5504SOL    HW127974   2.488   0.377   9.274  0.4755  0.4734 -0.6986
 5504SOL    HW227975   2.492   0.322   9.409 -1.2329  0.9839 -0.2997
 5505SOL     OW27976   3.625   3.001   7.875  0.0456  0.3345 -0.5548
 5505SOL    HW127977   3.637   2.913   7.838  4.1781 -0.3903  2.5244
 5505SOL    HW227978   3.714   3.034   7.864  0.0262  0.6224  0.1552
 5506SOL     OW27979   2.195   2.825   6.250  0.0106  0.1233  0.1396
 5506SOL    HW127980   2.262   2.819   6.182  1.9094  2.0802  1.8479
 5506SOL    HW227981   2.243   2.775   6.316 -0.4672  0.7120  0.9265
 5507SOL     OW27982   2.011   3.107   8.370 -0.2149 -0.4304 -0.0824
 5507SOL    HW127983   1.936   3.058   8.404  0.3434 -0.4611  1.1101
 5507SOL    HW227984   2.070   3.032   8.359 -0.1652 -0.4065  0.0196
 5508SOL     OW27985   3.564   0.035   0.657 -0.5044 -0.1010  0.1572
 5508SOL    HW127986   3.501   4.703   0.612 -0.3228 -0.4024  0.2867
 5508SOL    HW227987   3.526   0.122   0.643 -1.1298 -0.4697 -0.4466
 5509SOL     OW27988   2.047   3.721   2.632 -0.3481  0.0531 -0.4430
 5509SOL    HW127989   1.986   3.648   2.645 -0.4246 -0.0294 -1.2857
 5509SOL    HW227990   2.002   3.763   2.558 -0.6664  1.3168  0.4694
 5510SOL     OW27991   0.201   2.071   5.869  0.0986 -0.2740 -0.1766
 5510SOL    HW127992   0.186   1.990   5.819  1.0078 -1.0560  0.8110
 5510SOL    HW227993   0.275   2.111   5.823 -0.8697  1.7189  0.0447
 5511SOL     OW27994   1.189   0.554   1.670  0.1259  0.0207  0.4169
 5511SOL    HW127995   1.252   0.599   1.727  0.7706  1.2164 -1.2438
 5511SOL    HW227996   1.227   0.472   1.639  2.7158  1.7698 -0.9517
 5512SOL     OW27997   1.765   4.412   5.590  0.3193 -0.3618  0.0702
 5512SOL    HW127998   1.839   4.401   5.529  1.0373 -0.3887  0.9472
 5512SOL    HW227999   1.799   4.433   5.677  2.3007 -1.2890 -0.4762
 5513SOL     OW28000   0.013   3.284   8.403  0.4255  0.2786  0.0306
 5513SOL    HW128001   0.051   3.195   8.405  0.5972  0.3062 -1.7165
 5513SOL    HW228002   4.659   3.264   8.452 -2.7777 -0.7872 -5.5853
 5514SOL     OW28003   3.471   2.141   8.506 -0.3474 -0.5470  0.1053
 5514SOL    HW128004   3.532   2.211   8.530 -0.5212 -0.1603 -0.5537
 5514SOL    HW228005   3.487   2.135   8.411  0.3590 -1.6609  0.2999
 5515SOL     OW28006   1.881   4.158  14.088 -0.4724  0.0096  0.1392
 5515SOL    HW128007   1.786   4.144  14.089 -0.4036 -0.7428 -2.1615
 5515SOL    HW228008   1.905   4.081  14.037  0.7543  0.0118  0.7141
 5516SOL     OW28009   3.770   4.646   7.392  0.2728  0.3998 -0.5164
 5516SOL    HW128010   3.809   0.007   7.376  0.0633  0.8061  1.1665
 5516SOL    HW228011   3.758   4.650   7.487 -1.7747 -0.1511 -0.7450
 5517SOL     OW28012   2.399   4.446  11.838  0.1378 -0.5281 -0.2370
 5517SOL    HW128013   2.383   4.430  11.745 -0.9125  0.0731 -0.1572
 5517SOL    HW228014   2.318   4.420  11.882  0.2704 -0.8575 -0.1860
 5518SOL     OW28015   0.951   1.126   5.608 -0.0346 -0.2106 -0.0332
 5518SOL    HW128016   0.918   1.140   5.519 -1.1801  0.7448  0.5466
 5518SOL    HW228017   0.957   1.213   5.647 -1.6398 -0.3214  0.4300
 5519SOL     OW28018   4.126   1.635   1.343  0.4573  0.4197 -0.0999
 5519SOL    HW128019   4.057   1.627   1.278  1.4842  0.9381 -1.2608
 5519SOL    HW228020   4.108   1.565   1.405 -2.7011 -0.4217 -1.9467
 5520SOL     OW28021   0.354   0.474  14.692 -0.0081  0.1106  0.0524
 5520SOL    HW128022   0.275   0.443  14.647  0.7017 -1.5393 -0.0563
 5520SOL    HW228023   0.346   0.563  14.658 -0.8686 -0.7851 -2.1312
 5521SOL     OW28024   2.604   1.024   7.713 -0.1779  0.0977  0.2638
 5521SOL    HW128025   2.693   1.054   7.692 -0.2370 -1.5406 -2.2976
 5521SOL    HW228026   2.594   0.975   7.631  0.7544 -1.5784  1.1597
 5522SOL     OW28027   1.774   2.009   3.732 -0.8770 -0.5183 -0.3654
 5522SOL    HW128028   1.781   1.917   3.756  1.3704 -0.2228  0.0972
 5522SOL    HW228029   1.862   2.038   3.757 -1.2081 -0.0782  0.3125
 5523SOL     OW28030   0.302   0.271   0.190 -0.0191 -0.2911  0.9248
 5523SOL    HW128031   0.222   0.219   0.180 -0.6803  1.0270 -0.6567
 5523SOL    HW228032   0.372   0.216   0.225  0.3756 -1.5475 -1.8345
 5524SOL     OW28033   3.325   0.257   9.514  0.2149  0.5504 -0.2439
 5524SOL    HW128034   3.409   0.288   9.546  0.6863  1.7024 -2.5754
 5524SOL    HW228035   3.332   0.265   9.419  0.0812  2.8070 -0.0552
 5525SOL     OW28036   2.334   2.473  15.614  0.0780  0.0027 -0.1722
 5525SOL    HW128037   2.360   2.394  15.661  1.3573  0.6235  0.1550
 5525SOL    HW228038   2.406   2.536  15.623 -1.0067  1.3863 -1.0996
 5526SOL     OW28039   1.598   1.359   7.203 -0.2030 -0.1286 -0.0542
 5526SOL    HW128040   1.543   1.281   7.213  2.3586 -2.0488 -1.1463
 5526SOL    HW228041   1.679   1.315   7.178 -0.6689  0.3766 -2.4558
 5527SOL     OW28042   2.447   3.795  17.533 -0.3221 -0.3050 -0.9338
 5527SOL    HW128043   2.509   3.819  17.602 -2.0917 -1.0231  0.8925
 5527SOL    HW228044   2.453   3.871  17.475  0.3564  1.3707  1.2808
 5528SOL     OW28045   1.592   4.680   3.143  0.3349  0.7382  0.0623
 5528SOL    HW128046   1.632   0.005   3.214 -1.0978  0.3605  1.1515
 5528SOL    HW228047   1.540   0.027   3.107 -2.4954 -1.1660  0.3080
 5529SOL     OW28048   4.503   0.617   4.750  0.4050  0.1388  0.0795
 5529SOL    HW128049   4.520   0.554   4.820 -0.6192 -0.8691 -0.5591
 5529SOL    HW228050   4.589   0.613   4.708 -0.1076 -1.3711 -0.8417
 5530SOL     OW28051   2.061   4.176   7.090 -0.4619 -0.1723 -0.1215
 5530SOL    HW128052   2.145   4.139   7.062 -0.1175 -0.0747  0.7821
 5530SOL    HW228053   1.998   4.113   7.056 -0.9584  0.0238  0.4316
 5531SOL     OW28054   4.048   4.603   8.580  0.2686  0.1873 -0.3015
 5531SOL    HW128055   4.121   4.661   8.560 -0.0104  1.4188  2.2723
 5531SOL    HW228056   4.072   4.526   8.528 -1.2666  1.8822 -3.4635
 5532SOL     OW28057   3.290   3.199   8.745  0.7851 -0.0341  0.1224
 5532SOL    HW128058   3.373   3.219   8.788  2.1106 -4.1643 -0.6037
 5532SOL    HW228059   3.224   3.245   8.797  1.5561  1.6646 -0.4083
 5533SOL     OW28060   3.435   0.773   5.445 -0.0775  0.1311 -0.4743
 5533SOL    HW128061   3.461   0.765   5.536  0.7629  0.2085 -0.7039
 5533SOL    HW228062   3.497   0.714   5.402  0.3124 -0.5477  1.0526
 5534SOL     OW28063   1.795   1.794   7.059 -0.0597 -0.9993  0.5457
 5534SOL    HW128064   1.789   1.710   7.103  1.5429 -1.1776  0.4386
 5534SOL    HW228065   1.709   1.787   7.017  0.3436 -0.0198 -0.4372
 5535SOL     OW28066   2.856   4.351  16.834 -0.3862 -0.1927  0.1580
 5535SOL    HW128067   2.932   4.307  16.796  0.1714  1.4115 -0.5548
 5535SOL    HW228068   2.810   4.372  16.753 -1.4322 -0.6319  0.6364
 5536SOL     OW28069   1.298   4.487   7.337 -0.7787  0.0567  0.1386
 5536SOL    HW128070   1.237   4.422   7.372 -0.4528 -1.0416 -1.3617
 5536SOL    HW228071   1.319   4.529   7.421 -2.2013 -1.0678  1.0534
 5537SOL     OW28072   1.647   3.605   8.491 -0.4398 -0.0530  0.3516
 5537SOL    HW128073   1.624   3.614   8.584 -2.2098 -1.3635  0.0430
 5537SOL    HW228074   1.558   3.608   8.456  0.3053 -0.5950 -1.5933
 5538SOL     OW28075   2.202   2.885   8.366  0.5082 -0.3835  0.0123
 5538SOL    HW128076   2.285   2.885   8.317  0.1654 -1.5564 -0.5680
 5538SOL    HW228077   2.238   2.903   8.453  0.2985 -1.1901  0.2629
 5539SOL     OW28078   0.909   2.518   8.041  0.3976 -0.0109 -0.0441
 5539SOL    HW128079   0.961   2.596   8.025 -0.4664  0.9713  2.0151
 5539SOL    HW228080   0.836   2.564   8.082 -0.4859 -0.8352 -0.6748
 5540SOL     OW28081   1.397   1.530   6.557 -0.5375  0.8399  0.0972
 5540SOL    HW128082   1.363   1.489   6.636 -0.6420  2.3630  0.8355
 5540SOL    HW228083   1.488   1.508   6.576 -0.7185 -1.5753 -1.8798
 5541SOL     OW28084   3.676   1.734  14.788  0.0882  0.3968  0.2049
 5541SOL    HW128085   3.743   1.748  14.720 -1.3072  2.8552 -0.6798
 5541SOL    HW228086   3.635   1.820  14.787 -2.0486 -0.6410 -2.8430
 5542SOL     OW28087   2.103   2.562   0.640  0.1025 -0.6620  0.5474
 5542SOL    HW128088   2.144   2.628   0.584 -1.2296 -1.0406 -0.8594
 5542SOL    HW228089   2.046   2.613   0.697  0.0426 -1.4192  1.1657
 5543SOL     OW28090   0.382   1.176   7.357  0.4229  0.0388 -0.2462
 5543SOL    HW128091   0.404   1.106   7.296 -1.0251 -0.9142  0.3452
 5543SOL    HW228092   0.384   1.124   7.437 -0.8936 -0.9868 -0.8822
 5544SOL     OW28093   3.630   1.734   2.866 -0.2260 -0.2308  0.6114
 5544SOL    HW128094   3.619   1.809   2.924  2.0375 -1.3412  2.5039
 5544SOL    HW228095   3.712   1.696   2.898  0.2143  0.0157 -0.2115
 5545SOL     OW28096   1.554   0.310   1.313 -0.7899  0.3599  0.0878
 5545SOL    HW128097   1.474   0.258   1.303 -1.1975  0.3683  3.3831
 5545SOL    HW228098   1.600   0.283   1.234  1.0515 -1.5243  1.8285
 5546SOL     OW28099   4.232   0.846   6.973  0.2803 -0.0650 -0.7541
 5546SOL    HW128100   4.301   0.896   6.929  0.2553 -0.3723 -1.1443
 5546SOL    HW228101   4.163   0.840   6.907 -0.6980  2.1800  0.0535
 5547SOL     OW28102   0.513   1.166   4.210 -0.6718  0.0488  0.0584
 5547SOL    HW128103   0.572   1.237   4.184 -0.3263 -0.5704 -0.8487
 5547SOL    HW228104   0.549   1.145   4.297  0.4857 -1.3250 -0.7535
 5548SOL     OW28105   1.208   3.954   5.882 -0.2873  0.0408  0.3412
 5548SOL    HW128106   1.176   4.010   5.812  1.2262  0.3586 -0.1100
 5548SOL    HW228107   1.302   3.968   5.872 -0.3506 -1.1296 -1.8526
 5549SOL     OW28108   1.269   3.140   1.942  0.9327 -0.4263  0.0084
 5549SOL    HW128109   1.319   3.156   2.022  1.4850  0.3651 -0.4913
 5549SOL    HW228110   1.337   3.135   1.874  0.7948  0.1930 -0.1779
 5550SOL     OW28111   0.959   2.313   6.406  0.0104  0.0146  0.1832
 5550SOL    HW128112   0.966   2.323   6.312  2.3385 -1.4263  0.2061
 5550SOL    HW228113   1.010   2.391   6.428  2.0630 -0.7150 -1.9603
 5551SOL     OW28114   0.005   1.540  11.993  0.6043 -0.2413  0.1095
 5551SOL    HW128115   0.093   1.559  12.025  0.3510  1.1273 -0.0165
 5551SOL    HW228116   4.723   1.593  11.913  3.4042  0.7839  0.5601
 5552SOL     OW28117   4.499   0.616  13.479  0.4137 -0.3288 -0.3458
 5552SOL    HW128118   4.526   0.575  13.397 -0.2161 -0.6466 -0.3887
 5552SOL    HW228119   4.572   0.598  13.539  1.4480  2.4120 -0.7456
 5553SOL     OW28120   0.319   0.039  11.919 -0.3812 -0.6652 -0.2475
 5553SOL    HW128121   0.293   0.044  12.011  1.9206  2.3548  0.2135
 5553SOL    HW228122   0.391   0.101  11.917  0.3253 -1.4557  0.6399
 5554SOL     OW28123   0.907   1.501   8.091  0.4472 -0.4360  0.2163
 5554SOL    HW128124   0.953   1.578   8.125 -1.3587  0.5639  0.3692
 5554SOL    HW228125   0.973   1.475   8.026 -0.6891 -0.1168 -1.0750
 5555SOL     OW28126   3.858   1.794  12.351 -0.4927 -0.9787  0.0165
 5555SOL    HW128127   3.826   1.741  12.278 -0.4904 -1.6291  0.4864
 5555SOL    HW228128   3.807   1.758  12.423 -1.1957  0.5070  0.2638
 5556SOL     OW28129   3.170   0.630  11.441 -0.0828 -0.2724  0.0983
 5556SOL    HW128130   3.253   0.675  11.459  0.5819 -0.9974 -1.1407
 5556SOL    HW228131   3.123   0.703  11.399 -0.0296 -0.1499  0.2530
 5557SOL     OW28132   3.559   4.367   3.303  0.0394 -0.0287  0.0589
 5557SOL    HW128133   3.626   4.428   3.334  1.4684 -1.2869 -0.5110
 5557SOL    HW228134   3.511   4.433   3.253  2.7068 -0.2899 -2.8811
 5558SOL     OW28135   3.325   3.960   5.138  0.2015  0.0179  0.1020
 5558SOL    HW128136   3.418   3.959   5.114  0.0008 -0.0349 -0.6766
 5558SOL    HW228137   3.313   4.054   5.150  1.6039  0.6078 -3.1587
 5559SOL     OW28138   2.545   2.802   6.961  0.1846  0.3103 -0.0628
 5559SOL    HW128139   2.484   2.826   7.030 -0.0476 -0.9911  0.1837
 5559SOL    HW228140   2.618   2.768   7.013 -0.0534  0.0084  0.0721
 5560SOL     OW28141   3.413   1.534   9.394  0.1090 -0.1580 -0.0803
 5560SOL    HW128142   3.426   1.628   9.382  3.7536 -0.8822 -1.5996
 5560SOL    HW228143   3.473   1.519   9.467  1.2623 -1.0404 -1.2168
 5561SOL     OW28144   3.830   0.826   4.326 -0.1089  0.2805 -0.0538
 5561SOL    HW128145   3.801   0.756   4.268 -0.9680  2.1109 -1.8694
 5561SOL    HW228146   3.923   0.817   4.305 -0.0037 -1.2362  1.1176
 5562SOL     OW28147   3.071   4.106   3.376  0.5473 -0.2939  0.1655
 5562SOL    HW128148   3.014   4.091   3.300 -0.2140  2.0465  0.2847
 5562SOL    HW228149   3.144   4.152   3.336 -0.9725  0.7518 -1.4134
 5563SOL     OW28150   2.828   2.454  12.313 -0.3084 -0.5222  0.2359
 5563SOL    HW128151   2.820   2.414  12.227 -0.2866 -0.9604  0.4335
 5563SOL    HW228152   2.920   2.475  12.327 -0.1822 -0.1311 -1.2326
 5564SOL     OW28153   1.060   4.674   3.512 -0.2638 -0.3855 -0.0244
 5564SOL    HW128154   1.043   4.649   3.603  2.8177 -3.3347 -0.2465
 5564SOL    HW228155   1.038   0.042   3.504 -0.2129 -0.1207  2.7455
 5565SOL     OW28156   3.726   3.623   5.963 -0.6181  0.1947 -0.1599
 5565SOL    HW128157   3.669   3.546   5.967  0.8010 -0.9040 -0.9663
 5565SOL    HW228158   3.685   3.676   6.032  2.3488  3.2896 -0.7410
 5566SOL     OW28159   0.200   0.506   7.567 -0.3249 -0.3498  0.2016
 5566SOL    HW128160   0.195   0.469   7.479  1.0484 -0.0931  0.0209
 5566SOL    HW228161   0.157   0.589   7.545 -0.2835  0.2152  2.2695
 5567SOL     OW28162   3.471   3.272   0.170  0.1434  0.2707 -0.4668
 5567SOL    HW128163   3.410   3.226   0.228  0.0227  0.7983 -0.1817
 5567SOL    HW228164   3.410   3.337   0.135  0.5550  0.6456 -0.4871
 5568SOL     OW28165   0.215   0.073   3.233  0.3429 -0.1117 -0.3765
 5568SOL    HW128166   0.192   0.140   3.297 -0.9587 -0.2212 -0.7365
 5568SOL    HW228167   0.205   0.125   3.153  0.9617  2.0593  0.9480
 5569SOL     OW28168   0.323   2.895   6.772  0.6901  0.1460 -0.1764
 5569SOL    HW128169   0.376   2.818   6.753  0.9535  0.3250 -0.1581
 5569SOL    HW228170   0.235   2.863   6.750  0.6160  1.3713 -1.6945
 5570SOL     OW28171   0.014   0.445   9.276  0.3044  0.0372 -0.2435
 5570SOL    HW128172   4.700   0.359   9.294 -1.5563  1.1111  0.8683
 5570SOL    HW228173   4.711   0.467   9.187  1.1711 -0.3162 -0.5983
 5571SOL     OW28174   1.200   3.871  15.962  0.0902  0.0175  0.5486
 5571SOL    HW128175   1.237   3.894  16.046 -2.2721  0.0979  1.5817
 5571SOL    HW228176   1.253   3.800  15.928  0.2743  0.0800  0.7095
 5572SOL     OW28177   0.707   4.126   8.365  0.0503  0.0383  0.1108
 5572SOL    HW128178   0.800   4.118   8.388  0.5659 -0.0560 -2.0477
 5572SOL    HW228179   0.697   4.117   8.270 -0.8758 -0.5938  0.2585
 5573SOL     OW28180   3.411   4.525   4.235  0.0993  0.3576 -0.2795
 5573SOL    HW128181   3.416   4.598   4.173  0.5361  1.8364  1.5048
 5573SOL    HW228182   3.398   4.454   4.172 -0.6019 -2.1712  2.7213
 5574SOL     OW28183   0.234   2.908   5.107  0.2901 -0.1474 -0.1233
 5574SOL    HW128184   0.215   2.825   5.149  0.1794  0.1768  0.4674
 5574SOL    HW228185   0.263   2.880   5.020 -1.6776 -2.9073  0.1269
 5575SOL     OW28186   4.252   1.092  17.353  0.0079 -0.3308 -0.0681
 5575SOL    HW128187   4.255   1.153  17.279  1.1022  0.6369  0.7768
 5575SOL    HW228188   4.303   1.136  17.421  0.4519 -1.4085  0.3075
 5576SOL     OW28189   0.329   3.394   5.201  0.3907 -0.3402 -0.3248
 5576SOL    HW128190   0.255   3.387   5.141 -2.1612  1.8840  2.6013
 5576SOL    HW228191   0.371   3.310   5.179 -1.4363 -0.5022 -3.1248
 5577SOL     OW28192   1.580   4.723  13.092 -0.0246 -0.0938  0.0026
 5577SOL    HW128193   1.624   0.068  13.043  0.1636 -1.0455 -1.1823
 5577SOL    HW228194   1.557   4.665  13.020 -3.1275 -0.0418  0.9750
 5578SOL     OW28195   1.496   1.706   4.992 -0.4366  0.2043  0.4638
 5578SOL    HW128196   1.544   1.719   4.911 -0.9063  2.8159  0.6170
 5578SOL    HW228197   1.570   1.709   5.053  1.0424 -0.3408 -1.3008
 5579SOL     OW28198   0.305   0.505   2.333 -0.0951 -0.3334 -0.4571
 5579SOL    HW128199   0.319   0.430   2.390 -0.8443  1.0664  1.5726
 5579SOL    HW228200   0.356   0.574   2.377  1.0856 -0.5529 -1.4882
 5580SOL     OW28201   3.867   3.438   3.822 -0.5484 -0.3796 -0.0378
 5580SOL    HW128202   3.835   3.357   3.863 -1.0491 -0.0156  0.2805
 5580SOL    HW228203   3.922   3.465   3.896  1.5408  1.0170 -2.1082
 5581SOL     OW28204   0.676   3.718   7.309 -0.5104 -0.1761  0.1473
 5581SOL    HW128205   0.630   3.713   7.226 -0.9522  0.4582  0.3471
 5581SOL    HW228206   0.608   3.718   7.376  0.9915  0.9873  1.6779
 5582SOL     OW28207   1.021   2.007  13.601  0.0060  0.1282  0.6619
 5582SOL    HW128208   0.932   2.033  13.627 -0.3029  1.4760 -1.7287
 5582SOL    HW228209   1.034   1.931  13.657  1.9081  0.4106  0.6072
 5583SOL     OW28210   4.268   3.975  17.678  0.1382  0.2154 -0.4583
 5583SOL    HW128211   4.295   3.980   0.069 -0.9027 -0.9266 -0.0873
 5583SOL    HW228212   4.352   3.967  17.634  1.2412 -1.3177  1.9420
 5584SOL     OW28213   2.762   4.236  15.893  0.2588  0.1299 -0.2813
 5584SOL    HW128214   2.813   4.268  15.819  0.5065 -1.2673 -0.7091
 5584SOL    HW228215   2.705   4.313  15.902 -0.9934 -0.6936 -1.3362
 5585SOL     OW28216   1.307   0.729  15.280  0.5146  0.3426  0.0384
 5585SOL    HW128217   1.247   0.782  15.332 -2.3238 -2.0860 -0.7572
 5585SOL    HW228218   1.268   0.730  15.193 -1.0352  1.0311  0.7419
 5586SOL     OW28219   4.185   1.175   0.447  0.0305  0.2063 -0.0749
 5586SOL    HW128220   4.196   1.247   0.385 -0.2388 -1.9818 -2.6798
 5586SOL    HW228221   4.225   1.104   0.397  0.2692  0.0117  0.3896
 5587SOL     OW28222   2.049   3.974   4.649 -0.6593 -0.3928 -0.2550
 5587SOL    HW128223   2.099   4.050   4.618  0.1373  0.2521  2.6559
 5587SOL    HW228224   2.008   3.955   4.565 -0.6728 -0.9163 -0.1289
 5588SOL     OW28225   3.963   3.495   3.027 -0.1594  0.1363  0.2306
 5588SOL    HW128226   3.991   3.452   2.947  0.8100 -0.3177  0.8124
 5588SOL    HW228227   3.882   3.530   2.990  0.7350  2.4704  0.4701
 5589SOL     OW28228   0.443   1.026  17.210 -0.8927  0.5078 -0.1029
 5589SOL    HW128229   0.499   1.031  17.287 -2.9510 -2.2291  1.6018
 5589SOL    HW228230   0.383   0.955  17.234 -0.1752 -0.4912 -1.2562
 5590SOL     OW28231   1.097   0.433   7.949 -0.4423 -0.4657  0.1591
 5590SOL    HW128232   1.052   0.503   7.996  0.7172  1.8310 -2.1487
 5590SOL    HW228233   1.185   0.457   7.980  0.6254  0.4378 -3.5923
 5591SOL     OW28234   2.057   1.713   2.244 -0.2601  0.1060  0.0601
 5591SOL    HW128235   2.068   1.674   2.330 -0.0484  0.2374  0.0938
 5591SOL    HW228236   2.066   1.634   2.191  2.9282 -0.4823  1.4902
 5592SOL     OW28237   3.753   1.723   1.397 -0.0804  0.5144 -0.4650
 5592SOL    HW128238   3.797   1.688   1.320  2.5876  1.5097  0.5966
 5592SOL    HW228239   3.821   1.773   1.443  1.6038 -2.5473  0.4307
 5593SOL     OW28240   2.446   2.526  12.232  0.1895 -0.1799 -0.3327
 5593SOL    HW128241   2.391   2.588  12.279 -0.5442 -2.7662  2.2014
 5593SOL    HW228242   2.503   2.494  12.302 -0.4816 -1.9868 -0.5989
 5594SOL     OW28243   1.476   1.088   0.522  0.2294 -0.1528  0.7804
 5594SOL    HW128244   1.419   1.102   0.598 -3.3582 -1.7619 -1.5829
 5594SOL    HW228245   1.473   1.180   0.495  0.2844 -0.1817  0.6754
 5595SOL     OW28246   4.617   3.730   3.088 -0.2214 -0.2631 -0.3863
 5595SOL    HW128247   4.617   3.656   3.150  1.2039  0.3862  0.4052
 5595SOL    HW228248   4.672   3.800   3.124 -0.6065 -0.7958  1.2691
 5596SOL     OW28249   1.381   2.669   2.813  0.0596  0.3171 -0.1658
 5596SOL    HW128250   1.457   2.618   2.787 -0.2486 -0.8159  1.1469
 5596SOL    HW228251   1.314   2.601   2.804 -0.9597  1.5637 -2.0104
 5597SOL     OW28252   2.592   2.801   1.985 -0.7733  0.4504  0.5791
 5597SOL    HW128253   2.564   2.715   2.016 -0.8795  0.3182  0.1188
 5597SOL    HW228254   2.591   2.776   1.893 -1.8262  0.6962  0.5207
 5598SOL     OW28255   2.326   1.600  12.688 -0.0471  0.1400 -0.4244
 5598SOL    HW128256   2.316   1.531  12.623 -0.2449 -1.5067  1.3551
 5598SOL    HW228257   2.288   1.556  12.764  0.4872 -1.2906 -0.9977
 5599SOL     OW28258   2.180   2.180  14.994  0.6753  0.1750  0.0043
 5599SOL    HW128259   2.224   2.180  14.909  0.9739 -2.3967  0.1729
 5599SOL    HW228260   2.162   2.090  15.020  0.5817 -0.0001 -0.6601
 5600SOL     OW28261   4.024   1.155   7.421 -0.0242  0.2968  0.4401
 5600SOL    HW128262   3.991   1.243   7.402 -1.5412 -0.3896 -0.1468
 5600SOL    HW228263   4.031   1.123   7.331 -1.9992 -1.3994  0.8796
 5601SOL     OW28264   2.344   0.687   9.168  0.0825  0.6849  0.0930
 5601SOL    HW128265   2.288   0.650   9.100  0.1428 -0.8481  0.8929
 5601SOL    HW228266   2.428   0.674   9.124  0.5660 -1.1263  1.5811
 5602SOL     OW28267   1.979   0.570   4.155  0.9420 -0.3869 -0.0881
 5602SOL    HW128268   2.065   0.570   4.113 -0.0051  0.9602 -2.0039
 5602SOL    HW228269   1.990   0.504   4.224  1.8158  0.0860  0.2227
 5603SOL     OW28270   3.739   4.314   6.635 -0.2348 -0.4028 -0.1463
 5603SOL    HW128271   3.762   4.399   6.671 -2.2918 -1.1070  2.8373
 5603SOL    HW228272   3.738   4.269   6.719  1.8995  0.0866  0.1419
 5604SOL     OW28273   4.542   4.023  15.365 -0.3115 -0.3039 -0.1751
 5604SOL    HW128274   4.563   3.951  15.305  0.4604  0.8384 -1.2532
 5604SOL    HW228275   4.617   4.081  15.354 -2.0658  1.2450 -3.9382
 5605SOL     OW28276   1.831   2.541   9.533  0.0526 -0.3203  0.0593
 5605SOL    HW128277   1.881   2.525   9.613 -0.5378 -1.7032  0.1436
 5605SOL    HW228278   1.762   2.602   9.561  2.4311  0.9987  3.1069
 5606SOL     OW28279   3.405   2.486   2.144  0.3051 -0.0468 -0.2996
 5606SOL    HW128280   3.358   2.545   2.204 -0.9449 -0.9988 -0.3514
 5606SOL    HW228281   3.466   2.447   2.207  2.0559  2.5181 -0.4037
 5607SOL     OW28282   1.762   2.734   3.001  0.0365 -0.2424  0.2498
 5607SOL    HW128283   1.673   2.750   3.031  0.1778 -0.7682  0.9448
 5607SOL    HW228284   1.800   2.822   3.007 -0.5486 -0.1426  2.3725
 5608SOL     OW28285   0.472   1.606   5.789 -0.3191  0.1575 -0.3142
 5608SOL    HW128286   0.386   1.573   5.811  0.6444 -2.9686 -1.2369
 5608SOL    HW228287   0.450   1.607   5.696 -2.8325 -0.0241  0.3073
 5609SOL     OW28288   0.355   0.397  15.610 -0.7532 -0.3987 -0.3930
 5609SOL    HW128289   0.405   0.476  15.589  2.1530 -2.3168 -0.7000
 5609SOL    HW228290   0.329   0.381  15.519  2.4700 -2.5382 -0.9219
 5610SOL     OW28291   2.890   4.491  12.065 -0.6697 -0.0627  0.2440
 5610SOL    HW128292   2.923   4.448  12.144  0.4412 -2.0033 -1.2432
 5610SOL    HW228293   2.805   4.447  12.060  0.1165 -1.3805 -1.8188
 5611SOL     OW28294   0.190   3.715  13.649 -0.4373 -0.5281  0.7016
 5611SOL    HW128295   0.121   3.662  13.688  1.3979 -0.7759  3.5896
 5611SOL    HW228296   0.202   3.674  13.563 -1.2056  0.2449  0.2291
 5612SOL     OW28297   3.706   2.108  14.220 -0.0424  0.1664  0.0669
 5612SOL    HW128298   3.616   2.120  14.251 -0.2817 -1.7484  0.0823
 5612SOL    HW228299   3.751   2.066  14.294 -2.9912  1.3797  2.5707
 5613SOL     OW28300   1.202   4.600   3.979  0.1391  0.0427 -0.1577
 5613SOL    HW128301   1.220   4.626   4.069  1.2449  0.0952 -0.3851
 5613SOL    HW228302   1.280   4.637   3.937  1.5310  0.6767  2.9955
 5614SOL     OW28303   3.991   3.483   4.063  0.3262  0.4721 -0.6566
 5614SOL    HW128304   4.075   3.436   4.061 -1.3425 -2.4956 -0.9031
 5614SOL    HW228305   3.948   3.469   4.148  0.7270  0.7487 -0.4025
 5615SOL     OW28306   0.619   4.325  12.756 -0.3051 -0.4221 -0.1218
 5615SOL    HW128307   0.576   4.255  12.805  0.4754  0.2480  1.5380
 5615SOL    HW228308   0.692   4.280  12.714 -0.7413 -0.2220 -1.0819
 5616SOL     OW28309   4.027   2.842   5.401  0.2101 -0.2800 -0.3337
 5616SOL    HW128310   3.971   2.863   5.326  0.3874 -2.1615 -0.9833
 5616SOL    HW228311   3.993   2.758   5.430  0.3603  0.7528  2.8358
 5617SOL     OW28312   4.234   0.160   6.722 -0.4905 -0.4558 -0.5836
 5617SOL    HW128313   4.325   0.169   6.692  0.0889  1.6979  1.8001
 5617SOL    HW228314   4.231   0.065   6.729  0.8235 -0.3964  0.7533
 5618SOL     OW28315   0.554   4.038   5.892 -0.2520  0.2461  0.3659
 5618SOL    HW128316   0.643   4.007   5.877 -1.2287 -1.7970 -1.2255
 5618SOL    HW228317   0.518   3.972   5.951 -0.4752  1.1568  1.2481
 5619SOL     OW28318   3.627   0.282   9.131 -0.0261  0.1838 -0.2455
 5619SOL    HW128319   3.681   0.214   9.092  1.9085  0.6348  1.6740
 5619SOL    HW228320   3.675   0.293   9.213 -0.0757 -0.4527 -0.1270
 5620SOL     OW28321   1.484   3.153   2.139 -0.2833 -0.7736  0.8869
 5620SOL    HW128322   1.439   3.078   2.178 -0.1551 -0.8314  0.9251
 5620SOL    HW228323   1.574   3.122   2.140  0.2675  0.7773  0.0552
 5621SOL     OW28324   1.168   2.244  12.383 -0.1139 -0.3395 -0.5033
 5621SOL    HW128325   1.210   2.328  12.367 -0.2546 -0.2476 -0.3789
 5621SOL    HW228326   1.090   2.242  12.327 -1.4334  0.6791  1.3132
 5622SOL     OW28327   3.428   2.328   7.671 -0.0395 -0.7384 -0.0640
 5622SOL    HW128328   3.374   2.250   7.685 -2.4652  0.6177 -1.9830
 5622SOL    HW228329   3.494   2.280   7.620 -0.1392 -2.4851  1.4438
 5623SOL     OW28330   1.486   3.040  10.108  0.1669 -0.5685 -0.7817
 5623SOL    HW128331   1.514   2.997  10.188  0.3855 -0.9755 -1.0748
 5623SOL    HW228332   1.392   3.054  10.123  0.2744  0.5185 -1.0857
 5624SOL     OW28333   4.405   4.037   1.580 -0.1140  0.3628 -0.0549
 5624SOL    HW128334   4.497   4.061   1.594 -0.5202  0.2888  2.6359
 5624SOL    HW228335   4.366   4.121   1.556 -1.0075  0.0318  0.2637
 5625SOL     OW28336   2.757   2.178   2.698  0.0288 -0.5905 -0.1141
 5625SOL    HW128337   2.677   2.141   2.663 -1.4774  2.2547  0.2818
 5625SOL    HW228338   2.732   2.261   2.740 -0.5372 -0.6965 -0.2444
 5626SOL     OW28339   4.590   0.608   3.701 -0.4997 -0.2846  0.0066
 5626SOL    HW128340   4.604   0.537   3.764 -2.3581  0.9158  1.7717
 5626SOL    HW228341   4.496   0.624   3.713 -0.6858 -1.1561 -0.3381
 5627SOL     OW28342   4.682   3.148   3.274  0.3156  0.3129 -0.0856
 5627SOL    HW128343   4.719   3.226   3.233 -1.5191  1.6890  0.8368
 5627SOL    HW228344   4.629   3.186   3.345  1.1551  0.2499  0.5662
 5628SOL     OW28345   0.375   0.164  10.259  0.2767 -0.2934 -0.1401
 5628SOL    HW128346   0.448   0.108  10.285  0.2051 -0.0025  0.6970
 5628SOL    HW228347   0.317   0.097  10.222 -1.4445  0.2189  1.5797
 5629SOL     OW28348   2.363   3.730   4.890  0.0204  0.1526  0.7601
 5629SOL    HW128349   2.282   3.736   4.840 -0.0331 -4.4505  0.3484
 5629SOL    HW228350   2.368   3.637   4.912 -0.7144 -0.6327 -2.4856
 5630SOL     OW28351   0.937   1.820   2.785 -0.2224 -0.3192  0.2700
 5630SOL    HW128352   0.979   1.857   2.708 -2.0274 -0.9335 -0.9921
 5630SOL    HW228353   0.930   1.899   2.838  2.9213  0.3319 -0.3011
 5631SOL     OW28354   1.456   0.213   3.708  0.4468  0.5381 -0.3133
 5631SOL    HW128355   1.401   0.145   3.747 -1.6124  2.6623  0.5032
 5631SOL    HW228356   1.506   0.161   3.646 -0.5829 -1.4197  0.5070
 5632SOL     OW28357   0.305   3.634   8.520 -0.2023 -0.2542 -0.4260
 5632SOL    HW128358   0.387   3.677   8.496  1.3155 -2.1360  1.3663
 5632SOL    HW228359   0.270   3.704   8.575  1.5390  1.6042 -1.6832
 5633SOL     OW28360   1.944   3.559   8.677  0.0154  0.2735 -0.0849
 5633SOL    HW128361   2.013   3.616   8.710 -1.1553  1.2948  0.6126
 5633SOL    HW228362   1.887   3.543   8.752  0.2321  1.1842  0.2675
 5634SOL     OW28363   2.204   0.851   8.508 -0.0861  0.1237 -0.1621
 5634SOL    HW128364   2.188   0.902   8.588 -2.4202 -0.5233 -0.2413
 5634SOL    HW228365   2.298   0.839   8.519 -0.1562  0.4460  0.8144
 5635SOL     OW28366   3.991   0.483   6.709  0.3820 -0.1041  0.1200
 5635SOL    HW128367   3.975   0.567   6.666  1.3543 -0.9854 -1.9780
 5635SOL    HW228368   4.021   0.433   6.633 -0.1221 -0.5121  0.1862
 5636SOL     OW28369   0.873   4.467   5.079  0.3571 -0.0696 -0.3245
 5636SOL    HW128370   0.926   4.443   5.003 -0.6974 -1.1273 -0.7215
 5636SOL    HW228371   0.884   4.389   5.132  0.1853 -0.4146 -0.7982
 5637SOL     OW28372   3.159   1.234  11.418  0.7375 -0.5081 -0.1896
 5637SOL    HW128373   3.200   1.288  11.350 -0.3017  1.5172  0.8033
 5637SOL    HW228374   3.138   1.148  11.380  0.9686  0.0587 -1.5881
 5638SOL     OW28375   1.286   2.846   4.345 -0.6025 -0.2337 -0.2882
 5638SOL    HW128376   1.275   2.774   4.407 -1.1401  0.3905  0.3574
 5638SOL    HW228377   1.198   2.884   4.343 -1.7292 -2.7535  0.9758
 5639SOL     OW28378   4.136   2.386   8.019 -0.3002  0.1398  0.2840
 5639SOL    HW128379   4.120   2.476   7.991 -0.9597  0.9149  3.1567
 5639SOL    HW228380   4.106   2.396   8.109  0.1119  2.0262  0.2175
 5640SOL     OW28381   1.541   0.107   3.484 -0.4085  0.1718  0.2310
 5640SOL    HW128382   1.463   0.097   3.429 -0.6718  0.9125  0.4692
 5640SOL    HW228383   1.595   0.157   3.422 -0.6112 -1.7870 -1.5181
 5641SOL     OW28384   3.479   3.132   4.749  0.3351  0.0156 -0.2619
 5641SOL    HW128385   3.494   3.145   4.656 -0.0802  1.5925 -0.1152
 5641SOL    HW228386   3.498   3.217   4.789  1.0528  0.2714 -1.1488
 5642SOL     OW28387   0.646   2.144   0.532 -0.0067  0.3380  0.1286
 5642SOL    HW128388   0.728   2.182   0.564 -0.3760  0.7791  0.5585
 5642SOL    HW228389   0.607   2.105   0.610  0.3133  0.5842  0.4122
 5643SOL     OW28390   3.872   3.794  10.734 -0.6618 -0.1861  0.3440
 5643SOL    HW128391   3.850   3.874  10.782 -1.4781 -0.4013  0.3379
 5643SOL    HW228392   3.801   3.731  10.750 -0.4379 -0.1099  1.6405
 5644SOL     OW28393   1.559   1.283  15.229  0.3016 -0.3558  0.1439
 5644SOL    HW128394   1.472   1.259  15.260  0.7082  0.0697  1.6003
 5644SOL    HW228395   1.534   1.331  15.150  0.2842 -0.9503 -0.2156
 5645SOL     OW28396   3.936   2.808   8.205  0.3367  0.0051  0.1472
 5645SOL    HW128397   4.012   2.767   8.163  1.7797  0.3019  2.4991
 5645SOL    HW228398   3.867   2.742   8.194  0.9027 -1.0305  2.7798
 5646SOL     OW28399   2.405   0.361   8.307  0.0270  0.4125  0.5690
 5646SOL    HW128400   2.349   0.375   8.230 -0.5297  1.0376  1.0920
 5646SOL    HW228401   2.353   0.412   8.369 -2.1039 -2.5907  1.2757
 5647SOL     OW28402   3.840   3.337   8.845  0.2443  0.0815  0.7269
 5647SOL    HW128403   3.846   3.241   8.842  1.4386  0.1059  2.5555
 5647SOL    HW228404   3.923   3.360   8.804  0.4853  0.3390  1.3779
 5648SOL     OW28405   4.060   0.187   1.893 -0.3749  0.3150 -0.9907
 5648SOL    HW128406   4.082   0.111   1.839  1.8960  1.8645 -2.2476
 5648SOL    HW228407   3.981   0.158   1.938  0.3190  0.1166  0.0944
 5649SOL     OW28408   0.548   3.556  12.694  0.1557 -0.0210  0.3982
 5649SOL    HW128409   0.459   3.582  12.716  0.7760  1.5967  1.0063
 5649SOL    HW228410   0.594   3.637  12.718 -0.6919  0.2368  1.1504
 5650SOL     OW28411   4.291   0.867   8.583 -0.0938 -0.0797 -0.1226
 5650SOL    HW128412   4.213   0.860   8.639  0.4659  2.4163  0.9646
 5650SOL    HW228413   4.261   0.814   8.509 -0.5106  2.1267 -1.5373
 5651SOL     OW28414   4.422   2.823  14.725 -0.0900 -0.4171 -0.1444
 5651SOL    HW128415   4.435   2.728  14.721  0.5472 -0.3327 -0.0385
 5651SOL    HW228416   4.510   2.853  14.702  0.2795 -1.2464  0.1693
 5652SOL     OW28417   3.099   2.619   6.479  0.1852 -0.2275  0.1373
 5652SOL    HW128418   3.011   2.613   6.443  0.1518 -2.1736  0.5185
 5652SOL    HW228419   3.124   2.711   6.467 -0.1914  0.0981  1.8892
 5653SOL     OW28420   3.941   4.241   5.879  0.5760 -0.4136  0.6368
 5653SOL    HW128421   4.011   4.259   5.815  0.0097 -1.8541 -0.3916
 5653SOL    HW228422   3.937   4.324   5.925 -3.8225  0.0971 -0.6888
 5654SOL     OW28423   3.103   0.069  13.320  0.4955 -0.1393  0.0479
 5654SOL    HW128424   3.021   0.110  13.295  0.4191 -1.2457 -1.5666
 5654SOL    HW228425   3.072   0.014  13.392 -0.4983  1.5329  0.8750
 5655SOL     OW28426   1.928   1.669  13.807  1.1754  0.6063  0.7190
 5655SOL    HW128427   1.911   1.701  13.718  1.7534 -0.9374  0.0590
 5655SOL    HW228428   1.880   1.587  13.800 -1.2441  2.0196  0.7772
 5656SOL     OW28429   1.826   1.177   7.241  0.5810  0.2183 -0.1657
 5656SOL    HW128430   1.918   1.153   7.228  0.3807  0.3283 -1.7458
 5656SOL    HW228431   1.802   1.103   7.297 -0.1711 -1.1679 -2.3304
 5657SOL     OW28432   3.067   1.413   3.270  0.1941  0.5368 -0.0315
 5657SOL    HW128433   3.077   1.501   3.234 -0.5002 -0.5120 -2.7615
 5657SOL    HW228434   2.971   1.412   3.275  0.3085 -2.0630  1.6997
 5658SOL     OW28435   1.192   3.501   8.920 -0.0239  0.1519  0.0302
 5658SOL    HW128436   1.199   3.596   8.909  1.9115  0.0253  0.1352
 5658SOL    HW228437   1.226   3.472   8.835 -0.0077 -0.0350  0.1007
 5659SOL     OW28438   0.686   1.172  14.404 -0.2916 -0.7242  0.3114
 5659SOL    HW128439   0.671   1.237  14.473 -2.2344  0.0024 -0.7738
 5659SOL    HW228440   0.710   1.223  14.327 -0.2276  0.2839  0.9931
 5660SOL     OW28441   1.361   2.232  15.629 -0.0059 -0.4825  0.2265
 5660SOL    HW128442   1.314   2.256  15.709 -1.6301 -1.7607 -0.3537
 5660SOL    HW228443   1.354   2.138  15.641 -1.5154 -0.3915  0.0843
 5661SOL     OW28444   3.378   2.782   5.264  0.1436  0.0964  0.6933
 5661SOL    HW128445   3.370   2.723   5.190 -2.8724  3.1896 -1.4642
 5661SOL    HW228446   3.464   2.764   5.301  1.0335 -0.8866 -1.8356
 5662SOL     OW28447   2.322   1.209   2.063 -0.3055  0.2281 -0.1337
 5662SOL    HW128448   2.391   1.274   2.079 -1.9628  2.3074 -1.3220
 5662SOL    HW228449   2.369   1.142   2.014 -2.0115 -1.7345  0.9459
 5663SOL     OW28450   1.436   1.115   3.218 -0.5696 -0.7094 -0.1598
 5663SOL    HW128451   1.439   1.198   3.171 -3.7494 -0.0708  0.7387
 5663SOL    HW228452   1.521   1.086   3.187  0.0235  1.4171 -0.5527
 5664SOL     OW28453   1.688   1.299   8.559 -0.0388 -0.2512 -0.2146
 5664SOL    HW128454   1.741   1.377   8.541 -1.0248  0.2679 -0.8850
 5664SOL    HW228455   1.754   1.230   8.565 -0.3910 -0.4785  1.2503
 5665SOL     OW28456   3.860   2.394   7.515 -0.2074  0.2144 -0.3854
 5665SOL    HW128457   3.839   2.342   7.593  0.2998  0.0473 -0.3643
 5665SOL    HW228458   3.815   2.340   7.451 -0.5336 -0.6079  0.5351
 5666SOL     OW28459   4.548   3.253   2.612  0.9379 -0.2011 -0.2114
 5666SOL    HW128460   4.503   3.295   2.539 -1.4179  0.1730  1.4458
 5666SOL    HW228461   4.639   3.280   2.597  0.9081  0.7697  1.3380
 5667SOL     OW28462   2.837   1.070   6.167  0.1712  0.0609  0.2656
 5667SOL    HW128463   2.839   1.118   6.250  3.3487 -0.5699  0.5708
 5667SOL    HW228464   2.920   1.094   6.125 -0.5765 -2.2440 -2.4931
 5668SOL     OW28465   0.965   4.000  15.870 -0.5606 -0.2520  0.0808
 5668SOL    HW128466   1.045   3.962  15.907 -0.5867  1.5014  1.9033
 5668SOL    HW228467   0.900   3.934  15.894  0.0648 -0.5807  0.8584
 5669SOL     OW28468   2.340   4.340  15.783 -0.5949 -0.4036  0.6758
 5669SOL    HW128469   2.364   4.306  15.869 -0.5521 -0.6616  0.5619
 5669SOL    HW228470   2.293   4.265  15.746  1.6363 -1.9487  0.9967
 5670SOL     OW28471   0.594   4.528   5.857 -0.2937  0.6336 -0.1561
 5670SOL    HW128472   0.645   4.527   5.776 -0.6880  0.0421 -0.3968
 5670SOL    HW228473   0.660   4.553   5.922  0.3941  0.5294 -0.8067
 5671SOL     OW28474   0.860   2.252  15.841  0.7899  0.1783 -0.2926
 5671SOL    HW128475   0.771   2.218  15.829  0.8592  0.4296 -1.5722
 5671SOL    HW228476   0.852   2.335  15.793  1.7367 -0.8438 -2.2187
 5672SOL     OW28477   2.531   4.156   4.749  0.3423  0.0930 -0.1136
 5672SOL    HW128478   2.588   4.189   4.818 -0.2127  0.7871  0.0157
 5672SOL    HW228479   2.463   4.104   4.791  0.6926 -0.2370  0.0444
 5673SOL     OW28480   0.206   3.860  16.210  0.4196  0.5491  0.7001
 5673SOL    HW128481   0.116   3.852  16.178  1.4196  0.8978 -2.1676
 5673SOL    HW228482   0.218   3.954  16.225  2.0802  0.8824 -2.7901
 5674SOL     OW28483   4.147   2.103  14.893 -0.1931 -0.3632  0.5702
 5674SOL    HW128484   4.210   2.136  14.957  0.1481 -0.4724  0.2959
 5674SOL    HW228485   4.072   2.150  14.928 -1.1284 -0.6846 -0.9897
 5675SOL     OW28486   3.560   0.669   2.808 -0.2829  0.2589 -0.4077
 5675SOL    HW128487   3.578   0.763   2.796 -0.8834  0.6669  1.8713
 5675SOL    HW228488   3.536   0.679   2.900  1.6887  0.2621  0.1022
 5676SOL     OW28489   1.160   1.303   3.059  0.2447  0.4435 -0.1212
 5676SOL    HW128490   1.110   1.382   3.040 -1.5538 -0.6651 -0.0071
 5676SOL    HW228491   1.238   1.316   3.005  0.5692 -0.3731  0.1498
 5677SOL     OW28492   3.101   1.968   9.181  0.1976 -0.5331  0.2540
 5677SOL    HW128493   3.068   1.909   9.114 -0.1744 -0.6471  0.5356
 5677SOL    HW228494   3.157   1.902   9.221 -0.0172 -0.0033  1.4423
 5678SOL     OW28495   1.746   1.403   5.108 -0.0529  0.3547 -0.4737
 5678SOL    HW128496   1.795   1.439   5.034  0.8825 -1.4319 -0.7417
 5678SOL    HW228497   1.742   1.310   5.084 -2.7973  0.4398 -0.3390
 5679SOL     OW28498   3.540   1.989  14.805  0.0656  0.0031  0.3216
 5679SOL    HW128499   3.448   1.994  14.829  0.1371  3.4349 -0.0809
 5679SOL    HW228500   3.559   2.055  14.738  1.5872  0.4484  1.1904
 5680SOL     OW28501   0.721   1.411   4.283  0.0711  0.0626  0.5052
 5680SOL    HW128502   0.792   1.347   4.297 -0.8845 -1.1178 -0.0135
 5680SOL    HW228503   0.737   1.439   4.193  0.3873  1.6105  1.0480
 5681SOL     OW28504   0.622   1.508  11.339  0.6044  0.4863  0.5841
 5681SOL    HW128505   0.592   1.560  11.264  1.5948  0.4853  0.1884
 5681SOL    HW228506   0.714   1.517  11.317  0.9143 -0.2387  1.5761
 5682SOL     OW28507   1.338   0.562   7.986  0.0967  0.2674  0.0698
 5682SOL    HW128508   1.382   0.525   7.909 -0.4531  1.1435 -0.6615
 5682SOL    HW228509   1.409   0.562   8.050 -0.8700  2.0992  1.1345
 5683SOL     OW28510   1.935   2.849   4.578  0.1437  0.4809  0.0769
 5683SOL    HW128511   1.971   2.935   4.600 -2.2631  1.7326 -0.8146
 5683SOL    HW228512   1.976   2.794   4.644 -0.0901 -1.8372 -1.7151
 5684SOL     OW28513   2.110   0.375   2.674 -0.3105  0.2264 -0.0935
 5684SOL    HW128514   2.108   0.439   2.603  2.4673  1.0942  0.6042
 5684SOL    HW228515   2.196   0.394   2.712 -1.5031 -0.2037  2.8587
 5685SOL     OW28516   0.715   4.121   5.097 -0.2150 -0.2911  0.5911
 5685SOL    HW128517   0.674   4.075   5.170 -1.8592  1.0954  0.5497
 5685SOL    HW228518   0.630   4.142   5.058  0.0681 -0.0744  0.0929
 5686SOL     OW28519   3.982   0.295   3.423  0.0169  0.2133 -0.0251
 5686SOL    HW128520   3.937   0.290   3.508  0.6668 -2.0765  0.1918
 5686SOL    HW228521   3.914   0.332   3.367 -0.0470  1.5314  0.9209
 5687SOL     OW28522   0.617   1.549   0.049  0.3866  0.1704 -0.2556
 5687SOL    HW128523   0.613   1.460   0.082 -0.7229  0.5583  0.6581
 5687SOL    HW228524   0.572   1.599   0.117  0.7117 -1.5028  1.2008
 5688SOL     OW28525   0.326   3.810   6.309  0.5874 -0.3907 -0.0966
 5688SOL    HW128526   0.240   3.774   6.286 -0.5077  2.6524 -0.6911
 5688SOL    HW228527   0.308   3.904   6.306  1.3489 -0.2136  0.7461
 5689SOL     OW28528   4.166   3.528   4.481 -0.2646  0.2405 -0.1267
 5689SOL    HW128529   4.162   3.585   4.558 -0.0837  0.0723  0.0071
 5689SOL    HW228530   4.072   3.522   4.461  0.3264 -1.7207 -2.4159
 5690SOL     OW28531   0.567   2.999  13.496  0.1713 -0.4021 -0.9032
 5690SOL    HW128532   0.484   2.964  13.463 -1.6773  0.3581  2.9235
 5690SOL    HW228533   0.562   2.972  13.588 -0.2120 -1.0943 -1.1227
 5691SOL     OW28534   0.504   1.032   8.707 -0.5976 -0.3555  0.1256
 5691SOL    HW128535   0.555   1.075   8.638 -0.3198 -2.8317 -1.2271
 5691SOL    HW228536   0.469   0.953   8.666  2.6076 -2.5224  1.5573
 5692SOL     OW28537   3.839   4.407   8.411 -0.7594 -0.9188 -0.0724
 5692SOL    HW128538   3.844   4.499   8.384  0.7978 -1.4487 -1.6158
 5692SOL    HW228539   3.853   4.369   8.325 -0.2422  2.1421 -1.3356
 5693SOL     OW28540   2.226   0.873   7.320  0.0060 -0.1037  0.2274
 5693SOL    HW128541   2.221   0.786   7.280 -0.9809  1.2925 -2.6956
 5693SOL    HW228542   2.298   0.856   7.381 -0.8333 -1.6773  0.7914
 5694SOL     OW28543   3.242   1.826   7.851  0.3973  0.2897 -0.1225
 5694SOL    HW128544   3.336   1.821   7.866  0.3906 -2.0255 -0.8908
 5694SOL    HW228545   3.192   1.761   7.899 -0.5748  1.8742  1.0109
 5695SOL     OW28546   4.036   1.604   9.182  0.0809  0.1483 -0.0707
 5695SOL    HW128547   4.126   1.611   9.214  0.3921  0.9128 -1.1237
 5695SOL    HW228548   3.986   1.630   9.260  1.0605  0.6751  0.3877
 5696SOL     OW28549   0.085   3.418  10.046  0.5495  0.1482  0.3969
 5696SOL    HW128550   0.024   3.482  10.083 -0.9090 -0.8806 -0.2087
 5696SOL    HW228551   0.161   3.477  10.042  1.6067 -1.0696  3.2653
 5697SOL     OW28552   4.701   4.173   2.549  0.2047  0.0259  0.0089
 5697SOL    HW128553   4.644   4.104   2.514 -1.9287 -0.0477  3.5382
 5697SOL    HW228554   4.678   4.241   2.486 -1.2500 -1.4459 -1.0794
 5698SOL     OW28555   2.063   0.226   1.067  0.3145 -0.0383 -0.5596
 5698SOL    HW128556   2.104   0.219   1.153  0.6104 -2.1773 -0.8710
 5698SOL    HW228557   2.084   0.140   1.030 -2.1811 -0.4980 -0.8786
 5699SOL     OW28558   0.825   1.526   5.254  0.2112 -0.2279 -0.0354
 5699SOL    HW128559   0.887   1.470   5.207  0.1247 -2.2450  2.3001
 5699SOL    HW228560   0.844   1.609   5.210  2.9119  0.3128  2.1178
 5700SOL     OW28561   2.438   1.613   9.584 -0.1065  0.8168  0.2933
 5700SOL    HW128562   2.427   1.693   9.532 -0.4882  0.2055 -0.5557
 5700SOL    HW228563   2.525   1.595   9.548  0.7981  4.1096  0.7785
 5701SOL     OW28564   1.355   4.203   8.065  0.1121  0.3998 -0.4102
 5701SOL    HW128565   1.441   4.181   8.029  1.2033 -0.4442  2.6650
 5701SOL    HW228566   1.339   4.110   8.082 -1.8467  0.6558 -0.9240
 5702SOL     OW28567   1.673   1.906   1.575  0.1838 -0.0495 -0.4040
 5702SOL    HW128568   1.734   1.980   1.579  0.0268 -0.0759  2.5473
 5702SOL    HW228569   1.647   1.887   1.485 -1.1416 -1.2629  0.2283
 5703SOL     OW28570   3.883   4.326   1.392  0.0153  0.0590 -0.5167
 5703SOL    HW128571   3.908   4.373   1.312 -0.4172  1.0784 -0.0487
 5703SOL    HW228572   3.913   4.235   1.382 -2.8213 -0.9592  0.4573
 5704SOL     OW28573   0.523   1.286  10.019  0.3938  0.2520 -0.2210
 5704SOL    HW128574   0.430   1.265  10.012  0.1904  0.5159  1.5200
 5704SOL    HW228575   0.532   1.338   9.939 -0.7860 -0.9259 -1.1119
 5705SOL     OW28576   0.233   0.106   5.062 -0.4391  0.5156  0.4400
 5705SOL    HW128577   0.220   0.013   5.041  1.8297 -0.1767  2.0614
 5705SOL    HW228578   0.326   0.091   5.078 -0.9223 -2.5649  0.3419
 5706SOL     OW28579   0.512   2.365   8.986 -0.8529  0.2786  0.0340
 5706SOL    HW128580   0.572   2.433   9.017 -0.5522  0.7290 -1.5183
 5706SOL    HW228581   0.429   2.397   9.021 -1.0483  2.3975 -2.3768
 5707SOL     OW28582   0.673   4.561   2.368  0.1278 -0.2521 -0.0566
 5707SOL    HW128583   0.687   4.656   2.359 -2.2198 -0.1528 -2.9071
 5707SOL    HW228584   0.731   4.543   2.441 -0.7050 -0.0843  0.6497
 5708SOL     OW28585   1.397   4.167   5.724 -0.1830  0.4892  0.3504
 5708SOL    HW128586   1.408   4.074   5.705 -0.9727  0.3380  0.6196
 5708SOL    HW228587   1.438   4.213   5.651 -0.5570  3.5829  2.0540
 5709SOL     OW28588   1.056   2.770   5.765  0.3579 -0.7762  0.0381
 5709SOL    HW128589   1.053   2.694   5.822 -1.9843 -0.1465  0.7339
 5709SOL    HW228590   1.137   2.763   5.715 -0.5162 -0.4966 -1.4279
 5710SOL     OW28591   0.413   3.288   0.032  0.2246  0.1687  0.2861
 5710SOL    HW128592   0.356   3.356   0.069 -1.0716 -0.2916 -0.8475
 5710SOL    HW228593   0.349   3.240  17.680  0.2799 -0.8996  1.1838
 5711SOL     OW28594   3.693   4.306   2.649 -0.6144 -0.0642  0.2253
 5711SOL    HW128595   3.765   4.276   2.593  0.4833 -0.5905  1.8996
 5711SOL    HW228596   3.646   4.223   2.645  0.1761 -0.4428 -1.1124
 5712SOL     OW28597   3.392   0.779   3.060  0.4427 -0.1305  0.5087
 5712SOL    HW128598   3.451   0.835   3.111 -0.5408 -0.0241  1.5356
 5712SOL    HW228599   3.313   0.795   3.111  0.3273 -2.3193  1.0425
 5713SOL     OW28600   1.362   3.449   5.405  0.3424  0.1113 -0.2173
 5713SOL    HW128601   1.300   3.440   5.333 -0.8201 -1.0067  0.9342
 5713SOL    HW228602   1.326   3.379   5.460  3.9056 -1.5180  0.0646
 5714SOL     OW28603   0.089   1.502   4.537  0.2474  0.6924  0.8847
 5714SOL    HW128604   0.050   1.589   4.536 -2.0493 -0.3472  0.8479
 5714SOL    HW228605   0.117   1.492   4.628 -1.4600  0.3982  1.3870
 5715SOL     OW28606   0.759   4.440   6.403  0.1594 -0.0104 -0.4054
 5715SOL    HW128607   0.816   4.416   6.477 -2.6042 -1.6703  1.2016
 5715SOL    HW228608   0.696   4.491   6.453 -1.9612 -2.1831 -0.8719
 5716SOL     OW28609   0.600   0.821  15.119  0.1095 -0.0712  0.1117
 5716SOL    HW128610   0.635   0.733  15.107 -0.5976 -0.2650 -0.5538
 5716SOL    HW228611   0.559   0.834  15.033 -0.7292  0.7826  0.6446
 5717SOL     OW28612   0.947   4.287   3.176 -0.5631  0.1441 -0.0461
 5717SOL    HW128613   0.980   4.323   3.258  1.9226 -0.3391 -0.8364
 5717SOL    HW228614   0.859   4.255   3.196 -0.7526  0.8936  0.3099
 5718SOL     OW28615   4.293   0.688   6.647  0.1216  0.8875  0.3112
 5718SOL    HW128616   4.240   0.755   6.689 -1.0239  0.1281  0.0709
 5718SOL    HW228617   4.236   0.655   6.578  2.7520  0.8076 -1.8268
 5719SOL     OW28618   0.049   2.477   0.092 -1.0799  0.2507  0.0124
 5719SOL    HW128619   0.038   2.554   0.148 -3.0305  0.5505 -0.7710
 5719SOL    HW228620   0.144   2.466   0.092 -1.1146 -0.0790 -1.7440
 5720SOL     OW28621   1.315   1.183   6.082  0.2049  0.1395  0.1558
 5720SOL    HW128622   1.325   1.274   6.108 -1.6018  0.1277  0.8986
 5720SOL    HW228623   1.221   1.175   6.064 -0.0885  0.2529  1.7010
 5721SOL     OW28624   1.879   3.288   3.503 -0.1145  0.2072 -0.3723
 5721SOL    HW128625   1.789   3.293   3.471 -0.2782  0.5895  0.1477
 5721SOL    HW228626   1.925   3.254   3.427  1.8013 -1.3407  1.4892
 5722SOL     OW28627   3.969   1.183  15.047  0.3370 -0.5245  0.8577
 5722SOL    HW128628   4.062   1.176  15.069  0.6029 -2.5505 -0.8619
 5722SOL    HW228629   3.936   1.230  15.123  1.7066  2.6949 -0.5566
 5723SOL     OW28630   1.369   3.759   8.450  0.1136  0.1712 -0.1859
 5723SOL    HW128631   1.437   3.822   8.476 -0.0472  0.9962 -1.8094
 5723SOL    HW228632   1.287   3.808   8.445 -0.3448 -0.7233 -1.2547
 5724SOL     OW28633   1.523   3.073  10.384 -0.1047  0.0405  0.2706
 5724SOL    HW128634   1.440   3.106  10.418 -0.4281 -2.1090  1.5353
 5724SOL    HW228635   1.575   3.154  10.392  0.0951  0.1350 -1.7745
 5725SOL     OW28636   3.388   1.384   6.047  0.0755  0.7832  0.1775
 5725SOL    HW128637   3.449   1.457   6.037  1.8463 -1.0350 -2.3257
 5725SOL    HW228638   3.360   1.380   5.956  0.0269  0.1619  0.2186
 5726SOL     OW28639   3.558   3.491   3.976  0.0375  0.0271  0.4118
 5726SOL    HW128640   3.592   3.579   3.992  1.0502 -0.3591  0.4344
 5726SOL    HW228641   3.557   3.484   3.881  1.4168  0.4571  0.3546
 5727SOL     OW28642   0.067   3.209   2.401 -0.2563  0.6890 -0.2995
 5727SOL    HW128643   0.112   3.140   2.449 -0.7556  0.3133 -0.3701
 5727SOL    HW228644   4.715   3.166   2.364 -0.6274  0.2216  1.0316
 5728SOL     OW28645   4.537   0.884  13.418 -0.1340 -0.0262  0.0733
 5728SOL    HW128646   4.518   0.791  13.430 -2.4796  0.1985 -1.7436
 5728SOL    HW228647   4.498   0.901  13.332 -1.5546  2.1880  1.1441
 5729SOL     OW28648   1.584   0.988  11.302 -0.0540  0.0578 -0.0560
 5729SOL    HW128649   1.535   0.971  11.222  0.6976  2.4266 -1.0249
 5729SOL    HW228650   1.526   0.957  11.371 -0.7634 -1.0464 -1.1502
 5730SOL     OW28651   2.453   1.005   1.937 -0.6727  0.2989 -0.6367
 5730SOL    HW128652   2.497   1.044   1.861  1.3433  0.1041  0.4280
 5730SOL    HW228653   2.462   0.913   1.912 -0.8789 -0.5048  2.2729
 5731SOL     OW28654   4.257   4.391   9.393 -0.0645 -0.2896 -0.1324
 5731SOL    HW128655   4.217   4.423   9.312  0.3847  0.5658 -0.0190
 5731SOL    HW228656   4.264   4.297   9.375  1.1054 -0.5779  1.8048
 5732SOL     OW28657   3.990   2.548   5.061  0.5480  0.5252  0.9707
 5732SOL    HW128658   4.016   2.634   5.028 -0.5028  1.1791  1.8400
 5732SOL    HW228659   3.898   2.559   5.039  0.2871 -0.6106  1.4600
 5733SOL     OW28660   0.464   1.639   6.344 -0.2859  0.2531 -0.3538
 5733SOL    HW128661   0.509   1.677   6.268  1.2033 -2.1853 -0.6912
 5733SOL    HW228662   0.537   1.585   6.375 -0.4474 -0.4185 -1.1362
 5734SOL     OW28663   2.385   1.689  14.679 -0.1315  0.7558 -0.2333
 5734SOL    HW128664   2.406   1.598  14.656  1.9290  1.1692 -0.0018
 5734SOL    HW228665   2.315   1.679  14.743 -0.1464  1.4709 -0.1427
 5735SOL     OW28666   3.985   2.967   2.237 -0.5221  0.1123 -0.3444
 5735SOL    HW128667   3.988   3.055   2.275 -2.2123  0.4999 -1.0959
 5735SOL    HW228668   3.995   2.907   2.311 -0.3780 -1.1725 -1.3934
 5736SOL     OW28669   3.479   1.479   2.510 -0.7384 -0.4470 -0.7002
 5736SOL    HW128670   3.470   1.452   2.602 -1.1211  0.6420 -0.4184
 5736SOL    HW228671   3.475   1.391   2.472 -0.4626 -0.5256 -0.5522
 5737SOL     OW28672   2.066   0.179   2.497  0.3503  0.8421  0.3936
 5737SOL    HW128673   2.089   0.236   2.571  0.6289  0.0701  0.8985
 5737SOL    HW228674   2.155   0.170   2.463  0.5439  1.3908  0.7441
 5738SOL     OW28675   0.260   4.266   0.193  0.4043 -0.6701  0.1604
 5738SOL    HW128676   0.185   4.306   0.239  0.0021 -0.1022 -1.0046
 5738SOL    HW228677   0.282   4.188   0.244 -1.5669 -1.6171 -0.4375
 5739SOL     OW28678   0.810   1.948  10.105  0.1558 -0.1858  0.4831
 5739SOL    HW128679   0.879   1.966  10.040 -0.5804 -0.4153 -0.3690
 5739SOL    HW228680   0.808   2.029  10.155 -0.5918  0.2404 -0.2307
 5740SOL     OW28681   4.232   1.553   0.516 -0.4954  0.1330  0.3680
 5740SOL    HW128682   4.313   1.503   0.526 -0.4947 -0.0333 -0.4493
 5740SOL    HW228683   4.221   1.570   0.422 -1.7487  1.1810  0.7085
 5741SOL     OW28684   3.299   3.721   8.885  0.4901  0.3567  0.0916
 5741SOL    HW128685   3.231   3.701   8.950  0.1854 -0.1741 -0.3899
 5741SOL    HW228686   3.267   3.667   8.812 -1.5254  1.5676  0.0648
 5742SOL     OW28687   3.561   0.526   3.336 -0.5417 -0.3934  0.1301
 5742SOL    HW128688   3.471   0.549   3.362  0.6019  2.7764  1.2226
 5742SOL    HW228689   3.610   0.597   3.376  0.3764 -1.1556  0.3424
 5743SOL     OW28690   1.510   2.664   0.084  0.2331 -0.1831  0.5239
 5743SOL    HW128691   1.562   2.637   0.160 -0.4500  0.2196  1.1402
 5743SOL    HW228692   1.428   2.615   0.097 -0.1028  0.0212 -0.8960
 5744SOL     OW28693   3.799   3.229   3.995  0.3325  0.0237 -0.4435
 5744SOL    HW128694   3.726   3.240   4.055 -0.9029 -2.6952 -1.4341
 5744SOL    HW228695   3.836   3.143   4.019  0.4206  0.1034 -0.2934
 5745SOL     OW28696   0.783   4.468   3.795 -0.1550  0.0974  0.5834
 5745SOL    HW128697   0.741   4.555   3.790 -1.4368 -0.4406  2.0854
 5745SOL    HW228698   0.719   4.434   3.732 -1.4037  2.6076  0.4946
 5746SOL     OW28699   0.001   1.836   7.076  0.5473  0.3572 -0.3966
 5746SOL    HW128700   0.019   1.795   7.161 -0.3100  1.2957  0.2307
 5746SOL    HW228701   0.038   1.921   7.098  0.0811  0.5429 -0.3244
 5747SOL     OW28702   2.466   1.639   3.773  0.4883  0.0633 -0.0430
 5747SOL    HW128703   2.493   1.548   3.758  0.2538  0.2870 -1.8173
 5747SOL    HW228704   2.397   1.651   3.708 -0.4296 -2.7227  0.4261
 5748SOL     OW28705   4.077   4.492   5.804 -0.3032 -0.3435  0.0847
 5748SOL    HW128706   4.110   4.500   5.894 -0.1438 -2.3342  0.1850
 5748SOL    HW228707   3.999   4.547   5.811 -1.2547 -1.5477 -1.2480
 5749SOL     OW28708   4.067   1.573   4.134  0.0452  0.0684 -0.0191
 5749SOL    HW128709   3.996   1.573   4.070 -1.4342 -1.3887  1.6372
 5749SOL    HW228710   4.051   1.483   4.160 -2.4398  0.5306  0.0593
 5750SOL     OW28711   1.722   2.875   5.656  0.2690 -0.2367  0.6835
 5750SOL    HW128712   1.744   2.966   5.675 -1.5437  0.1331  1.0703
 5750SOL    HW228713   1.705   2.885   5.563  1.8104  0.6324  0.5056
 5751SOL     OW28714   4.600   0.739   1.050 -0.6697  0.4288  0.3690
 5751SOL    HW128715   4.553   0.803   0.997  1.3962  0.3390 -1.5767
 5751SOL    HW228716   4.570   0.758   1.139 -0.2041  2.3008  0.1218
 5752SOL     OW28717   2.771   1.680  16.903  0.4430 -0.7736 -0.2824
 5752SOL    HW128718   2.748   1.603  16.852 -2.8919  0.5198 -0.7947
 5752SOL    HW228719   2.784   1.635  16.986 -0.7660  2.5599  1.7436
 5753SOL     OW28720   0.847   0.749  11.219 -0.0743 -0.1855 -0.2475
 5753SOL    HW128721   0.909   0.822  11.220  0.2642 -0.4822  0.8867
 5753SOL    HW228722   0.842   0.729  11.125 -0.6962  2.6149 -0.8260
 5754SOL     OW28723   1.110   0.812   6.708  0.0455  0.7589 -0.5759
 5754SOL    HW128724   1.079   0.765   6.786  2.9693  1.3426  0.9262
 5754SOL    HW228725   1.041   0.877   6.705 -0.0704  0.7075  0.7490
 5755SOL     OW28726   1.775   4.715   2.113  0.0573  0.5892 -0.1115
 5755SOL    HW128727   1.851   0.006   2.169 -1.2526 -1.2869  2.1916
 5755SOL    HW228728   1.731   4.638   2.148  0.0012  0.8569  0.4039
 5756SOL     OW28729   1.072   2.008   6.166  0.0789 -0.1014 -0.6247
 5756SOL    HW128730   1.095   1.923   6.202  1.1912 -0.3433 -1.8925
 5756SOL    HW228731   1.123   2.013   6.085 -3.2063 -1.8325 -2.7901
 5757SOL     OW28732   2.620   2.735   8.668 -0.2192 -0.1519  0.2692
 5757SOL    HW128733   2.706   2.701   8.694  0.5774  2.0072  0.4959
 5757SOL    HW228734   2.616   2.821   8.710 -1.9634 -2.3221  4.5737
 5758SOL     OW28735   1.903   2.957  14.894 -0.0689 -0.0293  0.6274
 5758SOL    HW128736   1.991   2.939  14.859  0.5075  0.5321  1.7559
 5758SOL    HW228737   1.853   2.936  14.816  0.8454 -2.2079  0.6189
 5759SOL     OW28738   4.605   1.863   1.759 -0.6006  0.3005 -0.4667
 5759SOL    HW128739   4.525   1.875   1.709 -0.8994  0.0708 -0.0469
 5759SOL    HW228740   4.617   1.953   1.790  0.2258  0.6298 -1.7543
 5760SOL     OW28741   4.658   2.555   3.590  0.7432 -0.2365 -0.5342
 5760SOL    HW128742   4.708   2.478   3.617  0.5021 -1.0223 -2.3281
 5760SOL    HW228743   4.680   2.560   3.497  1.3691 -0.8352 -0.4177
 5761SOL     OW28744   0.399   0.318   6.737 -0.1997 -0.0353  0.0717
 5761SOL    HW128745   0.403   0.222   6.739 -2.4491 -0.1344 -0.2180
 5761SOL    HW228746   0.305   0.326   6.721  0.1298 -0.4401 -2.1464
 5762SOL     OW28747   0.015   4.508   2.923 -0.0860  0.1175 -0.2285
 5762SOL    HW128748   0.100   4.544   2.898  0.7371 -0.3629  1.9104
 5762SOL    HW228749   0.032   4.508   3.017  0.5010 -0.4740 -0.3284
 5763SOL     OW28750   3.794   4.064  17.035 -0.2343 -0.2762  0.0498
 5763SOL    HW128751   3.830   4.040  17.120  0.3356  0.4104  0.0017
 5763SOL    HW228752   3.704   4.043  17.060  0.7416 -3.2327  1.1055
 5764SOL     OW28753   2.887   1.183   4.742  0.2793 -0.2801 -0.2785
 5764SOL    HW128754   2.932   1.204   4.660 -0.8145  0.6282 -0.6418
 5764SOL    HW228755   2.823   1.116   4.716  0.6661 -0.8047  0.1218
 5765SOL     OW28756   0.952   0.093   7.612 -0.2189  0.1156  0.2930
 5765SOL    HW128757   0.996   0.051   7.685 -0.6739 -0.8145  0.0360
 5765SOL    HW228758   0.866   0.098   7.655  0.3255 -0.7602  1.4771
 5766SOL     OW28759   2.266   1.164  16.356  0.3132  0.3649 -0.1063
 5766SOL    HW128760   2.252   1.190  16.447 -1.6673 -1.2831  0.0457
 5766SOL    HW228761   2.184   1.195  16.319  0.3398 -0.7109 -1.0752
 5767SOL     OW28762   2.167   0.661   3.007 -0.3380 -0.5799 -0.5336
 5767SOL    HW128763   2.189   0.696   2.921 -0.3029 -1.1225 -0.7456
 5767SOL    HW228764   2.150   0.743   3.052  3.5804 -0.3789  0.6243
 5768SOL     OW28765   1.469   2.194   8.149  0.7598  0.1130 -0.3638
 5768SOL    HW128766   1.381   2.213   8.181  1.4705  1.6934  0.6392
 5768SOL    HW228767   1.453   2.171   8.057  1.4017 -0.2967 -0.3794
 5769SOL     OW28768   2.171   3.361   5.132  0.0053  0.1859 -0.3182
 5769SOL    HW128769   2.161   3.415   5.210 -2.2212 -1.5384  0.5960
 5769SOL    HW228770   2.223   3.290   5.170  1.8786  0.6142 -2.0708
 5770SOL     OW28771   3.852   2.964   4.025  0.7812 -0.6050 -0.0799
 5770SOL    HW128772   3.880   2.888   3.974 -0.1798 -1.0483  0.0629
 5770SOL    HW228773   3.815   2.921   4.102 -0.0966  2.1746  1.0547
 5771SOL     OW28774   4.194   0.901   3.173  0.1634  0.5385  0.2153
 5771SOL    HW128775   4.229   0.814   3.152 -1.0740 -0.3951  1.9868
 5771SOL    HW228776   4.115   0.917   3.122  0.9231  0.7734 -0.8816
 5772SOL     OW28777   3.686   1.637   4.696  0.3788  0.4843 -0.0876
 5772SOL    HW128778   3.628   1.709   4.671  1.0918  0.9669 -0.3655
 5772SOL    HW228779   3.745   1.675   4.760 -0.9422  0.6792  1.0131
 5773SOL     OW28780   2.063   0.902   8.262 -0.2591  0.4147  0.1258
 5773SOL    HW128781   2.119   0.847   8.317 -1.2465 -0.4886  0.2078
 5773SOL    HW228782   2.088   0.989   8.295  3.2016  0.0403 -1.5441
 5774SOL     OW28783   1.666   0.873  12.847 -0.5040  0.5104  0.9338
 5774SOL    HW128784   1.695   0.847  12.934  0.5067  2.3462  1.1360
 5774SOL    HW228785   1.688   0.965  12.864  0.6421  0.0580  1.8993
 5775SOL     OW28786   0.479   4.501  13.067 -0.1525 -0.2861  0.5874
 5775SOL    HW128787   0.566   4.474  13.097  0.2895 -1.3522 -1.6232
 5775SOL    HW228788   0.489   4.592  13.039  0.0638 -1.1744 -2.2090
 5776SOL     OW28789   1.050   0.304   1.208  0.4508 -0.0988  0.4748
 5776SOL    HW128790   0.992   0.335   1.278  0.6980 -0.4581  0.8406
 5776SOL    HW228791   1.030   0.210   1.209 -0.9453  0.1718 -1.0962
 5777SOL     OW28792   0.325   1.386  17.669 -0.0361  0.5273 -0.4075
 5777SOL    HW128793   0.388   1.447  17.630  2.9139 -2.7242 -0.7803
 5777SOL    HW228794   0.320   1.433   0.051  1.8750  2.4799 -1.4005
 5778SOL     OW28795   4.210   3.960   1.319  0.0699 -0.0224  0.3899
 5778SOL    HW128796   4.170   3.874   1.303 -0.4966 -0.2983  3.3962
 5778SOL    HW228797   4.214   3.954   1.414 -1.1641 -0.5652  0.4118
 5779SOL     OW28798   0.419   3.195   4.150  0.3499 -0.3839 -0.1193
 5779SOL    HW128799   0.371   3.207   4.233 -2.0555 -1.6240 -1.3369
 5779SOL    HW228800   0.432   3.282   4.112 -0.3216 -0.7052 -1.1006
 5780SOL     OW28801   3.762   4.586  12.261 -1.1190 -0.1439  0.4284
 5780SOL    HW128802   3.794   4.612  12.348 -0.5223 -2.4792  0.9013
 5780SOL    HW228803   3.709   4.663  12.241 -1.0623 -0.2934 -0.2837
 5781SOL     OW28804   2.821   3.705  10.016 -0.4518  0.0640  0.0098
 5781SOL    HW128805   2.878   3.656   9.957  1.1334  0.7772  0.9442
 5781SOL    HW228806   2.841   3.658  10.097 -1.7775 -1.3122 -0.4740
 5782SOL     OW28807   1.905   2.992   8.883 -0.0907  0.3536  0.4187
 5782SOL    HW128808   1.947   2.943   8.953 -0.6843 -0.7843 -0.0104
 5782SOL    HW228809   1.978   3.023   8.828  0.1629  2.0695  1.7324
 5783SOL     OW28810   1.106   0.835   2.940  0.0684  0.3874  0.1140
 5783SOL    HW128811   1.129   0.908   2.884 -0.9472 -1.3310 -2.5410
 5783SOL    HW228812   1.124   0.878   3.024  1.1882 -0.8463  0.5136
 5784SOL     OW28813   4.095   3.604   3.713  0.5604  0.6119 -0.4564
 5784SOL    HW128814   4.085   3.514   3.683  1.2393  0.6137 -0.6911
 5784SOL    HW228815   4.107   3.651   3.631 -0.1085  1.8740  0.1651
 5785SOL     OW28816   3.849   2.396  16.072 -0.4336 -0.2990 -0.1003
 5785SOL    HW128817   3.873   2.488  16.062  1.7023 -0.6919  1.6342
 5785SOL    HW228818   3.799   2.399  16.154 -2.2412 -1.2446 -1.1532
 5786SOL     OW28819   3.323   2.762  16.965  0.2543  0.6218 -0.3550
 5786SOL    HW128820   3.341   2.800  17.052  1.6504  1.9191 -1.2098
 5786SOL    HW228821   3.410   2.759  16.927  1.0710 -0.9851  1.6316
 5787SOL     OW28822   1.573   2.800  15.518  0.5811  0.0721 -0.0893
 5787SOL    HW128823   1.493   2.843  15.488  0.3262 -0.9756 -0.9019
 5787SOL    HW228824   1.548   2.708  15.524 -0.6284  0.3678 -0.5630
 5788SOL     OW28825   0.790   3.811   6.631  0.0735 -0.0142  0.3691
 5788SOL    HW128826   0.742   3.804   6.548 -1.0927 -0.2267  1.0623
 5788SOL    HW228827   0.752   3.894   6.658  1.0549  0.6395 -0.2650
 5789SOL     OW28828   1.072   1.522   2.923  0.1545 -0.0225  0.1933
 5789SOL    HW128829   1.110   1.609   2.913  1.2056 -0.7200 -1.7169
 5789SOL    HW228830   1.090   1.497   2.833 -0.5987 -1.2873  0.3979
 5790SOL     OW28831   4.150   2.821  16.897  0.1495  0.5454  0.2274
 5790SOL    HW128832   4.231   2.778  16.871 -0.2977  1.0502 -2.0432
 5790SOL    HW228833   4.192   2.899  16.933 -0.6174  1.1876 -0.2467
 5791SOL     OW28834   0.886   4.505  14.963  0.1386  0.6690  0.6759
 5791SOL    HW128835   0.853   4.415  14.962 -1.7103  1.3433  0.2116
 5791SOL    HW228836   0.966   4.492  15.012  1.1249  1.1318 -0.8119
 5792SOL     OW28837   4.381   1.510   1.278 -0.4254 -0.2172 -0.0032
 5792SOL    HW128838   4.362   1.438   1.218  1.6514 -2.2966  1.8550
 5792SOL    HW228839   4.355   1.586   1.225  0.2342 -0.2285 -0.3361
 5793SOL     OW28840   4.113   2.184  16.811 -0.5613 -0.1985  0.4877
 5793SOL    HW128841   4.111   2.264  16.864 -1.4022  1.4860 -2.1018
 5793SOL    HW228842   4.166   2.222  16.742 -0.0209 -3.4519 -0.8901
 5794SOL     OW28843   3.462   2.915  11.010  0.1378  0.0098  1.0958
 5794SOL    HW128844   3.462   3.004  11.046 -0.8434 -0.3225  1.8997
 5794SOL    HW228845   3.541   2.907  10.957 -0.6340 -1.1985  0.1273
 5795SOL     OW28846   2.837   2.999   8.698 -0.1836  0.0874  0.1139
 5795SOL    HW128847   2.870   3.064   8.760  0.1994 -1.5411  1.6442
 5795SOL    HW228848   2.784   3.059   8.646 -0.9599 -0.8579 -0.1804
 5796SOL     OW28849   2.696   4.572   3.252 -0.5104 -0.0528  0.1738
 5796SOL    HW128850   2.654   4.656   3.237 -1.7761 -0.4240  1.5694
 5796SOL    HW228851   2.631   4.528   3.308  1.8825 -0.2645  2.8126
 5797SOL     OW28852   4.385   1.839   7.973  0.5451 -0.1827  0.0973
 5797SOL    HW128853   4.437   1.843   7.893 -0.4415  0.1852 -0.5203
 5797SOL    HW228854   4.399   1.927   8.007  2.9044  0.5916 -2.8377
 5798SOL     OW28855   0.278   0.391  15.357 -0.4973  0.5691 -0.3947
 5798SOL    HW128856   0.233   0.311  15.384  1.3559 -0.7551 -1.2251
 5798SOL    HW228857   0.312   0.375  15.269  0.0044 -2.8930  0.4337
 5799SOL     OW28858   4.211   2.485   1.822  0.6261 -0.1699 -0.8834
 5799SOL    HW128859   4.146   2.553   1.840  0.4882  0.0904 -2.3539
 5799SOL    HW228860   4.195   2.423   1.893 -1.8083  1.9261  0.3703
 5800SOL     OW28861   0.462   1.598  12.989 -0.5532 -0.1751 -0.3686
 5800SOL    HW128862   0.395   1.539  12.955 -0.7955 -0.0016 -0.1885
 5800SOL    HW228863   0.430   1.615  13.078 -0.7310 -2.1606 -0.0379
 5801SOL     OW28864   4.017   0.922  12.925 -0.5514 -0.2942  0.1719
 5801SOL    HW128865   4.070   0.892  12.999  0.9570 -0.3243 -0.9212
 5801SOL    HW228866   4.073   0.995  12.896 -0.7229 -0.5330 -0.7443
 5802SOL     OW28867   1.077   0.608  14.236  0.2441 -0.1998 -0.1875
 5802SOL    HW128868   1.036   0.642  14.316  2.1893  0.5175  0.5124
 5802SOL    HW228869   1.158   0.658  14.249  0.1177 -0.2955  0.9341
 5803SOL     OW28870   1.601   0.749   3.656  0.4427  0.2213 -0.2720
 5803SOL    HW128871   1.646   0.818   3.608  0.3416 -0.2523 -1.0389
 5803SOL    HW228872   1.594   0.671   3.601  1.2663  1.2889 -1.8745
 5804SOL     OW28873   4.317   2.235   7.149 -0.0768 -0.3810  0.4903
 5804SOL    HW128874   4.355   2.299   7.210 -1.2498  0.5499  0.2364
 5804SOL    HW228875   4.363   2.154   7.170 -1.6087 -0.9465  1.5982
 5805SOL     OW28876   2.648   1.038   3.816 -0.1918  0.4016  0.2894
 5805SOL    HW128877   2.687   1.124   3.827  0.7905  0.0248 -0.2176
 5805SOL    HW228878   2.589   1.025   3.891  1.0226  2.0807  1.5150
 5806SOL     OW28879   0.091   1.740   8.852  0.0853 -0.2779 -0.1676
 5806SOL    HW128880   0.123   1.830   8.856  1.4180 -0.7803  0.6170
 5806SOL    HW228881   0.090   1.720   8.759  0.5038  0.9055 -0.4289
 5807SOL     OW28882   2.268   4.049   5.782 -0.2467  0.0770  0.3280
 5807SOL    HW128883   2.194   4.106   5.764 -0.3849 -0.3959 -0.6015
 5807SOL    HW228884   2.322   4.064   5.704 -0.9665  1.5576  0.1187
 5808SOL     OW28885   4.620   3.240   3.869  0.0887 -0.1400 -0.4483
 5808SOL    HW128886   4.687   3.178   3.840  0.0412  0.0663 -1.0171
 5808SOL    HW228887   4.539   3.191   3.853  0.6902 -1.1066 -0.5299
 5809SOL     OW28888   1.257   4.133   6.134 -0.0747  0.1895 -0.0052
 5809SOL    HW128889   1.185   4.115   6.073  0.2571  0.3396 -0.4454
 5809SOL    HW228890   1.204   4.161   6.209  0.3362 -0.9254  0.6930
 5810SOL     OW28891   4.114   1.661   5.997  0.4668  0.2355 -0.2807
 5810SOL    HW128892   4.199   1.650   6.039 -0.0583  1.2978  1.0525
 5810SOL    HW228893   4.135   1.713   5.919 -2.9115  0.8529 -0.7958
 5811SOL     OW28894   0.422   2.214   5.765 -0.3350 -0.6837  0.1078
 5811SOL    HW128895   0.481   2.273   5.812  0.3807 -0.9173 -0.4887
 5811SOL    HW228896   0.492   2.162   5.723  0.3394  0.2308  0.1077
 5812SOL     OW28897   2.911   4.509  17.045  0.5708 -0.7361 -0.3148
 5812SOL    HW128898   2.856   4.581  17.017  0.5999 -0.4571  0.3538
 5812SOL    HW228899   2.894   4.456  16.967 -0.7301  1.9165 -1.7871
 5813SOL     OW28900   0.573   1.326   7.035 -0.0688  0.0784 -0.0589
 5813SOL    HW128901   0.624   1.309   6.956  2.2062  1.5337  1.0952
 5813SOL    HW228902   0.560   1.420   7.030 -0.7527 -0.0792 -1.2690
 5814SOL     OW28903   0.816   1.701  10.207  0.2496 -0.0235  0.1988
 5814SOL    HW128904   0.753   1.640  10.169 -1.2434  2.5095 -1.3424
 5814SOL    HW228905   0.803   1.776  10.150  1.0095  0.8949  1.2359
 5815SOL     OW28906   1.674   3.985   5.945 -0.0536 -0.1183  0.2096
 5815SOL    HW128907   1.632   3.970   6.030 -1.1317  0.3182 -0.2455
 5815SOL    HW228908   1.749   3.925   5.954  0.1821  0.3893  1.7298
 5816SOL     OW28909   0.545   2.888   8.826 -0.1160 -0.0200 -0.0764
 5816SOL    HW128910   0.551   2.910   8.733  2.6969 -0.1067  0.0850
 5816SOL    HW228911   0.640   2.880   8.838  0.1930  1.6419 -1.2838
 5817SOL     OW28912   1.460   0.248  11.106  0.0839 -0.1886  0.3997
 5817SOL    HW128913   1.513   0.194  11.047 -1.0535 -2.4289  1.4446
 5817SOL    HW228914   1.518   0.290  11.169 -0.4960 -0.7595  1.3033
 5818SOL     OW28915   4.513   1.593  15.178  0.0644 -0.1122  0.2638
 5818SOL    HW128916   4.518   1.686  15.159  1.2720  0.1625  2.0288
 5818SOL    HW228917   4.455   1.595  15.254  0.1730  2.6627  0.2587
 5819SOL     OW28918   2.978   1.090   1.487 -0.0206 -0.3693 -0.3316
 5819SOL    HW128919   3.026   1.014   1.520 -1.1810 -0.8102  0.3383
 5819SOL    HW228920   2.913   1.110   1.554  0.5620 -1.4497  0.5670
 5820SOL     OW28921   3.659   3.385  13.648  0.2296 -0.2939 -0.4505
 5820SOL    HW128922   3.580   3.342  13.615  0.2817 -0.2912 -0.5769
 5820SOL    HW228923   3.690   3.310  13.699  0.4483 -1.0844 -1.7728
 5821SOL     OW28924   2.157   1.557   4.789 -0.5971  0.4001 -0.2162
 5821SOL    HW128925   2.153   1.648   4.818  0.1021  0.1482  0.6540
 5821SOL    HW228926   2.167   1.572   4.695  1.7341 -0.4419 -0.0950
 5822SOL     OW28927   1.927   0.321  13.020  0.4303 -0.1049  0.0084
 5822SOL    HW128928   1.922   0.383  13.093  0.7063 -1.1012  0.8809
 5822SOL    HW228929   2.006   0.340  12.969  0.5169  0.6957  0.4288
 5823SOL     OW28930   2.490   2.145   1.232  0.0986  0.4190  0.3689
 5823SOL    HW128931   2.509   2.168   1.141  0.2690  1.6927  0.7380
 5823SOL    HW228932   2.437   2.066   1.227 -0.7971  0.9821  0.9531
 5824SOL     OW28933   1.248   1.759   6.155 -0.5941 -0.4702 -0.8476
 5824SOL    HW128934   1.242   1.751   6.060 -0.2405 -1.7809 -0.7491
 5824SOL    HW228935   1.176   1.702   6.181  1.0612 -1.0471  2.4638
 5825SOL     OW28936   2.437   0.779   3.358  0.0743 -0.5387  0.0306
 5825SOL    HW128937   2.452   0.740   3.444 -1.8511 -0.1048  0.5747
 5825SOL    HW228938   2.383   0.706   3.328  1.7880 -1.4268 -0.9057
 5826SOL     OW28939   3.508   2.582   9.950  0.3494  1.0153 -0.5802
 5826SOL    HW128940   3.550   2.504   9.986  0.7082  1.2084 -0.5810
 5826SOL    HW228941   3.575   2.611   9.887  1.5602 -0.6903 -0.0993
 5827SOL     OW28942   4.226   4.172   4.439  0.4331 -0.1234  0.5633
 5827SOL    HW128943   4.136   4.201   4.446  1.0941  1.6049  1.8635
 5827SOL    HW228944   4.228   4.135   4.351  0.3874  1.9555 -0.3097
 5828SOL     OW28945   0.624   1.959   3.332 -0.1674  0.2480 -0.4310
 5828SOL    HW128946   0.671   2.024   3.383  1.7934 -0.7311 -1.0069
 5828SOL    HW228947   0.690   1.928   3.270 -2.2193 -0.9095 -2.0481
 5829SOL     OW28948   2.054   1.761   4.082 -0.1527  0.0660 -0.5943
 5829SOL    HW128949   2.069   1.714   4.000 -1.9258  0.3666 -1.0996
 5829SOL    HW228950   2.144   1.793   4.088 -0.9774  1.9915  1.6246
 5830SOL     OW28951   0.524   2.340  16.198 -0.4804 -0.1615  0.0042
 5830SOL    HW128952   0.585   2.364  16.128 -1.3155 -0.5702 -0.8624
 5830SOL    HW228953   0.476   2.423  16.199  1.6520  1.1015 -2.5934
 5831SOL     OW28954   0.942   4.270  13.537  0.7044  0.3445  0.3792
 5831SOL    HW128955   1.023   4.313  13.564  1.7775  0.6409 -3.2544
 5831SOL    HW228956   0.970   4.180  13.519  1.4074  0.4580  0.9161
 5832SOL     OW28957   4.204   3.335   1.249 -0.8291 -0.0989 -0.1768
 5832SOL    HW128958   4.280   3.364   1.199  0.1056  2.7841  2.8847
 5832SOL    HW228959   4.155   3.287   1.182  0.2706 -2.1379  0.4921
 5833SOL     OW28960   3.874   4.246  15.764 -0.4620  0.3060  0.3127
 5833SOL    HW128961   3.823   4.165  15.769 -1.6972  1.1158  0.9536
 5833SOL    HW228962   3.839   4.291  15.688  0.9569  0.5992 -0.1577
 5834SOL     OW28963   1.163   4.180   2.239 -0.5115 -0.0235  0.8136
 5834SOL    HW128964   1.188   4.214   2.325 -2.1563  1.9662  0.5316
 5834SOL    HW228965   1.095   4.243   2.216  0.9776  0.6736 -1.6048
 5835SOL     OW28966   2.581   0.136   8.265 -0.3074 -0.2113 -0.0765
 5835SOL    HW128967   2.525   0.213   8.268  0.2520  0.1592  0.5057
 5835SOL    HW228968   2.559   0.073   8.334 -1.0823 -1.1589 -1.1853
 5836SOL     OW28969   2.413   2.251   8.928 -0.3313 -0.1115  0.2052
 5836SOL    HW128970   2.505   2.279   8.930 -0.0372 -0.9517 -1.1536
 5836SOL    HW228971   2.422   2.158   8.949  0.6505 -0.6980 -2.7198
 5837SOL     OW28972   0.498   3.264   5.570 -0.2773  0.2119  0.0756
 5837SOL    HW128973   0.580   3.304   5.598 -0.9706  0.6908  1.4324
 5837SOL    HW228974   0.469   3.335   5.512 -0.5592  0.1026  0.0842
 5838SOL     OW28975   2.715   3.011  11.792 -0.4234 -0.5883 -0.0275
 5838SOL    HW128976   2.714   2.937  11.854 -0.0409  0.5282  1.3054
 5838SOL    HW228977   2.622   3.034  11.787 -0.2111  0.6204  1.5343
 5839SOL     OW28978   3.341   1.908   4.082 -0.0063 -0.6566  0.3579
 5839SOL    HW128979   3.401   1.860   4.138 -0.6270  1.6762  3.0202
 5839SOL    HW228980   3.362   1.998   4.108 -0.1348 -1.6253  3.7882
 5840SOL     OW28981   2.255   3.675   6.420  0.3125  0.4702 -0.1656
 5840SOL    HW128982   2.307   3.604   6.382 -2.0993 -0.0287 -2.5487
 5840SOL    HW228983   2.324   3.731   6.455 -0.6303  2.4926 -1.5276
 5841SOL     OW28984   2.346   1.332   1.653 -0.1311 -0.2960  0.3654
 5841SOL    HW128985   2.326   1.373   1.737 -2.0194 -0.1745 -0.1575
 5841SOL    HW228986   2.400   1.260   1.686 -0.8517 -1.7229 -1.6048
 5842SOL     OW28987   2.639   3.059  13.350 -0.1645  0.0604 -0.8511
 5842SOL    HW128988   2.613   3.007  13.427 -0.0559 -0.3621 -1.0990
 5842SOL    HW228989   2.649   2.991  13.284 -1.3066 -1.7635  0.8276
 5843SOL     OW28990   3.367   2.026  17.288  0.2345  0.0172 -0.5969
 5843SOL    HW128991   3.315   1.996  17.214 -0.3585  0.8498 -0.5193
 5843SOL    HW228992   3.412   2.104  17.254  0.0268  0.4675  0.1471
 5844SOL     OW28993   4.478   2.894   5.274  0.3686 -0.6409  0.1963
 5844SOL    HW128994   4.517   2.821   5.322 -0.7040 -0.7906  0.8459
 5844SOL    HW228995   4.483   2.851   5.188  0.0969 -0.4353  0.0759
 5845SOL     OW28996   4.391   2.484  12.592  0.3840 -0.0858  0.2334
 5845SOL    HW128997   4.470   2.430  12.587  0.8858  0.6779 -0.0681
 5845SOL    HW228998   4.352   2.463  12.507 -2.8431  0.1600  1.6635
 5846SOL     OW28999   2.603   1.506   5.402  0.4699 -0.1681  0.7828
 5846SOL    HW129000   2.552   1.587   5.412  1.1261  0.0626  2.1939
 5846SOL    HW229001   2.550   1.443   5.450 -0.4318  0.5497  0.7405
 5847SOL     OW29002   1.455   1.992   4.678  0.3742  0.3085 -0.4376
 5847SOL    HW129003   1.481   2.023   4.765 -1.8140  1.4425 -0.1804
 5847SOL    HW229004   1.474   2.052   4.607  1.8984  1.1840  0.7093
 5848SOL     OW29005   1.992   3.734   3.344  0.4977  0.1388  0.3475
 5848SOL    HW129006   2.075   3.781   3.342  0.4080  0.2727 -0.1168
 5848SOL    HW229007   2.013   3.650   3.305 -0.1887  0.7267 -1.2808
 5849SOL     OW29008   1.975   4.457  15.135  0.5619 -0.0217 -0.1055
 5849SOL    HW129009   1.943   4.483  15.049 -3.0430 -0.2499  1.1494
 5849SOL    HW229010   1.946   4.525  15.196 -1.5058 -1.8636  0.9518
 5850SOL     OW29011   3.333   4.013  13.228 -0.3048  0.6685 -0.3704
 5850SOL    HW129012   3.394   3.940  13.215  0.0291  0.6811  1.0965
 5850SOL    HW229013   3.263   3.981  13.286 -0.2408 -1.3022 -1.3638
 5851SOL     OW29014   1.253   4.285   5.049  0.1076  0.2729  0.1246
 5851SOL    HW129015   1.239   4.250   5.137 -0.7326  0.7446  0.1739
 5851SOL    HW229016   1.168   4.263   5.012 -0.2788  2.3769 -0.1848
 5852SOL     OW29017   0.123   3.537  14.775  0.0173 -0.7104  0.1419
 5852SOL    HW129018   0.132   3.444  14.798  2.8984 -1.1198 -2.6720
 5852SOL    HW229019   0.055   3.522  14.709  1.8244 -0.8702 -1.6690
 5853SOL     OW29020   0.704   4.054   4.713 -0.2384  0.2150 -0.3825
 5853SOL    HW129021   0.796   4.032   4.697 -0.1734 -0.0133  0.2907
 5853SOL    HW229022   0.660   3.981   4.756 -1.5003  0.8773 -0.5441
 5854SOL     OW29023   2.868   0.791   8.104  0.1183  0.6328 -0.4662
 5854SOL    HW129024   2.812   0.739   8.161 -0.4791  0.6683 -1.0204
 5854SOL    HW229025   2.938   0.730   8.084  1.0093  1.4608  0.1403
 5855SOL     OW29026   2.149   1.175   3.696 -0.6341  0.6439  0.5780
 5855SOL    HW129027   2.071   1.192   3.644 -0.0908  0.1576 -0.4025
 5855SOL    HW229028   2.199   1.127   3.630 -1.7235 -1.7993  1.5451
 5856SOL     OW29029   0.962   1.059  11.638  0.3569 -0.3447  0.1371
 5856SOL    HW129030   0.869   1.058  11.659  0.1530 -2.4814 -0.8468
 5856SOL    HW229031   0.989   1.135  11.689 -0.6239  0.5006 -0.5988
 5857SOL     OW29032   2.773   2.405   9.435 -0.4960  0.0245 -0.0672
 5857SOL    HW129033   2.778   2.344   9.508  2.4168 -0.8727 -1.0040
 5857SOL    HW229034   2.863   2.427   9.409 -0.6910 -0.4150 -1.1099
 5858SOL     OW29035   4.190   4.160   0.942 -0.6036  0.5445 -0.1948
 5858SOL    HW129036   4.216   4.207   1.022  2.9336 -1.5939 -0.1147
 5858SOL    HW229037   4.131   4.093   0.976 -0.3512  1.4095  1.9570
 5859SOL     OW29038   4.581   4.417   6.078  0.3545  0.3007  0.6964
 5859SOL    HW129039   4.640   4.489   6.100 -0.2314  1.2614 -0.8970
 5859SOL    HW229040   4.647   4.348   6.075  0.5416  0.5160 -0.1450
 5860SOL     OW29041   0.099   1.328  13.536 -0.4246  0.1427 -0.1010
 5860SOL    HW129042   0.047   1.255  13.505 -3.1027  1.9220  0.2115
 5860SOL    HW229043   0.186   1.315  13.498 -0.5844  1.1400 -0.8246
 5861SOL     OW29044   3.820   4.008   4.190 -0.2645 -0.3458  0.3012
 5861SOL    HW129045   3.825   4.032   4.283 -1.5196 -0.8865  0.5098
 5861SOL    HW229046   3.881   3.936   4.179 -2.1473 -1.8148 -0.4119
 5862SOL     OW29047   2.784   0.712  11.569 -0.2132 -0.9133  0.5438
 5862SOL    HW129048   2.840   0.744  11.497 -0.9282  1.3921  1.0200
 5862SOL    HW229049   2.786   0.775  11.641 -0.2390  0.6460 -0.8138
 5863SOL     OW29050   1.573   4.658   4.909 -0.3531 -0.1007 -0.0709
 5863SOL    HW129051   1.595   4.615   4.992  0.3081  0.7713  0.2107
 5863SOL    HW229052   1.660   4.679   4.873  0.6398 -0.8966  1.8387
 5864SOL     OW29053   1.393   3.039  11.716 -0.2573  0.1917 -0.3431
 5864SOL    HW129054   1.479   3.020  11.680 -0.0405 -0.0929  0.3268
 5864SOL    HW229055   1.344   3.052  11.635  1.0535  1.0017 -0.9911
 5865SOL     OW29056   0.263   4.191   7.545  0.0920 -0.0036  0.3350
 5865SOL    HW129057   0.229   4.201   7.456  0.8939  0.3256  0.0699
 5865SOL    HW229058   0.326   4.263   7.540 -0.0446  0.2740  2.5781
 5866SOL     OW29059   3.284   4.131  11.695  0.4426  0.2926 -0.5195
 5866SOL    HW129060   3.378   4.125  11.679  0.4276  1.5066 -1.0814
 5866SOL    HW229061   3.257   4.040  11.681 -0.0231  0.8590 -3.3330
 5867SOL     OW29062   1.823   3.488   7.457  0.4241 -0.5413 -0.4295
 5867SOL    HW129063   1.853   3.579   7.458 -2.1131  0.2958  0.6179
 5867SOL    HW229064   1.743   3.505   7.507  0.0727 -1.2365 -0.7608
 5868SOL     OW29065   2.289   0.550  15.072  0.1424 -0.4040 -0.1790
 5868SOL    HW129066   2.247   0.626  15.033 -0.4751  0.9641  3.0840
 5868SOL    HW229067   2.342   0.523  14.998  0.3419  0.5857 -0.3899
 5869SOL     OW29068   3.619   1.219   2.463 -0.9024  0.3563  0.2881
 5869SOL    HW129069   3.645   1.141   2.513 -1.6863 -1.9670 -2.8856
 5869SOL    HW229070   3.699   1.267   2.442 -0.5500 -0.1486  0.4664
 5870SOL     OW29071   4.040   3.885  13.857 -0.4516  0.0746 -0.5999
 5870SOL    HW129072   4.027   3.933  13.775 -0.4855 -0.9766 -1.2032
 5870SOL    HW229073   3.952   3.853  13.876 -1.4818  1.7277 -2.5456
 5871SOL     OW29074   3.850   4.417  17.365  0.1429  0.3717  0.4986
 5871SOL    HW129075   3.757   4.405  17.348  0.3663 -0.7203  0.0589
 5871SOL    HW229076   3.872   4.351  17.431  1.1263 -0.3188 -0.5062
 5872SOL     OW29077   3.254   1.771   7.132  0.8017  0.0269  0.4989
 5872SOL    HW129078   3.221   1.759   7.043  1.8275 -1.3573  0.3162
 5872SOL    HW229079   3.327   1.710   7.140 -0.4677 -1.5830 -0.3103
 5873SOL     OW29080   3.471   3.130   1.260  0.1985 -0.4416  0.3187
 5873SOL    HW129081   3.503   3.196   1.198 -3.6914  1.8888  0.7939
 5873SOL    HW229082   3.467   3.183   1.339  2.5136  0.9624 -0.5063
 5874SOL     OW29083   0.415   1.467   9.620 -0.2162 -0.1473 -0.0275
 5874SOL    HW129084   0.439   1.519   9.543  0.9417 -0.2718  0.2463
 5874SOL    HW229085   0.384   1.387   9.578  0.0942  0.3291 -1.1888
 5875SOL     OW29086   4.046   3.895   5.009  0.6053 -0.0889 -0.6650
 5875SOL    HW129087   4.071   3.850   5.089  1.2384 -1.2609 -1.5299
 5875SOL    HW229088   4.066   3.825   4.947  0.3875 -0.9369  0.2314
 5876SOL     OW29089   3.222   4.448  10.583  0.2918  0.2708 -0.5889
 5876SOL    HW129090   3.294   4.393  10.552 -1.6012 -1.0404 -2.6416
 5876SOL    HW229091   3.241   4.534  10.546  1.6562 -0.0737 -0.6965
 5877SOL     OW29092   1.206   2.579  13.518 -0.5590 -0.1959 -1.0224
 5877SOL    HW129093   1.240   2.504  13.566 -0.7110 -1.1636 -2.4467
 5877SOL    HW229094   1.123   2.547  13.482 -0.9471  0.2373 -0.5226
 5878SOL     OW29095   2.888   0.188   1.211 -0.3069 -0.7133 -0.3898
 5878SOL    HW129096   2.866   0.155   1.124 -1.3626  2.2213 -1.2750
 5878SOL    HW229097   2.845   0.274   1.217  0.1918 -0.3015 -2.4117
 5879SOL     OW29098   3.065   0.729   5.913  0.1061 -0.1166  0.6003
 5879SOL    HW129099   2.988   0.673   5.903  0.1889 -0.0464 -0.3699
 5879SOL    HW229100   3.079   0.723   6.008 -0.5776  0.9724  0.7749
 5880SOL     OW29101   0.291   2.582   8.854 -0.4662  0.2968 -0.0607
 5880SOL    HW129102   0.329   2.564   8.768  0.7036 -0.0490  0.5357
 5880SOL    HW229103   0.275   2.491   8.879  1.6670  0.0284  0.2628
 5881SOL     OW29104   1.363   4.001  12.915  0.4755 -0.3310 -0.2943
 5881SOL    HW129105   1.299   3.945  12.871 -1.2115  2.8589 -1.8458
 5881SOL    HW229106   1.314   4.044  12.985  1.7072  2.3727 -1.1230
 5882SOL     OW29107   3.195   0.424   4.127 -0.6125 -0.4896 -0.6122
 5882SOL    HW129108   3.115   0.472   4.149  0.2845  1.4095 -1.5037
 5882SOL    HW229109   3.215   0.454   4.039 -0.4719  0.0698 -0.3928
 5883SOL     OW29110   3.728   3.912   6.818 -0.1313  0.0388  0.0464
 5883SOL    HW129111   3.645   3.917   6.771  0.5373 -1.0913 -1.2697
 5883SOL    HW229112   3.749   3.819   6.809  2.2335  0.8119 -2.5570
 5884SOL     OW29113   2.507   3.820   2.192 -0.5654  0.1132  0.1777
 5884SOL    HW129114   2.432   3.788   2.144 -0.1320  1.9337 -1.7283
 5884SOL    HW229115   2.453   3.864   2.258  0.6335  0.5826  0.8451
 5885SOL     OW29116   2.003   3.725   7.450 -0.3532  0.5343 -0.1018
 5885SOL    HW129117   1.937   3.762   7.391 -0.0510  2.0110  0.5029
 5885SOL    HW229118   2.085   3.761   7.417  0.3348 -1.1560 -0.2444
 5886SOL     OW29119   3.060   1.502   5.113 -0.1101 -0.1993 -0.1916
 5886SOL    HW129120   3.114   1.553   5.053  0.7568 -0.1071  0.6633
 5886SOL    HW229121   2.994   1.457   5.060 -0.2005  0.7746 -0.9015
 5887SOL     OW29122   0.145   2.749   5.361 -0.3669 -0.6514  0.5973
 5887SOL    HW129123   0.104   2.678   5.312 -0.7985 -0.8720  1.2753
 5887SOL    HW229124   0.222   2.710   5.402 -0.3213  1.5442  2.5622
 5888SOL     OW29125   3.339   3.085   6.440 -0.3829 -0.1272 -0.2676
 5888SOL    HW129126   3.402   3.058   6.507 -0.1787 -0.3324 -0.5413
 5888SOL    HW229127   3.397   3.112   6.368  1.1766 -0.1188  0.9900
 5889SOL     OW29128   4.250   3.057   8.083 -0.0200  0.4388 -0.3563
 5889SOL    HW129129   4.329   3.092   8.124  0.5770 -0.6230 -0.6058
 5889SOL    HW229130   4.246   2.976   8.133 -1.9323 -0.3684 -1.8315
 5890SOL     OW29131   3.267   3.819   7.947 -0.0792  0.0347 -0.9028
 5890SOL    HW129132   3.293   3.831   8.038 -0.5213  0.0040 -0.7728
 5890SOL    HW229133   3.190   3.876   7.942 -1.5986 -1.8678  0.6812
 5891SOL     OW29134   0.990   2.184  17.332 -0.2873  0.1998  0.5797
 5891SOL    HW129135   0.954   2.268  17.304 -2.0054 -0.7947 -0.2602
 5891SOL    HW229136   0.941   2.127  17.272 -0.4861 -0.0102  0.9431
 5892SOL     OW29137   1.466   1.398  14.972 -0.0966  0.0415 -1.1957
 5892SOL    HW129138   1.388   1.435  14.929 -1.3786 -1.3574 -0.0676
 5892SOL    HW229139   1.510   1.479  15.000 -1.1963  0.0530  0.4947
 5893SOL     OW29140   0.758   2.612   8.451  0.1116 -0.7079 -0.9408
 5893SOL    HW129141   0.841   2.572   8.480  0.4936  0.6943 -0.1106
 5893SOL    HW229142   0.695   2.543   8.472  2.1067 -2.0629  0.5788
 5894SOL     OW29143   3.070   2.513  12.418  0.5335 -0.5000 -0.0068
 5894SOL    HW129144   3.017   2.505  12.497 -2.3268 -0.5665 -1.9180
 5894SOL    HW229145   3.136   2.446  12.438  1.0929  0.0531  0.0072
 5895SOL     OW29146   1.513   1.094   0.225 -0.1023  0.4924  0.1718
 5895SOL    HW129147   1.591   1.127   0.269 -1.1892  1.2892  1.5087
 5895SOL    HW229148   1.469   1.175   0.199 -0.0719  0.9345  1.5139
 5896SOL     OW29149   1.102   1.925  10.961 -0.4586 -0.5709  0.4542
 5896SOL    HW129150   1.035   1.899  11.025 -1.7626  2.1916  0.1981
 5896SOL    HW229151   1.132   1.844  10.921 -0.8425 -1.0832  1.1957
 5897SOL     OW29152   3.800   0.780   6.126  0.2172 -0.4344  0.1975
 5897SOL    HW129153   3.878   0.796   6.179  0.9395 -0.8177 -0.7404
 5897SOL    HW229154   3.788   0.861   6.075  0.7183 -0.2873  0.3165
 5898SOL     OW29155   2.840   1.053   8.571 -0.4222  0.4633 -0.0847
 5898SOL    HW129156   2.921   1.057   8.521 -0.4960 -2.9990 -0.4577
 5898SOL    HW229157   2.790   0.988   8.523 -0.5630  1.7811 -1.7157
 5899SOL     OW29158   3.557   1.397   3.649  0.1939  0.6996 -0.7222
 5899SOL    HW129159   3.568   1.485   3.612 -0.6615  1.1448  0.0789
 5899SOL    HW229160   3.650   1.374   3.647  0.2801  0.9656  0.1760
 5900SOL     OW29161   0.556   0.163   5.951  0.2294 -0.4457 -0.1053
 5900SOL    HW129162   0.503   0.225   5.901  0.7876 -1.5786 -2.1089
 5900SOL    HW229163   0.576   0.115   5.870 -0.5750  2.8737 -2.3122
 5901SOL     OW29164   3.576   2.300   6.544 -0.5163 -0.2892 -0.4787
 5901SOL    HW129165   3.598   2.212   6.513  0.5395 -1.2678  3.0833
 5901SOL    HW229166   3.646   2.316   6.606  0.2876 -0.2391 -1.4012
 5902SOL     OW29167   4.166   1.514   2.616  0.2738 -0.1716 -0.0697
 5902SOL    HW129168   4.172   1.421   2.597 -0.4392 -0.0615 -0.8340
 5902SOL    HW229169   4.085   1.529   2.567 -0.5939  2.2907  2.0623
 5903SOL     OW29170   1.183   0.630   3.302  0.2435 -0.4558  0.0738
 5903SOL    HW129171   1.162   0.589   3.218 -1.7209 -0.2771  0.4801
 5903SOL    HW229172   1.234   0.708   3.282  0.3129 -1.0284 -1.9321
 5904SOL     OW29173   0.782   0.787  10.254 -0.0895 -0.2848 -0.4761
 5904SOL    HW129174   0.801   0.865  10.307 -0.7696  0.2587 -1.0364
 5904SOL    HW229175   0.714   0.749  10.309  0.3644 -0.5636 -0.1024
 5905SOL     OW29176   1.205   2.531  14.775 -0.0411  0.5495 -0.1121
 5905SOL    HW129177   1.269   2.599  14.753  0.3829  0.6220  1.3711
 5905SOL    HW229178   1.126   2.585  14.782  0.2096  1.2085 -2.2368
 5906SOL     OW29179   0.946   4.488   1.905  0.1921  0.4466 -0.0262
 5906SOL    HW129180   1.012   4.547   1.941  0.5249  0.9472 -1.4305
 5906SOL    HW229181   0.943   4.504   1.810  2.5273  0.3693 -0.1170
 5907SOL     OW29182   1.613   0.479   7.525  0.4032 -0.2563 -0.4218
 5907SOL    HW129183   1.666   0.492   7.604  1.0473 -2.7735 -0.4461
 5907SOL    HW229184   1.661   0.412   7.477  0.6252 -1.3207  1.2563
 5908SOL     OW29185   0.913   3.972   7.679 -0.2082  0.2955 -0.0588
 5908SOL    HW129186   0.820   3.978   7.659 -0.4276  0.4382  1.0176
 5908SOL    HW229187   0.914   3.901   7.743  1.4870  1.2018  0.9020
 5909SOL     OW29188   0.755   4.538  11.377  0.4948 -0.6728 -0.5690
 5909SOL    HW129189   0.849   4.553  11.391  0.1737 -1.8389  2.9086
 5909SOL    HW229190   0.726   4.515  11.465  2.1329  0.6926  0.3325
 5910SOL     OW29191   3.354   2.974   1.054  0.0068 -0.4195  0.2621
 5910SOL    HW129192   3.387   3.000   0.968  3.7242 -0.4137  1.6844
 5910SOL    HW229193   3.406   3.027   1.114 -0.4136  1.3319 -0.9252
 5911SOL     OW29194   1.842   3.246   4.590  0.4808 -0.2228 -0.1714
 5911SOL    HW129195   1.898   3.298   4.533 -0.7376 -0.6999 -1.8192
 5911SOL    HW229196   1.756   3.231   4.549  0.8360 -1.6432 -0.4036
 5912SOL     OW29197   1.526   2.458   3.200  1.2344  0.6668 -0.1381
 5912SOL    HW129198   1.509   2.429   3.289  1.1561 -0.7970 -0.6264
 5912SOL    HW229199   1.620   2.468   3.211  1.6284 -0.1462 -2.5744
 5913SOL     OW29200   0.075   2.437   2.319  0.0703 -0.4808  0.1582
 5913SOL    HW129201   0.082   2.423   2.225  1.0773 -1.0059  0.3075
 5913SOL    HW229202   4.709   2.409   2.328 -0.1831  0.0626 -0.6765
 5914SOL     OW29203   2.550   1.236   4.522 -0.0467  0.1381 -0.0513
 5914SOL    HW129204   2.537   1.223   4.616  0.8973 -1.1684 -0.1144
 5914SOL    HW229205   2.568   1.149   4.489 -2.0260 -0.2348 -0.1682
 5915SOL     OW29206   3.331   3.572   0.149 -0.1971  0.4286  0.3375
 5915SOL    HW129207   3.305   3.538   0.234 -0.5379  1.0213  0.4698
 5915SOL    HW229208   3.311   3.663   0.171 -1.3844  0.0416  0.8423
 5916SOL     OW29209   2.298   0.921   7.720  0.1790  0.0713 -0.5074
 5916SOL    HW129210   2.326   0.912   7.629 -0.9829  1.8250 -1.0438
 5916SOL    HW229211   2.306   1.016   7.729 -2.3870  0.0826  1.7758
 5917SOL     OW29212   1.574   3.903  10.801  0.1701 -0.6072 -0.0345
 5917SOL    HW129213   1.525   3.881  10.723 -1.4276  1.4161  0.4100
 5917SOL    HW229214   1.639   3.834  10.814  0.2006 -0.4766  0.5087
 5918SOL     OW29215   4.100   3.406   7.936 -0.1606  0.3612  0.5932
 5918SOL    HW129216   4.056   3.459   8.002  0.3036  2.8210 -1.0410
 5918SOL    HW229217   4.140   3.489   7.907  0.7332  0.2877  1.6267
 5919SOL     OW29218   2.740   2.022   1.673 -0.5105 -0.5800  0.4112
 5919SOL    HW129219   2.716   1.977   1.592 -2.4100 -0.5117  0.9300
 5919SOL    HW229220   2.761   2.112   1.649  1.8522 -1.3458 -0.3655
 5920SOL     OW29221   0.884   2.732   7.507  0.7354  0.2801  0.1641
 5920SOL    HW129222   0.823   2.782   7.561 -0.1533 -1.1110  0.4429
 5920SOL    HW229223   0.905   2.797   7.440  0.8115  0.0426 -0.0429
 5921SOL     OW29224   2.050   2.134   6.331 -0.1673 -0.2400  0.2223
 5921SOL    HW129225   2.065   2.071   6.402  2.7069  0.2504  0.0476
 5921SOL    HW229226   1.971   2.180   6.360 -0.5609 -1.2856  0.8052
 5922SOL     OW29227   4.080   2.564  13.093  0.3262 -0.4432 -0.2953
 5922SOL    HW129228   4.070   2.540  13.185  0.9530 -0.8344 -0.3274
 5922SOL    HW229229   4.125   2.482  13.072  0.7978 -0.3581  0.3815
 5923SOL     OW29230   3.752   1.073   6.341  0.0919 -0.5820  0.9085
 5923SOL    HW129231   3.730   1.068   6.248 -2.3202 -0.9742  1.4931
 5923SOL    HW229232   3.684   1.023   6.386  0.4324  0.4444  2.5642
 5924SOL     OW29233   4.456   3.839   6.730  0.4262 -0.8098  0.0314
 5924SOL    HW129234   4.387   3.794   6.779 -0.6909  1.8821  0.9378
 5924SOL    HW229235   4.529   3.832   6.792 -0.5670  2.7728  1.6145
 5925SOL     OW29236   4.645   3.579  10.194 -0.1213  0.2611 -0.0911
 5925SOL    HW129237   4.613   3.535  10.273  2.7375  0.0988  0.9939
 5925SOL    HW229238   4.588   3.656  10.198 -0.6664 -0.0853 -1.2147
 5926SOL     OW29239   3.870   0.406   4.567 -0.1719  0.2851  0.7840
 5926SOL    HW129240   3.937   0.464   4.531 -0.7280 -0.0815 -0.8285
 5926SOL    HW229241   3.877   0.322   4.522  4.6094  1.7579 -1.3079
 5927SOL     OW29242   0.854   3.919   6.298  0.1484  0.0544  0.0347
 5927SOL    HW129243   0.881   3.827   6.303  1.1044  0.4332  1.9096
 5927SOL    HW229244   0.919   3.950   6.236  1.9884 -0.4098  1.7296
 5928SOL     OW29245   0.213   3.608   1.401  0.4761 -0.2155 -0.1745
 5928SOL    HW129246   0.170   3.679   1.448 -1.2055 -1.5675  0.3235
 5928SOL    HW229247   0.148   3.580   1.337  2.6882 -2.0997 -1.5980
 5929SOL     OW29248   0.004   4.367   6.394  0.4038 -0.2187 -0.2544
 5929SOL    HW129249   0.088   4.361   6.350 -0.2042  0.2022 -1.4921
 5929SOL    HW229250   4.719   4.462   6.400 -3.0690 -0.3730 -3.4225
 5930SOL     OW29251   4.257   0.624   2.192  0.4554 -0.1310 -0.0582
 5930SOL    HW129252   4.224   0.587   2.110 -1.1883  0.1989  0.4557
 5930SOL    HW229253   4.350   0.634   2.175  0.6200  1.1715  1.6036
 5931SOL     OW29254   0.757   1.579  17.245  0.1724 -0.2253  0.1932
 5931SOL    HW129255   0.750   1.531  17.327 -1.1696  0.2348  0.3432
 5931SOL    HW229256   0.670   1.617  17.233 -0.0312 -0.8353 -0.2732
 5932SOL     OW29257   2.394   4.661   7.569  0.4502 -1.0414 -0.2423
 5932SOL    HW129258   2.311   4.709   7.567  1.4794  0.7261 -1.0664
 5932SOL    HW229259   2.448   4.687   7.494 -0.9580 -0.4830 -1.0513
 5933SOL     OW29260   1.076   2.874  11.913  0.0350  0.2901 -1.1440
 5933SOL    HW129261   1.110   2.785  11.924  0.1386  0.5030  0.1546
 5933SOL    HW229262   1.150   2.933  11.923 -0.2179  0.6524 -1.4255
 5934SOL     OW29263   1.249   4.455   8.444 -0.0661 -0.8464 -0.1594
 5934SOL    HW129264   1.300   4.397   8.500 -2.2766 -0.2521  2.4953
 5934SOL    HW229265   1.284   4.442   8.357  0.2541 -0.5555 -0.0749
 5935SOL     OW29266   4.443   1.767   0.963  0.2299 -0.4079  0.5143
 5935SOL    HW129267   4.416   1.750   0.872  0.8805  0.4730  0.1525
 5935SOL    HW229268   4.367   1.761   1.021 -0.4499  1.1685 -0.2027
 5936SOL     OW29269   4.490   3.286  13.536  0.2365  0.2356 -0.4073
 5936SOL    HW129270   4.485   3.316  13.445 -1.5878 -0.7711 -0.6440
 5936SOL    HW229271   4.418   3.335  13.576 -0.5462 -1.9882  0.9060
 5937SOL     OW29272   2.246   2.536  16.008  0.1209 -0.2148  0.1127
 5937SOL    HW129273   2.231   2.628  16.028  1.5691  0.2741 -1.0893
 5937SOL    HW229274   2.328   2.540  15.958  1.1220  1.4317  1.8579
 5938SOL     OW29275   4.528   2.324  16.187  1.0859  0.8434 -0.1559
 5938SOL    HW129276   4.554   2.389  16.253  4.6924 -1.9130  1.1319
 5938SOL    HW229277   4.596   2.258  16.199  0.2761 -0.1839 -1.2733
 5939SOL     OW29278   2.853   3.942   0.512 -0.2737 -0.0918  0.2986
 5939SOL    HW129279   2.786   3.899   0.565 -0.2703  0.9305  1.1382
 5939SOL    HW229280   2.828   3.895   0.433  0.3812 -0.1608  0.1310
 5940SOL     OW29281   0.552   0.454   5.219 -0.0454  0.0529 -0.0702
 5940SOL    HW129282   0.578   0.394   5.150 -1.6378 -0.5383 -0.1656
 5940SOL    HW229283   0.465   0.413   5.224  0.1378 -0.3219  0.0617
 5941SOL     OW29284   2.614   4.392   7.938 -0.5057 -0.0018 -0.5074
 5941SOL    HW129285   2.523   4.417   7.949 -0.2230  0.9107 -0.2054
 5941SOL    HW229286   2.613   4.298   7.957  3.3611  0.2185  0.8940
 5942SOL     OW29287   0.741   2.562   2.078  0.2951  0.2238 -0.0389
 5942SOL    HW129288   0.684   2.638   2.091  0.7005  0.1399  2.2602
 5942SOL    HW229289   0.721   2.551   1.985  0.0995  0.5237 -0.0306
 5943SOL     OW29290   2.016   4.277  16.862  0.2802 -0.5332  0.1688
 5943SOL    HW129291   2.082   4.283  16.793 -0.2325 -1.4372 -0.3935
 5943SOL    HW229292   1.945   4.329  16.823  0.4999 -0.5023 -0.1816
 5944SOL     OW29293   1.750   2.615   3.560  0.1640 -0.3835 -0.5251
 5944SOL    HW129294   1.828   2.570   3.593  0.7172  0.9338 -0.0508
 5944SOL    HW229295   1.722   2.655   3.642 -1.2440 -1.5525 -0.4237
 5945SOL     OW29296   4.594   3.908   7.228  0.0599  0.3821 -0.3354
 5945SOL    HW129297   4.603   3.831   7.285  0.6084  2.0658  1.8388
 5945SOL    HW229298   4.527   3.868   7.172  0.6638  0.6734 -1.2628
 5946SOL     OW29299   1.687   2.349  16.518 -0.0785  0.4260  0.5248
 5946SOL    HW129300   1.604   2.390  16.542  0.3350  0.5019  1.8596
 5946SOL    HW229301   1.711   2.405  16.445 -2.0819 -0.1231 -0.5415
 5947SOL     OW29302   1.866   3.452   7.168  0.0686  0.0937  0.4392
 5947SOL    HW129303   1.885   3.443   7.261  1.1747  1.4356  0.3516
 5947SOL    HW229304   1.788   3.396   7.168 -2.4709  3.5834  0.3847
 5948SOL     OW29305   3.256   0.812  16.526  0.3651  0.6866 -0.0953
 5948SOL    HW129306   3.188   0.778  16.467 -0.2507  2.3304 -0.3544
 5948SOL    HW229307   3.215   0.804  16.612 -0.3274  0.0267 -0.4804
 5949SOL     OW29308   3.422   3.457   3.694  0.2675  0.3970 -0.2155
 5949SOL    HW129309   3.348   3.518   3.697  0.7885  0.9470  1.2406
 5949SOL    HW229310   3.426   3.444   3.599  0.2827 -1.2771  0.0184
 5950SOL     OW29311   1.367   3.920   3.930  0.0883 -0.1312  0.0147
 5950SOL    HW129312   1.400   3.840   3.888 -0.7294  0.7074 -2.1982
 5950SOL    HW229313   1.276   3.928   3.903  0.4501  1.3344 -0.7158
 5951SOL     OW29314   2.599   1.461   0.901 -0.5228 -0.6463  0.1424
 5951SOL    HW129315   2.580   1.435   0.811  0.1357  1.0124 -0.4716
 5951SOL    HW229316   2.514   1.456   0.945 -0.1948 -1.5040  0.6697
 5952SOL     OW29317   4.481   0.473  17.154  0.9928 -0.4131 -0.3012
 5952SOL    HW129318   4.422   0.488  17.228  0.2578 -1.3813 -0.6902
 5952SOL    HW229319   4.462   0.551  17.102  0.9886 -0.8054 -0.8844
 5953SOL     OW29320   0.182   1.720   6.275  0.1875  0.0824 -0.0223
 5953SOL    HW129321   0.255   1.686   6.327 -0.8629 -1.1012  0.6803
 5953SOL    HW229322   0.187   1.657   6.203  2.7973 -0.6064  0.7677
 5954SOL     OW29323   0.807   0.921   2.906  0.4647  0.0744 -0.4112
 5954SOL    HW129324   0.816   0.828   2.930  1.0618  0.2646  0.0926
 5954SOL    HW229325   0.898   0.947   2.902  0.2466  1.0171  0.8233
 5955SOL     OW29326   1.178   0.112   1.724 -0.0054 -0.2538  0.0437
 5955SOL    HW129327   1.200   0.043   1.788  0.0201  1.7003  2.1319
 5955SOL    HW229328   1.207   0.194   1.764 -0.5798 -0.2581  0.4800
 5956SOL     OW29329   1.894   0.433   3.281 -0.2301 -0.1852 -0.0059
 5956SOL    HW129330   1.975   0.389   3.256 -1.3471 -2.4023  0.3161
 5956SOL    HW229331   1.843   0.400   3.207 -0.2113 -0.4652  0.1060
 5957SOL     OW29332   3.743   2.333   1.056 -0.1039 -0.0795 -0.5554
 5957SOL    HW129333   3.692   2.297   1.129 -0.7553  1.5041 -0.2230
 5957SOL    HW229334   3.674   2.375   1.004 -1.2398  0.6836  1.5347
 5958SOL     OW29335   4.285   2.098   4.424  0.0558  0.9523  0.4248
 5958SOL    HW129336   4.210   2.096   4.484 -1.5207 -1.6453 -1.7065
 5958SOL    HW229337   4.283   2.193   4.413 -1.2268  0.9646  0.7940
 5959SOL     OW29338   1.036   1.031   8.984  0.6387  0.0211 -0.6345
 5959SOL    HW129339   0.985   0.997   9.057  1.7794 -3.9334 -1.6716
 5959SOL    HW229340   1.045   0.950   8.933  0.6947  0.0305 -0.6392
 5960SOL     OW29341   2.234   1.958   4.664  0.1408  0.3222  0.3602
 5960SOL    HW129342   2.233   1.894   4.593  0.3241  0.9338 -0.1928
 5960SOL    HW229343   2.191   1.920   4.741  0.9030  1.4220  1.3353
 5961SOL     OW29344   2.166   0.325   6.579  0.0025  0.0742  0.4667
 5961SOL    HW129345   2.124   0.403   6.616  0.1687 -1.6097  4.1765
 5961SOL    HW229346   2.128   0.315   6.491 -0.1159 -0.4018  0.5749
 5962SOL     OW29347   3.164   3.830   4.169  0.2366  0.3225 -0.1616
 5962SOL    HW129348   3.130   3.788   4.090  0.9004  0.1683 -0.3655
 5962SOL    HW229349   3.241   3.879   4.141 -1.7344  1.2990 -3.8089
 5963SOL     OW29350   3.485   1.676   1.194  0.3169 -0.3143  0.1727
 5963SOL    HW129351   3.516   1.634   1.113  0.1131  1.3178 -0.7437
 5963SOL    HW229352   3.524   1.616   1.257 -2.0446 -0.1760  1.7814
 5964SOL     OW29353   0.909   2.749   3.175  0.1438 -0.7069  0.0665
 5964SOL    HW129354   0.840   2.811   3.150 -0.1849 -1.7120 -1.5413
 5964SOL    HW229355   0.933   2.711   3.090  1.0204 -2.8136  1.2784
 5965SOL     OW29356   2.424   0.930   6.724  0.1941  0.1968 -0.1371
 5965SOL    HW129357   2.342   0.963   6.761  0.3038  0.4599 -0.1292
 5965SOL    HW229358   2.391   0.872   6.655 -0.7459 -0.2530  0.6847
 5966SOL     OW29359   0.656   2.092   8.010  0.2159  0.1588 -0.2113
 5966SOL    HW129360   0.601   2.153   7.962 -2.9687 -1.4153  1.4465
 5966SOL    HW229361   0.637   2.010   7.964 -1.0386 -0.3020  1.1383
 5967SOL     OW29362   0.327   0.014   1.017  0.4520 -0.4632  0.5795
 5967SOL    HW129363   0.379   0.090   0.991  0.0440 -0.5230 -0.4024
 5967SOL    HW229364   0.319   4.679   0.944 -0.2043  0.6239 -0.2397
 5968SOL     OW29365   0.300   2.962  17.212 -0.3628 -0.1342  0.5834
 5968SOL    HW129366   0.206   2.944  17.204 -0.5434  0.5615  1.0925
 5968SOL    HW229367   0.336   2.913  17.139  3.3226  3.1704  0.1937
 5969SOL     OW29368   3.197   3.769   6.659  0.2027 -0.4805  0.1233
 5969SOL    HW129369   3.269   3.736   6.712  0.9562 -0.8595 -1.1410
 5969SOL    HW229370   3.158   3.818   6.731  1.6190  0.2388  0.3975
 5970SOL     OW29371   0.465   2.041   1.976 -0.0522  0.3498 -0.3016
 5970SOL    HW129372   0.372   2.057   1.959 -0.4918 -0.0200  1.6907
 5970SOL    HW229373   0.520   2.119   1.973  0.1443  0.3748  3.3233
 5971SOL     OW29374   0.286   0.265   4.836 -0.7605  0.2960 -0.1854
 5971SOL    HW129375   0.262   0.228   4.921 -1.0863 -2.8261 -1.6386
 5971SOL    HW229376   0.327   0.347   4.864  3.2865 -1.7954 -0.0950
 5972SOL     OW29377   1.749   4.508   2.312 -0.2466 -0.4609  0.0120
 5972SOL    HW129378   1.832   4.546   2.282  0.2537  0.2675  2.3852
 5972SOL    HW229379   1.762   4.472   2.399 -0.1429 -0.0558  0.1636
 5973SOL     OW29380   3.519   3.624   1.495  0.1391 -0.2418 -0.4416
 5973SOL    HW129381   3.562   3.558   1.440  1.7173  0.1030  0.4090
 5973SOL    HW229382   3.532   3.599   1.586 -1.2763 -0.5049 -0.3078
 5974SOL     OW29383   3.941   3.991  13.621  0.1796 -0.5148  0.1451
 5974SOL    HW129384   3.851   3.971  13.597  0.1005 -0.9234  0.7693
 5974SOL    HW229385   3.989   3.963  13.543  0.0484 -0.4525  0.0427
 5975SOL     OW29386   0.044   3.569   1.951 -0.3199 -0.9231 -0.3435
 5975SOL    HW129387   0.048   3.608   1.863 -0.3803  0.1846  0.1472
 5975SOL    HW229388   4.677   3.592   1.964 -0.3889 -1.3126 -0.1228
 5976SOL     OW29389   2.326   3.506  15.842  0.3016  0.1945 -0.0494
 5976SOL    HW129390   2.320   3.504  15.747 -1.3820  0.3426  0.0533
 5976SOL    HW229391   2.375   3.588  15.847  2.4261 -1.1712  1.5614
 5977SOL     OW29392   4.299   1.700  10.658  0.0422 -0.3496 -0.1331
 5977SOL    HW129393   4.207   1.726  10.648  0.3849  1.2708  1.0775
 5977SOL    HW229394   4.292   1.606  10.675  2.3486 -0.3015  1.1190
 5978SOL     OW29395   0.823   0.122   0.897  0.4297  0.1874 -0.6239
 5978SOL    HW129396   0.743   0.101   0.847  0.9244 -0.7550 -1.0281
 5978SOL    HW229397   0.797   0.207   0.932 -0.0698  0.1298 -0.8456
 5979SOL     OW29398   1.810   0.326   6.545  0.2173 -0.0068 -0.1381
 5979SOL    HW129399   1.731   0.291   6.505  0.1229 -0.6322  0.5929
 5979SOL    HW229400   1.821   0.257   6.610 -0.3735  1.1521  1.2070
 5980SOL     OW29401   0.576   1.456   7.535 -0.5232  0.2223 -0.0000
 5980SOL    HW129402   0.599   1.385   7.594  0.9241  1.2587  0.6834
 5980SOL    HW229403   0.652   1.511   7.556  1.7422 -2.3087 -1.5146
 5981SOL     OW29404   0.257   2.204   0.074 -0.1830  0.4593 -0.7397
 5981SOL    HW129405   0.303   2.288   0.075 -0.9025  0.8256  2.2352
 5981SOL    HW229406   0.166   2.233   0.067  0.7050  2.8088 -2.5840
 5982SOL     OW29407   3.338   0.545   2.502  0.2599  0.5221 -0.0547
 5982SOL    HW129408   3.260   0.597   2.520 -1.4621 -1.9503 -0.3829
 5982SOL    HW229409   3.307   0.489   2.430  3.6305 -3.5223  1.6535
 5983SOL     OW29410   3.725   1.450  16.083 -0.3291  0.9703 -0.1796
 5983SOL    HW129411   3.777   1.504  16.023 -0.5799  2.4573  0.9577
 5983SOL    HW229412   3.636   1.463  16.050 -0.4688  1.5049  0.4125
 5984SOL     OW29413   2.117   2.860  10.172 -0.1691  0.3799  0.1954
 5984SOL    HW129414   2.034   2.905  10.160 -0.5160 -0.2777  0.1355
 5984SOL    HW229415   2.182   2.925  10.146 -0.0583  0.5814  0.9698
 5985SOL     OW29416   2.355   3.987   2.413  0.0759  0.2930  0.1907
 5985SOL    HW129417   2.320   4.039   2.485  0.6787 -2.0210  2.1619
 5985SOL    HW229418   2.342   3.899   2.450 -3.9813  1.3529  1.2839
 5986SOL     OW29419   1.215   2.728   3.809 -0.0011 -0.3279 -0.3403
 5986SOL    HW129420   1.166   2.809   3.797  0.0924 -0.4801 -1.7611
 5986SOL    HW229421   1.282   2.739   3.876  1.4197 -0.9718 -1.6420
 5987SOL     OW29422   1.904   1.201   3.559 -0.6296 -0.1568  0.1640
 5987SOL    HW129423   1.880   1.195   3.467 -0.8957 -1.0241  0.2897
 5987SOL    HW229424   1.845   1.269   3.592  0.0893  1.1021 -1.1506
 5988SOL     OW29425   2.145   4.629   4.880  0.6194  0.3715 -0.2146
 5988SOL    HW129426   2.237   4.613   4.901  0.8328 -1.1278 -2.2947
 5988SOL    HW229427   2.129   4.537   4.859 -0.0674 -0.1574  2.6996
 5989SOL     OW29428   0.737   2.019  13.353 -0.5302  0.2048  0.3071
 5989SOL    HW129429   0.830   1.995  13.347 -0.0659  1.8128  0.9738
 5989SOL    HW229430   0.748   2.112  13.374  1.7921 -0.7344  3.4128
 5990SOL     OW29431   2.245   4.089   7.538 -0.3155 -0.1619 -0.3903
 5990SOL    HW129432   2.247   4.156   7.607 -2.6893  1.5632 -2.0248
 5990SOL    HW229433   2.334   4.075   7.507  0.2927  1.9021  0.3806
 5991SOL     OW29434   0.597   3.843   3.642  0.1334  0.5281  0.6193
 5991SOL    HW129435   0.660   3.908   3.611 -1.4413  1.1918 -1.1708
 5991SOL    HW229436   0.637   3.763   3.609 -0.3627  0.7859 -0.5827
 5992SOL     OW29437   2.576   4.078   2.580  0.0531  0.1017  0.5270
 5992SOL    HW129438   2.666   4.102   2.559  0.4902 -2.3765 -0.4054
 5992SOL    HW229439   2.534   4.059   2.496 -1.3415  1.5578  0.9056
 5993SOL     OW29440   2.227   3.321   5.484  0.2251  0.3699  0.4606
 5993SOL    HW129441   2.160   3.351   5.546  1.8714  1.4007  1.7721
 5993SOL    HW229442   2.232   3.395   5.423  1.6815 -1.0077 -1.0859
 5994SOL     OW29443   4.341   0.274   4.545 -0.1323 -1.0793  0.2295
 5994SOL    HW129444   4.405   0.246   4.610  2.0662  0.0212 -1.4471
 5994SOL    HW229445   4.370   0.363   4.527  0.0101 -1.8327 -3.4726
 5995SOL     OW29446   1.415   1.269   7.868  0.0098 -0.7999 -0.5100
 5995SOL    HW129447   1.466   1.202   7.913  0.1398 -2.0383 -2.5176
 5995SOL    HW229448   1.388   1.314   7.948  0.9195 -1.2179  0.0223
 5996SOL     OW29449   4.393   3.515   7.159 -0.1640  0.0046 -0.4086
 5996SOL    HW129450   4.365   3.599   7.121 -0.2270 -1.2266 -3.0647
 5996SOL    HW229451   4.418   3.550   7.245  1.2781  0.0093 -0.8289
 5997SOL     OW29452   4.017   4.559  10.197  0.3237  0.1030 -0.1514
 5997SOL    HW129453   3.980   4.601  10.275  0.4970 -0.6803  0.3529
 5997SOL    HW229454   4.050   4.636  10.151 -0.7766  0.3964 -0.4554
 5998SOL     OW29455   0.370   4.517  10.378 -0.0362 -0.2161 -0.6052
 5998SOL    HW129456   0.347   4.504  10.286 -0.2150 -0.4209 -0.5311
 5998SOL    HW229457   0.417   4.439  10.409  0.7775  0.7722  0.6330
 5999SOL     OW29458   1.478   2.967   5.833  0.0853 -0.1277  0.5331
 5999SOL    HW129459   1.524   2.886   5.809 -1.5282 -0.0143 -2.8331
 5999SOL    HW229460   1.555   3.022   5.816  1.4882 -2.4738 -0.8096
 6000SOL     OW29461   1.295   4.344   4.310 -0.4533  0.4821 -0.3232
 6000SOL    HW129462   1.301   4.325   4.217  2.4154  2.0557 -0.4382
 6000SOL    HW229463   1.200   4.361   4.317 -0.5244  0.0609 -0.2785
 6001SOL     OW29464   0.385   1.987   7.329 -0.0834  0.0361 -0.0388
 6001SOL    HW129465   0.404   1.896   7.354  1.2122 -0.0688 -1.3549
 6001SOL    HW229466   0.367   2.027   7.414 -1.0358  1.6978 -1.0280
 6002SOL     OW29467   0.441   1.369   6.158 -0.5240 -0.2214 -0.0395
 6002SOL    HW129468   0.361   1.416   6.179  0.4499  1.5067 -0.1729
 6002SOL    HW229469   0.427   1.293   6.214  1.8506 -1.0632 -0.5964
 6003SOL     OW29470   2.597   2.239  14.831 -0.4153  0.5615  0.2033
 6003SOL    HW129471   2.648   2.293  14.891  1.5783  0.0335 -1.0128
 6003SOL    HW229472   2.665   2.187  14.788 -3.2588 -2.2323 -0.9334
 6004SOL     OW29473   2.211   2.287   3.254 -0.5914 -0.5286  0.2178
 6004SOL    HW129474   2.302   2.315   3.250 -1.2183  1.5534  0.1904
 6004SOL    HW229475   2.198   2.241   3.171  0.4183  1.2167 -0.9045
 6005SOL     OW29476   0.622   4.321  11.508  0.2289 -0.2428  0.4106
 6005SOL    HW129477   0.554   4.266  11.548 -0.1608 -0.7797 -0.9819
 6005SOL    HW229478   0.706   4.287  11.539  0.3323 -0.0523  0.3388
 6006SOL     OW29479   1.299   4.697   4.217  0.1726  0.0125 -0.0280
 6006SOL    HW129480   1.229   4.697   4.282 -0.3499  2.4989 -0.5668
 6006SOL    HW229481   1.355   4.633   4.261 -0.1265 -1.6559 -2.0761
 6007SOL     OW29482   2.220   4.081  15.749  0.4822  0.0804 -0.6169
 6007SOL    HW129483   2.315   4.080  15.736  0.6298 -0.5974  0.5071
 6007SOL    HW229484   2.201   3.991  15.723  3.6299 -0.0344 -2.5831
 6008SOL     OW29485   4.241   1.763  15.152 -0.0447 -0.4202 -0.0980
 6008SOL    HW129486   4.183   1.759  15.076  1.7803  0.2890 -1.5445
 6008SOL    HW229487   4.326   1.774  15.109  0.6523 -0.9442  1.1373
 6009SOL     OW29488   2.352   0.183   3.289  0.0642 -0.1902 -0.1310
 6009SOL    HW129489   2.322   0.100   3.328  1.2136 -0.9921 -0.9678
 6009SOL    HW229490   2.353   0.240   3.367 -1.3685  0.3844 -0.5321
 6010SOL     OW29491   0.948   2.106   3.912 -0.2215  0.1515  0.2443
 6010SOL    HW129492   1.037   2.073   3.898  0.2443  2.0216 -1.3331
 6010SOL    HW229493   0.962   2.151   3.995 -0.8584 -1.4470  1.2229
 6011SOL     OW29494   2.116   2.168   4.029 -0.4779  0.5084 -0.2864
 6011SOL    HW129495   2.122   2.250   4.079  0.5632 -0.5126  1.2846
 6011SOL    HW229496   2.210   2.169   4.008  0.0941 -0.1972  2.1729
 6012SOL     OW29497   4.410   2.364  17.543  0.3241  0.2698  0.4168
 6012SOL    HW129498   4.404   2.458  17.559  0.0880 -0.1079  2.5065
 6012SOL    HW229499   4.477   2.339  17.607  1.8432  2.0843 -0.4436
 6013SOL     OW29500   2.876   0.808  17.561 -0.1933  0.3099  0.0614
 6013SOL    HW129501   2.970   0.800  17.548 -0.3265 -0.8693 -0.2010
 6013SOL    HW229502   2.871   0.877  17.627  0.1473 -0.3616  0.7908
 6014SOL     OW29503   1.389   1.386   5.899  0.4248 -0.3620  0.5749
 6014SOL    HW129504   1.339   1.338   5.834  1.6846  0.6338 -1.1237
 6014SOL    HW229505   1.480   1.359   5.883  1.6648  3.3798  1.4020
 6015SOL     OW29506   4.607   1.472   0.987 -0.3914  0.1729 -0.0181
 6015SOL    HW129507   4.525   1.511   0.958 -0.4612 -1.1051 -1.5252
 6015SOL    HW229508   4.663   1.549   0.976  0.4461 -0.3833  0.3689
 6016SOL     OW29509   2.299   4.650   6.879  0.3679  0.0442  0.2529
 6016SOL    HW129510   2.251   4.722   6.838 -0.0491 -0.9111 -0.9497
 6016SOL    HW229511   2.234   4.587   6.909  1.7969 -0.9430  1.2879
 6017SOL     OW29512   0.805   1.115   8.650  0.2673  0.4063  0.6284
 6017SOL    HW129513   0.870   1.164   8.701  0.5381  1.6741 -0.9164
 6017SOL    HW229514   0.754   1.071   8.718 -1.1374  0.1414 -0.5929
 6018SOL     OW29515   1.775   0.482   4.002 -0.2775 -0.1708  0.2542
 6018SOL    HW129516   1.710   0.481   4.073  1.7969  3.7541  2.1585
 6018SOL    HW229517   1.853   0.503   4.052 -1.4594  1.3101  1.4693
 6019SOL     OW29518   4.119   0.791   5.017 -0.0000  0.7055 -0.2101
 6019SOL    HW129519   4.156   0.840   5.091  1.7348  1.4021 -1.5358
 6019SOL    HW229520   4.197   0.786   4.962 -0.9801  0.1823 -1.5206
 6020SOL     OW29521   2.717   1.215   2.300 -0.3017  0.9823  0.4607
 6020SOL    HW129522   2.692   1.205   2.208  0.1576 -2.9748  0.7540
 6020SOL    HW229523   2.796   1.161   2.300 -1.3092 -0.4891  0.3806
 6021SOL     OW29524   4.387   3.696   2.391  0.1919 -0.5042 -0.3781
 6021SOL    HW129525   4.410   3.768   2.449 -0.3110  0.4759 -1.3818
 6021SOL    HW229526   4.405   3.744   2.310 -0.2016 -0.2297 -0.3059
 6022SOL     OW29527   4.682   0.489   0.006  0.0111  0.6013 -0.0035
 6022SOL    HW129528   4.657   0.430  17.636  0.2941 -0.6545  0.9312
 6022SOL    HW229529   4.648   0.572  17.674 -3.7197 -1.4532 -1.3233
 6023SOL     OW29530   2.661   2.682   2.586  0.5611 -0.3856 -0.6921
 6023SOL    HW129531   2.611   2.735   2.523 -0.8848  1.1273  1.7603
 6023SOL    HW229532   2.753   2.705   2.572  1.0829 -1.4162  1.1144
 6024SOL     OW29533   4.565   1.900   9.091 -0.4293  0.5282  0.0898
 6024SOL    HW129534   4.556   1.821   9.037 -3.6886  0.9371  0.0262
 6024SOL    HW229535   4.559   1.877   9.184  0.3706 -0.2236 -0.0478
 6025SOL     OW29536   0.867   0.283   2.541 -0.3949  0.1078  0.0227
 6025SOL    HW129537   0.959   0.259   2.549  0.5978  3.1305 -2.2408
 6025SOL    HW229538   0.828   0.198   2.521 -0.2929 -0.0243  0.3886
 6026SOL     OW29539   1.504   1.004  16.628 -0.2640 -0.1482  0.4840
 6026SOL    HW129540   1.538   0.918  16.654  0.1573  1.0261  3.7832
 6026SOL    HW229541   1.431   1.015  16.689 -1.0194 -0.5976 -0.3356
 6027SOL     OW29542   3.699   1.515   7.914  0.4183 -0.0865  0.2776
 6027SOL    HW129543   3.721   1.422   7.923  1.5943  0.1894  0.2084
 6027SOL    HW229544   3.767   1.549   7.857 -1.3885 -0.1063 -1.8723
 6028SOL     OW29545   3.443   4.392   9.394  0.5547 -0.5254  0.3531
 6028SOL    HW129546   3.454   4.338   9.316 -2.2003 -0.1175 -0.3499
 6028SOL    HW229547   3.471   4.475   9.355  0.6913 -0.3083  0.9156
 6029SOL     OW29548   2.631   4.290  13.561 -0.2856  0.0647 -0.2191
 6029SOL    HW129549   2.548   4.258  13.596 -0.3028 -0.2008 -0.5073
 6029SOL    HW229550   2.677   4.209  13.539  0.6040 -0.2126  2.6762
 6030SOL     OW29551   3.089   0.635   8.074  0.8939  0.0284  0.6505
 6030SOL    HW129552   3.167   0.690   8.082  0.8633  0.2272 -0.3364
 6030SOL    HW229553   3.125   0.547   8.081  0.2336 -0.2326  0.7256
 6031SOL     OW29554   4.406   0.671   7.635  0.2510  0.0586  0.0842
 6031SOL    HW129555   4.361   0.701   7.714 -1.9119  0.0816 -1.1466
 6031SOL    HW229556   4.352   0.722   7.574  2.0623 -0.8876 -2.2955
 6032SOL     OW29557   0.470   2.350   2.666 -0.2096  0.3871  0.4743
 6032SOL    HW129558   0.516   2.321   2.588  1.2724  0.9587  1.1519
 6032SOL    HW229559   0.391   2.386   2.625 -0.1142  0.3415  0.2518
 6033SOL     OW29560   0.694   1.139   6.004  0.6026  0.0678 -0.1122
 6033SOL    HW129561   0.762   1.200   6.031  2.1026 -0.0523 -3.6056
 6033SOL    HW229562   0.716   1.049   6.027  1.6380 -0.3741 -2.8676
 6034SOL     OW29563   3.527   0.449   4.451  0.0676  0.1371  0.3233
 6034SOL    HW129564   3.612   0.418   4.482 -1.6627 -2.6196  2.2496
 6034SOL    HW229565   3.548   0.543   4.455 -0.5193  0.1727  2.5832
 6035SOL     OW29566   1.889   0.489   7.749  0.0601 -0.7375 -0.0553
 6035SOL    HW129567   1.957   0.482   7.681 -0.5354  0.6368 -0.7887
 6035SOL    HW229568   1.858   0.399   7.757 -0.2607 -0.5565  0.7535
 6036SOL     OW29569   2.436   1.009   7.080  0.4687  0.3860  0.3510
 6036SOL    HW129570   2.372   0.985   7.012  1.1100 -1.4872  0.4124
 6036SOL    HW229571   2.411   0.953   7.153 -0.6728  0.8510  0.3248
 6037SOL     OW29572   2.165   1.052   3.455 -0.5957  0.0319  0.1329
 6037SOL    HW129573   2.134   1.051   3.364  0.1659  0.6220 -0.1346
 6037SOL    HW229574   2.108   0.985   3.492 -0.2016  0.8988  2.3611
 6038SOL     OW29575   0.239   3.893   8.050 -0.2097 -0.3106  0.2199
 6038SOL    HW129576   0.305   3.887   7.981 -0.2240 -0.0354  0.1811
 6038SOL    HW229577   0.235   3.803   8.083 -1.8366  0.5060  2.2560
 6039SOL     OW29578   1.090   3.281   1.345 -0.0142  0.0455  0.0384
 6039SOL    HW129579   1.133   3.249   1.424  1.7336 -0.8382 -1.2824
 6039SOL    HW229580   1.003   3.239   1.349  0.7444 -1.5125  0.2015
 6040SOL     OW29581   4.572   0.992   7.519 -0.0457  0.0117 -0.0947
 6040SOL    HW129582   4.551   1.085   7.509  0.1959  0.0876  0.1060
 6040SOL    HW229583   4.639   0.976   7.585  0.8797 -1.5153 -1.4078
 6041SOL     OW29584   1.990   0.525   6.643  0.5362  0.6942 -0.5524
 6041SOL    HW129585   1.920   0.466   6.615  1.7429 -1.5217  1.1234
 6041SOL    HW229586   1.959   0.602   6.595  1.3103  1.7016  0.5434
 6042SOL     OW29587   2.726   2.730  12.221  0.2973  0.0411  0.2908
 6042SOL    HW129588   2.729   2.635  12.233 -0.7752 -0.6382 -4.7561
 6042SOL    HW229589   2.813   2.756  12.251  0.4862 -2.1528  1.6213
 6043SOL     OW29590   1.461   1.373   3.071 -0.4753  0.0939 -0.0436
 6043SOL    HW129591   1.458   1.404   2.981 -2.9086  0.7333  0.2537
 6043SOL    HW229592   1.399   1.434   3.112  0.7669  0.3347  1.4832
 6044SOL     OW29593   2.535   4.543   2.975 -0.1424  0.5369 -0.4257
 6044SOL    HW129594   2.488   4.508   3.051 -0.4684  0.8388 -0.4900
 6044SOL    HW229595   2.611   4.584   3.016 -1.5331  2.7414 -0.0784
 6045SOL     OW29596   3.960   0.306   9.964 -0.6948  0.4872 -0.1431
 6045SOL    HW129597   3.896   0.285   9.897 -1.2968  0.6246  0.3918
 6045SOL    HW229598   4.038   0.336   9.917  0.0490 -1.6081 -0.2307
 6046SOL     OW29599   0.546   0.587  15.526 -0.4942 -0.2857  0.2506
 6046SOL    HW129600   0.547   0.541  15.441 -0.6251  1.0735 -0.4912
 6046SOL    HW229601   0.505   0.670  15.501  1.7173 -0.0246 -2.5257
 6047SOL     OW29602   2.764   2.987   9.359 -0.5380 -0.1826 -0.1820
 6047SOL    HW129603   2.766   2.932   9.438  0.7933 -0.1429 -0.1883
 6047SOL    HW229604   2.801   2.924   9.297  0.1855 -0.0681  0.1289
 6048SOL     OW29605   0.325   3.305  15.329 -0.4186  0.6382  0.0674
 6048SOL    HW129606   0.373   3.388  15.327  0.1637  0.2778 -0.9558
 6048SOL    HW229607   0.322   3.286  15.423 -0.7169 -0.8567 -0.2449
 6049SOL     OW29608   1.348   2.226  13.421  0.4277 -0.1479 -0.0618
 6049SOL    HW129609   1.276   2.259  13.368  2.0776  0.7161 -1.7748
 6049SOL    HW229610   1.314   2.165  13.487 -1.7591  0.4763 -0.6245
 6050SOL     OW29611   3.676   1.386   7.045  0.0254  0.6639 -0.1266
 6050SOL    HW129612   3.725   1.312   7.080  1.6701  1.4093 -0.8527
 6050SOL    HW229613   3.588   1.357   7.068  0.0231 -0.5003 -1.6114
 6051SOL     OW29614   2.678   4.268   2.947  0.3956 -0.4764 -0.1595
 6051SOL    HW129615   2.659   4.362   2.950  3.0549  0.0583  0.0375
 6051SOL    HW229616   2.745   4.257   3.015 -1.1612 -3.3116  0.9293
 6052SOL     OW29617   2.562   1.812   4.587  0.8145 -0.1820 -0.1425
 6052SOL    HW129618   2.616   1.890   4.576 -0.1061  0.4736  0.1027
 6052SOL    HW229619   2.491   1.845   4.641  0.7239  1.4459 -1.2625
 6053SOL     OW29620   4.246   3.620   8.673  0.6323 -0.5628 -0.1494
 6053SOL    HW129621   4.284   3.642   8.758 -0.5447 -0.9038  0.4546
 6053SOL    HW229622   4.325   3.593   8.626  0.3331 -2.6052  0.4860
 6054SOL     OW29623   1.016   0.082  17.483  0.1769 -0.0728 -0.1018
 6054SOL    HW129624   1.037   0.170  17.515 -3.2418  1.2583 -1.4715
 6054SOL    HW229625   0.923   0.083  17.457 -0.2543  2.5380  1.5139
 6055SOL     OW29626   1.319   1.600   3.444  0.1670 -0.2190  0.1128
 6055SOL    HW129627   1.325   1.522   3.499 -0.3793 -0.7166 -0.5323
 6055SOL    HW229628   1.247   1.644   3.489 -0.4207  0.6879 -1.7107
 6056SOL     OW29629   1.653   0.629  17.150  0.1093 -0.3638 -0.1146
 6056SOL    HW129630   1.719   0.634  17.219  1.3310 -1.4660 -1.1891
 6056SOL    HW229631   1.599   0.707  17.163  1.8808  1.0433 -1.2069
 6057SOL     OW29632   1.406   1.402   8.106 -0.3104 -0.0732  0.1463
 6057SOL    HW129633   1.482   1.445   8.143 -0.8908 -0.6379  1.9667
 6057SOL    HW229634   1.344   1.427   8.175  0.3448 -0.3510  0.8304
 6058SOL     OW29635   1.888   1.937   7.281 -0.3913 -0.4379 -0.0276
 6058SOL    HW129636   1.853   2.020   7.249 -1.7944 -0.9343  0.2497
 6058SOL    HW229637   1.847   1.876   7.220 -2.1515  1.4668 -0.7348
 6059SOL     OW29638   2.655   3.085   8.286  0.3263 -0.0384  0.5679
 6059SOL    HW129639   2.657   3.127   8.200 -4.2823  1.9308  1.4054
 6059SOL    HW229640   2.742   3.096   8.323  0.6846 -0.1454 -0.2527
 6060SOL     OW29641   3.282   4.438   2.583 -0.0798  0.2101  0.0788
 6060SOL    HW129642   3.190   4.443   2.558 -0.2916  0.4515  0.9297
 6060SOL    HW229643   3.298   4.532   2.584 -0.4573  0.3152 -2.3061
 6061SOL     OW29644   3.055   1.969   3.060 -0.1012  0.2069  0.0757
 6061SOL    HW129645   2.983   2.005   3.111  1.6606  0.7654  2.1427
 6061SOL    HW229646   3.007   1.900   3.013  1.5693 -1.4569  0.7820
 6062SOL     OW29647   4.431   1.794   9.533  0.1897  0.3010 -0.1651
 6062SOL    HW129648   4.453   1.701   9.525  1.5123  0.6337 -0.3848
 6062SOL    HW229649   4.423   1.798   9.628 -0.9361  1.1787 -0.3020
 6063SOL     OW29650   0.041   3.854   5.485  0.1829 -0.1074  0.4516
 6063SOL    HW129651   0.037   3.760   5.501  2.3628 -0.5454 -1.6746
 6063SOL    HW229652   4.724   3.887   5.565  1.8681 -0.3000  1.4154
 6064SOL     OW29653   1.290   0.149   6.597 -0.1937  0.4358  0.0947
 6064SOL    HW129654   1.215   0.188   6.552 -2.1754  0.7830  3.7455
 6064SOL    HW229655   1.273   0.059   6.625 -1.3171  0.5330 -0.2971
 6065SOL     OW29656   3.406   2.429  14.162  0.2672 -0.2409  0.7526
 6065SOL    HW129657   3.349   2.503  14.182 -1.1577 -1.3933  0.9617
 6065SOL    HW229658   3.471   2.466  14.102 -1.5624 -0.9914 -1.6763
 6066SOL     OW29659   1.094   3.002   3.653  0.1496  0.1823  0.1576
 6066SOL    HW129660   1.056   2.944   3.587 -1.7681  0.3545  1.1174
 6066SOL    HW229661   1.021   3.040   3.704 -1.1603 -0.1220 -1.4898
 6067SOL     OW29662   3.872   4.681   4.668  0.2172 -0.4544  0.5626
 6067SOL    HW129663   3.920   4.601   4.688 -1.6856 -1.4864  0.9787
 6067SOL    HW229664   3.916   0.014   4.731 -1.3213  0.3949  0.8584
 6068SOL     OW29665   2.833   4.261   2.653 -0.8252  0.3013 -0.5932
 6068SOL    HW129666   2.840   4.231   2.744 -2.3334  1.4313 -0.1100
 6068SOL    HW229667   2.902   4.205   2.618 -2.2923 -3.9267  3.0775
 6069SOL     OW29668   0.793   3.559  11.679 -0.0160  0.2266 -0.4236
 6069SOL    HW129669   0.757   3.533  11.764  0.3694  0.9545 -0.0374
 6069SOL    HW229670   0.761   3.490  11.621 -0.9645  0.2997  0.0138
 6070SOL     OW29671   4.555   0.720   6.767 -0.1392 -0.2613 -0.2177
 6070SOL    HW129672   4.528   0.636   6.804  2.2270 -0.9421 -0.0421
 6070SOL    HW229673   4.476   0.740   6.716 -0.9123 -0.8861  0.7617
 6071SOL     OW29674   1.757   1.078   7.691  0.6532  0.3522 -0.5858
 6071SOL    HW129675   1.763   0.983   7.686  0.5462  0.3036  0.2570
 6071SOL    HW229676   1.851   1.096   7.695  0.6583  0.0289  0.5568
 6072SOL     OW29677   0.845   3.198   0.044  1.1096  0.0029 -0.2066
 6072SOL    HW129678   0.894   3.225   0.122  0.4056 -3.1976  1.3348
 6072SOL    HW229679   0.892   3.253  17.683 -2.2076  1.2826 -1.5223
 6073SOL     OW29680   1.869   3.252   6.401 -0.4667 -0.0557 -0.7150
 6073SOL    HW129681   1.933   3.221   6.464 -1.4491  1.2847  0.9547
 6073SOL    HW229682   1.806   3.181   6.392  3.1714 -3.1536 -1.6694
 6074SOL     OW29683   0.342   3.296  12.549 -0.3875 -0.4213 -0.4680
 6074SOL    HW129684   0.425   3.248  12.549 -0.1524 -0.0090  0.2260
 6074SOL    HW229685   0.345   3.368  12.611 -0.1327 -0.4820 -0.4069
 6075SOL     OW29686   3.189   1.232   6.550 -0.5071 -0.0349  0.0393
 6075SOL    HW129687   3.242   1.233   6.629 -2.7708  1.0028  1.5295
 6075SOL    HW229688   3.104   1.223   6.593 -0.6782 -1.2938 -0.5487
 6076SOL     OW29689   0.862   2.512   0.994  0.4060  0.1805 -0.3740
 6076SOL    HW129690   0.914   2.438   0.963 -0.4015  0.0563 -1.4362
 6076SOL    HW229691   0.780   2.465   0.982  0.8405 -0.5830 -0.3548
 6077SOL     OW29692   2.146   3.380  10.482 -0.0686  0.8080  0.4652
 6077SOL    HW129693   2.123   3.473  10.476 -0.8024  0.5329 -0.9569
 6077SOL    HW229694   2.116   3.347  10.567 -0.4603 -1.1225 -0.4276
 6078SOL     OW29695   0.048   3.756  11.032 -0.0662  0.4001 -0.0671
 6078SOL    HW129696   0.014   3.709  11.107 -0.8385  0.3498 -0.4464
 6078SOL    HW229697   4.700   3.746  10.971 -0.1976 -1.9090  0.4748
 6079SOL     OW29698   0.283   3.634   8.120  0.0095  0.4318 -0.3348
 6079SOL    HW129699   0.337   3.559   8.095  0.8083  0.5363  1.0679
 6079SOL    HW229700   0.210   3.586   8.159  0.7325 -0.6448 -0.3038
 6080SOL     OW29701   3.236   3.170   7.408  0.4911 -0.6538 -0.3334
 6080SOL    HW129702   3.219   3.090   7.357  0.3675 -1.8114  1.5262
 6080SOL    HW229703   3.327   3.193   7.390 -0.0462  1.1848 -0.6110
 6081SOL     OW29704   4.492   1.120  15.673 -0.3116  0.1717  0.4920
 6081SOL    HW129705   4.418   1.168  15.712 -1.2031 -1.0267  0.2525
 6081SOL    HW229706   4.454   1.035  15.693 -2.4705  1.1012  0.4059
 6082SOL     OW29707   1.521   0.561   8.160 -0.2691  0.1743  0.1947
 6082SOL    HW129708   1.569   0.483   8.187  1.6178  1.5581  0.8074
 6082SOL    HW229709   1.486   0.599   8.241 -1.1390 -1.0753  0.4145
 6083SOL     OW29710   3.750   0.058  13.934  0.6559 -0.0724 -0.3566
 6083SOL    HW129711   3.708   0.074  14.018  0.4046 -0.6794 -0.3663
 6083SOL    HW229712   3.679   0.084  13.875  0.3889 -0.2427 -0.1111
 6084SOL     OW29713   0.087   3.488  15.651 -0.0961  0.1215 -0.5522
 6084SOL    HW129714   0.046   3.448  15.575 -0.5582  0.4897 -0.4958
 6084SOL    HW229715   0.161   3.524  15.602  2.6562 -0.6029  3.0642
 6085SOL     OW29716   3.579   1.656   3.541  0.1744  0.4158 -0.8440
 6085SOL    HW129717   3.662   1.669   3.495  0.8975  0.0356  0.3648
 6085SOL    HW229718   3.525   1.701   3.476 -3.1742  1.2206  2.5261
 6086SOL     OW29719   1.831   3.175   5.353 -0.8683 -0.1567  0.3694
 6086SOL    HW129720   1.854   3.244   5.290  0.2732 -1.9501 -1.1924
 6086SOL    HW229721   1.913   3.126   5.348 -0.1529  1.1103 -0.4298
 6087SOL     OW29722   0.451   1.169  16.580 -0.3821  0.1063 -0.1654
 6087SOL    HW129723   0.528   1.224  16.572  0.1403 -0.7132 -0.7950
 6087SOL    HW229724   0.397   1.204  16.509 -2.6020 -1.5400  0.6995
 6088SOL     OW29725   3.595   4.701   5.761 -0.2749 -0.0662  0.2776
 6088SOL    HW129726   3.631   0.062   5.741 -1.3459  0.0435 -1.1827
 6088SOL    HW229727   3.507   4.705   5.723 -1.0660 -0.1597  2.1079
 6089SOL     OW29728   3.253   0.158  13.720  0.0836 -0.3239 -0.0949
 6089SOL    HW129729   3.250   0.245  13.758  0.4525 -0.0420 -0.7113
 6089SOL    HW229730   3.188   0.122  13.781  0.5064 -2.4447 -0.8692
 6090SOL     OW29731   1.068   1.073   2.816 -0.4009 -0.2464  0.1221
 6090SOL    HW129732   1.020   1.073   2.734  0.9472  0.4527 -0.6685
 6090SOL    HW229733   1.137   1.130   2.782 -0.1184  0.2952  1.6141
 6091SOL     OW29734   3.547   0.884   2.535 -0.5243  0.1727  0.3257
 6091SOL    HW129735   3.562   0.881   2.630  0.9543  0.7359  0.1093
 6091SOL    HW229736   3.464   0.931   2.534 -1.6241 -1.7666 -0.3636
 6092SOL     OW29737   2.891   2.715   8.670  0.0862 -0.0259  0.3628
 6092SOL    HW129738   2.932   2.677   8.593  2.0661 -2.5735  2.6854
 6092SOL    HW229739   2.901   2.807   8.645 -1.1074 -0.0203 -0.0807
 6093SOL     OW29740   3.547   0.077  17.449  0.2885 -0.1225  0.4615
 6093SOL    HW129741   3.531   0.094  17.356  0.5367 -0.2071  0.4039
 6093SOL    HW229742   3.521   0.161  17.488  0.7406 -0.8723  2.3598
 6094SOL     OW29743   2.838   1.787   4.258 -0.2024  0.7331  0.2329
 6094SOL    HW129744   2.856   1.701   4.294 -0.5074  0.5113 -0.1398
 6094SOL    HW229745   2.927   1.821   4.268  0.4356 -1.0900  0.8111
 6095SOL     OW29746   0.649   3.765  11.777 -0.5142 -0.0539 -0.3259
 6095SOL    HW129747   0.573   3.711  11.758  0.2856 -0.9596 -0.9192
 6095SOL    HW229748   0.708   3.696  11.746  0.9022  1.0327 -0.0780
 6096SOL     OW29749   2.167   4.186   4.891 -0.3027 -0.0264  0.0768
 6096SOL    HW129750   2.120   4.138   4.960 -2.1961 -0.6180 -1.6188
 6096SOL    HW229751   2.249   4.138   4.893 -0.1003  0.3769  1.3292
 6097SOL     OW29752   0.042   1.236   1.879 -0.1632  0.1253  0.1054
 6097SOL    HW129753   0.022   1.172   1.811 -0.1239  0.5706 -0.3291
 6097SOL    HW229754   0.057   1.179   1.954  0.3227 -0.1120 -0.1744
 6098SOL     OW29755   1.799   0.165   6.104  0.5551 -0.3819  0.0387
 6098SOL    HW129756   1.808   0.259   6.086 -1.1658 -0.4226 -1.0095
 6098SOL    HW229757   1.762   0.141   6.019  0.3924 -3.4918  0.9905
 6099SOL     OW29758   4.490   3.095   3.587  0.1784  0.2183  0.0021
 6099SOL    HW129759   4.544   3.017   3.600  0.6285  0.5332  0.0273
 6099SOL    HW229760   4.462   3.079   3.497  0.7474  0.7266 -0.2646
 6100SOL     OW29761   4.457   4.023   2.043  0.3737  0.2103  0.6973
 6100SOL    HW129762   4.457   4.117   2.025 -1.3126  0.5983  2.7261
 6100SOL    HW229763   4.506   3.995   1.966 -0.3236  0.7759  0.0515
 6101SOL     OW29764   3.333   2.615  15.047  0.1132  1.1893  0.0224
 6101SOL    HW129765   3.346   2.553  15.119 -1.7186  0.7179 -0.0357
 6101SOL    HW229766   3.421   2.596  15.016  0.6340  0.5820  1.8416
 6102SOL     OW29767   4.224   3.051   2.532 -0.2282 -0.2971 -0.0575
 6102SOL    HW129768   4.252   2.960   2.522 -0.7043 -0.6564  1.8439
 6102SOL    HW229769   4.269   3.081   2.611 -0.4376 -0.9553  0.3094
 6103SOL     OW29770   2.104   3.443   7.403  0.7332  0.6871 -0.1857
 6103SOL    HW129771   2.028   3.436   7.461  1.4142  1.1286  0.7581
 6103SOL    HW229772   2.091   3.532   7.369  2.4270  1.1395  0.3331
 6104SOL     OW29773   0.188   3.583  13.401 -0.8024  0.1553 -0.0481
 6104SOL    HW129774   0.117   3.609  13.342  0.3131  1.0107 -1.0107
 6104SOL    HW229775   0.187   3.487  13.394  1.2621  0.1982 -0.9192
 6105SOL     OW29776   2.676   2.423   2.798 -0.2962  0.3263 -0.3472
 6105SOL    HW129777   2.635   2.441   2.882 -0.0760 -0.1342 -0.1433
 6105SOL    HW229778   2.723   2.504   2.778 -1.0355  1.1839  1.4593
 6106SOL     OW29779   0.552   2.377   1.469 -0.0697 -0.2451 -0.1434
 6106SOL    HW129780   0.592   2.336   1.546  0.3309  2.2976  1.0117
 6106SOL    HW229781   0.570   2.311   1.402 -0.3328 -1.4474  0.9686
 6107SOL     OW29782   0.039   1.130   3.725 -0.3070 -0.1181 -0.9597
 6107SOL    HW129783   0.030   1.041   3.692  1.7293 -0.5995 -0.2405
 6107SOL    HW229784   4.701   1.141   3.796  0.0801  0.4407 -0.6978
 6108SOL     OW29785   4.373   2.274   5.186  0.7687 -0.8467  0.6539
 6108SOL    HW129786   4.453   2.251   5.234  3.1052  0.5907 -2.5708
 6108SOL    HW229787   4.355   2.191   5.143 -1.8132 -0.9580  1.9455
 6109SOL     OW29788   3.915   3.791   7.003 -0.4714 -0.0454  0.0167
 6109SOL    HW129789   3.879   3.735   6.934 -0.6679 -0.8503  0.7718
 6109SOL    HW229790   3.931   3.731   7.076  0.8371  0.3171  0.0364
 6110SOL     OW29791   2.437   0.265   2.672  0.2089 -0.0983  0.5350
 6110SOL    HW129792   2.379   0.232   2.603  0.9722  1.1071 -0.6939
 6110SOL    HW229793   2.402   0.349   2.702  0.8844 -0.2645  1.8172
 6111SOL     OW29794   1.060   4.314   2.937 -0.3158 -0.1635  0.2458
 6111SOL    HW129795   1.006   4.275   2.868 -0.0020 -0.5882  0.2404
 6111SOL    HW229796   1.008   4.304   3.016  1.4858 -1.4524  1.2587
 6112SOL     OW29797   0.875   2.806   4.472 -0.3876  0.2956 -0.9587
 6112SOL    HW129798   0.924   2.762   4.541 -1.4660 -0.6640 -0.8039
 6112SOL    HW229799   0.873   2.895   4.508  0.3020 -0.1068  0.0531
 6113SOL     OW29800   0.678   2.920   1.947  0.2705  0.1381  0.5623
 6113SOL    HW129801   0.645   2.912   2.036  2.0985 -2.0179  1.0413
 6113SOL    HW229802   0.623   2.996   1.927  2.0310  1.3954  0.5009
 6114SOL     OW29803   3.867   2.107   4.747  0.0199 -0.0038  0.0839
 6114SOL    HW129804   3.806   2.130   4.817  1.3253  0.9244  0.9015
 6114SOL    HW229805   3.882   2.014   4.765 -0.5787  0.1079  1.1403
 6115SOL     OW29806   3.085   2.150   9.430  0.7543 -0.2750  0.1095
 6115SOL    HW129807   3.112   2.064   9.397 -1.3718 -0.8216 -0.2118
 6115SOL    HW229808   3.150   2.171   9.498  1.0416 -0.6810 -0.0409
 6116SOL     OW29809   0.207   2.992   2.518 -0.9303 -0.2186 -0.2664
 6116SOL    HW129810   0.301   2.996   2.505 -0.9785  2.1755  0.1628
 6116SOL    HW229811   0.189   3.028   2.605 -0.3038 -1.3262  0.3183
 6117SOL     OW29812   3.498   3.254   0.854  0.3938  0.1993  0.1360
 6117SOL    HW129813   3.540   3.168   0.861 -0.2901 -0.1118  0.3555
 6117SOL    HW229814   3.522   3.273   0.763  2.8136 -1.9089  0.3369
 6118SOL     OW29815   3.864   3.833   2.444  0.3655  0.1532 -0.3306
 6118SOL    HW129816   3.929   3.892   2.406 -0.2027  0.4987 -0.7741
 6118SOL    HW229817   3.916   3.754   2.432 -0.7777 -0.8535  1.2876
 6119SOL     OW29818   4.479   0.887   9.787 -1.0016 -0.1248 -0.2372
 6119SOL    HW129819   4.487   0.808   9.734  0.1585  1.2919 -2.1695
 6119SOL    HW229820   4.558   0.891   9.840 -1.9155 -0.3560  1.1598
 6120SOL     OW29821   3.007   2.287   4.904  0.2840 -0.1628  0.5894
 6120SOL    HW129822   3.093   2.265   4.867 -0.0119 -1.8493  0.8979
 6120SOL    HW229823   3.017   2.263   4.996  2.5560  0.1831  0.4426
 6121SOL     OW29824   3.637   1.615   2.275  0.0602  0.5760  0.1699
 6121SOL    HW129825   3.599   1.665   2.202  1.0236  1.0229 -0.0259
 6121SOL    HW229826   3.559   1.586   2.323  1.0729 -1.1171  0.7671
 6122SOL     OW29827   0.930   4.179   5.903  0.2843 -0.0255 -0.1231
 6122SOL    HW129828   0.859   4.225   5.858  0.5082 -0.1805 -0.6295
 6122SOL    HW229829   0.902   4.087   5.902  1.5905 -0.4393  2.2914
 6123SOL     OW29830   2.653   3.571  15.193 -0.4791  0.6294 -0.4682
 6123SOL    HW129831   2.640   3.611  15.107 -1.5439 -0.8283 -0.9815
 6123SOL    HW229832   2.614   3.486  15.175 -2.7750  2.0976 -2.4308
 6124SOL     OW29833   2.486   0.757   7.917 -0.1359  0.4001 -0.0313
 6124SOL    HW129834   2.432   0.771   7.839  0.3382  0.5793 -0.3303
 6124SOL    HW229835   2.426   0.717   7.980 -2.4657  0.8526 -1.9421
 6125SOL     OW29836   1.488   2.588   7.439 -0.6312  0.2415  0.2736
 6125SOL    HW129837   1.530   2.674   7.444 -0.6006  0.2335  0.1609
 6125SOL    HW229838   1.403   2.613   7.474  0.0413  0.5872  1.6597
 6126SOL     OW29839   3.081   4.384   0.418 -0.6324  0.0417  0.3994
 6126SOL    HW129840   3.146   4.338   0.365 -0.2746  1.2084 -0.1679
 6126SOL    HW229841   3.060   4.311   0.477 -1.4031 -0.1506 -0.1154
 6127SOL     OW29842   2.711   1.628   6.784 -0.2661  0.1951  0.0734
 6127SOL    HW129843   2.799   1.662   6.773 -0.3242  0.7252  1.1694
 6127SOL    HW229844   2.723   1.601   6.875 -0.8872  0.5331  0.2584
 6128SOL     OW29845   2.935   2.042   0.498 -0.2299  0.0519  0.0167
 6128SOL    HW129846   2.982   1.968   0.537  0.7096  1.1421  0.9212
 6128SOL    HW229847   2.927   2.006   0.410  3.7554  4.1348 -1.9501
 6129SOL     OW29848   3.205   2.153   9.041 -0.0226 -0.3955  0.0089
 6129SOL    HW129849   3.297   2.128   9.037 -0.1743 -0.5510 -2.3692
 6129SOL    HW229850   3.172   2.078   9.091  1.8576 -1.4430 -0.3349
 6130SOL     OW29851   4.157   3.042   1.036 -0.5049  0.1882 -0.6363
 6130SOL    HW129852   4.072   3.043   0.990  0.0250  2.1976 -1.5380
 6130SOL    HW229853   4.182   3.131   1.013  1.7830  0.2537  2.1291
 6131SOL     OW29854   4.582   3.543   4.112 -0.4151 -0.1102  0.3915
 6131SOL    HW129855   4.490   3.540   4.088 -0.6745 -0.9141  1.4881
 6131SOL    HW229856   4.612   3.564   4.024  1.0368  1.2948  1.2224
 6132SOL     OW29857   1.828   2.526   2.582 -0.7286 -0.0014  0.2778
 6132SOL    HW129858   1.820   2.570   2.497 -2.0409 -0.8557 -0.0520
 6132SOL    HW229859   1.922   2.523   2.600 -0.6202 -0.0486 -0.2909
 6133SOL     OW29860   4.624   0.078   5.600  0.3062 -0.1652  0.0577
 6133SOL    HW129861   4.694   0.084   5.666  0.1658  1.7237  0.0528
 6133SOL    HW229862   4.567   0.014   5.641  0.1946 -0.2134 -0.1786
 6134SOL     OW29863   1.718   1.009   0.584 -0.1992  0.2453  0.4136
 6134SOL    HW129864   1.627   1.028   0.560  0.4332  0.0892 -2.0100
 6134SOL    HW229865   1.709   0.920   0.620 -0.7672  0.1630  0.0692
 6135SOL     OW29866   0.298   1.508   0.198 -0.6080 -0.2582 -0.5523
 6135SOL    HW129867   0.213   1.551   0.209 -0.8419 -0.5967 -1.0244
 6135SOL    HW229868   0.353   1.583   0.218  0.9685 -0.8940 -2.5649
 6136SOL     OW29869   4.117   2.155   1.920  0.2679 -0.2552 -0.1771
 6136SOL    HW129870   4.063   2.076   1.934 -2.0643  1.2773 -0.4565
 6136SOL    HW229871   4.053   2.202   1.866 -1.4730  0.3769  2.4250
 6137SOL     OW29872   0.353   0.404   8.602 -0.0901 -0.3984  0.3251
 6137SOL    HW129873   0.311   0.384   8.686  0.3763 -0.3227  0.5774
 6137SOL    HW229874   0.446   0.392   8.619 -0.0889  0.3826  0.9002
 6138SOL     OW29875   0.455   3.414   2.670  0.9047  0.1447 -0.0016
 6138SOL    HW129876   0.449   3.460   2.754 -0.9424  0.7465 -0.4653
 6138SOL    HW229877   0.536   3.454   2.640  0.3870  3.0494  2.5061
 6139SOL     OW29878   2.123   0.829   4.408  0.1002  0.0381 -0.3996
 6139SOL    HW129879   2.116   0.924   4.417  0.1587  0.0611 -0.6034
 6139SOL    HW229880   2.082   0.807   4.492  1.5104  0.1777  0.3274
 6140SOL     OW29881   4.474   1.321   3.302 -0.8453  0.0395 -0.0395
 6140SOL    HW129882   4.471   1.300   3.395  2.6304  1.1243  0.3002
 6140SOL    HW229883   4.437   1.242   3.262  2.2292  0.1537 -3.0992
 6141SOL     OW29884   2.230   4.103   2.642  0.1515  0.1625  0.8062
 6141SOL    HW129885   2.183   4.173   2.687 -0.0666  1.2173 -1.0580
 6141SOL    HW229886   2.241   4.040   2.713  0.3409  0.3226  0.9206
 6142SOL     OW29887   0.872   3.352   2.830  0.3702  0.8988  0.1450
 6142SOL    HW129888   0.886   3.430   2.776 -1.4296  0.7134 -0.5953
 6142SOL    HW229889   0.828   3.304   2.760 -0.8963  1.1233  0.7901
 6143SOL     OW29890   1.052   3.330   4.072  0.7394 -0.0695  0.2570
 6143SOL    HW129891   1.028   3.401   4.132  3.0779 -1.1204  2.4437
 6143SOL    HW229892   0.985   3.266   4.095 -0.3051  0.9599  0.0829
 6144SOL     OW29893   4.237   4.185   2.279 -0.0172 -0.4605  0.1048
 6144SOL    HW129894   4.225   4.276   2.306  1.3905 -0.2428 -0.0302
 6144SOL    HW229895   4.200   4.193   2.192 -0.2292  0.6223  0.3017
 6145SOL     OW29896   4.155   1.542   8.005 -0.1183  0.7976  0.4236
 6145SOL    HW129897   4.178   1.537   7.912  0.7796 -1.1802  0.7626
 6145SOL    HW229898   4.083   1.479   8.008  1.1984 -0.7128  0.4824
 6146SOL     OW29899   0.429   1.024  13.582 -0.2412 -0.2600  0.3211
 6146SOL    HW129900   0.426   1.085  13.655 -2.6988  1.9416 -1.6274
 6146SOL    HW229901   0.516   1.041  13.545  0.4341 -0.6229  1.7687
 6147SOL     OW29902   3.030   0.363  11.840 -0.1108  0.1495 -0.1998
 6147SOL    HW129903   2.976   0.356  11.918 -1.3672 -0.7657 -1.1602
 6147SOL    HW229904   3.029   0.275  11.803 -0.6593  0.8699 -1.8931
 6148SOL     OW29905   4.054   0.495  13.636 -1.0737  0.0106  0.0121
 6148SOL    HW129906   4.101   0.460  13.712  0.1017 -0.2114 -0.8359
 6148SOL    HW229907   4.114   0.469  13.567 -0.0756  1.6992  0.2219
 6149SOL     OW29908   2.747   2.827  10.328 -0.4249  0.7247 -0.1947
 6149SOL    HW129909   2.734   2.763  10.398  1.6247  0.6357  0.1170
 6149SOL    HW229910   2.842   2.836  10.325 -0.2983 -0.1469  1.1713
 6150SOL     OW29911   1.992   0.913   6.656  0.6398 -0.3107  0.2840
 6150SOL    HW129912   2.071   0.880   6.700  1.3787  1.0159 -0.0628
 6150SOL    HW229913   2.008   1.004   6.633  1.7073 -1.4066 -3.4418
 6151SOL     OW29914   0.726   1.050  13.644 -0.2145  0.0002  0.3761
 6151SOL    HW129915   0.783   1.013  13.712 -0.3526 -1.2422 -0.1839
 6151SOL    HW229916   0.645   1.053  13.695 -0.1010  2.1017  0.4030
 6152SOL     OW29917   0.687   4.512  16.424 -0.4869 -0.2358  0.5294
 6152SOL    HW129918   0.771   4.544  16.456 -0.4640  0.5368 -0.3291
 6152SOL    HW229919   0.709   4.509  16.331 -1.9934 -2.1230  0.2230
 6153SOL     OW29920   0.503   1.458  16.366 -0.2301  0.9320 -0.2108
 6153SOL    HW129921   0.519   1.522  16.435  0.3232  0.7243 -0.1494
 6153SOL    HW229922   0.578   1.485  16.312  0.2209  2.5635  1.2337
 6154SOL     OW29923   2.794   3.996   3.692 -0.2222  0.5497  0.6265
 6154SOL    HW129924   2.879   3.959   3.665 -1.4815 -2.2148  0.4533
 6154SOL    HW229925   2.827   4.076   3.732  0.5885  0.9193 -0.7970
 6155SOL     OW29926   1.050   2.949   5.115 -0.0151  0.6599  0.2958
 6155SOL    HW129927   1.105   2.919   5.043 -1.2613  0.8259 -0.7075
 6155SOL    HW229928   1.032   3.039   5.089 -0.9443  0.4784  0.3263
 6156SOL     OW29929   1.392   2.755   3.524 -0.3070  0.0028 -0.1262
 6156SOL    HW129930   1.390   2.851   3.525 -0.5677 -0.0208  1.1602
 6156SOL    HW229931   1.431   2.741   3.610 -2.6356 -1.0661  0.7527
 6157SOL     OW29932   4.462   1.806   8.229  0.1720  0.2016 -0.3058
 6157SOL    HW129933   4.424   1.813   8.142  1.1240  3.8016 -0.4452
 6157SOL    HW229934   4.388   1.770   8.277  1.7139 -1.8129  0.5603
 6158SOL     OW29935   3.086   1.877   7.488 -0.2212  0.3659 -0.5848
 6158SOL    HW129936   3.101   1.785   7.513 -2.8574 -0.0410 -0.4895
 6158SOL    HW229937   2.991   1.884   7.480 -0.2103  0.2343 -0.8482
 6159SOL     OW29938   2.679   4.520   7.422 -0.1344 -0.3148 -0.0009
 6159SOL    HW129939   2.598   4.475   7.397  0.0645  0.1091 -1.4227
 6159SOL    HW229940   2.679   4.507   7.517 -1.2346  0.2675  0.0687
 6160SOL     OW29941   2.125   4.381   4.729 -0.1552 -0.3748 -0.0246
 6160SOL    HW129942   2.208   4.426   4.715  0.1141 -0.1526  2.3886
 6160SOL    HW229943   2.144   4.301   4.778  0.6343 -1.0484 -1.4201
 6161SOL     OW29944   0.149   3.880   1.967 -0.5699 -0.0489  0.3717
 6161SOL    HW129945   0.204   3.947   2.009  1.1443 -0.7218 -0.8355
 6161SOL    HW229946   0.208   3.863   1.894 -2.4137 -1.8595 -0.6833
 6162SOL     OW29947   3.666   3.847   5.643  0.1895 -0.2189  0.2050
 6162SOL    HW129948   3.706   3.899   5.713 -0.0545 -1.1157  1.0190
 6162SOL    HW229949   3.575   3.842   5.670 -0.0543 -0.4001 -0.6802
 6163SOL     OW29950   1.417   4.535   6.643  0.0476 -0.3647  0.0153
 6163SOL    HW129951   1.329   4.572   6.636 -0.4839 -1.5128  0.6957
 6163SOL    HW229952   1.423   4.507   6.734 -1.6174 -0.9045 -0.0485
 6164SOL     OW29953   2.548   1.541  13.798  0.1301  0.1353  0.2701
 6164SOL    HW129954   2.506   1.615  13.843  0.0616 -1.5600  2.9765
 6164SOL    HW229955   2.629   1.550  13.848 -1.3193  0.4315  2.5380
 6165SOL     OW29956   3.336   2.332   3.391  0.5039  0.0689 -0.4133
 6165SOL    HW129957   3.358   2.319   3.484  2.4597  3.5637 -0.4214
 6165SOL    HW229958   3.242   2.310   3.392  0.4225  0.3511 -1.9261
 6166SOL     OW29959   2.340   2.705   7.617  0.2606 -0.6885  0.0388
 6166SOL    HW129960   2.340   2.793   7.654  0.9358 -0.2249 -1.0801
 6166SOL    HW229961   2.371   2.647   7.686  1.1886  1.2318  1.2178
 6167SOL     OW29962   3.574   3.254   8.551 -0.3152 -0.2792  0.6902
 6167SOL    HW129963   3.659   3.250   8.507  0.7925  0.4214  2.7800
 6167SOL    HW229964   3.523   3.189   8.501  0.7810 -1.5130  1.1672
 6168SOL     OW29965   2.316   1.302   8.628 -0.4313 -0.1244 -0.3055
 6168SOL    HW129966   2.304   1.381   8.577 -1.8575 -0.8731 -1.1247
 6168SOL    HW229967   2.343   1.236   8.564  0.1994 -0.7064  0.5572
 6169SOL     OW29968   3.718   3.835  13.308  0.0959 -0.1359  0.0626
 6169SOL    HW129969   3.717   3.918  13.259 -0.9858 -0.0637  0.2286
 6169SOL    HW229970   3.668   3.791  13.240 -0.0240  0.4704 -0.2379
 6170SOL     OW29971   2.099   4.071   1.994 -0.5093 -0.4008  0.6468
 6170SOL    HW129972   2.163   4.073   2.066  0.5508 -1.3688 -0.2616
 6170SOL    HW229973   2.056   4.155   2.008 -1.3944 -0.7198 -0.1836
 6171SOL     OW29974   3.964   4.305   3.553 -0.0250 -0.0616  0.0047
 6171SOL    HW129975   3.886   4.269   3.595 -0.2408  0.3449 -0.0371
 6171SOL    HW229976   3.944   4.259   3.471  2.3433 -1.3366  0.1815
 6172SOL     OW29977   0.597   1.941   4.639  0.1710  0.1769 -0.9170
 6172SOL    HW129978   0.684   1.970   4.611  0.6670  0.0514  0.5200
 6172SOL    HW229979   0.608   1.853   4.676 -2.2674 -0.8037 -2.5566
 6173SOL     OW29980   0.411   2.273  14.902 -0.0321 -0.3676 -0.0272
 6173SOL    HW129981   0.486   2.324  14.932  0.5593 -0.4984 -1.2949
 6173SOL    HW229982   0.447   2.185  14.917  0.9553  0.1252  0.5087
 6174SOL     OW29983   0.031   1.320   4.340  0.0313 -0.4657  0.1125
 6174SOL    HW129984   0.046   1.381   4.412 -0.6055  0.1583 -0.2876
 6174SOL    HW229985   0.120   1.314   4.304 -1.1594  0.2391 -2.9096
 6175SOL     OW29986   2.401   4.216   8.306 -0.0229  0.1472  0.2347
 6175SOL    HW129987   2.436   4.272   8.375  1.9679  0.3737 -0.9590
 6175SOL    HW229988   2.309   4.242   8.306 -0.6239 -1.9259  2.6442
 6176SOL     OW29989   0.905   2.423  15.016  0.1818 -0.1858 -0.0209
 6176SOL    HW129990   0.994   2.400  14.991  0.1637  0.2451 -0.4817
 6176SOL    HW229991   0.918   2.517  15.028  0.8826 -0.4289  1.0776
 6177SOL     OW29992   1.753   4.179  13.411 -0.3872  0.4825  0.3005
 6177SOL    HW129993   1.767   4.173  13.317 -0.3217  2.2614  0.2052
 6177SOL    HW229994   1.753   4.085  13.430  1.0649 -0.1106 -2.6328
 6178SOL     OW29995   1.320   2.415  11.778 -0.2937 -0.2502 -0.5818
 6178SOL    HW129996   1.372   2.485  11.816 -0.0566 -1.7340  1.8589
 6178SOL    HW229997   1.366   2.342  11.821 -1.5085  0.9271  2.7271
 6179SOL     OW29998   0.319   0.582   5.801 -0.5713  0.0551  0.2069
 6179SOL    HW129999   0.225   0.603   5.795 -0.5251  1.4141  4.0732
 6179SOL    HW230000   0.330   0.596   5.707 -0.8256 -1.7482 -0.0925
 6180SOL     OW30001   2.352   0.564   5.592  0.5621 -0.4555 -0.1077
 6180SOL    HW130002   2.373   0.555   5.685  0.5781  2.1652  0.1600
 6180SOL    HW230003   2.340   0.473   5.565 -1.2965 -0.1896 -0.1666
 6181SOL     OW30004   3.404   1.272   2.275  0.7297 -0.3211  0.1875
 6181SOL    HW130005   3.489   1.277   2.319  1.7883 -3.9154 -1.4765
 6181SOL    HW230006   3.376   1.187   2.307  0.0178 -0.8693 -1.9436
 6182SOL     OW30007   0.495   4.201   9.698 -0.0026  0.4750 -0.3271
 6182SOL    HW130008   0.588   4.193   9.674  0.2049 -2.1442  1.3673
 6182SOL    HW230009   0.507   4.265   9.768  1.5139  1.8053 -1.7999
 6183SOL     OW30010   2.199   3.399   5.806  0.2208 -0.2736  0.6349
 6183SOL    HW130011   2.127   3.386   5.745 -0.0306  1.7852  0.4876
 6183SOL    HW230012   2.252   3.320   5.796 -2.1066 -1.6822 -0.5503
 6184SOL     OW30013   2.170   1.114  17.497 -0.1052  0.6004 -0.2649
 6184SOL    HW130014   2.090   1.133  17.449  0.1860  2.0669 -0.1796
 6184SOL    HW230015   2.145   1.118  17.590 -0.5707 -0.9161 -0.3304
 6185SOL     OW30016   3.059   0.014   8.015  0.3203 -0.3642 -0.2093
 6185SOL    HW130017   3.029   0.074   8.084 -1.1627 -0.5229 -0.7273
 6185SOL    HW230018   3.003   4.669   8.049  2.7281 -1.2791  1.8338
 6186SOL     OW30019   3.249   3.153   9.143 -0.3679  0.1551  0.2512
 6186SOL    HW130020   3.225   3.224   9.085 -0.6798  0.9382  1.3295
 6186SOL    HW230021   3.300   3.193   9.214  0.1489 -1.4441  0.7991
 6187SOL     OW30022   2.726   0.655   6.020  0.1491  0.6303  0.7242
 6187SOL    HW130023   2.786   0.585   6.047  1.1526  1.9027  1.8696
 6187SOL    HW230024   2.707   0.632   5.930  0.6542  0.6178  0.6168
 6188SOL     OW30025   2.035   4.529   8.378 -0.2306  0.4221 -0.2254
 6188SOL    HW130026   1.995   4.603   8.332  1.6811  0.9341 -1.0604
 6188SOL    HW230027   2.023   4.563   8.467  1.4297  0.1364  0.1098
 6189SOL     OW30028   0.618   3.082   0.132  0.1966 -0.0828 -0.2166
 6189SOL    HW130029   0.709   3.109   0.121  0.4544 -0.5508  0.7429
 6189SOL    HW230030   0.568   3.164   0.124  0.6593  0.2889  0.7018
 6190SOL     OW30031   0.843   2.369  10.058 -0.1084 -0.4950 -0.6319
 6190SOL    HW130032   0.920   2.345  10.006 -1.2945 -2.4834 -1.4850
 6190SOL    HW230033   0.856   2.311  10.133  3.2105 -1.1371 -1.6919
 6191SOL     OW30034   0.169   1.478  13.880  0.8194 -0.3591 -0.1649
 6191SOL    HW130035   0.181   1.396  13.833  0.2695  0.0426 -1.0132
 6191SOL    HW230036   0.075   1.482  13.898  0.4680 -0.9165 -1.8915
 6192SOL     OW30037   2.904   1.383   7.298 -0.5545  0.3712 -0.4186
 6192SOL    HW130038   2.899   1.452   7.364  1.5537  0.5572 -0.4488
 6192SOL    HW230039   2.996   1.377   7.273 -0.4541 -1.9131  0.4339
 6193SOL     OW30040   0.051   0.858   6.274  0.8836 -0.2469 -0.3849
 6193SOL    HW130041   0.053   0.828   6.365 -1.6555 -0.9661 -0.5580
 6193SOL    HW230042   0.029   0.951   6.286 -2.0869 -0.9002 -0.8020
 6194SOL     OW30043   2.228   3.889   8.102  0.3810  0.1210 -0.0935
 6194SOL    HW130044   2.288   3.885   8.028 -0.0565  0.1179 -0.4515
 6194SOL    HW230045   2.235   3.800   8.137  2.3627 -0.1917 -1.2790
 6195SOL     OW30046   2.065   3.415   6.648  0.4222 -0.4321 -0.4794
 6195SOL    HW130047   2.148   3.370   6.636  1.3996  1.0348  0.7423
 6195SOL    HW230048   2.008   3.349   6.688  0.6064  0.0394  0.5791
 6196SOL     OW30049   0.772   3.936   1.957  0.0116 -0.4908 -0.7450
 6196SOL    HW130050   0.791   3.846   1.931 -0.3569 -0.6145 -0.5837
 6196SOL    HW230051   0.861   3.966   1.975 -0.5126  0.4062  0.3520
 6197SOL     OW30052   4.452   3.810   5.949 -0.2263 -0.0257  0.0492
 6197SOL    HW130053   4.378   3.771   5.903 -0.5427  1.8931 -1.0446
 6197SOL    HW230054   4.401   3.850   6.020 -1.6848 -0.1552 -0.9198
 6198SOL     OW30055   4.368   0.366   7.852 -0.4088  0.4437  0.2637
 6198SOL    HW130056   4.382   0.409   7.936  1.8984 -0.2678  0.2264
 6198SOL    HW230057   4.312   0.421   7.797 -0.1877  0.2011 -0.2023
 6199SOL     OW30058   2.173   4.368   5.647  0.3544  0.2444 -0.1948
 6199SOL    HW130059   2.122   4.418   5.583  2.7179  1.0983 -1.4170
 6199SOL    HW230060   2.104   4.306   5.670  1.8328 -0.6830  1.7428
 6200SOL     OW30061   0.444   3.426  15.869 -0.0850  0.1339  0.2075
 6200SOL    HW130062   0.469   3.379  15.948  0.5782 -1.0976 -0.7216
 6200SOL    HW230063   0.376   3.488  15.897  1.2596  2.2525 -1.1888
 6201SOL     OW30064   4.715   4.117  13.116  0.0854 -0.2987  0.2453
 6201SOL    HW130065   4.707   4.145  13.025  1.5288  3.6398  1.3477
 6201SOL    HW230066   4.720   4.195  13.171 -1.7405 -0.0947  0.1280
 6202SOL     OW30067   3.609   3.775   6.166 -0.3110 -0.0644 -0.0094
 6202SOL    HW130068   3.520   3.743   6.184  0.4561 -1.0441  2.1125
 6202SOL    HW230069   3.606   3.869   6.178  3.6997  0.1857 -0.8810
 6203SOL     OW30070   0.342   2.672   3.289  0.3329  0.0114 -0.1332
 6203SOL    HW130071   0.343   2.760   3.327 -1.8545 -0.0314 -0.0249
 6203SOL    HW230072   0.325   2.693   3.197 -1.2367 -2.9235 -0.4912
 6204SOL     OW30073   1.458   4.397  11.473 -0.0818 -0.3976  0.6608
 6204SOL    HW130074   1.429   4.380  11.383 -0.6603  0.1446  0.7433
 6204SOL    HW230075   1.456   4.310  11.513 -0.1095  0.4027  2.4072
 6205SOL     OW30076   2.251   2.292   0.416  0.3838 -0.1129  0.2034
 6205SOL    HW130077   2.252   2.261   0.507  1.1470  0.8907  0.5363
 6205SOL    HW230078   2.316   2.362   0.418  1.2006 -0.7834 -3.1184
 6206SOL     OW30079   1.076   1.724  13.706 -0.3147  0.3158 -0.0617
 6206SOL    HW130080   1.164   1.721  13.745 -0.3691  1.0996  0.1186
 6206SOL    HW230081   1.019   1.691  13.775  1.1271 -1.6606  0.1876
 6207SOL     OW30082   0.670   0.717   5.600 -0.2437  0.0494 -0.0086
 6207SOL    HW130083   0.675   0.632   5.642 -1.3972  0.1990  0.4272
 6207SOL    HW230084   0.590   0.695   5.552  0.9511  0.8380 -2.3866
 6208SOL     OW30085   2.318   4.523  16.584  0.4467 -0.3261 -0.1053
 6208SOL    HW130086   2.314   4.611  16.622 -0.2912 -0.1640 -0.5531
 6208SOL    HW230087   2.367   4.485  16.656  0.0420 -0.0673  0.3103
 6209SOL     OW30088   2.778   1.262   4.313  0.1485 -0.4315  0.4695
 6209SOL    HW130089   2.784   1.170   4.287  2.1951 -0.3905  0.8027
 6209SOL    HW230090   2.685   1.282   4.319 -0.2664 -1.6643 -1.6676
 6210SOL     OW30091   0.248   4.395   6.287  0.2237 -0.6379  0.2948
 6210SOL    HW130092   0.208   4.355   6.210  0.4777 -0.3325  0.0032
 6210SOL    HW230093   0.317   4.334   6.312  0.6858 -0.3460 -0.2551
 6211SOL     OW30094   2.276   0.448   7.489  0.3310  0.2233 -0.1201
 6211SOL    HW130095   2.366   0.449   7.456  0.6574  0.6293  0.7733
 6211SOL    HW230096   2.292   0.402   7.572 -0.7974 -0.4378 -0.2730
 6212SOL     OW30097   0.994   1.577   4.845 -0.0415 -1.0202 -0.2492
 6212SOL    HW130098   1.013   1.522   4.769  1.6093 -0.3674 -0.3076
 6212SOL    HW230099   1.065   1.641   4.840 -0.9552 -0.1687 -2.3010
 6213SOL     OW30100   2.597   3.076   7.743  0.0197 -0.1293 -0.0204
 6213SOL    HW130101   2.579   3.163   7.779  0.3648  0.5946 -1.6150
 6213SOL    HW230102   2.683   3.099   7.708  0.3968  0.0182  0.9997
 6214SOL     OW30103   2.834   3.870  12.108 -0.1175 -0.2382  0.1072
 6214SOL    HW130104   2.794   3.951  12.076 -0.2340 -0.2236  0.2902
 6214SOL    HW230105   2.790   3.809  12.050 -0.2864 -0.0186  0.0031
 6215SOL     OW30106   4.641   2.919   5.509 -0.1997 -0.2328 -0.5921
 6215SOL    HW130107   4.656   3.009   5.538  1.0546 -0.5164 -0.3548
 6215SOL    HW230108   4.705   2.897   5.442  0.7260  4.4463 -1.2284
 6216SOL     OW30109   2.637   0.233  12.935  0.4112  0.1165  0.1087
 6216SOL    HW130110   2.708   0.169  12.935  3.8071  3.8823  1.3682
 6216SOL    HW230111   2.673   0.301  12.991 -2.3762  2.9057 -1.5205
 6217SOL     OW30112   0.227   0.073   2.212 -0.3145 -0.0915 -0.7405
 6217SOL    HW130113   0.164   0.112   2.272 -1.5992 -2.2307 -0.7278
 6217SOL    HW230114   0.284   0.151   2.209  0.0026 -0.2331  2.4608
 6218SOL     OW30115   3.423   0.117  11.114  0.4016 -0.1936 -0.5448
 6218SOL    HW130116   3.402   0.050  11.179  1.6040 -0.9664 -0.9687
 6218SOL    HW230117   3.350   0.113  11.052 -0.8768  0.0277  0.9454
 6219SOL     OW30118   4.685   2.291   5.213  0.8021 -0.1538  0.4546
 6219SOL    HW130119   4.666   2.375   5.170  0.9928 -0.2463  0.1901
 6219SOL    HW230120   4.699   2.310   5.306  1.4455  0.2890  0.2655
 6220SOL     OW30121   0.244   2.803   1.504 -0.0036 -0.1481  0.3475
 6220SOL    HW130122   0.310   2.734   1.497  2.1545  1.6524  2.9232
 6220SOL    HW230123   0.179   2.770   1.443 -0.7545  3.3157 -0.7715
 6221SOL     OW30124   3.900   2.483   2.099 -0.0998 -0.3285  0.7475
 6221SOL    HW130125   3.898   2.562   2.046 -0.4790 -0.7734  0.1040
 6221SOL    HW230126   3.818   2.439   2.076  0.5616 -1.3527  0.3367
 6222SOL     OW30127   0.278   2.746   8.417 -0.1384 -0.2942 -0.3960
 6222SOL    HW130128   0.214   2.732   8.487 -0.3832  0.5432 -0.4529
 6222SOL    HW230129   0.235   2.817   8.369 -0.2664 -0.3884 -0.4214
 6223SOL     OW30130   2.623   2.087   6.032 -0.1426  0.9336 -0.0891
 6223SOL    HW130131   2.654   2.158   5.976  1.9360 -0.6393 -0.9358
 6223SOL    HW230132   2.647   2.009   5.983  1.8948  0.8608  1.0156
 6224SOL     OW30133   2.412   1.734  13.930  0.1945  0.4492  0.3087
 6224SOL    HW130134   2.437   1.754  14.021  0.4777  1.3540  0.0363
 6224SOL    HW230135   2.401   1.819  13.886  1.3806 -0.2435 -1.3169
 6225SOL     OW30136   0.367   1.439  10.864  0.7049  0.0553 -0.6282
 6225SOL    HW130137   0.303   1.500  10.901 -0.3810 -1.7302  0.4592
 6225SOL    HW230138   0.324   1.419  10.780 -3.2781  1.0260  1.1746
 6226SOL     OW30139   3.812   2.867   4.739  0.6606 -0.8528 -0.3879
 6226SOL    HW130140   3.799   2.824   4.654 -2.3711  0.2777 -0.4910
 6226SOL    HW230141   3.907   2.877   4.735  0.4679  1.0543 -0.4918
 6227SOL     OW30142   1.926   4.650   2.633  0.2859  0.0316 -0.2888
 6227SOL    HW130143   2.012   4.622   2.664 -0.1198 -0.4382  0.4068
 6227SOL    HW230144   1.947   4.682   2.545 -1.0146 -1.2792 -1.0874
 6228SOL     OW30145   3.301   0.020   7.833 -0.3462 -0.6908 -0.2935
 6228SOL    HW130146   3.226   0.058   7.878 -0.1126  1.7360 -1.9266
 6228SOL    HW230147   3.313   4.670   7.891  0.9143 -1.0874 -1.0636
 6229SOL     OW30148   1.957   2.563   8.114  0.3205 -0.0287 -0.0441
 6229SOL    HW130149   1.978   2.594   8.026  1.4938 -1.9254 -0.4302
 6229SOL    HW230150   1.863   2.559   8.099  0.4505 -0.0663 -0.8577
 6230SOL     OW30151   1.859   1.440   6.177  0.6327  0.7293 -0.5066
 6230SOL    HW130152   1.864   1.534   6.159  1.5231  1.2499  2.4958
 6230SOL    HW230153   1.800   1.431   6.102  0.0103  0.7216 -0.0180
 6231SOL     OW30154   2.102   1.073   3.941 -0.6171 -0.7702  0.7689
 6231SOL    HW130155   2.094   1.110   3.853  2.3354  1.2265  1.3341
 6231SOL    HW230156   2.059   0.988   3.936  1.1157 -1.6881  1.3910
 6232SOL     OW30157   2.604   3.933   5.848  0.2964  0.5691  0.5113
 6232SOL    HW130158   2.571   3.915   5.936 -0.6101  0.8178  0.2272
 6232SOL    HW230159   2.636   4.023   5.858 -2.0280  1.1835  2.2836
 6233SOL     OW30160   0.937   1.231   4.323  0.6486 -0.0681  0.0405
 6233SOL    HW130161   1.026   1.235   4.288 -0.6635 -0.1011 -3.3242
 6233SOL    HW230162   0.950   1.182   4.404 -1.6591 -3.2621 -1.5148
 6234SOL     OW30163   1.258   4.639  14.331  0.4242 -0.5873  0.3567
 6234SOL    HW130164   1.224   0.003  14.318 -1.2091 -1.2008  0.3496
 6234SOL    HW230165   1.352   4.647  14.347  0.1077  2.0260  0.8863
 6235SOL     OW30166   1.481   0.860   2.325 -0.3935 -0.4856  0.7520
 6235SOL    HW130167   1.388   0.840   2.316 -0.1059 -1.7280  0.4722
 6235SOL    HW230168   1.507   0.792   2.387 -0.1484  0.8051  2.0637
 6236SOL     OW30169   0.297   3.848   3.207  0.1836 -0.3885  0.5607
 6236SOL    HW130170   0.318   3.941   3.206  0.2586 -0.4198 -1.8761
 6236SOL    HW230171   0.376   3.813   3.167 -0.9518  1.3332 -3.2276
 6237SOL     OW30172   0.832   0.881   9.173 -0.0172  0.0178  0.1691
 6237SOL    HW130173   0.798   0.950   9.231  1.6707  0.4873  0.6160
 6237SOL    HW230174   0.840   0.802   9.226 -0.1508  0.9389  1.5870
 6238SOL     OW30175   1.234   3.962   8.053 -0.2632 -0.2392  0.3181
 6238SOL    HW130176   1.219   4.016   7.975 -0.9010 -2.2071 -0.9186
 6238SOL    HW230177   1.145   3.944   8.085 -0.3723 -1.3839 -0.6336
 6239SOL     OW30178   3.530   1.943  12.129  0.8236  0.1006 -0.0225
 6239SOL    HW130179   3.547   1.921  12.220  0.3290  0.0557  0.0598
 6239SOL    HW230180   3.615   1.935  12.085  0.4933 -4.4836  0.1257
 6240SOL     OW30181   3.857   3.067   4.401  0.0998 -0.2959  0.6271
 6240SOL    HW130182   3.931   3.115   4.365 -0.0473 -0.1580  0.5104
 6240SOL    HW230183   3.832   3.129   4.470  0.3983  1.3020 -0.7105
 6241SOL     OW30184   4.266   0.548   4.622 -0.0995 -0.2540  0.0085
 6241SOL    HW130185   4.347   0.591   4.649  0.2475 -1.4639  0.8906
 6241SOL    HW230186   4.277   0.475   4.684  2.5118 -0.7190 -1.0201
 6242SOL     OW30187   0.168   4.557   5.285  1.0041  0.4268 -0.1648
 6242SOL    HW130188   0.134   4.515   5.206  1.6828 -2.4908  1.0963
 6242SOL    HW230189   0.108   4.631   5.286 -0.8375 -1.0928  1.0549
 6243SOL     OW30190   1.180   0.634   5.696  0.3575 -0.0832 -0.0489
 6243SOL    HW130191   1.213   0.558   5.745  1.7466  0.1686 -0.5872
 6243SOL    HW230192   1.238   0.649   5.621  1.7637  1.4619  1.3544
 6244SOL     OW30193   2.494   0.556   5.235  0.0472  0.5948 -0.1877
 6244SOL    HW130194   2.481   0.469   5.272 -2.1996  0.9876  0.0107
 6244SOL    HW230195   2.417   0.592   5.280  0.3399  0.1967  0.6295
 6245SOL     OW30196   2.386   3.143   8.172  0.1828 -0.6993  0.4995
 6245SOL    HW130197   2.393   3.054   8.139  0.8035 -1.3496  2.3737
 6245SOL    HW230198   2.397   3.142   8.267 -2.1299  2.5774  0.8201
 6246SOL     OW30199   0.525   1.680   1.314  0.3762  0.0064  0.5997
 6246SOL    HW130200   0.529   1.716   1.226  0.8146 -1.8315 -0.1274
 6246SOL    HW230201   0.585   1.606   1.301  0.2636  0.1606 -0.7429
 6247SOL     OW30202   3.155   2.733   6.170  0.1249  0.1763 -0.7332
 6247SOL    HW130203   3.175   2.778   6.251 -0.1106 -0.7592 -0.1531
 6247SOL    HW230204   3.214   2.782   6.113  1.4198  1.9657  2.1987
 6248SOL     OW30205   4.622   3.204  11.800  0.1274 -0.3635 -0.0684
 6248SOL    HW130206   4.573   3.286  11.793  0.6594 -0.0156  0.2606
 6248SOL    HW230207   4.574   3.162  11.872  2.1359 -0.8184  1.0192
 6249SOL     OW30208   0.461   0.290   0.569 -0.0159 -0.2387  0.2277
 6249SOL    HW130209   0.486   0.321   0.656 -1.9349  0.9036  0.3857
 6249SOL    HW230210   0.532   0.226   0.566 -0.9466 -1.4008  2.7916
 6250SOL     OW30211   1.187   2.846   2.737 -0.1088  0.5104 -0.4427
 6250SOL    HW130212   1.263   2.788   2.745 -1.1125 -0.8625 -0.8108
 6250SOL    HW230213   1.182   2.866   2.830 -0.9646 -0.1995 -0.3291
 6251SOL     OW30214   2.937   3.115   5.173  0.2692 -0.1572  0.3646
 6251SOL    HW130215   2.945   3.023   5.198  0.7115  0.1207  1.2234
 6251SOL    HW230216   2.864   3.145   5.227  0.8317 -2.0173  2.1361
 6252SOL     OW30217   0.176   0.443   1.596  0.1890 -0.0718  0.2711
 6252SOL    HW130218   0.139   0.371   1.546  2.3945 -0.8382 -0.2210
 6252SOL    HW230219   0.108   0.458   1.662 -0.8558  0.9181 -1.0218
 6253SOL     OW30220   0.283   3.763   2.788  0.5057 -0.0642 -0.0719
 6253SOL    HW130221   0.240   3.840   2.751  1.6260  0.3106 -0.6081
 6253SOL    HW230222   0.210   3.713   2.823  1.0970 -0.3162  0.7978
 6254SOL     OW30223   2.580   0.404  10.539 -0.6783 -0.2106  0.2172
 6254SOL    HW130224   2.642   0.457  10.489  0.0480  1.3880  2.7738
 6254SOL    HW230225   2.623   0.393  10.624 -1.4971 -0.8159  0.5574
 6255SOL     OW30226   0.899   1.132   4.926  0.2364  0.3367 -0.1146
 6255SOL    HW130227   0.891   1.219   4.963 -0.5097  0.3136 -0.2367
 6255SOL    HW230228   0.966   1.087   4.978  0.2710 -0.0083 -0.4545
 6256SOL     OW30229   1.805   0.535   4.956  0.4003  0.6563 -0.2330
 6256SOL    HW130230   1.844   0.582   5.029 -0.4232  0.3916  0.3695
 6256SOL    HW230231   1.869   0.466   4.938 -0.9630 -1.4641  3.0721
 6257SOL     OW30232   0.399   4.306   2.305 -0.1452 -0.1927 -0.2222
 6257SOL    HW130233   0.468   4.356   2.261  1.5897 -2.6443 -0.3197
 6257SOL    HW230234   0.328   4.310   2.240  0.8421  0.4965 -1.2556
 6258SOL     OW30235   4.248   0.474  13.460 -0.2515 -0.0610  0.0287
 6258SOL    HW130236   4.263   0.449  13.369 -1.0450  2.4184 -0.7802
 6258SOL    HW230237   4.335   0.511  13.475 -0.3381  1.1056 -2.2558
 6259SOL     OW30238   3.449   2.030   0.661  0.1308 -0.3046  0.3771
 6259SOL    HW130239   3.481   2.046   0.749 -1.5048  2.2210  0.5348
 6259SOL    HW230240   3.515   2.055   0.596  1.3836 -0.9854  1.4054
 6260SOL     OW30241   0.840   2.340   4.940 -0.6663 -0.6592  0.6422
 6260SOL    HW130242   0.745   2.336   4.930 -0.3607 -1.8582 -1.8427
 6260SOL    HW230243   0.840   2.313   5.032  0.5378 -0.9563  0.5539
 6261SOL     OW30244   2.108   2.255  17.051 -0.3751 -0.3376 -0.0434
 6261SOL    HW130245   2.047   2.195  17.096 -1.8291 -0.0751 -1.6739
 6261SOL    HW230246   2.189   2.245  17.101 -0.9663  1.8904  1.3618
 6262SOL     OW30247   4.714   1.753   2.552 -0.0764 -0.3652  0.3047
 6262SOL    HW130248   0.038   1.833   2.571 -4.0196  1.7628  1.7301
 6262SOL    HW230249   4.665   1.746   2.634  1.7887 -0.3931  1.4214
 6263SOL     OW30250   4.088   0.508   4.407 -0.0011 -0.0673 -0.7793
 6263SOL    HW130251   4.072   0.581   4.348  3.0531  0.3346 -1.1124
 6263SOL    HW230252   4.161   0.541   4.459 -0.0310 -0.3773 -0.5394
 6264SOL     OW30253   3.012   1.121  16.194 -0.2884  0.1429 -0.6732
 6264SOL    HW130254   2.936   1.063  16.199 -1.9944  2.3522 -0.7263
 6264SOL    HW230255   2.962   1.201  16.212 -0.7595 -0.8100  2.2694
 6265SOL     OW30256   1.732   4.656   3.647  0.1394 -0.3472  0.3477
 6265SOL    HW130257   1.730   0.001   3.712  3.3771  3.0204 -3.2444
 6265SOL    HW230258   1.706   4.706   3.570 -0.5869 -0.3901  0.5567
 6266SOL     OW30259   3.261   2.844   1.456 -0.4150 -0.3601 -0.0613
 6266SOL    HW130260   3.290   2.831   1.546  2.8389  2.1389 -0.7674
 6266SOL    HW230261   3.312   2.914   1.416 -1.1091  1.3716  2.0776
 6267SOL     OW30262   3.017   0.625   6.884 -0.0061  0.8946 -0.2153
 6267SOL    HW130263   2.977   0.624   6.971 -0.1970  1.7094 -0.2890
 6267SOL    HW230264   3.012   0.534   6.855 -1.7127 -0.1682  3.3953
 6268SOL     OW30265   1.803   4.064  16.786  0.3599  0.3675  0.4086
 6268SOL    HW130266   1.836   4.104  16.867  1.0016 -2.6391  1.6137
 6268SOL    HW230267   1.881   4.064  16.730  1.3804  0.5064  1.8386
 6269SOL     OW30268   2.092   1.126  11.648 -0.2276 -0.9137  0.0525
 6269SOL    HW130269   2.170   1.077  11.623  0.8967  1.0160 -0.2472
 6269SOL    HW230270   2.040   1.112  11.569 -0.2943  3.4659 -0.6777
 6270SOL     OW30271   4.390   3.364   7.655  0.0883  0.7324  0.1007
 6270SOL    HW130272   4.445   3.439   7.675  0.6172  0.3689  0.0183
 6270SOL    HW230273   4.376   3.324   7.741  2.7597 -1.4907 -0.4966
 6271SOL     OW30274   1.083   3.812   6.780 -0.5889  0.4401 -0.0687
 6271SOL    HW130275   1.049   3.826   6.868 -2.0305  0.0402 -0.5683
 6271SOL    HW230276   1.004   3.815   6.727 -1.0186 -0.5587  0.5138
 6272SOL     OW30277   4.196   3.740   4.293 -0.2944 -0.2203 -0.0151
 6272SOL    HW130278   4.201   3.645   4.291  0.3633 -0.2398  3.0766
 6272SOL    HW230279   4.138   3.761   4.367 -0.3688  0.4795 -0.2716
 6273SOL     OW30280   1.398   4.581  13.945  0.3018 -0.0193 -0.7696
 6273SOL    HW130281   1.342   4.599  13.869  1.4359 -0.0597 -1.6203
 6273SOL    HW230282   1.444   4.501  13.921  0.3926  0.0492 -0.8250
 6274SOL     OW30283   0.574   1.601   7.015 -0.2748 -0.3186  0.0287
 6274SOL    HW130284   0.498   1.659   7.020 -0.0557  0.1275 -1.7021
 6274SOL    HW230285   0.616   1.631   7.096  1.4875 -0.8204 -0.6957
 6275SOL     OW30286   3.407   0.311   5.828 -0.3705  0.0266 -0.0090
 6275SOL    HW130287   3.400   0.230   5.778  0.0459  0.2390 -0.4116
 6275SOL    HW230288   3.371   0.372   5.764  1.5215  0.7872 -0.3631
 6276SOL     OW30289   0.754   4.184   9.638 -0.1022 -0.4719  0.3786
 6276SOL    HW130290   0.794   4.120   9.696  0.1972 -0.7355 -0.1185
 6276SOL    HW230291   0.828   4.236   9.609  0.8215 -0.8742  2.0268
 6277SOL     OW30292   1.819   3.030   6.095  0.0260  0.2729  0.3961
 6277SOL    HW130293   1.762   3.076   6.156  0.0798 -0.8271  1.2756
 6277SOL    HW230294   1.767   3.025   6.015 -1.1052  0.7693  1.0993
 6278SOL     OW30295   1.435   2.819   9.188  0.0752  0.4023 -0.1242
 6278SOL    HW130296   1.477   2.750   9.137 -2.7863 -0.0393 -1.9279
 6278SOL    HW230297   1.454   2.896   9.134  2.2023 -0.9338 -1.2633
 6279SOL     OW30298   4.530   2.781   8.087  0.5342  0.1531  0.3052
 6279SOL    HW130299   4.540   2.765   7.993  0.6614  0.8299  0.2010
 6279SOL    HW230300   4.475   2.708   8.114 -1.6468  1.2591 -1.1614
 6280SOL     OW30301   3.202   4.369   9.140 -0.1521  0.1878  0.5416
 6280SOL    HW130302   3.269   4.351   9.073  0.4568 -1.0653  1.4987
 6280SOL    HW230303   3.168   4.283   9.164 -0.4387 -0.6048 -2.6766
 6281SOL     OW30304   0.886   1.903  11.244 -0.3845 -0.5924  0.1338
 6281SOL    HW130305   0.840   1.898  11.328 -1.3231 -0.0557 -0.3571
 6281SOL    HW230306   0.949   1.967  11.276  1.4342 -1.2654 -2.1494
 6282SOL     OW30307   1.796   1.362   7.448 -0.1402 -0.2904  0.1281
 6282SOL    HW130308   1.784   1.301   7.521 -2.2430  0.2660  0.2344
 6282SOL    HW230309   1.781   1.314   7.367 -0.3382 -0.1757  0.0969
 6283SOL     OW30310   0.382   3.653  16.218 -0.3885  0.2343 -0.1265
 6283SOL    HW130311   0.317   3.589  16.245 -1.3291  1.7178  1.1642
 6283SOL    HW230312   0.330   3.732  16.235 -1.5224 -0.9232  1.7348
 6284SOL     OW30313   0.384   1.224  14.550 -0.3803 -0.0294  0.4409
 6284SOL    HW130314   0.373   1.197  14.458  2.2372 -0.9748  0.4204
 6284SOL    HW230315   0.418   1.313  14.544 -0.8625  0.0540 -1.0775
 6285SOL     OW30316   1.001   4.460  10.533  0.3023  0.0024 -0.1739
 6285SOL    HW130317   1.083   4.503  10.554  1.1482 -0.6951 -2.1046
 6285SOL    HW230318   1.004   4.384  10.591  0.4197 -0.0272 -0.2202
 6286SOL     OW30319   0.747   0.870  11.430 -0.1921 -0.3471  0.0673
 6286SOL    HW130320   0.794   0.816  11.494  2.8179  2.9146  0.6087
 6286SOL    HW230321   0.768   0.821  11.350  0.1127 -1.6688  0.9485
 6287SOL     OW30322   2.964   2.833  11.747 -0.2822 -0.5209  0.8790
 6287SOL    HW130323   2.880   2.880  11.746  0.4541  0.8048  2.0700
 6287SOL    HW230324   2.963   2.807  11.839 -0.7583  1.2953  1.3834
 6288SOL     OW30325   4.137   1.265   8.237 -0.2303 -0.0723 -0.1225
 6288SOL    HW130326   4.224   1.274   8.198 -0.1781 -0.3995 -0.0788
 6288SOL    HW230327   4.137   1.171   8.256 -0.6114  0.1115  0.7903
 6289SOL     OW30328   4.662   2.860   8.427  0.2235  0.4250  0.2616
 6289SOL    HW130329   4.685   2.786   8.483  1.6938  1.4414  0.9984
 6289SOL    HW230330   4.720   2.925   8.467 -3.1803  2.3305  2.1049
 6290SOL     OW30331   3.364   4.637   6.251 -0.1152 -0.0493  0.1298
 6290SOL    HW130332   3.406   4.720   6.273  0.8223 -0.6318  0.5195
 6290SOL    HW230333   3.311   4.610   6.327 -0.2740  0.5664  0.2361
 6291SOL     OW30334   3.915   4.550   6.372  0.2673 -0.3013 -0.2039
 6291SOL    HW130335   3.992   4.581   6.324  0.1756  0.9067  0.4334
 6291SOL    HW230336   3.854   4.623   6.362  1.3415  0.6196 -0.0372
 6292SOL     OW30337   0.593   1.777   4.948 -0.5729  0.2904 -0.3434
 6292SOL    HW130338   0.628   1.756   4.862  0.7586  2.2696 -0.2915
 6292SOL    HW230339   0.531   1.708   4.972 -1.0888  0.5699 -0.9004
 6293SOL     OW30340   0.092   2.852   8.700 -0.0804 -0.4222  0.2062
 6293SOL    HW130341   0.157   2.830   8.766 -2.2779 -1.9909  1.8479
 6293SOL    HW230342   0.018   2.848   8.760  0.5315 -1.5242  0.8956
 6294SOL     OW30343   2.936   3.467  16.764 -0.4262 -0.2134  0.3523
 6294SOL    HW130344   2.882   3.524  16.820  0.3078 -0.1796  1.0254
 6294SOL    HW230345   2.968   3.529  16.699 -0.3989 -0.4152  0.1753
 6295SOL     OW30346   1.975   2.246   1.385 -0.0622  0.0480  0.4911
 6295SOL    HW130347   2.011   2.197   1.311 -1.5544 -0.3523  0.0217
 6295SOL    HW230348   2.041   2.313   1.400  0.2614 -0.2211  0.2466
 6296SOL     OW30349   3.723   4.148  16.809  0.3428 -0.1291  0.8209
 6296SOL    HW130350   3.664   4.072  16.814 -0.3493  0.4573  1.4553
 6296SOL    HW230351   3.743   4.157  16.902 -2.2178  3.4625  0.9989
 6297SOL     OW30352   2.189   4.495   7.106  0.6614 -0.0158 -0.1144
 6297SOL    HW130353   2.098   4.489   7.132  1.2211 -1.4786  1.5137
 6297SOL    HW230354   2.200   4.409   7.064  1.9718 -0.6626  1.5381
 6298SOL     OW30355   2.971   0.472   8.340 -0.2953 -0.1201  0.0491
 6298SOL    HW130356   3.053   0.473   8.291  0.8897 -2.7728  1.9928
 6298SOL    HW230357   2.925   0.404   8.290 -0.8514  0.3655 -0.1034
 6299SOL     OW30358   3.929   0.098   8.734  0.0142  0.2388 -0.0746
 6299SOL    HW130359   3.969   0.017   8.765  0.4501  0.6436  0.4153
 6299SOL    HW230360   3.845   0.098   8.780 -0.3645 -0.8711 -0.7593
 6300SOL     OW30361   2.157   0.026   4.131 -0.0262 -0.6115 -0.2945
 6300SOL    HW130362   2.088   4.723   4.191  0.0406 -1.3027 -0.5462
 6300SOL    HW230363   2.157   4.684   4.063 -2.3409 -0.7557 -0.1677
 6301SOL     OW30364   0.449   2.200   3.489 -0.0916  0.0337  0.4592
 6301SOL    HW130365   0.444   2.140   3.563 -2.3713 -0.3781 -0.0330
 6301SOL    HW230366   0.364   2.196   3.445 -1.0222  0.7419  2.1795
 6302SOL     OW30367   1.183   0.957   2.291 -0.4520  0.2492 -0.3230
 6302SOL    HW130368   1.095   0.974   2.323  0.1543  1.4897  0.7334
 6302SOL    HW230369   1.184   0.865   2.315 -0.5753  0.4332  0.3937
 6303SOL     OW30370   2.472   0.429   2.274  0.7416  0.3650  0.2005
 6303SOL    HW130371   2.488   0.508   2.325 -1.6477  0.8978  0.0822
 6303SOL    HW230372   2.560   0.414   2.239  0.5004 -0.7956  0.0700
 6304SOL     OW30373   1.262   0.822  11.172 -0.0906 -0.4486 -0.2216
 6304SOL    HW130374   1.185   0.877  11.188 -1.0285 -1.4078 -1.3953
 6304SOL    HW230375   1.255   0.810  11.077 -0.1873 -0.8303 -0.1677
 6305SOL     OW30376   1.223   1.443   0.955  0.7563  0.3561 -0.1444
 6305SOL    HW130377   1.135   1.409   0.940 -0.2469  2.5056  0.8777
 6305SOL    HW230378   1.205   1.510   1.021  1.2180  1.0745 -0.7539
 6306SOL     OW30379   3.604   2.658   4.404 -0.2235 -0.1380  0.0727
 6306SOL    HW130380   3.599   2.754   4.399 -1.3832 -0.2783 -1.2012
 6306SOL    HW230381   3.515   2.651   4.436  0.1854  0.5754  1.3611
 6307SOL     OW30382   3.591   2.776   7.735  0.1113 -0.1064 -0.0889
 6307SOL    HW130383   3.660   2.726   7.692  1.1709  1.1466  0.1752
 6307SOL    HW230384   3.542   2.702   7.772  0.3308 -0.3625 -0.3057
 6308SOL     OW30385   0.680   4.352   0.926 -0.2174  0.4727  0.4277
 6308SOL    HW130386   0.606   4.358   0.986 -2.0590 -0.8055 -1.7256
 6308SOL    HW230387   0.732   4.279   0.960  0.5049  0.8307  0.0858
 6309SOL     OW30388   1.865   2.394   4.353 -0.1069 -0.2467  0.2617
 6309SOL    HW130389   1.840   2.391   4.445  1.0182 -0.8064  0.5491
 6309SOL    HW230390   1.856   2.488   4.341 -0.5290 -0.3373 -0.1338
 6310SOL     OW30391   0.131   0.636  15.544  0.4006 -0.1879 -0.1799
 6310SOL    HW130392   0.115   0.627  15.450 -1.8435 -0.0950  0.1760
 6310SOL    HW230393   0.066   0.575  15.579 -1.4981  1.9621  0.0267
 6311SOL     OW30394   3.374   1.727   4.981  0.2293  0.3978  0.3039
 6311SOL    HW130395   3.290   1.692   4.951 -0.5144  2.7230 -0.3131
 6311SOL    HW230396   3.387   1.802   4.924 -0.7256  0.7173  0.5167
 6312SOL     OW30397   1.039   4.583   8.193 -0.0358 -0.1377 -0.2946
 6312SOL    HW130398   1.018   4.544   8.278 -0.5042 -1.7839 -1.1658
 6312SOL    HW230399   1.001   4.669   8.209  1.0028 -0.3215  3.1850
 6313SOL     OW30400   3.943   1.365  10.971 -0.6740 -0.3938  0.7762
 6313SOL    HW130401   3.924   1.407  11.055  1.6514  1.0793  0.5595
 6313SOL    HW230402   3.909   1.278  10.989 -0.1154 -0.3456  2.0870
 6314SOL     OW30403   2.167   3.347  10.836 -0.1763  0.0157 -0.1723
 6314SOL    HW130404   2.257   3.335  10.864  0.4610 -0.7154 -2.5330
 6314SOL    HW230405   2.139   3.256  10.835  1.1640 -0.4151  2.1580
 6315SOL     OW30406   2.883   3.110   7.590  0.6441  0.3701 -0.5657
 6315SOL    HW130407   2.944   3.040   7.612  1.3679  0.8888 -0.9226
 6315SOL    HW230408   2.879   3.110   7.495 -0.0864 -0.1352 -0.5324
 6316SOL     OW30409   1.339   2.125   4.936 -0.3504  0.0904  0.1906
 6316SOL    HW130410   1.431   2.144   4.919  0.3479 -1.9364  1.6518
 6316SOL    HW230411   1.347   2.092   5.025 -2.9016  0.6479  0.6420
 6317SOL     OW30412   0.367   1.300  11.298 -0.2929 -0.3181 -0.5721
 6317SOL    HW130413   0.308   1.347  11.239 -0.6855 -1.0209 -0.7322
 6317SOL    HW230414   0.302   1.241  11.335 -0.3234  0.3005  0.3398
 6318SOL     OW30415   0.800   4.653  13.776  1.0374  0.1863  0.1273
 6318SOL    HW130416   0.734   4.615  13.718 -1.0138  0.9529  1.9118
 6318SOL    HW230417   0.768   0.018  13.771 -0.2212 -0.2649 -0.1335
 6319SOL     OW30418   0.112   1.301   6.408  0.1177  0.4177  0.3665
 6319SOL    HW130419   0.162   1.298   6.489 -0.1141 -0.0507  0.4870
 6319SOL    HW230420   0.055   1.377   6.421  1.0118  1.3944 -1.4106
 6320SOL     OW30421   3.069   3.075   5.623  0.8343 -0.3423  0.3629
 6320SOL    HW130422   3.037   3.139   5.559  0.9885 -1.6171 -0.9682
 6320SOL    HW230423   3.050   3.133   5.697  0.7032 -0.4452  0.4112
 6321SOL     OW30424   4.551   2.737  13.539  0.3795  0.8477 -0.1008
 6321SOL    HW130425   4.535   2.811  13.480 -0.4297 -1.1685 -2.4367
 6321SOL    HW230426   4.614   2.688  13.486 -0.7928 -2.2389  1.3579
 6322SOL     OW30427   0.465   1.263  12.805  0.7764 -0.5316 -0.0058
 6322SOL    HW130428   0.402   1.335  12.805  0.6350 -0.6460 -3.1942
 6322SOL    HW230429   0.409   1.190  12.832 -1.2128  0.6025 -1.0352
 6323SOL     OW30430   0.495   0.205   2.261 -0.1545 -0.1934 -0.0315
 6323SOL    HW130431   0.565   0.158   2.305 -0.5353 -1.3752 -0.7002
 6323SOL    HW230432   0.480   0.285   2.311  3.2223  0.3735  0.0595
 6324SOL     OW30433   1.382   2.147   7.218 -0.0120 -0.0332 -0.0585
 6324SOL    HW130434   1.288   2.142   7.202  0.1950 -0.1814 -1.2154
 6324SOL    HW230435   1.381   2.242   7.229 -3.6041 -0.0624  0.0494
 6325SOL     OW30436   4.418   0.246   3.714  0.6300 -0.6127  0.1386
 6325SOL    HW130437   4.438   0.329   3.756 -1.7427  0.1296 -0.1763
 6325SOL    HW230438   4.324   0.241   3.732  0.4858  2.7876  0.2855
 6326SOL     OW30439   3.137   2.999   2.542 -0.1572  0.2676 -0.2811
 6326SOL    HW130440   3.197   3.067   2.513  0.7403 -0.2094  0.4481
 6326SOL    HW230441   3.073   3.057   2.584  0.3324  1.5410 -1.2976
 6327SOL     OW30442   3.842   4.651   1.428 -0.5853  0.6735  0.4070
 6327SOL    HW130443   3.923   4.613   1.462 -1.5361  0.2243  2.1979
 6327SOL    HW230444   3.786   4.576   1.449  0.0216  0.9328  2.9094
 6328SOL     OW30445   3.058   4.111  15.907  0.3474  0.3560 -0.6480
 6328SOL    HW130446   3.134   4.149  15.951  0.9719 -1.0106 -0.5580
 6328SOL    HW230447   3.015   4.189  15.871  0.7479  1.4305  1.1486
 6329SOL     OW30448   0.024   2.840   2.318  0.0690 -0.5108 -0.0878
 6329SOL    HW130449   0.067   2.891   2.387 -1.6371  0.6985  0.0884
 6329SOL    HW230450   0.058   2.752   2.334  2.6883  0.3290 -0.9642
 6330SOL     OW30451   1.063   3.886   6.088 -0.1208 -0.4108  0.4574
 6330SOL    HW130452   1.122   3.884   6.013 -0.8107  0.1951 -0.1000
 6330SOL    HW230453   1.104   3.832   6.156 -0.6262 -1.2573  0.0919
 6331SOL     OW30454   3.228   3.303   9.744  0.7215  0.5218  0.4114
 6331SOL    HW130455   3.154   3.275   9.690  0.5838 -0.6603  1.2136
 6331SOL    HW230456   3.212   3.252   9.823  0.3228 -1.3483 -0.8634
 6332SOL     OW30457   0.340   0.541   4.926 -0.9505  0.1763  0.5563
 6332SOL    HW130458   0.364   0.593   4.849  1.0345 -1.1444  0.2713
 6332SOL    HW230459   0.426   0.551   4.966 -0.5628  0.7650 -0.4178
 6333SOL     OW30460   3.076   1.940   6.939 -0.3142  0.2418 -0.4730
 6333SOL    HW130461   3.043   1.971   7.024 -2.1388  1.0116 -1.4682
 6333SOL    HW230462   3.015   1.981   6.878  2.5042  2.1749 -1.9534
 6334SOL     OW30463   3.811   4.699  12.501 -0.1650  0.2238  0.3724
 6334SOL    HW130464   3.892   0.008  12.539 -0.5135  0.7528  0.6355
 6334SOL    HW230465   3.765   4.698  12.585  2.0499  0.2108  1.5820
 6335SOL     OW30466   3.243   1.104  10.094  0.1656 -0.1393  0.1453
 6335SOL    HW130467   3.279   1.016  10.107 -1.2127 -0.8715 -0.9531
 6335SOL    HW230468   3.323   1.156  10.095 -1.3610  2.1375  3.3911
 6336SOL     OW30469   0.148   0.421  14.169  0.0805 -0.3442 -0.2720
 6336SOL    HW130470   0.180   0.497  14.217 -2.5046 -0.1431  1.1252
 6336SOL    HW230471   0.227   0.368  14.180  1.6741  1.8902 -0.9924
 6337SOL     OW30472   0.018   2.096   7.147 -0.8068  0.3277  1.0132
 6337SOL    HW130473   4.693   2.170   7.181 -0.4190  1.3366 -0.6684
 6337SOL    HW230474   0.012   2.120   7.055 -0.5751 -1.8659  0.4111
 6338SOL     OW30475   1.584   1.497   8.917 -0.4659 -0.5177 -0.7348
 6338SOL    HW130476   1.679   1.490   8.909 -0.6424 -2.6650 -0.9739
 6338SOL    HW230477   1.553   1.420   8.869  1.0602 -2.0394  0.7370
 6339SOL     OW30478   1.256   3.935  13.582 -0.1918 -0.2436 -0.1511
 6339SOL    HW130479   1.305   3.862  13.544  1.0144  0.5439 -0.0931
 6339SOL    HW230480   1.214   3.898  13.660 -1.9733  1.7772 -0.1583
 6340SOL     OW30481   2.243   2.383   6.815  0.4692  0.5283  0.0159
 6340SOL    HW130482   2.269   2.393   6.723  0.1495  0.7129 -0.0540
 6340SOL    HW230483   2.192   2.463   6.824 -0.2685  0.0624 -0.1018
 6341SOL     OW30484   1.001   0.588  13.507  0.3024 -1.0121 -0.0471
 6341SOL    HW130485   1.044   0.658  13.457  2.2188 -3.6774 -2.0867
 6341SOL    HW230486   0.942   0.558  13.438 -0.0730 -0.8666  0.2085
 6342SOL     OW30487   2.246   0.844  15.076 -0.4119  0.7815  0.1227
 6342SOL    HW130488   2.337   0.866  15.055 -0.2512 -0.3760 -0.4007
 6342SOL    HW230489   2.248   0.827  15.170 -1.6717 -0.6684 -0.1119
 6343SOL     OW30490   3.731   0.842   3.129  0.7015  0.0031  0.1453
 6343SOL    HW130491   3.742   0.798   3.213  0.3840  1.2458  0.8435
 6343SOL    HW230492   3.646   0.886   3.139  1.3651  2.4198 -4.5772
 6344SOL     OW30493   2.474   0.901   5.807  0.0739  0.2912 -0.4992
 6344SOL    HW130494   2.539   0.962   5.841  0.7538 -0.0679 -1.1586
 6344SOL    HW230495   2.526   0.881   5.730 -0.5106 -1.5619 -0.4171
 6345SOL     OW30496   3.505   0.959   7.741 -0.2231 -0.3274  0.0121
 6345SOL    HW130497   3.549   0.881   7.775 -0.6905 -1.0857 -1.1237
 6345SOL    HW230498   3.472   0.992   7.825  0.4744  0.7109 -0.1221
 6346SOL     OW30499   1.673   2.141  16.898  0.2450 -0.1738  0.3556
 6346SOL    HW130500   1.644   2.148  16.807  1.9620  1.8877 -0.0278
 6346SOL    HW230501   1.667   2.235  16.915 -3.1665 -0.1061 -1.0476
 6347SOL     OW30502   0.412   2.349   4.724  0.6298  0.2364  0.2106
 6347SOL    HW130503   0.377   2.307   4.645  0.6033  1.1266 -0.2535
 6347SOL    HW230504   0.498   2.377   4.694  0.7167 -0.4102 -0.1556
 6348SOL     OW30505   3.862   2.147  10.790 -0.0695  0.1028 -0.1019
 6348SOL    HW130506   3.890   2.232  10.756  0.1656  0.6871  1.5702
 6348SOL    HW230507   3.776   2.139  10.748  0.4774  0.2982 -1.2561
 6349SOL     OW30508   2.724   0.437   6.484  0.6932 -0.2286  0.3975
 6349SOL    HW130509   2.818   0.457   6.487  0.4832  0.7307  0.7791
 6349SOL    HW230510   2.697   0.522   6.447  2.1823  0.4073  0.7456
 6350SOL     OW30511   2.738   1.673   3.720 -0.1919 -0.0608  0.6717
 6350SOL    HW130512   2.642   1.676   3.730 -0.4197 -2.6784 -0.8883
 6350SOL    HW230513   2.768   1.712   3.802 -2.0977  1.0295  0.8680
 6351SOL     OW30514   1.072   0.495   0.269 -0.6665 -0.1959 -0.5514
 6351SOL    HW130515   1.080   0.563   0.336  1.0543 -0.6918 -0.2701
 6351SOL    HW230516   1.051   0.544   0.190  0.7835  0.5379 -0.4821
 6352SOL     OW30517   2.566   0.367   5.700  0.3669 -0.0699 -1.0189
 6352SOL    HW130518   2.505   0.356   5.627 -1.3998 -0.3955  0.5035
 6352SOL    HW230519   2.508   0.390   5.773 -1.5658  0.1451 -2.6393
 6353SOL     OW30520   3.450   0.940   8.511  0.0902  0.0656 -0.3290
 6353SOL    HW130521   3.382   1.005   8.491 -1.9615 -1.9142  0.2763
 6353SOL    HW230522   3.457   0.965   8.603  0.0978  1.5802 -0.7341
 6354SOL     OW30523   2.831   3.928  10.788 -0.0189 -0.0371 -0.0681
 6354SOL    HW130524   2.805   3.940  10.879  1.2196  0.5667  0.2137
 6354SOL    HW230525   2.835   4.022  10.768  4.3046 -0.2263 -0.1647
 6355SOL     OW30526   3.009   0.857   6.729 -0.4062  0.7824  0.5824
 6355SOL    HW130527   3.039   0.790   6.790 -1.2436  1.3848  1.6435
 6355SOL    HW230528   2.920   0.867   6.762 -0.3307 -0.1983  1.0936
 6356SOL     OW30529   4.384   2.639  17.597  0.9056 -0.8266 -0.3444
 6356SOL    HW130530   4.378   2.733  17.582 -1.3561 -1.2715 -2.3829
 6356SOL    HW230531   4.303   2.622  17.645 -0.4900  0.9095 -2.0406
 6357SOL     OW30532   4.086   3.417   8.708 -0.3499 -1.2493 -0.1962
 6357SOL    HW130533   4.159   3.478   8.699 -1.4535 -0.1901 -1.8489
 6357SOL    HW230534   4.034   3.444   8.633 -1.2419  1.4610  1.3978
 6358SOL     OW30535   1.553   4.550   5.910  0.5174  0.4956 -0.4243
 6358SOL    HW130536   1.507   4.628   5.941 -3.3577 -2.7771  2.1188
 6358SOL    HW230537   1.492   4.481   5.936  1.0526  0.3889  0.5406
 6359SOL     OW30538   2.177   2.461   1.577 -0.0984  0.4714 -0.0035
 6359SOL    HW130539   2.258   2.491   1.616  0.0907 -2.0469  1.5596
 6359SOL    HW230540   2.220   2.425   1.500 -1.7843 -3.5911  0.9017
 6360SOL     OW30541   1.363   0.629  11.933  0.0969 -0.1481 -0.1585
 6360SOL    HW130542   1.418   0.655  12.008 -1.6822  0.7524  0.8478
 6360SOL    HW230543   1.398   0.553  11.888 -2.4989 -0.4208 -1.7122
 6361SOL     OW30544   0.659   2.863   2.452  0.0621  0.5735 -0.1364
 6361SOL    HW130545   0.740   2.872   2.502  0.6535 -0.2877 -0.9426
 6361SOL    HW230546   0.597   2.834   2.518  0.0528 -1.1112 -0.8843
 6362SOL     OW30547   2.036   0.712   9.416  0.0528 -0.5872  0.1166
 6362SOL    HW130548   1.984   0.668   9.348  0.0989 -0.4163 -0.0302
 6362SOL    HW230549   1.973   0.726   9.486  0.8043  1.4595  0.3813
 6363SOL     OW30550   3.745   2.297   5.554  0.2687 -0.1454 -0.3002
 6363SOL    HW130551   3.769   2.204   5.551 -1.3052 -0.5250 -0.9753
 6363SOL    HW230552   3.696   2.300   5.636  0.8877 -1.1556  0.1166
 6364SOL     OW30553   3.268   0.986   4.004  0.0246  0.3457  0.7851
 6364SOL    HW130554   3.244   0.900   3.968  3.1924  0.5937 -1.9091
 6364SOL    HW230555   3.295   0.963   4.093  0.7138  1.5329  0.8818
 6365SOL     OW30556   0.162   3.004  12.098 -0.4897 -0.1543 -0.2952
 6365SOL    HW130557   0.188   3.031  12.009 -0.6670 -0.7574 -0.5306
 6365SOL    HW230558   0.089   3.059  12.125  1.1362  0.5315  2.6579
 6366SOL     OW30559   3.051   2.168   7.756  0.4669  0.0792 -0.3065
 6366SOL    HW130560   2.992   2.235   7.793 -0.0201  0.5128 -1.8773
 6366SOL    HW230561   2.993   2.115   7.701  1.7504  0.1752 -1.7385
 6367SOL     OW30562   4.232   1.319   7.496 -0.0768  0.4118  0.4202
 6367SOL    HW130563   4.201   1.229   7.482 -1.0724  0.3864  2.7308
 6367SOL    HW230564   4.233   1.351   7.406  0.9635 -2.1517 -0.5041
 6368SOL     OW30565   0.765   0.456   2.741  0.3034  0.3178  0.0497
 6368SOL    HW130566   0.860   0.467   2.734  0.2938  0.1044 -0.3766
 6368SOL    HW230567   0.745   0.389   2.675  1.2773  0.3094 -0.2295
 6369SOL     OW30568   4.708   3.648   6.509  0.6610 -0.4767 -0.0879
 6369SOL    HW130569   4.666   3.731   6.534  0.0930 -0.5519 -0.7898
 6369SOL    HW230570   4.667   3.615   6.429  0.0439  0.0134  0.0220
 6370SOL     OW30571   2.288   0.574   3.262  0.0865 -0.4091  0.2348
 6370SOL    HW130572   2.371   0.552   3.220  0.3723  3.5992 -1.3434
 6370SOL    HW230573   2.243   0.600   3.181 -0.2467 -0.9124  0.2574
 6371SOL     OW30574   0.341   2.724   7.125 -0.0760  0.6552 -0.1887
 6371SOL    HW130575   0.295   2.686   7.200  0.8392 -1.7127 -0.8216
 6371SOL    HW230576   0.395   2.648   7.100 -0.3164  0.5458 -0.3794
 6372SOL     OW30577   1.735   0.229   4.678 -0.0501  0.0838  0.4669
 6372SOL    HW130578   1.760   0.152   4.731 -3.2650 -0.7434  0.7823
 6372SOL    HW230579   1.663   0.200   4.623  1.4580  0.2612 -1.5909
 6373SOL     OW30580   2.647   4.139  16.123 -0.1175  0.1783  0.0404
 6373SOL    HW130581   2.686   4.167  16.040 -0.3467 -1.2227 -0.5202
 6373SOL    HW230582   2.715   4.132  16.190 -0.0577  0.6709  0.0351
 6374SOL     OW30583   3.847   4.102   8.831 -0.0662  0.1670  0.2475
 6374SOL    HW130584   3.763   4.145   8.815  2.3432  5.2600  1.2091
 6374SOL    HW230585   3.821   4.033   8.892  2.8457  1.1455  2.5823
 6375SOL     OW30586   0.456   0.826   9.789  0.2418  0.0127  0.4129
 6375SOL    HW130587   0.426   0.787   9.707  1.4038  2.1098 -1.0004
 6375SOL    HW230588   0.438   0.760   9.856  0.0674  0.9190  1.2672
 6376SOL     OW30589   2.160   0.142   4.684  0.4626  0.1521 -0.0888
 6376SOL    HW130590   2.184   0.137   4.592  0.9305 -0.6047  0.0700
 6376SOL    HW230591   2.212   0.068   4.716  1.1660  0.5317 -0.3364
 6377SOL     OW30592   1.860   4.082  11.329  0.0290 -0.0071  0.3438
 6377SOL    HW130593   1.937   4.026  11.340  1.2800  1.6987  0.4298
 6377SOL    HW230594   1.808   4.071  11.409 -1.6163 -0.4607 -0.8014
 6378SOL     OW30595   3.101   2.210   2.397 -0.0325 -0.2877  0.1788
 6378SOL    HW130596   3.125   2.161   2.319  0.9633  1.2900 -0.5111
 6378SOL    HW230597   3.175   2.270   2.403 -1.9420  2.0560  0.6992
 6379SOL     OW30598   4.154   1.346   9.025  0.1836 -0.2223 -0.4586
 6379SOL    HW130599   4.133   1.328   9.116  1.5081 -0.5588 -0.2276
 6379SOL    HW230600   4.095   1.288   8.976  0.6993  0.8654 -2.3979
 6380SOL     OW30601   1.262   1.974  11.840 -0.2977 -0.4990 -0.0914
 6380SOL    HW130602   1.202   2.011  11.904 -1.1068 -0.8491 -0.6402
 6380SOL    HW230603   1.330   2.039  11.858  0.5058 -1.2848 -0.2606
 6381SOL     OW30604   0.576   0.826   4.099 -0.1736  0.4156  0.1302
 6381SOL    HW130605   0.629   0.837   4.021 -0.5100  0.7891 -0.0455
 6381SOL    HW230606   0.633   0.785   4.165  1.9794 -0.1309 -2.0773
 6382SOL     OW30607   4.556   4.157   7.364 -0.5559 -0.5152  0.6273
 6382SOL    HW130608   4.469   4.194   7.348 -0.1911  0.1173  0.1189
 6382SOL    HW230609   4.552   4.078   7.311  3.1259  1.1814 -2.1097
 6383SOL     OW30610   4.581   3.285  14.914 -0.4925  0.2507 -0.2735
 6383SOL    HW130611   4.520   3.292  14.840  0.2110 -0.0196 -0.8835
 6383SOL    HW230612   4.525   3.226  14.964 -2.0784  0.9324 -1.2595
 6384SOL     OW30613   3.922   3.999  15.549  0.2054 -0.4487  0.0327
 6384SOL    HW130614   3.974   3.944  15.607 -1.1039 -0.2383  1.4034
 6384SOL    HW230615   3.993   4.057  15.521 -0.1749 -0.8029 -1.6835
 6385SOL     OW30616   0.472   1.081   3.743  0.4727  0.1599 -0.2417
 6385SOL    HW130617   0.450   0.990   3.721  1.2847 -0.0472 -0.2169
 6385SOL    HW230618   0.430   1.084   3.829  0.0197  0.7735 -0.4841
 6386SOL     OW30619   4.623   2.753   3.882  0.5479  0.5137  0.0707
 6386SOL    HW130620   4.597   2.832   3.930  1.0069  1.3609 -1.0694
 6386SOL    HW230621   4.534   2.720   3.867 -0.9029  4.1559  0.7132
 6387SOL     OW30622   2.342   2.914   9.062 -0.2296  0.4823  0.4806
 6387SOL    HW130623   2.373   2.940   9.148  0.6528  2.1135 -0.3159
 6387SOL    HW230624   2.350   2.820   9.074 -2.2513  0.5056  2.0360
 6388SOL     OW30625   2.440   2.464   2.628 -0.3553 -0.1562 -0.1075
 6388SOL    HW130626   2.477   2.415   2.554  0.2598 -1.2737  0.9334
 6388SOL    HW230627   2.508   2.455   2.695 -0.2481 -0.4586 -0.2534
 6389SOL     OW30628   2.707   4.689   6.278  0.1331 -0.0929  0.4980
 6389SOL    HW130629   2.743   0.037   6.328 -0.1609  1.9474 -2.2506
 6389SOL    HW230630   2.647   0.010   6.220  1.3031 -1.2963 -1.6795
 6390SOL     OW30631   3.833   0.618   4.116 -0.4971 -0.0461  0.2596
 6390SOL    HW130632   3.876   0.541   4.152 -1.7393  0.0288  1.9211
 6390SOL    HW230633   3.835   0.616   4.020 -0.3721 -0.9304  0.2803
 6391SOL     OW30634   2.122   0.308   5.087 -0.8612  0.7646 -0.5747
 6391SOL    HW130635   2.213   0.306   5.058 -0.6347 -0.1340  0.1989
 6391SOL    HW230636   2.116   0.379   5.150 -1.4481 -0.4802  0.7800
 6392SOL     OW30637   4.643   0.996   6.615 -0.1218 -0.1043 -0.0029
 6392SOL    HW130638   4.561   0.967   6.655 -1.0659 -0.0431 -1.8807
 6392SOL    HW230639   4.686   0.913   6.592  1.5900  1.2328 -1.6994
 6393SOL     OW30640   2.156   3.161   8.757 -0.5624 -0.6023  0.4917
 6393SOL    HW130641   2.217   3.163   8.831  0.4904 -2.5667 -0.3430
 6393SOL    HW230642   2.185   3.093   8.697  0.5738 -0.6089  1.0482
 6394SOL     OW30643   1.277   2.281   3.709 -0.0190 -0.0183 -0.2495
 6394SOL    HW130644   1.349   2.308   3.652 -0.4628  0.7688 -0.4383
 6394SOL    HW230645   1.301   2.327   3.789 -3.2442  0.5490  0.3740
 6395SOL     OW30646   3.793   1.194   8.474 -0.5328 -0.4361  0.5240
 6395SOL    HW130647   3.871   1.156   8.513 -0.1837  0.9898  1.1995
 6395SOL    HW230648   3.767   1.253   8.545 -0.1625 -0.8915  1.0357
 6396SOL     OW30649   1.205   0.580   9.693 -0.1317 -0.3569  0.3570
 6396SOL    HW130650   1.235   0.664   9.726  0.9956  0.2977 -2.3051
 6396SOL    HW230651   1.280   0.528   9.723  0.4777  1.1692  1.4479
 6397SOL     OW30652   1.107   1.948  11.534 -0.4863  0.5506  0.7220
 6397SOL    HW130653   1.121   1.888  11.461  3.0984  1.4772  0.6468
 6397SOL    HW230654   1.133   1.888  11.603 -0.2093  0.3992  0.4827
 6398SOL     OW30655   2.960   2.129  16.493  0.1431  0.0443 -0.0546
 6398SOL    HW130656   2.866   2.119  16.503  0.4790 -3.7124 -0.5003
 6398SOL    HW230657   2.996   2.111  16.580 -0.0388  1.8622  0.3852
 6399SOL     OW30658   2.173   0.702  13.523  0.6227 -0.2089 -0.7202
 6399SOL    HW130659   2.170   0.631  13.587 -2.3434  0.4652 -0.0933
 6399SOL    HW230660   2.163   0.773  13.586  3.0749  1.0309 -1.7401
 6400SOL     OW30661   2.695   1.700   8.975  0.0211 -0.5780  0.3746
 6400SOL    HW130662   2.670   1.705   9.067  3.2521 -0.7297  1.2488
 6400SOL    HW230663   2.788   1.722   8.973  0.0243 -0.6304 -0.0638
 6401SOL     OW30664   0.458   2.038   8.235  0.2256  0.3728 -0.2653
 6401SOL    HW130665   0.382   2.083   8.197 -0.1852 -1.5232 -1.6809
 6401SOL    HW230666   0.519   2.048   8.162  0.4865  2.6992  0.2725
 6402SOL     OW30667   2.665   2.414  12.737  0.5955 -0.5218 -0.1016
 6402SOL    HW130668   2.612   2.471  12.793  1.4225 -0.5772  0.7342
 6402SOL    HW230669   2.657   2.342  12.798  2.4051 -2.6331 -2.3647
 6403SOL     OW30670   1.019   2.923  11.619 -0.0524 -0.0794 -0.1026
 6403SOL    HW130671   1.038   2.935  11.712  0.1381  1.7547 -0.3777
 6403SOL    HW230672   1.058   2.840  11.592  1.5064  0.5555  0.1948
 6404SOL     OW30673   4.483   1.681   7.187  0.2066 -0.3682  0.5768
 6404SOL    HW130674   4.454   1.606   7.135 -0.8032 -0.7865  1.7650
 6404SOL    HW230675   4.456   1.754   7.131  1.1697 -1.1452 -0.8937
 6405SOL     OW30676   0.296   4.319   0.913  0.1201  0.2949 -0.1680
 6405SOL    HW130677   0.264   4.334   1.002 -0.6956 -2.7753  0.0563
 6405SOL    HW230678   0.368   4.257   0.927  1.9847  2.1148 -1.6968
 6406SOL     OW30679   4.682   2.632   7.661  0.5410 -0.8605 -0.5312
 6406SOL    HW130680   4.679   2.728   7.668  1.3146 -0.8922  0.2339
 6406SOL    HW230681   0.031   2.615   7.718  0.1001 -0.8162  0.0580
 6407SOL     OW30682   3.753   0.712   7.575  0.2459  0.1711  0.0255
 6407SOL    HW130683   3.788   0.778   7.634  0.8426 -2.3047  2.4239
 6407SOL    HW230684   3.710   0.648   7.632  2.1769  0.5682  1.9450
 6408SOL     OW30685   4.627   3.490  12.895  0.3307 -0.7508 -1.0660
 6408SOL    HW130686   4.618   3.421  12.829  1.9340 -2.0038  0.0355
 6408SOL    HW230687   4.693   3.544  12.852 -2.3953  2.5595 -1.1557
 6409SOL     OW30688   4.395   2.779  10.776  0.1386  0.9578  0.2676
 6409SOL    HW130689   4.391   2.782  10.872  0.0301  4.2736  0.1703
 6409SOL    HW230690   4.426   2.691  10.756 -0.7304  0.7983 -0.3654
 6410SOL     OW30691   2.858   2.634   3.138  0.1962  0.2863  0.1505
 6410SOL    HW130692   2.770   2.600   3.156 -0.2170  1.6101  0.5801
 6410SOL    HW230693   2.915   2.566   3.174  1.3086 -0.0346 -2.2124
 6411SOL     OW30694   1.223   1.831   1.620  0.0640 -0.9615  0.2075
 6411SOL    HW130695   1.197   1.779   1.544 -2.1677 -0.8853  0.9245
 6411SOL    HW230696   1.147   1.888   1.631  0.8515  0.4215 -1.5177
 6412SOL     OW30697   4.491   1.852  15.131  0.3326 -0.3535  0.4240
 6412SOL    HW130698   4.557   1.873  15.197  1.4559  1.7400 -1.3912
 6412SOL    HW230699   4.493   1.928  15.073 -0.9652 -1.1815 -0.7132
 6413SOL     OW30700   4.183   1.374  15.178 -0.8681  0.3873  0.6269
 6413SOL    HW130701   4.092   1.397  15.199 -2.1353 -1.1602 -3.0372
 6413SOL    HW230702   4.192   1.281  15.199 -1.1167 -0.3225 -2.4263
 6414SOL     OW30703   3.679   3.482   1.313 -0.5739  0.2662 -0.4467
 6414SOL    HW130704   3.611   3.435   1.265 -0.2999 -0.2505 -0.3261
 6414SOL    HW230705   3.733   3.409   1.344  0.5433  0.7254 -1.2958
 6415SOL     OW30706   4.318   0.912  17.627  0.5744  0.4828 -0.2109
 6415SOL    HW130707   4.339   0.986  17.684  1.0117 -0.1267  0.4339
 6415SOL    HW230708   4.259   0.954  17.565 -0.9934 -1.7074 -0.2246
 6416SOL     OW30709   4.292   3.980   7.285  0.2566  0.7504  0.2452
 6416SOL    HW130710   4.202   3.961   7.313  1.2053 -2.4256  1.1406
 6416SOL    HW230711   4.300   4.071   7.314  0.4715  0.6051  0.6434
 6417SOL     OW30712   0.878   4.600   1.656 -0.1582  0.4422  0.2355
 6417SOL    HW130713   0.848   4.681   1.698  2.3469  2.1891 -1.3470
 6417SOL    HW230714   0.839   4.588   1.570  0.0982  3.1942 -0.2598
 6418SOL     OW30715   1.350   0.052   2.996 -0.2700 -1.0587  0.4229
 6418SOL    HW130716   1.302   4.710   2.946 -1.8253 -0.2838  0.8745
 6418SOL    HW230717   1.310   0.035   3.081 -1.5614  1.6344  0.3453
 6419SOL     OW30718   1.417   4.375   7.658 -0.0381  0.4446 -0.2251
 6419SOL    HW130719   1.447   4.298   7.707  0.1245  0.8027  0.2315
 6419SOL    HW230720   1.332   4.339   7.630  0.2758 -1.4858  1.2517
 6420SOL     OW30721   1.815   2.509   6.275  0.3202 -0.2888 -0.1217
 6420SOL    HW130722   1.861   2.593   6.282 -0.8404  0.3120  0.4360
 6420SOL    HW230723   1.891   2.455   6.253 -0.2469 -1.3173  0.4305
 6421SOL     OW30724   3.048   2.043  11.094 -0.1265 -0.3276  0.0075
 6421SOL    HW130725   3.128   1.999  11.064  1.0530  1.5660  0.3216
 6421SOL    HW230726   2.992   1.970  11.121 -0.5582 -1.0268 -2.8304
 6422SOL     OW30727   4.128   3.032   4.067 -0.3164  0.2328 -0.0959
 6422SOL    HW130728   4.035   3.018   4.083 -0.0911  0.0840  1.0348
 6422SOL    HW230729   4.124   3.043   3.972  1.7167 -0.9026 -0.3092
 6423SOL     OW30730   0.070   3.411  11.317  0.8000  0.4263  0.3516
 6423SOL    HW130731   0.082   3.316  11.310  1.1064  0.7295 -3.0973
 6423SOL    HW230732   0.022   3.402  11.399  3.7582 -1.6190  1.8488
 6424SOL     OW30733   1.925   2.919   6.744 -0.4958  0.0857 -0.0582
 6424SOL    HW130734   1.901   2.952   6.830  0.2928  1.0515 -0.2119
 6424SOL    HW230735   1.860   2.849   6.742 -1.3458  0.8816 -0.3227
 6425SOL     OW30736   4.200   4.715  16.252 -0.1777 -0.5156  0.9466
 6425SOL    HW130737   4.278   0.037  16.282  0.9085 -1.4286 -0.4278
 6425SOL    HW230738   4.239   4.644  16.200  0.6621  1.2627 -0.8388
 6426SOL     OW30739   4.220   3.386   3.977  0.1823  0.1994  0.1457
 6426SOL    HW130740   4.274   3.453   3.935  1.0153 -0.2416  0.5118
 6426SOL    HW230741   4.237   3.313   3.917 -2.3474 -1.0230  0.9370
 6427SOL     OW30742   2.869   1.258   1.169  0.2536 -0.4202  0.4075
 6427SOL    HW130743   2.830   1.271   1.255 -0.4171 -0.3631  0.0985
 6427SOL    HW230744   2.963   1.248   1.184  0.0879 -0.2351  1.5150
 6428SOL     OW30745   3.348   4.132   2.040  0.4410 -0.1749 -0.5401
 6428SOL    HW130746   3.254   4.150   2.045  0.0083 -2.7419  0.7634
 6428SOL    HW230747   3.334   4.058   1.980  0.4562 -1.5077  1.1181
 6429SOL     OW30748   4.041   3.400   2.370 -0.1333 -0.5541 -0.2159
 6429SOL    HW130749   4.031   3.336   2.440 -2.8292 -1.3803 -1.3647
 6429SOL    HW230750   3.954   3.393   2.331 -0.6014  3.3201  0.1947
 6430SOL     OW30751   0.958   1.615   8.798 -0.1527  0.1775  0.3627
 6430SOL    HW130752   1.037   1.662   8.825 -0.2862  0.4539  0.2736
 6430SOL    HW230753   0.909   1.695   8.777  0.0279  0.4763  1.0792
 6431SOL     OW30754   1.300   2.468  12.322 -0.0443 -0.0485  0.8735
 6431SOL    HW130755   1.272   2.556  12.298 -0.1835  0.1018  1.5872
 6431SOL    HW230756   1.395   2.469  12.310 -0.0493  1.7697  0.9825
 6432SOL     OW30757   4.233   4.626   6.854 -0.4822  0.5517 -0.5433
 6432SOL    HW130758   4.189   4.542   6.849 -0.0080  0.1400  2.4639
 6432SOL    HW230759   4.317   4.601   6.892 -1.2904 -2.2827 -0.6475
 6433SOL     OW30760   3.728   2.544   4.650  0.2086 -0.2059  0.2623
 6433SOL    HW130761   3.713   2.571   4.559  0.4695  1.4391  0.7056
 6433SOL    HW230762   3.656   2.596   4.685  1.0663  1.6134 -0.6330
 6434SOL     OW30763   2.046   1.741  10.941 -0.3583 -0.0473 -0.1245
 6434SOL    HW130764   2.049   1.810  11.007  0.3014  0.1320 -0.3419
 6434SOL    HW230765   2.137   1.724  10.917  0.4147  0.6551  2.2515
 6435SOL     OW30766   1.645   0.560   4.249  0.5658 -0.2509 -0.2522
 6435SOL    HW130767   1.727   0.519   4.280  0.8710 -1.2070 -2.3270
 6435SOL    HW230768   1.584   0.499   4.290 -1.0461  0.8653 -1.0266
 6436SOL     OW30769   3.510   4.223  15.823  0.4376  0.2632 -0.0295
 6436SOL    HW130770   3.567   4.162  15.775 -2.3697 -1.0481 -1.7192
 6436SOL    HW230771   3.566   4.227  15.901  2.9668  1.8365 -1.9211
 6437SOL     OW30772   1.060   1.674   3.526  0.1419  0.1229  1.2693
 6437SOL    HW130773   0.992   1.609   3.506  0.3997  0.1259  0.3532
 6437SOL    HW230774   1.017   1.726   3.594  0.2764  0.5824  1.0090
 6438SOL     OW30775   0.989   2.294   3.608 -0.6297  0.0192  0.1284
 6438SOL    HW130776   1.018   2.209   3.640 -0.2764  0.2435  0.4030
 6438SOL    HW230777   1.063   2.350   3.631 -0.4132 -0.2425  0.0790
 6439SOL     OW30778   2.392   0.512   1.535 -0.2327 -0.3776 -0.5753
 6439SOL    HW130779   2.476   0.474   1.562  0.6784  1.1963 -1.2096
 6439SOL    HW230780   2.386   0.482   1.444 -0.8479 -0.9250 -0.3554
 6440SOL     OW30781   1.455   1.912   3.660  0.3808 -0.1475  0.4163
 6440SOL    HW130782   1.401   1.840   3.691 -0.0766  0.2355  0.5124
 6440SOL    HW230783   1.546   1.887   3.673  0.4092 -0.5356 -0.4933
 6441SOL     OW30784   1.255   2.219   4.462  0.0882  0.6147 -0.9012
 6441SOL    HW130785   1.218   2.307   4.469 -0.6991  0.3354 -1.6157
 6441SOL    HW230786   1.256   2.185   4.551  0.1170 -0.5418 -1.3355
 6442SOL     OW30787   3.755   1.564   5.751  0.3470 -0.0010  0.1416
 6442SOL    HW130788   3.832   1.539   5.701  0.0536  2.4143 -1.5379
 6442SOL    HW230789   3.757   1.659   5.741  1.9452  0.2189  2.3383
 6443SOL     OW30790   1.580   1.611   4.229  0.2092  0.2259  0.2508
 6443SOL    HW130791   1.511   1.623   4.295  1.0042 -1.4222  1.3581
 6443SOL    HW230792   1.642   1.558   4.279 -1.9919 -1.3950  1.2637
 6444SOL     OW30793   3.539   3.054   6.653  0.5153 -0.5208 -0.1908
 6444SOL    HW130794   3.568   2.998   6.725 -0.1972 -0.6333  0.0108
 6444SOL    HW230795   3.583   2.997   6.590  3.3868  0.5325  0.8731
 6445SOL     OW30796   2.963   1.951   2.622  0.5477 -0.4142  0.1418
 6445SOL    HW130797   2.924   1.895   2.555  0.9577  1.1948 -1.4461
 6445SOL    HW230798   2.949   1.901   2.702  0.2738 -0.3385  0.1428
 6446SOL     OW30799   0.516   1.837   1.078  0.3664  0.0017 -0.0549
 6446SOL    HW130800   0.567   1.909   1.041  0.7941 -0.3879 -0.2249
 6446SOL    HW230801   0.469   1.894   1.138  0.8812 -0.1938  0.5366
 6447SOL     OW30802   3.566   0.911   6.920 -0.4955  0.3686  0.0969
 6447SOL    HW130803   3.603   0.903   7.008  0.8056 -0.1702 -0.5018
 6447SOL    HW230804   3.472   0.908   6.939 -0.8715 -0.3775 -1.8770
 6448SOL     OW30805   4.498   3.982   4.726 -0.1171 -0.2467  0.1034
 6448SOL    HW130806   4.463   4.033   4.799  0.2901 -2.1699  1.6204
 6448SOL    HW230807   4.418   3.955   4.680  1.3584 -0.0891 -2.5840
 6449SOL     OW30808   4.559   3.643  15.321  0.3329  0.5070 -0.2673
 6449SOL    HW130809   4.571   3.737  15.316 -3.8901  0.9769 -1.1396
 6449SOL    HW230810   4.464   3.644  15.330  0.2958 -0.1965 -0.5747
 6450SOL     OW30811   2.946   1.722   5.276 -0.3769  0.0448  0.3212
 6450SOL    HW130812   2.953   1.635   5.237  1.2183 -0.2229  1.2135
 6450SOL    HW230813   3.026   1.717   5.329  0.5605  2.0877 -0.8624
 6451SOL     OW30814   2.810   4.021   8.914  0.3556  0.0156  0.0658
 6451SOL    HW130815   2.801   3.927   8.932  3.0549 -0.2029  0.2961
 6451SOL    HW230816   2.794   4.051   9.004  1.0783 -1.7462  0.7860
 6452SOL     OW30817   1.990   1.386  17.619  0.0466  0.5942 -0.3905
 6452SOL    HW130818   2.081   1.409  17.599  0.9386 -1.3999  1.4010
 6452SOL    HW230819   1.947   1.383  17.533 -0.3247  1.8082 -0.2570
 6453SOL     OW30820   4.647   3.658  15.957 -0.0401  0.4234  0.4172
 6453SOL    HW130821   4.581   3.680  15.890 -1.6169 -1.9489  1.1885
 6453SOL    HW230822   4.608   3.573  15.978 -1.5717  1.1986  0.7716
 6454SOL     OW30823   1.693   0.973   6.499  0.4172  0.0755 -0.4019
 6454SOL    HW130824   1.634   0.937   6.433 -1.1794  1.5693  0.1964
 6454SOL    HW230825   1.723   1.050   6.450  0.9362 -0.6060 -1.1523
 6455SOL     OW30826   3.909   4.713   6.964  0.2848 -0.0536  0.4615
 6455SOL    HW130827   3.841   0.051   6.987  0.1336  0.0017 -0.1359
 6455SOL    HW230828   3.978   0.016   7.025  0.9982 -2.1069  0.5982
 6456SOL     OW30829   0.662   1.282  10.912  0.3661 -0.8306 -0.4217
 6456SOL    HW130830   0.589   1.246  10.963 -1.8334  3.3250 -0.5963
 6456SOL    HW230831   0.658   1.227  10.834  0.9029  0.2250 -1.1881
 6457SOL     OW30832   0.457   4.456   6.649  0.0096  0.2600  0.2048
 6457SOL    HW130833   0.431   4.523   6.586 -2.9881 -0.4089  0.7638
 6457SOL    HW230834   0.465   4.501   6.732  0.5412 -0.5981  0.6203
 6458SOL     OW30835   4.700   4.448   1.826 -0.1721  0.0701 -0.3772
 6458SOL    HW130836   0.045   4.480   1.768  0.7145  0.3806  0.8687
 6458SOL    HW230837   0.005   4.480   1.911 -2.3418 -2.9404  1.5227
 6459SOL     OW30838   3.805   4.504   0.567 -0.5250 -0.3090 -0.1690
 6459SOL    HW130839   3.720   4.517   0.524  0.3187  2.8555 -0.9117
 6459SOL    HW230840   3.819   4.411   0.583  3.2726 -0.4302 -4.3875
 6460SOL     OW30841   1.043   4.675   7.852 -0.0900 -0.5015 -0.0125
 6460SOL    HW130842   1.123   4.701   7.897  0.6197 -1.2570 -0.8241
 6460SOL    HW230843   0.971   4.709   7.904  0.9363  1.6901 -0.0332
 6461SOL     OW30844   0.694   3.474   2.540  0.0897 -0.2047  0.2297
 6461SOL    HW130845   0.777   3.514   2.567 -1.0903  1.5623  1.1682
 6461SOL    HW230846   0.707   3.379   2.545  0.2122 -0.2760 -1.2140
 6462SOL     OW30847   0.501   2.954   4.380  0.2524 -0.6730  0.1039
 6462SOL    HW130848   0.436   2.886   4.362 -0.6873  0.3992 -0.5659
 6462SOL    HW230849   0.472   2.990   4.464 -1.8540  1.4226 -1.5204
 6463SOL     OW30850   1.254   0.340  11.946  0.5764  0.2374  0.1097
 6463SOL    HW130851   1.198   0.331  12.023 -0.4200  1.2777 -0.4800
 6463SOL    HW230852   1.203   0.333  11.865 -1.0718  0.4997  1.1285
 6464SOL     OW30853   0.995   0.668   7.182 -0.0172  0.1827 -0.1990
 6464SOL    HW130854   0.943   0.590   7.168  1.1385 -0.9532  1.8193
 6464SOL    HW230855   0.988   0.694   7.274 -0.8367  0.9728 -0.4824
 6465SOL     OW30856   4.138   4.437   2.405  0.1827  0.2201  0.4703
 6465SOL    HW130857   4.190   4.497   2.352  0.8125 -0.9498 -0.2349
 6465SOL    HW230858   4.083   4.503   2.447 -0.8640 -0.2411 -0.1782
 6466SOL     OW30859   0.624   4.084  13.535 -0.0877  1.0095 -0.2971
 6466SOL    HW130860   0.596   3.993  13.532 -0.3545  1.0435  1.2858
 6466SOL    HW230861   0.656   4.100  13.624 -1.0868  0.7508  0.1121
 6467SOL     OW30862   3.178   3.995   8.215 -0.3184 -0.6640 -0.1383
 6467SOL    HW130863   3.251   3.934   8.216 -0.1786 -0.4731  1.3354
 6467SOL    HW230864   3.164   3.996   8.309 -2.6426 -0.1792 -0.4700
 6468SOL     OW30865   4.158   2.015   5.297  0.1670  0.2403  0.0223
 6468SOL    HW130866   4.190   1.987   5.211  0.8025 -2.6029  1.1744
 6468SOL    HW230867   4.238   2.008   5.350  0.8741 -0.2648 -1.1074
 6469SOL     OW30868   3.429   3.803  12.438 -0.1378  0.0979 -0.2670
 6469SOL    HW130869   3.427   3.722  12.387  0.7837  1.2252 -2.0670
 6469SOL    HW230870   3.445   3.861  12.364 -0.6340 -0.6122 -0.9287
 6470SOL     OW30871   4.414   1.083   8.429 -0.3400  0.2189  0.6370
 6470SOL    HW130872   4.379   1.148   8.490  0.7289  1.0309  0.3764
 6470SOL    HW230873   4.386   1.000   8.467  0.4975 -1.7409 -2.9501
 6471SOL     OW30874   3.365   4.690   3.420 -0.0712 -0.0719 -0.7695
 6471SOL    HW130875   3.348   0.059   3.418 -1.0733 -0.2306 -0.2530
 6471SOL    HW230876   3.403   4.672   3.334 -0.3242 -2.0950 -0.4726
 6472SOL     OW30877   4.050   1.007   4.634 -0.3128 -0.3610 -0.0733
 6472SOL    HW130878   3.961   0.978   4.654 -0.3940 -1.8513 -2.5478
 6472SOL    HW230879   4.047   1.091   4.679  0.8541  0.2063 -1.0640
 6473SOL     OW30880   0.583   3.012   5.655 -0.1059 -0.0828 -0.0003
 6473SOL    HW130881   0.671   2.994   5.620  1.0615  2.8307  1.4412
 6473SOL    HW230882   0.577   3.105   5.633  0.8146 -0.0083  0.0479
 6474SOL     OW30883   1.570   0.814   7.061 -0.2188 -0.1328  0.8074
 6474SOL    HW130884   1.488   0.855   7.033 -0.4533  0.1061  1.8622
 6474SOL    HW230885   1.593   0.852   7.146 -4.1392 -2.0273  2.7303
 6475SOL     OW30886   3.828   1.540   3.055 -0.2150 -0.1804 -0.4962
 6475SOL    HW130887   3.884   1.616   3.034  1.1505 -1.2317 -0.6571
 6475SOL    HW230888   3.861   1.476   2.992  0.6734  0.2848 -0.5182
 6476SOL     OW30889   0.520   3.249   1.326 -0.4760 -0.0566 -0.0230
 6476SOL    HW130890   0.446   3.191   1.344 -1.8734  1.8161  0.2687
 6476SOL    HW230891   0.578   3.224   1.398  1.2676  0.3355 -1.2806
 6477SOL     OW30892   3.463   4.164  13.406 -0.0072 -0.1084  0.2500
 6477SOL    HW130893   3.419   4.110  13.340 -2.6278  2.6891 -0.3056
 6477SOL    HW230894   3.410   4.243  13.396  0.0958 -0.3310 -2.1106
 6478SOL     OW30895   1.119   3.871   5.570 -0.0127  0.1611  0.6527
 6478SOL    HW130896   1.067   3.950   5.583 -0.8216 -0.2596 -0.0504
 6478SOL    HW230897   1.209   3.898   5.550 -0.0695 -1.4191 -1.6758
 6479SOL     OW30898   4.148   4.502  10.946 -0.3498  0.3528  0.3172
 6479SOL    HW130899   4.073   4.477  10.999 -1.6446  2.0091 -0.7171
 6479SOL    HW230900   4.204   4.531  11.019 -1.4944  3.1333  0.0885
 6480SOL     OW30901   1.271   2.268   1.130  0.0109 -0.0705  0.6844
 6480SOL    HW130902   1.201   2.309   1.181  0.9994 -0.9787  2.7990
 6480SOL    HW230903   1.260   2.181   1.169  2.6082 -0.0885  1.3585
 6481SOL     OW30904   2.189   1.102   4.502 -0.2522 -0.2559 -0.1849
 6481SOL    HW130905   2.225   1.181   4.464  0.7076 -1.0662 -0.9643
 6481SOL    HW230906   2.102   1.096   4.461 -1.3221 -0.4747  2.1155
 6482SOL     OW30907   3.135   0.070   2.923 -0.2109 -0.3105  0.1216
 6482SOL    HW130908   3.139   4.714   2.873 -1.2836 -0.0585 -0.3748
 6482SOL    HW230909   3.191   0.128   2.872  0.0104 -0.0718  0.6370
 6483SOL     OW30910   1.031   4.609   9.172  0.0863 -0.1423  0.1404
 6483SOL    HW130911   1.114   4.590   9.216 -0.1475  0.5565  0.8886
 6483SOL    HW230912   1.005   4.521   9.146  0.4157  0.9414 -3.8197
 6484SOL     OW30913   2.869   1.387   5.960 -0.2022 -0.1270 -0.6572
 6484SOL    HW130914   2.843   1.295   5.950  3.0547 -1.4200  2.9304
 6484SOL    HW230915   2.856   1.406   6.053  2.4612  1.1925 -0.5526
 6485SOL     OW30916   4.308   1.854   4.300  0.8876  0.0441 -0.5770
 6485SOL    HW130917   4.294   1.932   4.354  0.4513 -0.4922  0.0895
 6485SOL    HW230918   4.390   1.873   4.255  1.9312 -0.9789  0.8898
 6486SOL     OW30919   3.566   3.991  10.296 -0.2144  0.1446  0.4116
 6486SOL    HW130920   3.616   4.073  10.289  0.2218 -0.2280 -0.6890
 6486SOL    HW230921   3.533   3.979  10.207  3.8145  1.8931 -1.2816
 6487SOL     OW30922   3.919   2.184  15.039 -0.4808 -0.1279 -0.2819
 6487SOL    HW130923   3.861   2.230  14.978 -1.3772  0.4734  1.0273
 6487SOL    HW230924   3.904   2.240  15.115  0.6493  0.1182 -0.2479
 6488SOL     OW30925   2.972   1.057  13.069  0.5881  0.4918  0.4182
 6488SOL    HW130926   3.035   1.094  13.131  1.4356  0.6146 -0.5238
 6488SOL    HW230927   3.018   1.055  12.986 -2.0601 -1.3434 -1.0237
 6489SOL     OW30928   1.683   4.325  14.917 -0.0319 -0.1365  0.1572
 6489SOL    HW130929   1.650   4.406  14.878 -3.2256 -1.6264 -0.2238
 6489SOL    HW230930   1.660   4.342  15.008  1.6708 -0.4665  0.6483
 6490SOL     OW30931   2.373   2.278   5.437 -0.2436  0.5529  0.0001
 6490SOL    HW130932   2.300   2.285   5.500  0.8422 -1.0913  1.4612
 6490SOL    HW230933   2.333   2.239   5.360  0.3685 -0.5807  0.2448
 6491SOL     OW30934   0.153   2.399   7.683 -0.0362  0.9095 -0.1848
 6491SOL    HW130935   0.240   2.439   7.694  2.0917 -3.7923  0.3069
 6491SOL    HW230936   0.136   2.346   7.761 -2.2124  0.8944 -0.6780
 6492SOL     OW30937   3.793   3.387  10.005  0.1790  0.0076  0.4778
 6492SOL    HW130938   3.728   3.317   9.996  0.9144 -0.1127 -4.2969
 6492SOL    HW230939   3.740   3.465   9.992 -0.8730 -0.2249  3.3952
 6493SOL     OW30940   3.217   0.466  12.059 -0.3579 -0.2052  0.6282
 6493SOL    HW130941   3.131   0.434  12.086 -0.6726 -0.7212 -0.9754
 6493SOL    HW230942   3.201   0.544  12.005  1.3966  1.4699  2.5363
 6494SOL     OW30943   3.433   1.441   0.488  0.1521 -0.2382 -0.4911
 6494SOL    HW130944   3.437   1.389   0.407  0.0666 -0.1989 -0.5199
 6494SOL    HW230945   3.474   1.383   0.552 -2.2611 -1.3784  0.0166
 6495SOL     OW30946   3.843   2.295   8.819 -0.3708 -0.0022  0.1681
 6495SOL    HW130947   3.840   2.277   8.914 -0.9717 -1.3418 -0.0954
 6495SOL    HW230948   3.900   2.372   8.819 -0.6695  0.2180 -0.6738
 6496SOL     OW30949   1.498   1.713   2.765  0.7629 -0.3556 -0.3682
 6496SOL    HW130950   1.495   1.742   2.856  0.3148 -0.1064 -0.4605
 6496SOL    HW230951   1.573   1.760   2.729 -0.1383  0.6875 -0.8721
 6497SOL     OW30952   2.767   2.799  11.116 -0.3122  0.0333 -0.4150
 6497SOL    HW130953   2.801   2.751  11.192 -1.3534  0.6550  0.4316
 6497SOL    HW230954   2.717   2.723  11.087  0.9305 -0.7190 -0.6189
 6498SOL     OW30955   1.137   2.272   1.535 -0.4910  0.2862 -0.4947
 6498SOL    HW130956   1.103   2.260   1.623 -1.0872 -2.2385 -1.0670
 6498SOL    HW230957   1.155   2.365   1.549 -0.6849  0.3632 -0.7530
 6499SOL     OW30958   3.160   2.974  17.627  0.0617 -0.3758  0.1293
 6499SOL    HW130959   3.250   2.955  17.600 -0.7049 -1.8518 -1.3556
 6499SOL    HW230960   3.129   3.013  17.546 -2.0184 -0.6010  0.8151
 6500SOL     OW30961   4.095   2.527   2.700  0.5782  0.2276 -0.0310
 6500SOL    HW130962   4.092   2.514   2.795  0.1827  0.5710  0.0050
 6500SOL    HW230963   4.187   2.535   2.677  0.0523 -0.9883 -2.5088
 6501SOL     OW30964   4.016   0.947   5.875  0.3645 -0.4868 -0.1768
 6501SOL    HW130965   4.060   0.882   5.930  0.6773 -0.0254  0.1118
 6501SOL    HW230966   4.051   0.922   5.789  0.5754 -3.7928  0.8636
 6502SOL     OW30967   3.926   1.769   2.886  0.2619 -0.1673  0.1552
 6502SOL    HW130968   3.935   1.835   2.956 -0.6020  1.4651 -1.2712
 6502SOL    HW230969   4.015   1.761   2.852  0.2416  0.3734 -0.0300
 6503SOL     OW30970   0.229   3.712   6.931  0.2661  0.6125 -0.3225
 6503SOL    HW130971   0.212   3.638   6.990 -1.5400  1.0011 -0.3487
 6503SOL    HW230972   0.313   3.678   6.901 -1.2865 -1.3533 -2.3930
 6504SOL     OW30973   1.099   3.227  11.548 -0.4551  0.8847 -0.6396
 6504SOL    HW130974   1.156   3.204  11.475  0.1223  0.9233 -0.2031
 6504SOL    HW230975   1.049   3.146  11.563  0.8210  0.5558  1.8273
 6505SOL     OW30976   0.125   2.051   7.585  0.5089 -0.3464  0.0286
 6505SOL    HW130977   0.220   2.066   7.586  0.7267 -1.6333 -1.1115
 6505SOL    HW230978   0.108   2.037   7.678 -1.0840 -2.8806 -0.6567
 6506SOL     OW30979   1.838   0.644  14.424 -0.2320  0.1343 -0.5844
 6506SOL    HW130980   1.788   0.716  14.384  0.2025 -0.2884 -1.8871
 6506SOL    HW230981   1.790   0.572  14.383  1.5486 -1.1492 -0.4082
 6507SOL     OW30982   1.870   2.087   6.045 -0.8123  0.0737 -0.1385
 6507SOL    HW130983   1.892   1.996   6.029 -1.6335 -0.1270 -0.1427
 6507SOL    HW230984   1.836   2.085   6.134 -1.8029  0.4221 -0.5064
 6508SOL     OW30985   0.567   4.550  11.194  0.1052 -0.4331 -0.2676
 6508SOL    HW130986   0.638   4.552  11.259 -1.0797 -1.4131  1.0618
 6508SOL    HW230987   0.534   4.638  11.210 -0.4355 -0.6333 -0.2949
 6509SOL     OW30988   1.943   1.093   4.359 -0.1753  0.2777 -0.8146
 6509SOL    HW130989   1.953   1.136   4.274 -2.4761  1.4412 -0.5153
 6509SOL    HW230990   1.911   1.008   4.328 -2.1409  1.1827 -1.2545
 6510SOL     OW30991   4.573   3.854  15.115  0.2388  0.3688  0.2248
 6510SOL    HW130992   4.552   3.778  15.060  1.1788 -0.3843  0.9099
 6510SOL    HW230993   4.603   3.917  15.050 -3.3339 -1.1278 -2.8503
 6511SOL     OW30994   1.012   3.705  15.796  0.5599  0.3909  0.5282
 6511SOL    HW130995   0.977   3.769  15.857 -0.8172 -2.5797  2.8296
 6511SOL    HW230996   1.100   3.681  15.826  0.7409 -0.5086 -0.6921
 6512SOL     OW30997   0.955   0.108  16.034  0.0111 -0.2883  0.0120
 6512SOL    HW130998   0.930   0.135  16.122  0.7784  0.0833  0.1154
 6512SOL    HW230999   0.964   0.014  16.050  2.3238 -0.1921 -0.8011
 6513SOL     OW31000   1.216   2.035   3.272 -0.3144 -0.0887  0.0205
 6513SOL    HW131001   1.275   2.023   3.197 -0.4032  2.2235 -0.4295
 6513SOL    HW231002   1.278   2.084   3.327  1.5830 -2.9784  0.4287
 6514SOL     OW31003   4.067   3.811  10.562  0.1386 -0.1984  0.0829
 6514SOL    HW131004   3.992   3.814  10.622  0.0953  2.1060 -0.0822
 6514SOL    HW231005   4.047   3.728  10.519 -0.9156  0.0499  0.0927
 6515SOL     OW31006   1.079   4.457   5.319 -0.0145 -0.2376 -0.5506
 6515SOL    HW131007   1.099   4.412   5.401 -0.6054  1.7174  0.6622
 6515SOL    HW231008   0.987   4.432   5.324 -0.4774  1.6878  0.6497
 6516SOL     OW31009   3.083   3.179  10.848  0.6752  0.9666 -0.2165
 6516SOL    HW131010   3.158   3.159  10.904 -0.6858 -3.5172  0.0023
 6516SOL    HW231011   3.128   3.229  10.779 -0.0451  2.7029  0.5821
 6517SOL     OW31012   4.606   0.595   1.513 -0.4942  0.2218 -0.1644
 6517SOL    HW131013   4.697   0.617   1.494 -0.4089 -0.5025 -0.5804
 6517SOL    HW231014   4.618   0.579   1.607 -0.0332 -0.2638 -0.3068
 6518SOL     OW31015   2.411   4.589   2.601  0.2912  0.2295 -0.2640
 6518SOL    HW131016   2.497   4.548   2.609 -0.3875 -0.9041  1.2642
 6518SOL    HW231017   2.428   4.676   2.564 -0.8480  1.1958  1.4833
 6519SOL     OW31018   3.141   2.880   6.411 -0.2681 -0.6907 -0.1773
 6519SOL    HW131019   3.058   2.910   6.374  0.9131  1.6208 -0.8995
 6519SOL    HW231020   3.179   2.962   6.441 -1.3103 -0.4220  0.4046
 6520SOL     OW31021   2.231   2.618   8.793 -0.6284  0.1285  0.3432
 6520SOL    HW131022   2.232   2.572   8.709 -0.0877 -0.1323  0.4959
 6520SOL    HW231023   2.323   2.635   8.812 -0.3847 -0.3183 -0.4434
 6521SOL     OW31024   0.645   1.869   2.087 -0.0875  0.5713 -0.0715
 6521SOL    HW131025   0.589   1.924   2.033  1.0923  0.5203 -1.3530
 6521SOL    HW231026   0.611   1.780   2.079 -1.5648  1.0457  0.9397
 6522SOL     OW31027   0.636   3.631  16.394  0.1808 -0.4116 -0.0623
 6522SOL    HW131028   0.676   3.546  16.411 -0.6856 -0.7946  0.0835
 6522SOL    HW231029   0.582   3.603  16.320  0.2620 -3.0174  0.8611
 6523SOL     OW31030   4.059   1.913   6.885  0.2018 -0.1048  0.0829
 6523SOL    HW131031   4.024   1.959   6.961 -1.2598 -0.6098 -0.2885
 6523SOL    HW231032   3.983   1.921   6.827 -0.6473  1.2300  1.3803
 6524SOL     OW31033   3.649   0.563   9.090  0.0295  0.7027  0.1402
 6524SOL    HW131034   3.576   0.625   9.098 -0.9769 -0.6803  1.5148
 6524SOL    HW231035   3.648   0.513   9.171  2.2066  1.6675  0.7810
 6525SOL     OW31036   1.095   2.055   8.750 -0.7272  0.1408  0.1754
 6525SOL    HW131037   1.166   1.991   8.741 -1.9309 -1.3442  1.3426
 6525SOL    HW231038   1.054   2.035   8.666 -1.3220 -2.6901  1.1476
 6526SOL     OW31039   3.746   3.369   1.935  1.1027  0.3215 -0.4560
 6526SOL    HW131040   3.786   3.443   1.980  0.1081 -0.6388  1.9575
 6526SOL    HW231041   3.788   3.291   1.971  0.2904 -0.5106 -1.3031
 6527SOL     OW31042   3.606   2.784  17.665  0.4778  0.3081 -0.3651
 6527SOL    HW131043   3.555   2.711  17.630 -1.0605  1.5373 -0.6939
 6527SOL    HW231044   3.619   2.759   0.055  0.5245  0.5672 -0.3002
 6528SOL     OW31045   2.529   2.944   1.202  0.2174 -0.3539 -0.2860
 6528SOL    HW131046   2.464   3.012   1.187  0.5063  0.4029  1.8328
 6528SOL    HW231047   2.520   2.928   1.296 -1.5550 -0.5783 -0.4899
 6529SOL     OW31048   0.518   0.158   4.699 -0.3005 -0.2038  0.0521
 6529SOL    HW131049   0.448   0.208   4.740 -1.7975 -1.1648 -1.3109
 6529SOL    HW231050   0.518   0.073   4.744 -0.3399  0.7965  1.9223
 6530SOL     OW31051   2.894   0.328   4.973  0.4940  0.7189 -0.1743
 6530SOL    HW131052   2.956   0.399   4.957  0.6908  0.7949  0.9673
 6530SOL    HW231053   2.944   0.252   4.944  0.6581  0.5066  0.6841
 6531SOL     OW31054   0.528   0.128   3.907 -0.3654  0.3928  0.1735
 6531SOL    HW131055   0.502   0.066   3.839  0.0691  0.3346  0.0641
 6531SOL    HW231056   0.623   0.121   3.899 -0.2607  0.0938  1.7204
 6532SOL     OW31057   4.282   2.922   1.771 -0.1202 -0.2372  0.0983
 6532SOL    HW131058   4.250   2.901   1.859  1.4443  0.6252  0.8678
 6532SOL    HW231059   4.338   2.998   1.782 -0.9909  0.5746 -1.1617
 6533SOL     OW31060   2.853   0.589   9.913 -0.9514  0.2959 -0.0175
 6533SOL    HW131061   2.800   0.642   9.854  1.2524  3.1728  0.5676
 6533SOL    HW231062   2.848   0.640   9.994  0.7236 -1.1689  1.0327
 6534SOL     OW31063   1.995   0.890   2.258  0.5916  0.1679  0.1755
 6534SOL    HW131064   2.091   0.883   2.256  0.5590 -0.3225  0.2399
 6534SOL    HW231065   1.981   0.870   2.166 -1.1658  3.2343 -0.2264
 6535SOL     OW31066   0.556   3.566   2.936  0.2678 -0.3783  0.1058
 6535SOL    HW131067   0.579   3.601   2.850  0.0440 -0.0012  0.1952
 6535SOL    HW231068   0.524   3.653   2.963 -2.6771 -1.2942 -0.3483
 6536SOL     OW31069   3.756   0.458   3.867 -0.0480 -0.0687 -0.0700
 6536SOL    HW131070   3.710   0.542   3.861 -1.3587 -0.6953  1.1413
 6536SOL    HW231071   3.683   0.396   3.865  0.2374 -0.4896  2.1649
 6537SOL     OW31072   1.837   2.607   7.426 -0.2991  0.0844  0.1014
 6537SOL    HW131073   1.919   2.633   7.384 -0.4741  0.6377  0.1092
 6537SOL    HW231074   1.792   2.691   7.425 -0.8395 -0.1975  0.6886
 6538SOL     OW31075   1.197   1.592   4.164  0.9725  0.5509  0.1288
 6538SOL    HW131076   1.135   1.636   4.106  1.6006 -2.6766 -2.9613
 6538SOL    HW231077   1.141   1.564   4.237 -1.3493  1.2926 -1.3860
 6539SOL     OW31078   0.218   3.114   0.703  0.1530  0.7391  0.7173
 6539SOL    HW131079   0.158   3.105   0.628  1.9641  0.2567 -0.6750
 6539SOL    HW231080   0.197   3.042   0.761 -0.9042 -1.5700 -2.5351
 6540SOL     OW31081   2.588   0.112   7.441 -0.2342 -0.4328  0.6244
 6540SOL    HW131082   2.644   0.186   7.467 -0.9817  0.6658 -0.9304
 6540SOL    HW231083   2.651   0.050   7.403 -0.0893 -0.1167  0.3487
 6541SOL     OW31084   3.910   1.618   7.784 -0.1647  0.4958 -0.3550
 6541SOL    HW131085   4.002   1.625   7.759  0.7678  1.7431  3.3746
 6541SOL    HW231086   3.870   1.692   7.737  1.2436  1.2151 -0.4048
 6542SOL     OW31087   2.687   0.155   4.394  0.1030 -0.1359  0.2342
 6542SOL    HW131088   2.746   0.230   4.390  0.1697 -0.2005 -0.0115
 6542SOL    HW231089   2.742   0.077   4.398  1.6765  0.9315 -0.6321
 6543SOL     OW31090   2.800   3.527   2.559  0.4272  0.5046  0.1095
 6543SOL    HW131091   2.760   3.586   2.495  0.0341 -1.1877 -1.1889
 6543SOL    HW231092   2.720   3.506   2.608  0.2826  2.2630  0.6450
 6544SOL     OW31093   3.318   1.947  11.095 -0.2902 -0.5430  0.5624
 6544SOL    HW131094   3.324   1.972  11.188  1.3027  2.4385 -0.3604
 6544SOL    HW231095   3.350   1.857  11.093 -0.4182 -0.5245 -1.9414
 6545SOL     OW31096   4.537   4.576   5.733  0.0954  0.4704 -0.1744
 6545SOL    HW131097   4.465   4.529   5.691 -0.6798  0.0315  1.6175
 6545SOL    HW231098   4.597   4.502   5.744  1.4066  1.1585 -2.9016
 6546SOL     OW31099   3.057   3.922  14.140  0.7611  0.0513 -0.4960
 6546SOL    HW131100   2.964   3.921  14.120  0.8873 -0.9041 -1.0406
 6546SOL    HW231101   3.090   3.856  14.079 -2.1655 -2.6772  0.8759
 6547SOL     OW31102   0.173   3.159  11.294  0.1945 -0.5726 -0.2246
 6547SOL    HW131103   0.225   3.169  11.374 -1.2821  0.0378  0.6548
 6547SOL    HW231104   0.125   3.079  11.313 -2.8792  1.1296 -0.8737
 6548SOL     OW31105   2.144   2.025  13.592 -0.3959  0.5637 -0.2165
 6548SOL    HW131106   2.225   2.055  13.550 -0.8220  2.1340  0.0773
 6548SOL    HW231107   2.148   1.930  13.585 -0.5869  0.6783 -1.7741
 6549SOL     OW31108   4.214   2.926   7.094 -0.5420 -0.1270  0.1152
 6549SOL    HW131109   4.303   2.934   7.129  0.0625  0.9224 -1.6228
 6549SOL    HW231110   4.176   2.860   7.152 -2.6347  0.9248 -0.0748
 6550SOL     OW31111   2.354   1.628   0.269  0.8148 -0.7080  0.1426
 6550SOL    HW131112   2.296   1.643   0.194  0.2666  1.1147  0.9433
 6550SOL    HW231113   2.356   1.720   0.296 -0.6572 -0.3565 -0.9371
 6551SOL     OW31114   1.419   4.109   9.768 -0.0908  0.2101 -0.0831
 6551SOL    HW131115   1.471   4.101   9.848 -1.4441 -1.2188  0.6559
 6551SOL    HW231116   1.469   4.048   9.714  0.5995  0.8826 -0.2058
 6552SOL     OW31117   3.551   1.444   1.513  0.1007  0.4190 -0.4988
 6552SOL    HW131118   3.587   1.452   1.601 -3.8974 -2.1510  1.3322
 6552SOL    HW231119   3.626   1.427   1.456 -0.0656 -0.9817 -0.3005
 6553SOL     OW31120   1.273   4.595   5.177  0.7494 -0.1995  0.1861
 6553SOL    HW131121   1.188   4.569   5.214  1.5576 -0.1001  2.0990
 6553SOL    HW231122   1.293   4.514   5.131 -1.0947 -0.0284 -0.9533
 6554SOL     OW31123   1.315   2.096   6.356  0.6430 -0.3427 -0.3887
 6554SOL    HW131124   1.383   2.061   6.414 -0.6547 -0.2173  1.2044
 6554SOL    HW231125   1.356   2.082   6.271  0.3146  3.2744 -1.1554
 6555SOL     OW31126   1.889   0.572   5.474  0.2116 -0.2079 -0.0354
 6555SOL    HW131127   1.920   0.518   5.402 -0.4619  0.8589 -1.1209
 6555SOL    HW231128   1.905   0.659   5.438 -0.2675  1.4438  3.7775
 6556SOL     OW31129   4.467   0.323   6.625  0.1203  0.1078 -0.1704
 6556SOL    HW131130   4.451   0.386   6.554  0.1274  1.4490  1.0140
 6556SOL    HW231131   4.546   0.275   6.600  1.7342  1.7811  1.7973
 6557SOL     OW31132   2.361   0.678   2.567 -0.2570 -0.3859  0.4483
 6557SOL    HW131133   2.392   0.731   2.640 -0.3490 -0.8353  0.8159
 6557SOL    HW231134   2.442   0.630   2.544 -0.2551  0.2729 -0.9277
 6558SOL     OW31135   3.500   0.961   3.814  0.4548 -0.4297  0.2659
 6558SOL    HW131136   3.528   1.018   3.885  2.0341 -0.1373 -0.5799
 6558SOL    HW231137   3.406   0.967   3.825  0.2123 -0.4416 -1.7134
 6559SOL     OW31138   3.650   0.124   6.992 -0.1014 -0.2317 -0.4165
 6559SOL    HW131139   3.557   0.132   7.016 -0.0629  1.1488 -0.7646
 6559SOL    HW231140   3.667   0.217   6.982 -0.7289 -0.0508  0.1689
 6560SOL     OW31141   0.795   0.691   5.161 -0.1467  0.4071 -0.2510
 6560SOL    HW131142   0.710   0.661   5.128 -0.8930  1.0675  1.0269
 6560SOL    HW231143   0.765   0.753   5.228 -1.0081 -0.8575  0.5239
 6561SOL     OW31144   4.524   0.497  13.241 -0.9762 -0.4382  0.6981
 6561SOL    HW131145   4.512   0.567  13.177 -1.8573 -1.0970  0.1499
 6561SOL    HW231146   4.439   0.457  13.224 -0.0039 -1.7374 -1.0858
 6562SOL     OW31147   4.697   3.307   6.217  0.2096 -0.2667 -0.2821
 6562SOL    HW131148   4.659   3.275   6.299  0.5643  0.8417  0.3258
 6562SOL    HW231149   0.042   3.244   6.204 -0.0542 -1.0944  2.3666
 6563SOL     OW31150   1.783   4.190   5.273 -0.1066  0.5274 -0.0836
 6563SOL    HW131151   1.700   4.202   5.227 -0.3783  1.7011  0.6967
 6563SOL    HW231152   1.750   4.151   5.355  0.5585 -0.0482 -0.0925
 6564SOL     OW31153   3.129   0.891   1.638  0.3751 -0.0895  0.1453
 6564SOL    HW131154   3.195   0.826   1.613  0.3070 -1.0694  2.5473
 6564SOL    HW231155   3.102   0.864   1.725  1.3865  0.9302  0.7777
 6565SOL     OW31156   0.561   3.993   7.374 -0.2097 -0.0795 -0.4159
 6565SOL    HW131157   0.653   3.992   7.347 -0.5833  2.5551 -1.7612
 6565SOL    HW231158   0.538   4.083   7.353  1.6205  0.0590 -1.8610
 6566SOL     OW31159   1.775   3.502   6.322 -0.0183  0.1786 -0.5294
 6566SOL    HW131160   1.712   3.508   6.394  0.7874 -0.4923  0.2219
 6566SOL    HW231161   1.816   3.418   6.340 -0.2806  0.1452 -0.0826
 6567SOL     OW31162   3.220   3.267   0.285 -0.1907  0.3420  0.0851
 6567SOL    HW131163   3.154   3.314   0.234 -1.4143 -0.5943  0.8183
 6567SOL    HW231164   3.214   3.181   0.245 -2.9413  0.9971 -0.8766
 6568SOL     OW31165   4.044   2.947  13.931  0.8408  0.2836  0.0934
 6568SOL    HW131166   3.988   3.002  13.876  1.2219  1.7636  1.1607
 6568SOL    HW231167   4.128   2.958  13.886  0.7075  1.2277  0.0608
 6569SOL     OW31168   0.899   1.524  16.978  0.4462 -0.1172 -0.3023
 6569SOL    HW131169   0.841   1.555  17.048 -2.1488  1.1296 -2.9896
 6569SOL    HW231170   0.976   1.580  16.992 -0.0250  0.5226 -0.2811
 6570SOL     OW31171   0.001   3.186   5.255  0.4418 -0.2607  0.3142
 6570SOL    HW131172   4.639   3.188   5.296 -0.6318  1.8053 -2.0215
 6570SOL    HW231173   0.056   3.143   5.320 -0.4551 -0.4837  0.9226
 6571SOL     OW31174   0.750   4.537   1.419  0.5825 -0.3449 -0.0770
 6571SOL    HW131175   0.799   4.475   1.364  0.2367  0.4384 -1.2486
 6571SOL    HW231176   0.663   4.499   1.416  0.4572 -0.1973  1.5282
 6572SOL     OW31177   2.202   2.920  12.078 -0.4319 -0.5544 -0.2064
 6572SOL    HW131178   2.173   2.832  12.102 -1.3258 -0.3202 -0.4034
 6572SOL    HW231179   2.196   2.974  12.157 -1.1917  1.0439 -1.3425
 6573SOL     OW31180   1.595   0.993   3.878  0.0083 -0.1463  0.4551
 6573SOL    HW131181   1.664   0.927   3.888 -0.1708 -0.8370 -2.9954
 6573SOL    HW231182   1.526   0.941   3.837  0.1592 -0.5883  0.7656
 6574SOL     OW31183   2.334   1.638   5.992 -0.2670  0.3672  0.1612
 6574SOL    HW131184   2.308   1.671   5.907  2.0863 -2.4201 -1.6419
 6574SOL    HW231185   2.393   1.565   5.972  0.7032  1.1821  0.0868
 6575SOL     OW31186   2.217   4.130  15.251  0.6627  0.1493 -0.2564
 6575SOL    HW131187   2.233   4.058  15.190  1.0901  0.1992 -0.1991
 6575SOL    HW231188   2.290   4.113  15.310  0.0233  0.8380  0.7203
 6576SOL     OW31189   3.267   0.567   9.269 -0.1353  0.5926 -0.0683
 6576SOL    HW131190   3.357   0.539   9.287 -0.2089  0.4981  0.1560
 6576SOL    HW231191   3.219   0.503   9.322 -1.7632  3.4048  1.8075
 6577SOL     OW31192   2.067   3.162   8.091 -0.3111 -0.6288  0.1899
 6577SOL    HW131193   2.019   3.083   8.067 -0.0626 -0.3163 -1.3630
 6577SOL    HW231194   2.053   3.163   8.186  1.2196  1.0857  0.3938
 6578SOL     OW31195   2.221   2.351   2.056 -0.4608  0.6705  0.1004
 6578SOL    HW131196   2.279   2.334   2.131 -0.9572  1.8267  0.7352
 6578SOL    HW231197   2.224   2.262   2.021 -1.0182  0.8371 -0.3809
 6579SOL     OW31198   0.074   3.133   3.694 -0.1492  0.2691  0.6333
 6579SOL    HW131199   0.160   3.173   3.706 -0.8141  1.5339  1.1946
 6579SOL    HW231200   0.106   3.047   3.668  0.2028 -0.1422  2.3991
 6580SOL     OW31201   0.956   1.340   5.766 -0.5743 -0.1738  0.0510
 6580SOL    HW131202   0.862   1.360   5.771 -0.4862 -0.1540  1.7439
 6580SOL    HW231203   0.982   1.392   5.842  0.3029  0.5674 -0.7570
 6581SOL     OW31204   2.919   1.710   5.657 -0.0882  0.0162  0.1462
 6581SOL    HW131205   2.936   1.709   5.563  1.8087 -2.3996  0.5180
 6581SOL    HW231206   2.987   1.767   5.693  1.5734 -1.8598 -0.0377
 6582SOL     OW31207   2.896   3.728   7.084 -0.4457 -0.1405  0.0833
 6582SOL    HW131208   2.979   3.704   7.125 -1.2908 -1.3044  1.0922
 6582SOL    HW231209   2.844   3.649   7.091 -0.3411 -0.1189  1.1325
 6583SOL     OW31210   2.691   2.805  11.955 -0.0084  0.1062 -0.3551
 6583SOL    HW131211   2.702   2.770  12.044 -2.3766 -2.7570 -1.1937
 6583SOL    HW231212   2.604   2.771  11.935 -0.9646  1.2702  1.7600
 6584SOL     OW31213   1.070   1.907   4.465 -0.5904 -0.1397  0.1986
 6584SOL    HW131214   1.160   1.937   4.452 -1.1578  1.2210 -0.6313
 6584SOL    HW231215   1.031   1.908   4.377  0.6529  0.8752 -0.3475
 6585SOL     OW31216   4.195   0.737   0.108 -0.5937 -0.3429 -0.1517
 6585SOL    HW131217   4.108   0.763   0.138  0.5634  2.3021  0.9272
 6585SOL    HW231218   4.228   0.801   0.045  0.7013 -1.3887 -0.5127
 6586SOL     OW31219   4.413   0.584  16.754 -0.6968  0.5082  0.2527
 6586SOL    HW131220   4.422   0.626  16.840  0.7596 -0.0034  0.3444
 6586SOL    HW231221   4.379   0.663  16.711 -1.5829 -0.6654 -1.1822
 6587SOL     OW31222   3.572   1.425  10.904  0.0067 -0.1464 -0.1207
 6587SOL    HW131223   3.524   1.357  10.951 -1.3333  1.1427  0.3685
 6587SOL    HW231224   3.599   1.379  10.825  0.1391  0.2675 -0.3194
 6588SOL     OW31225   4.431   1.648   4.406  0.1871 -0.0782 -0.0683
 6588SOL    HW131226   4.450   1.622   4.316  1.2469 -1.6792  0.6271
 6588SOL    HW231227   4.379   1.728   4.397  0.8797  0.3662 -0.1707
 6589SOL     OW31228   0.561   3.470   3.728  0.0481  0.1505  0.2150
 6589SOL    HW131229   0.601   3.509   3.651 -1.6635  1.4412 -0.0268
 6589SOL    HW231230   0.636   3.472   3.787 -0.6711 -0.1750  1.1483
 6590SOL     OW31231   2.181   1.664   1.910  0.8506 -0.1271  0.5197
 6590SOL    HW131232   2.105   1.610   1.887  1.1502 -1.3653  2.4477
 6590SOL    HW231233   2.152   1.746   1.871 -1.0454 -1.8205 -1.6220
 6591SOL     OW31234   2.842   2.258   8.267  0.3543  0.2922 -0.0092
 6591SOL    HW131235   2.783   2.205   8.214  1.6661  0.0172 -1.1803
 6591SOL    HW231236   2.852   2.194   8.338 -2.3044 -1.2849 -1.0591
 6592SOL     OW31237   1.622   2.735   3.752 -0.5713  0.4394 -0.3612
 6592SOL    HW131238   1.668   2.816   3.732  1.0824  0.0181  1.7256
 6592SOL    HW231239   1.560   2.757   3.822 -0.6578  1.5785 -0.7887
 6593SOL     OW31240   0.302   1.339   3.381  0.3246  0.0109  0.2470
 6593SOL    HW131241   0.302   1.296   3.467  1.1276  0.3037  0.3967
 6593SOL    HW231242   0.209   1.319   3.367  0.5128 -1.5352  1.1898
 6594SOL     OW31243   4.595   0.811   5.867 -0.3567 -0.7046  0.0491
 6594SOL    HW131244   4.662   0.771   5.923  0.2844 -1.2905 -1.1381
 6594SOL    HW231245   4.525   0.832   5.929  1.0750 -0.5909  1.6211
 6595SOL     OW31246   1.401   0.011  13.294  0.6525 -0.6536 -0.1007
 6595SOL    HW131247   1.454   0.015  13.214  2.6344 -2.5339  1.1012
 6595SOL    HW231248   1.352   0.093  13.296  1.4896 -0.1396 -0.4806
 6596SOL     OW31249   4.148   3.141   7.413  0.0613  0.0876  0.2953
 6596SOL    HW131250   4.212   3.072   7.429 -1.2827 -1.2721 -0.2557
 6596SOL    HW231251   4.150   3.134   7.318  0.0559 -0.4096  0.3337
 6597SOL     OW31252   1.827   4.034  13.182  0.0163 -0.1554 -0.1786
 6597SOL    HW131253   1.742   3.991  13.178 -0.1572  0.1298  0.5224
 6597SOL    HW231254   1.846   4.035  13.088 -0.6659 -1.8933 -0.3420
 6598SOL     OW31255   1.353   3.717   4.454 -0.0234  0.1242 -0.3183
 6598SOL    HW131256   1.273   3.764   4.429  0.9709  1.2188 -1.4061
 6598SOL    HW231257   1.389   3.700   4.367 -0.8659  1.9374 -1.0204
 6599SOL     OW31258   1.355   1.108  15.260  0.3514 -0.0290 -0.2682
 6599SOL    HW131259   1.434   1.060  15.235  0.0972 -0.3269 -0.5132
 6599SOL    HW231260   1.293   1.047  15.300 -1.2285 -0.2657 -3.0578
 6600SOL     OW31261   2.010   1.082  10.224  0.0570  0.1625  0.4038
 6600SOL    HW131262   1.984   1.160  10.273 -0.4446 -0.1690  0.6675
 6600SOL    HW231263   2.024   1.019  10.295 -1.4893  0.1588  0.7061
 6601SOL     OW31264   1.178   2.035   1.942  0.0929 -0.5996 -0.3936
 6601SOL    HW131265   1.228   1.953   1.938 -1.1640 -1.4210  0.3400
 6601SOL    HW231266   1.098   1.991   1.973 -0.5861  2.3025  1.8991
 6602SOL     OW31267   0.873   2.182   1.201  0.1035  0.4371  0.0431
 6602SOL    HW131268   0.876   2.249   1.270  0.5331  1.3704 -0.8815
 6602SOL    HW231269   0.899   2.111   1.259  1.2769 -0.1354 -1.2025
 6603SOL     OW31270   0.405   0.183   1.615 -0.2635 -0.2113 -0.2000
 6603SOL    HW131271   0.348   0.142   1.680  0.7847 -0.4832  0.5553
 6603SOL    HW231272   0.418   0.271   1.649 -2.6384  0.2286 -0.4189
 6604SOL     OW31273   1.664   0.383   2.307 -0.2204 -0.4713  0.0108
 6604SOL    HW131274   1.572   0.361   2.323 -0.4390 -2.0293 -3.3670
 6604SOL    HW231275   1.705   0.365   2.391  2.2987 -0.8025 -1.3016
 6605SOL     OW31276   0.646   3.983  10.113  0.1038  0.3241 -0.1176
 6605SOL    HW131277   0.609   3.943  10.034  0.1374 -1.4318  0.7614
 6605SOL    HW231278   0.687   3.906  10.152  1.4266  0.6657 -0.8275
 6606SOL     OW31279   2.127   4.271   8.389  0.3850 -0.2749 -0.4067
 6606SOL    HW131280   2.071   4.345   8.364 -1.3639 -1.4488 -0.0192
 6606SOL    HW231281   2.129   4.278   8.484 -0.3947  0.8395 -0.4656
 6607SOL     OW31282   4.471   2.840   6.806 -0.8555 -0.0225  0.1414
 6607SOL    HW131283   4.395   2.897   6.789 -0.2314  0.6735 -0.3096
 6607SOL    HW231284   4.451   2.749   6.784 -1.1526  0.0393  0.1520
 6608SOL     OW31285   2.880   3.699   0.180  0.4048 -0.0577  0.0679
 6608SOL    HW131286   2.890   3.691   0.085  0.7114 -2.3092  0.3037
 6608SOL    HW231287   2.785   3.700   0.196  0.1813 -1.7831 -1.2650
 6609SOL     OW31288   3.027   2.901   3.162  0.5400  0.0919 -0.5010
 6609SOL    HW131289   2.995   2.817   3.128 -2.8538  0.3273  2.0769
 6609SOL    HW231290   3.120   2.884   3.171  0.5523  1.3800  1.6337
 6610SOL     OW31291   1.648   2.185   3.561  0.0999 -0.5099 -0.0387
 6610SOL    HW131292   1.669   2.118   3.626 -1.1924 -1.3087 -0.4347
 6610SOL    HW231293   1.723   2.188   3.502  1.1104 -0.4662  1.2670
 6611SOL     OW31294   3.879   3.543   4.487 -0.8980 -0.4012 -0.1830
 6611SOL    HW131295   3.857   3.495   4.408 -0.4070 -1.0082  0.0469
 6611SOL    HW231296   3.843   3.628   4.461 -3.0705 -0.0510  3.8955
 6612SOL     OW31297   2.048   4.612   5.800  0.4941  0.3134 -0.0356
 6612SOL    HW131298   2.039   4.657   5.883  2.7290 -0.3540  0.5815
 6612SOL    HW231299   1.960   4.576   5.786  1.1067 -0.3584 -2.2008
 6613SOL     OW31300   2.420   4.167  15.989 -0.4353  0.0001  0.2669
 6613SOL    HW131301   2.426   4.080  15.949 -0.7115 -0.2906  0.8593
 6613SOL    HW231302   2.503   4.157  16.037 -0.1250  1.3809  0.0104
 6614SOL     OW31303   0.710   0.912   4.959 -0.3940  0.0782 -0.1923
 6614SOL    HW131304   0.647   0.961   5.013 -0.3991  2.7344 -2.5870
 6614SOL    HW231305   0.774   0.976   4.929 -2.1868  1.2248 -1.5940
 6615SOL     OW31306   4.443   0.403   1.796 -0.0639 -0.0315 -0.1453
 6615SOL    HW131307   4.353   0.434   1.784 -0.5818 -1.3657  0.2640
 6615SOL    HW231308   4.450   0.324   1.742 -0.8205 -2.0532  2.6604
 6616SOL     OW31309   2.094   0.534   4.409 -0.4931 -0.0079 -0.6380
 6616SOL    HW131310   2.131   0.623   4.417  1.3547 -0.8566  0.3567
 6616SOL    HW231311   2.046   0.528   4.491 -0.6021  0.2543 -0.6838
 6617SOL     OW31312   1.090   1.826   8.415 -0.1072  0.0556  0.2886
 6617SOL    HW131313   1.137   1.753   8.455 -2.0113 -1.8291 -0.9089
 6617SOL    HW231314   1.084   1.781   8.330  1.1424 -1.0099  0.7557
 6618SOL     OW31315   1.100   1.800  12.422 -0.6351 -0.0841 -0.1275
 6618SOL    HW131316   1.195   1.789  12.416 -0.4189  3.0991 -2.6329
 6618SOL    HW231317   1.107   1.891  12.451 -0.2256 -0.3353  0.5661
 6619SOL     OW31318   3.073   3.319   5.031 -0.2480 -0.1902  0.2999
 6619SOL    HW131319   3.006   3.271   5.079 -1.1962  1.1600  0.3357
 6619SOL    HW231320   3.035   3.316   4.944  3.7589 -0.5627 -1.4375
 6620SOL     OW31321   4.403   0.901  12.349 -0.5596  0.0867  0.4206
 6620SOL    HW131322   4.458   0.822  12.350 -0.8342 -0.1508 -2.6518
 6620SOL    HW231323   4.468   0.962  12.383 -2.3765  1.2460  1.7691
 6621SOL     OW31324   0.029   4.369   4.140 -0.4633  0.4156  0.2207
 6621SOL    HW131325   0.057   4.379   4.049  0.9409  0.2344  0.6230
 6621SOL    HW231326   4.659   4.375   4.131 -0.2135  2.1265 -1.0851
 6622SOL     OW31327   3.137   2.021  10.587 -0.0860 -0.0116  0.5082
 6622SOL    HW131328   3.054   2.010  10.633 -0.0298  1.4497  0.9463
 6622SOL    HW231329   3.166   2.100  10.632 -0.7213 -0.7226  2.1472
 6623SOL     OW31330   0.898   0.041   0.370  0.3293 -0.2320 -0.6362
 6623SOL    HW131331   0.951   4.700   0.415  2.1785  2.9704  1.9470
 6623SOL    HW231332   0.967   0.097   0.332 -0.0665 -0.5224 -1.7960
 6624SOL     OW31333   2.308   0.560   4.183 -0.0597  0.2029 -0.5777
 6624SOL    HW131334   2.311   0.489   4.120  0.3131  0.7253 -1.1521
 6624SOL    HW231335   2.268   0.518   4.259 -1.8526  0.9274 -1.1204
 6625SOL     OW31336   3.497   4.411   5.584 -0.1771 -0.0586 -0.1971
 6625SOL    HW131337   3.445   4.447   5.655  2.1880  1.2940  0.8707
 6625SOL    HW231338   3.571   4.369   5.628 -1.1448 -0.8185  0.6877
 6626SOL     OW31339   4.157   1.569  14.979  0.8473 -0.0603  0.5828
 6626SOL    HW131340   4.062   1.574  14.989  0.5415  1.7307 -3.3865
 6626SOL    HW231341   4.184   1.535  15.064  1.4232 -3.1724 -0.8211
 6627SOL     OW31342   2.791   1.325   3.237 -0.4365  0.0658  0.0866
 6627SOL    HW131343   2.810   1.250   3.293  0.3271 -0.8087 -1.3568
 6627SOL    HW231344   2.804   1.286   3.151 -0.1736  0.2583  0.0383
 6628SOL     OW31345   0.878   2.465  17.042 -0.0826 -0.7358 -0.8738
 6628SOL    HW131346   0.859   2.371  17.042  0.2707 -0.8103 -0.2246
 6628SOL    HW231347   0.898   2.480  17.135  1.6010  2.1736 -1.7149
 6629SOL     OW31348   1.197   1.711   0.211  0.0377  0.4050 -0.4534
 6629SOL    HW131349   1.239   1.794   0.231  1.8354 -1.2344  2.7004
 6629SOL    HW231350   1.123   1.729   0.154  0.2423 -0.1114 -0.8916
 6630SOL     OW31351   1.508   4.409   8.251 -0.3569 -0.3334 -0.6017
 6630SOL    HW131352   1.527   4.502   8.244  2.9666 -1.1073 -2.0824
 6630SOL    HW231353   1.482   4.381   8.163  1.4933 -2.1087 -0.6011
 6631SOL     OW31354   1.330   2.889   5.032  0.4045 -0.3653 -0.6946
 6631SOL    HW131355   1.339   2.920   4.942  0.4078 -1.0941 -0.9445
 6631SOL    HW231356   1.325   2.793   5.028  0.6931 -0.3328 -1.7367
 6632SOL     OW31357   4.473   1.037   2.590  0.3189  0.3798 -0.0240
 6632SOL    HW131358   4.499   1.014   2.500  0.8388 -0.5211  0.3558
 6632SOL    HW231359   4.509   0.963   2.639 -1.3846 -1.3558 -1.4027
 6633SOL     OW31360   3.881   3.041   8.886 -0.2355 -0.3015 -0.8309
 6633SOL    HW131361   3.971   3.056   8.915  0.1225 -0.9839 -1.5755
 6633SOL    HW231362   3.882   3.009   8.796 -1.1736 -0.4877 -0.7787
 6634SOL     OW31363   4.049   3.150   7.942  0.6365  0.1182 -0.3704
 6634SOL    HW131364   4.126   3.123   7.992 -0.7341 -0.9158  1.1899
 6634SOL    HW231365   4.079   3.234   7.908  0.3744  0.7277  0.9142
 6635SOL     OW31366   0.840   4.705   3.229 -0.0123  0.1249 -0.3049
 6635SOL    HW131367   0.842   4.624   3.281 -0.9777 -0.2327 -0.8291
 6635SOL    HW231368   0.879   0.038   3.294  0.5826  0.3807 -0.8941
 6636SOL     OW31369   1.589   0.719  16.646  0.3089 -0.2512  0.2971
 6636SOL    HW131370   1.598   0.627  16.670  1.3457 -0.6581 -1.6866
 6636SOL    HW231371   1.504   0.713  16.603  1.6503  0.0176 -2.3711
 6637SOL     OW31372   0.736   2.660   6.870  0.3836 -0.0612 -0.6476
 6637SOL    HW131373   0.729   2.750   6.838  2.1801 -0.4899 -2.2401
 6637SOL    HW231374   0.810   2.633   6.816  0.8046  0.5356 -0.3750
 6638SOL     OW31375   0.770   3.479   4.811 -0.4660  0.7262 -0.0554
 6638SOL    HW131376   0.681   3.499   4.842 -0.3604 -1.6707  1.7861
 6638SOL    HW231377   0.816   3.518   4.885 -0.3236  0.5445 -0.0493
 6639SOL     OW31378   1.882   2.451  12.309  0.4378  0.3291  0.4277
 6639SOL    HW131379   1.920   2.457  12.221  1.8229  0.8669  1.0638
 6639SOL    HW231380   1.838   2.367  12.306 -0.7335  0.9078  1.6012
 6640SOL     OW31381   2.171   4.226  17.085  0.3582 -0.1100 -0.0646
 6640SOL    HW131382   2.127   4.240  17.002  0.4003 -1.1704 -0.2729
 6640SOL    HW231383   2.104   4.232  17.153  0.2042 -1.7030 -0.0585
 6641SOL     OW31384   1.790   1.652   3.049 -0.1570  0.1283 -0.1955
 6641SOL    HW131385   1.824   1.669   2.961  2.5960 -0.1815  0.8078
 6641SOL    HW231386   1.861   1.692   3.099  0.3137  0.6988 -1.3063
 6642SOL     OW31387   1.797   1.755   3.851  0.1345  0.3646 -0.1736
 6642SOL    HW131388   1.720   1.719   3.808  0.3593  0.3422 -0.5550
 6642SOL    HW231389   1.825   1.678   3.900 -0.0711 -0.9042 -2.0251
 6643SOL     OW31390   3.757   1.195   5.000 -0.2660 -0.3416  0.1462
 6643SOL    HW131391   3.818   1.122   4.996  0.2972  0.0495  1.6912
 6643SOL    HW231392   3.674   1.161   5.034 -0.1014 -0.3626  0.5248
 6644SOL     OW31393   1.284   2.557   4.917 -0.1728 -0.3363 -0.8504
 6644SOL    HW131394   1.281   2.578   5.010  1.1466 -0.1304 -0.8499
 6644SOL    HW231395   1.193   2.571   4.892 -0.7938 -1.8328  0.5947
 6645SOL     OW31396   2.669   4.107   8.687  0.1671  0.0821 -0.1151
 6645SOL    HW131397   2.708   4.068   8.765 -0.6632 -0.4509  0.0405
 6645SOL    HW231398   2.657   4.192   8.728 -2.4590 -1.1498  1.6895
 6646SOL     OW31399   0.975   4.021   3.046  0.3740 -0.2343  0.0407
 6646SOL    HW131400   0.990   3.956   3.114 -1.6100 -0.2296  0.4717
 6646SOL    HW231401   1.051   4.076   3.065  0.2559 -0.2283  0.4952
 6647SOL     OW31402   3.189   3.203   4.652 -0.1356  0.0766 -0.4142
 6647SOL    HW131403   3.268   3.149   4.655 -0.6559 -0.5999  1.0201
 6647SOL    HW231404   3.130   3.135   4.619 -0.1276  0.0190 -0.3108
 6648SOL     OW31405   1.815   3.407   1.145  0.0963 -0.6364 -0.4087
 6648SOL    HW131406   1.749   3.474   1.128  1.3245  0.5728 -0.4744
 6648SOL    HW231407   1.802   3.396   1.239 -1.4927  1.0846 -0.4183
 6649SOL     OW31408   3.143   3.771  13.573  0.3078  0.4336  0.1830
 6649SOL    HW131409   3.093   3.824  13.511 -0.8983  0.4041  1.1296
 6649SOL    HW231410   3.076   3.715  13.612 -2.1595  2.0388 -1.7885
 6650SOL     OW31411   3.502   2.160   4.117  0.9510  0.3365 -0.1553
 6650SOL    HW131412   3.516   2.144   4.210 -0.0611  0.1658 -0.0323
 6650SOL    HW231413   3.454   2.243   4.112 -2.0317 -1.2916  1.6936
 6651SOL     OW31414   0.313   4.561   2.866  0.1459  0.4401  0.0076
 6651SOL    HW131415   0.347   4.533   2.951  0.3361  1.7616  0.3661
 6651SOL    HW231416   0.394   4.590   2.823  0.1258 -2.0653 -1.7023
 6652SOL     OW31417   2.672   1.624   8.705 -0.3516  0.3712  0.2056
 6652SOL    HW131418   2.646   1.539   8.740  1.9080 -0.4983 -0.2101
 6652SOL    HW231419   2.712   1.674   8.777  0.3236 -0.5213  0.4446
 6653SOL     OW31420   0.465   0.428   7.332  0.1168  0.2567 -0.1913
 6653SOL    HW131421   0.551   0.388   7.319  0.3449  0.8685 -0.5151
 6653SOL    HW231422   0.475   0.441   7.426  4.0126 -0.6740 -0.4877
 6654SOL     OW31423   1.939   2.861   7.652  0.6498 -0.5157  0.7747
 6654SOL    HW131424   1.952   2.947   7.692 -0.6116  0.5418 -1.0941
 6654SOL    HW231425   1.862   2.824   7.695 -0.1296  1.5374  1.1480
 6655SOL     OW31426   2.901   1.947   8.232  0.5499 -0.3708 -0.8855
 6655SOL    HW131427   2.947   1.893   8.296 -0.3062 -1.5871 -1.2964
 6655SOL    HW231428   2.961   1.944   8.157  0.5498 -1.6743 -0.8369
 6656SOL     OW31429   1.912   0.264   1.558  0.0284 -0.0998 -0.3591
 6656SOL    HW131430   1.972   0.203   1.517  0.5059  0.3468 -0.3315
 6656SOL    HW231431   1.959   0.291   1.637 -0.1279  1.4864 -0.8109
 6657SOL     OW31432   1.695   1.970   2.023  0.0859 -0.0577  0.3011
 6657SOL    HW131433   1.762   2.004   1.964 -0.6670 -0.8865 -1.0512
 6657SOL    HW231434   1.658   2.050   2.061 -0.5275 -0.0069 -0.3978
 6658SOL     OW31435   0.208   0.334   7.265  0.2091  0.0628 -0.2080
 6658SOL    HW131436   0.271   0.405   7.248  0.2799 -0.0705 -0.4857
 6658SOL    HW231437   0.204   0.290   7.181  1.0752  1.3482 -0.9328
 6659SOL     OW31438   3.301   2.955  15.028 -0.3630 -0.5884  0.2211
 6659SOL    HW131439   3.244   2.927  15.100  0.1977  0.8437  1.2348
 6659SOL    HW231440   3.383   2.911  15.050  0.5091  0.5039 -0.8648
 6660SOL     OW31441   3.528   4.260   6.991 -0.3350 -0.6816 -0.3850
 6660SOL    HW131442   3.607   4.230   6.945 -0.8664 -2.5547 -0.0817
 6660SOL    HW231443   3.520   4.355   6.982  1.4552 -0.3526  1.4911
 6661SOL     OW31444   3.395   4.712   4.020  0.5961  0.0175 -0.2334
 6661SOL    HW131445   3.307   0.004   3.986  0.4079 -0.3511  0.0707
 6661SOL    HW231446   3.427   4.652   3.953  0.9616  0.1894 -0.2118
 6662SOL     OW31447   0.358   1.095   4.004  0.3346  0.5231 -0.1300
 6662SOL    HW131448   0.410   1.079   4.083 -0.4833 -0.1991  0.2630
 6662SOL    HW231449   0.347   1.190   4.011 -0.5626  0.1942  2.7470
 6663SOL     OW31450   0.802   1.973   3.585 -0.8146 -0.1108 -0.2769
 6663SOL    HW131451   0.786   2.064   3.610  1.1024  0.6632 -1.8990
 6663SOL    HW231452   0.882   1.973   3.533  0.0435  1.1663  1.0668
 6664SOL     OW31453   2.663   3.735   6.250 -0.2191  0.1948  0.5923
 6664SOL    HW131454   2.702   3.813   6.288  0.2887  0.4880 -0.5376
 6664SOL    HW231455   2.736   3.675   6.236  0.6891  0.3444  4.5924
 6665SOL     OW31456   2.563   0.954   7.433  0.2814 -0.2689  0.3137
 6665SOL    HW131457   2.518   0.871   7.445 -0.6469  0.3669  1.1867
 6665SOL    HW231458   2.647   0.930   7.393  1.1794  0.4771  1.7324
 6666SOL     OW31459   3.080   4.192  13.266 -0.0241  0.3066  0.0227
 6666SOL    HW131460   3.081   4.253  13.339  1.0833 -1.9393  1.8850
 6666SOL    HW231461   3.131   4.240  13.200 -0.3124 -0.1537 -0.5342
 6667SOL     OW31462   3.814   1.395   1.407  0.3836  1.0897  0.2216
 6667SOL    HW131463   3.901   1.370   1.437 -0.7918 -0.6441  2.1920
 6667SOL    HW231464   3.821   1.441   1.323  0.9056  1.2342  0.3442
 6668SOL     OW31465   3.049   0.114  16.022  0.2344 -0.5121  0.8542
 6668SOL    HW131466   2.953   0.115  16.028  0.2826  0.6368  1.3308
 6668SOL    HW231467   3.061   0.032  15.974 -1.3902  0.1502 -0.7039
 6669SOL     OW31468   4.017   3.338   2.805 -0.2324 -0.0798 -0.1117
 6669SOL    HW131469   3.995   3.304   2.718  2.7721 -1.2642 -0.4232
 6669SOL    HW231470   4.095   3.288   2.829  2.0401  2.3603 -2.3339
 6670SOL     OW31471   0.767   4.263  14.983 -0.2669  0.3503 -0.0347
 6670SOL    HW131472   0.773   4.209  14.904  2.8308 -2.5230  2.1704
 6670SOL    HW231473   0.794   4.191  15.039  3.3053  1.6508 -0.0785
 6671SOL     OW31474   2.827   0.180   6.413  0.2635  0.5131 -0.1422
 6671SOL    HW131475   2.873   0.166   6.495 -1.0696  1.0144  0.6977
 6671SOL    HW231476   2.760   0.244   6.439  0.6543  0.9287 -0.1555
 6672SOL     OW31477   4.320   2.370   6.890  0.3468  0.1378  0.1958
 6672SOL    HW131478   4.304   2.462   6.911 -0.1532  0.1825 -0.4027
 6672SOL    HW231479   4.293   2.325   6.970 -1.1023  0.9411  0.1685
 6673SOL     OW31480   2.778   1.779   7.393  0.0183  0.1048  0.1510
 6673SOL    HW131481   2.816   1.761   7.307  0.6542  1.1186  0.2189
 6673SOL    HW231482   2.813   1.707   7.447 -1.0514 -2.2547 -2.3379
 6674SOL     OW31483   3.647   3.973   8.131 -0.3108 -0.4051 -0.6421
 6674SOL    HW131484   3.709   4.019   8.188 -1.4316  0.5091 -0.1544
 6674SOL    HW231485   3.707   3.923   8.076  0.5375  0.8814 -0.8849
 6675SOL     OW31486   0.487   1.309   5.906 -0.5201  0.1618  0.4154
 6675SOL    HW131487   0.553   1.249   5.941  1.1299  1.5240 -0.3321
 6675SOL    HW231488   0.448   1.336   5.989 -0.3920 -1.0450  0.8614
 6676SOL     OW31489   3.855   0.774  14.452 -0.2466 -0.0753 -0.0831
 6676SOL    HW131490   3.863   0.800  14.360  1.1429  2.9271  0.8787
 6676SOL    HW231491   3.766   0.740  14.455  0.0693 -0.9208 -0.3494
 6677SOL     OW31492   1.731   4.630  17.693  0.0956 -0.2666 -0.4000
 6677SOL    HW131493   1.780   4.594  17.620  1.7321  3.5447 -1.2101
 6677SOL    HW231494   1.648   4.619  17.648 -0.2607 -0.3850  0.2828
 6678SOL     OW31495   1.940   0.491   8.740  0.0626 -0.1330 -0.0526
 6678SOL    HW131496   2.017   0.435   8.737  0.6792  0.6600  1.0182
 6678SOL    HW231497   1.977   0.578   8.752 -0.0033 -0.3684  1.8004
 6679SOL     OW31498   2.389   4.528   4.965  0.2952 -0.4402 -0.2801
 6679SOL    HW131499   2.395   4.438   4.997  1.1365  0.5008  2.1882
 6679SOL    HW231500   2.454   4.523   4.895 -0.9144  0.2086 -1.4633
 6680SOL     OW31501   2.086   3.412   8.907  0.0776 -0.0589 -0.0591
 6680SOL    HW131502   2.081   3.346   8.837 -1.1474 -1.4392  1.3025
 6680SOL    HW231503   2.161   3.464   8.881 -0.5275  1.1519  0.6159
 6681SOL     OW31504   2.910   3.665  15.305  0.0388 -0.0366 -0.2232
 6681SOL    HW131505   2.953   3.615  15.236  0.2918 -1.3915  0.9191
 6681SOL    HW231506   2.816   3.661  15.283 -0.9658  1.6922  3.7733
 6682SOL     OW31507   3.095   2.400  13.009 -0.0541  0.3527  0.1547
 6682SOL    HW131508   3.081   2.468  12.943 -0.7127  0.3525  0.2927
 6682SOL    HW231509   3.012   2.399  13.056  1.0054  0.3326  2.0233
 6683SOL     OW31510   4.195   1.214   5.480  0.4887  0.1768 -0.0749
 6683SOL    HW131511   4.106   1.240   5.454  0.1527 -0.5717  0.3132
 6683SOL    HW231512   4.246   1.241   5.404  1.1701 -0.6811  0.0838
 6684SOL     OW31513   2.488   4.095   8.971 -0.1874  0.4196  0.1669
 6684SOL    HW131514   2.404   4.126   9.006  0.3763  1.7950  0.2900
 6684SOL    HW231515   2.520   4.181   8.942  1.0953  0.2866  1.2168
 6685SOL     OW31516   4.302   2.527  15.211  0.1883  0.3259  0.4846
 6685SOL    HW131517   4.351   2.448  15.233  1.7504  1.5602  1.3511
 6685SOL    HW231518   4.372   2.589  15.229  1.2001 -1.0006  1.1245
 6686SOL     OW31519   3.789   3.608  14.845 -0.0229  0.2703 -0.0490
 6686SOL    HW131520   3.696   3.622  14.828  0.0697 -0.4969 -1.1794
 6686SOL    HW231521   3.805   3.666  14.920 -0.3852 -1.8470  1.6800
 6687SOL     OW31522   0.588   0.142   8.238  1.0001  0.2175  0.0020
 6687SOL    HW131523   0.614   0.134   8.147  1.0009 -2.0983  0.2188
 6687SOL    HW231524   0.510   0.197   8.225 -1.8008 -3.4384  1.3513
 6688SOL     OW31525   4.544   1.887   4.174 -0.2748 -0.1428 -0.3952
 6688SOL    HW131526   4.610   1.830   4.134  1.2668  0.4580  1.2630
 6688SOL    HW231527   4.535   1.955   4.108 -2.1248  0.8260  0.8577
 6689SOL     OW31528   3.111   4.548   7.415 -0.1500  0.3509 -0.2402
 6689SOL    HW131529   3.158   4.520   7.493 -2.4647  2.3755  1.8716
 6689SOL    HW231530   3.052   4.474   7.401  0.7088  0.0590 -2.3195
 6690SOL     OW31531   1.841   2.610  15.664 -0.2082 -0.0918  0.1587
 6690SOL    HW131532   1.806   2.642  15.581 -1.4825 -0.3459  0.6001
 6690SOL    HW231533   1.936   2.611  15.652 -0.2921  2.9257 -0.2697
 6691SOL     OW31534   1.312   0.290   1.937 -0.0188  0.3155 -0.1884
 6691SOL    HW131535   1.338   0.363   1.881  0.4859  1.5508  1.6655
 6691SOL    HW231536   1.384   0.228   1.927  0.4718  0.5461  1.9497
 6692SOL     OW31537   3.419   2.577   6.960  0.0092  0.5855  0.9588
 6692SOL    HW131538   3.350   2.524   7.000  1.6072 -1.6462  0.8055
 6692SOL    HW231539   3.376   2.633   6.896  1.8733  1.9890  0.9500
 6693SOL     OW31540   1.515   3.845  15.334 -0.2117  0.0895 -0.9009
 6693SOL    HW131541   1.459   3.811  15.263  1.5844 -0.7291 -1.9215
 6693SOL    HW231542   1.528   3.759  15.374  1.4698  0.9560  0.3989
 6694SOL     OW31543   0.904   3.435   8.998  0.2937 -0.3319 -0.2374
 6694SOL    HW131544   0.906   3.413   9.091 -0.8177 -3.3061 -0.9090
 6694SOL    HW231545   0.988   3.478   8.984  0.1428  0.0487  0.0625
 6695SOL     OW31546   0.308   3.008   6.416  0.4604 -0.0562 -0.2454
 6695SOL    HW131547   0.373   3.078   6.408 -1.1437  1.4542 -0.2012
 6695SOL    HW231548   0.366   2.933   6.427  0.8596  0.6295  2.4838
 6696SOL     OW31549   2.886   3.894   8.389  0.1072 -0.2064 -0.0409
 6696SOL    HW131550   2.903   3.852   8.473  1.6225 -1.4476 -0.9643
 6696SOL    HW231551   2.843   3.977   8.411 -0.5338 -0.7054  0.5788
 6697SOL     OW31552   3.073   3.836   5.081  0.5615 -0.1843 -0.0707
 6697SOL    HW131553   3.103   3.753   5.043  0.3323 -0.8320  1.1335
 6697SOL    HW231554   3.154   3.886   5.088 -0.6642  1.5599  1.6158
 6698SOL     OW31555   1.541   0.772   9.348 -0.4330 -0.3407  0.5128
 6698SOL    HW131556   1.447   0.756   9.349 -0.6757  0.8778 -1.9192
 6698SOL    HW231557   1.572   0.682   9.356  0.1943 -0.2216 -0.6400
 6699SOL     OW31558   3.268   3.945  12.885  0.2198 -0.6870  0.0881
 6699SOL    HW131559   3.309   3.883  12.825  2.3214  1.0428 -0.2490
 6699SOL    HW231560   3.349   3.977  12.925  0.0821 -1.2942  0.8615
 6700SOL     OW31561   2.260   4.091  14.355  0.0956 -0.8201  0.1654
 6700SOL    HW131562   2.204   4.168  14.365  0.1816 -0.6563 -0.6021
 6700SOL    HW231563   2.294   4.100  14.266 -0.9260 -0.5223 -0.1927
 6701SOL     OW31564   3.460   0.757  11.084  0.3530 -0.5630 -0.0023
 6701SOL    HW131565   3.460   0.688  11.150  1.5835 -0.7029 -0.1583
 6701SOL    HW231566   3.500   0.714  11.008  0.7081  0.6439 -0.5063
 6702SOL     OW31567   3.127   2.424   1.399 -0.2502 -0.1236 -0.2993
 6702SOL    HW131568   3.109   2.397   1.490  0.6313  1.0305  0.2235
 6702SOL    HW231569   3.038   2.441   1.369  0.0188  1.6804 -0.0869
 6703SOL     OW31570   4.196   1.498   7.255 -0.3445 -0.4483 -0.3183
 6703SOL    HW131571   4.104   1.480   7.276 -0.0025 -0.5790  1.1049
 6703SOL    HW231572   4.190   1.590   7.228 -0.0350 -0.4798 -0.4864
 6704SOL     OW31573   4.169   4.436   3.127  0.0795 -0.2387  0.2656
 6704SOL    HW131574   4.190   4.355   3.080  0.3627  0.5435 -0.9571
 6704SOL    HW231575   4.107   4.456   3.056  0.9651 -1.2295 -0.7810
 6705SOL     OW31576   0.329   3.984  11.411 -0.1272  0.2532  0.2883
 6705SOL    HW131577   0.329   3.955  11.502 -0.8699 -1.2609 -0.1922
 6705SOL    HW231578   0.284   3.914  11.363 -0.5464  0.4812  0.3420
 6706SOL     OW31579   4.614   2.794  11.408  0.0150  0.0693  0.0905
 6706SOL    HW131580   4.550   2.742  11.458 -1.7830  1.0287 -1.2143
 6706SOL    HW231581   4.697   2.746  11.412 -1.0204 -1.4756  3.4344
 6707SOL     OW31582   4.349   2.969   3.360 -0.0463  0.2634  0.2409
 6707SOL    HW131583   4.414   2.930   3.301  0.4694  2.2801 -0.5466
 6707SOL    HW231584   4.321   2.884   3.395  0.2420  0.8413  1.8786
 6708SOL     OW31585   4.652   3.599  11.218  0.2380 -0.1148 -0.1750
 6708SOL    HW131586   4.573   3.559  11.181 -0.6497  1.7745 -0.3269
 6708SOL    HW231587   4.703   3.526  11.253  0.7725  0.5193  0.3840
 6709SOL     OW31588   1.923   1.236   4.099 -0.5271  0.3005 -0.0770
 6709SOL    HW131589   1.989   1.175   4.068 -0.7729 -0.3010  0.5850
 6709SOL    HW231590   1.902   1.287   4.021  0.5781  0.4771 -0.2525
 6710SOL     OW31591   1.397   0.091   4.838  0.3517 -0.2920  0.6270
 6710SOL    HW131592   1.408   0.142   4.919  2.2855  0.8184 -0.3224
 6710SOL    HW231593   1.471   0.035   4.864  0.2552 -0.0300  1.4762
 6711SOL     OW31594   0.611   2.547   1.809  0.0650  0.1968 -0.0092
 6711SOL    HW131595   0.654   2.631   1.790  1.6932 -0.6226  0.0804
 6711SOL    HW231596   0.552   2.534   1.735  2.6144  0.8728 -2.1408
 6712SOL     OW31597   1.693   4.074   5.501 -0.2757 -0.1359  0.4466
 6712SOL    HW131598   1.759   4.007   5.518  0.1416  0.1268 -0.1635
 6712SOL    HW231599   1.709   4.131   5.577  0.5388  2.5274 -1.7134
 6713SOL     OW31600   2.423   0.153  15.969 -0.4580  0.6316 -0.5926
 6713SOL    HW131601   2.340   0.192  15.998  0.5854  3.6559 -1.6130
 6713SOL    HW231602   2.413   0.173  15.876  1.0913  4.0878 -0.0145
 6714SOL     OW31603   3.207   4.422  17.507 -0.4509  0.2478 -0.4014
 6714SOL    HW131604   3.190   4.490  17.572 -0.0144 -1.3694  1.4025
 6714SOL    HW231605   3.126   4.428  17.456 -0.8949 -0.6300  0.1942
 6715SOL     OW31606   0.377   0.914  15.293  0.4095 -0.9120  0.1641
 6715SOL    HW131607   0.441   0.867  15.241  1.3797 -0.1621  0.6806
 6715SOL    HW231608   0.385   0.868  15.376  1.8968 -1.6339 -0.3875
 6716SOL     OW31609   3.682   2.780   0.468  0.3000  0.0725 -0.3623
 6716SOL    HW131610   3.646   2.750   0.551  0.8941 -0.9981 -0.4933
 6716SOL    HW231611   3.655   2.706   0.414 -0.4238  0.9372 -1.2070
 6717SOL     OW31612   2.615   2.539  12.472  0.7275 -0.0998  0.1716
 6717SOL    HW131613   2.684   2.496  12.422  1.1809  1.0825 -0.2188
 6717SOL    HW231614   2.600   2.480  12.546 -0.1644 -1.4489 -1.0946
 6718SOL     OW31615   4.650   4.723   6.929  0.0321  0.5557  0.0879
 6718SOL    HW131616   4.628   4.700   6.839 -2.2186  0.0521  0.7770
 6718SOL    HW231617   4.591   4.670   6.983  2.2746  0.2257  2.2456
 6719SOL     OW31618   3.491   4.426   7.403 -0.0818 -0.3493  0.5714
 6719SOL    HW131619   3.492   4.350   7.461  2.3682  0.6832  1.8938
 6719SOL    HW231620   3.560   4.406   7.340 -1.1151 -0.4339 -0.5163
 6720SOL     OW31621   0.194   0.340   7.779 -0.4688 -0.2813  0.5511
 6720SOL    HW131622   0.183   0.261   7.726  0.0866  1.2378 -1.8134
 6720SOL    HW231623   0.173   0.398   7.706 -1.7641 -1.2785  0.1336
 6721SOL     OW31624   3.052   2.917   5.380 -0.1007  0.2814 -0.0876
 6721SOL    HW131625   3.004   2.956   5.454  1.0378  0.1667  0.7077
 6721SOL    HW231626   3.038   2.824   5.400  0.5244  0.2764  0.3375
 6722SOL     OW31627   0.487   0.062   6.675  0.3199  0.0864 -0.7152
 6722SOL    HW131628   0.548   0.005   6.722 -0.7754 -1.3020 -0.9760
 6722SOL    HW231629   0.537   0.070   6.593  1.2949 -1.0499 -0.2441
 6723SOL     OW31630   1.847   2.657   8.643 -0.1990  0.1697  1.0565
 6723SOL    HW131631   1.753   2.644   8.658 -0.2486 -2.0501 -1.0982
 6723SOL    HW231632   1.855   2.654   8.548 -0.5600 -0.6624  1.0450
 6724SOL     OW31633   4.185   2.519   5.554 -0.0247  0.1131 -0.1368
 6724SOL    HW131634   4.217   2.602   5.588  0.8332 -0.7038  1.0500
 6724SOL    HW231635   4.161   2.535   5.463  0.0099 -2.9651 -0.7164
 6725SOL     OW31636   2.793   0.740  10.636 -0.1416 -0.0555 -0.1119
 6725SOL    HW131637   2.736   0.746  10.560 -2.0983 -0.8590  1.2627
 6725SOL    HW231638   2.830   0.654  10.614  3.8541  1.9308 -0.9580
 6726SOL     OW31639   1.639   0.337   8.285 -0.5285 -0.1927  0.2584
 6726SOL    HW131640   1.599   0.257   8.318 -0.9749 -0.0367  0.0889
 6726SOL    HW231641   1.684   0.372   8.362 -0.7995  1.3929 -0.2983
 6727SOL     OW31642   4.573   2.914   2.547  0.1633  0.0640  0.7599
 6727SOL    HW131643   4.581   2.922   2.642 -0.3605  1.4881  0.6842
 6727SOL    HW231644   4.521   2.834   2.540 -2.0447  1.5627 -0.1588
 6728SOL     OW31645   3.666   1.139  16.063  0.0115 -0.4136 -0.1485
 6728SOL    HW131646   3.636   1.138  16.154 -1.0081  1.9956 -0.4533
 6728SOL    HW231647   3.616   1.211  16.024  0.4139  0.3614  0.7901
 6729SOL     OW31648   2.159   0.942  13.667  0.1741  0.1301 -0.1550
 6729SOL    HW131649   2.162   1.008  13.598  1.0853  2.8795  2.4664
 6729SOL    HW231650   2.190   1.006  13.732  2.5425 -0.8152 -0.3711
 6730SOL     OW31651   3.805   1.839   7.638 -0.0565  0.0095 -0.0330
 6730SOL    HW131652   3.724   1.841   7.586  0.3426  0.6604 -0.6287
 6730SOL    HW231653   3.804   1.925   7.680 -0.8950  0.7918 -1.6509
 6731SOL     OW31654   4.408   4.098   0.478 -0.3766 -0.7255  0.7444
 6731SOL    HW131655   4.349   4.140   0.540 -0.0847  0.8652 -0.0650
 6731SOL    HW231656   4.487   4.139   0.513  0.3183 -1.2346 -0.1975
 6732SOL     OW31657   1.031   0.948  11.234  0.0302  0.1734  0.3045
 6732SOL    HW131658   1.067   0.935  11.322  1.8767 -1.0224 -0.6155
 6732SOL    HW231659   1.004   1.039  11.233 -0.6504 -0.0097  1.7397
 6733SOL     OW31660   3.036   0.845   7.743 -0.1295  0.1043 -0.0199
 6733SOL    HW131661   3.026   0.893   7.825  2.7796  0.6763 -0.0003
 6733SOL    HW231662   3.126   0.870   7.721  0.2198 -1.1024  0.0363
 6734SOL     OW31663   2.492   1.342   5.593  0.0478 -0.0564 -0.6390
 6734SOL    HW131664   2.567   1.287   5.617  0.3337  0.1555 -1.0507
 6734SOL    HW231665   2.449   1.340   5.678 -0.7022 -1.0681 -1.0428
 6735SOL     OW31666   3.736   4.509   9.117  0.2997  0.2583 -0.2109
 6735SOL    HW131667   3.662   4.477   9.169  1.3348 -2.2297 -0.2532
 6735SOL    HW231668   3.795   4.434   9.119 -0.3314 -0.2230  0.7701
 6736SOL     OW31669   4.151   3.363   9.009 -0.0515 -0.8981 -0.1438
 6736SOL    HW131670   4.112   3.423   8.945  0.0703 -1.4328 -0.7095
 6736SOL    HW231671   4.198   3.420   9.071 -0.8533 -1.2713  0.8059
 6737SOL     OW31672   2.200   2.997   1.609 -0.3539  0.3549 -0.4029
 6737SOL    HW131673   2.257   3.007   1.533  1.8280  0.2699  1.2299
 6737SOL    HW231674   2.196   2.902   1.613 -1.4455  0.3853 -0.6038
 6738SOL     OW31675   1.083   1.122   7.163 -0.2385  0.0025  0.2609
 6738SOL    HW131676   1.121   1.207   7.140  0.7202 -0.3712  0.4622
 6738SOL    HW231677   1.148   1.086   7.223 -1.1665 -0.1665  1.1636
 6739SOL     OW31678   3.837   4.602   5.825 -0.0716 -0.4762  0.4298
 6739SOL    HW131679   3.762   4.657   5.801  0.7006  1.1285  1.6272
 6739SOL    HW231680   3.822   4.597   5.919 -1.5381 -1.4979  0.1423
 6740SOL     OW31681   4.098   4.090  10.568  0.1368 -0.2692  0.1335
 6740SOL    HW131682   4.116   3.997  10.558 -0.3807 -0.1149 -2.2065
 6740SOL    HW231683   4.006   4.086  10.545  0.3491 -0.4242 -0.6791
 6741SOL     OW31684   0.541   2.231   5.132  0.3463  0.0270  0.2487
 6741SOL    HW131685   0.524   2.137   5.142 -1.0141  0.2628  0.1709
 6741SOL    HW231686   0.630   2.252   5.161  0.7807 -0.5351 -0.6794
 6742SOL     OW31687   0.364   0.946  11.211  0.0106  0.5228 -0.4428
 6742SOL    HW131688   0.328   0.989  11.288  1.0306 -0.2452  0.4672
 6742SOL    HW231689   0.427   0.882  11.244  1.0033  0.8846 -1.6182
 6743SOL     OW31690   3.161   2.753  15.172  0.8255  0.1906 -0.0922
 6743SOL    HW131691   3.200   2.763  15.259 -1.6148  0.5742  0.9518
 6743SOL    HW231692   3.228   2.708  15.121  1.8595  0.6158  0.8851
 6744SOL     OW31693   0.002   1.181   2.459 -0.1776 -0.3838 -0.0471
 6744SOL    HW131694   4.720   1.131   2.540 -0.8888  0.2056  0.2579
 6744SOL    HW231695   0.096   1.174   2.443  0.0395  2.2719  0.0865
 6745SOL     OW31696   0.178   1.158   9.925 -0.1885 -0.3586 -0.0266
 6745SOL    HW131697   0.088   1.160   9.958  0.4764  1.4075  1.7069
 6745SOL    HW231698   0.196   1.252   9.915  1.5318 -0.9656 -2.3979
 6746SOL     OW31699   1.709   3.469  10.937 -0.2134 -0.6838 -0.3004
 6746SOL    HW131700   1.621   3.491  10.905  0.6460  0.2711 -1.9933
 6746SOL    HW231701   1.763   3.465  10.858  1.1141 -1.5559  0.6534
 6747SOL     OW31702   1.680   2.285  12.245 -0.9457 -0.2934 -0.1787
 6747SOL    HW131703   1.663   2.366  12.196  2.6190  0.4048 -0.2970
 6747SOL    HW231704   1.593   2.250  12.261 -0.7172 -0.2030  1.2980
 6748SOL     OW31705   3.488   1.785   9.323  0.5530  0.5145 -0.2475
 6748SOL    HW131706   3.424   1.853   9.302 -0.2846 -0.3786 -0.5788
 6748SOL    HW231707   3.572   1.824   9.297  0.8768 -0.2628 -0.3890
 6749SOL     OW31708   4.511   1.791   6.377 -0.0006 -0.0505  0.1046
 6749SOL    HW131709   4.440   1.729   6.393 -0.9835  0.2970 -2.8366
 6749SOL    HW231710   4.460   1.872   6.370 -0.7307 -0.4450  0.8351
 6750SOL     OW31711   3.313   4.434  13.932  0.4451 -0.2650  0.0942
 6750SOL    HW131712   3.378   4.494  13.969 -0.4326  1.6589 -1.5063
 6750SOL    HW231713   3.352   4.352  13.902  1.3828 -0.4008  1.6763
 6751SOL     OW31714   3.928   1.609   8.612  0.4056  0.2580  0.5220
 6751SOL    HW131715   3.946   1.668   8.539 -0.5395 -1.5576 -1.1847
 6751SOL    HW231716   3.852   1.562   8.577  0.2780 -0.2931  1.5359
 6752SOL     OW31717   2.384   4.033  10.861 -0.3050 -0.2185 -0.1948
 6752SOL    HW131718   2.367   4.125  10.878 -0.6131 -0.1984 -0.6011
 6752SOL    HW231719   2.296   4.005  10.836 -0.7315  0.6903  0.3022
 6753SOL     OW31720   2.069   2.607  15.380 -0.1638 -0.6378  0.3855
 6753SOL    HW131721   2.093   2.647  15.464 -0.7631  1.0873 -0.2685
 6753SOL    HW231722   2.051   2.683  15.325  2.1249 -0.2260  0.2069
 6754SOL     OW31723   4.192   0.670   7.177 -0.3655  0.2309  0.4344
 6754SOL    HW131724   4.209   0.737   7.111  0.4372 -2.8613 -2.5017
 6754SOL    HW231725   4.121   0.622   7.135  0.7060  0.7423 -1.9733
 6755SOL     OW31726   0.979   3.335   2.434  0.4804 -0.0453 -0.1366
 6755SOL    HW131727   1.031   3.414   2.417  0.0592  0.5179  1.2044
 6755SOL    HW231728   1.018   3.293   2.510  1.9008 -0.7259 -1.2206
 6756SOL     OW31729   3.530   2.437   8.751  0.0867 -0.4786  0.3752
 6756SOL    HW131730   3.619   2.427   8.784 -0.0547  0.9701  1.1622
 6756SOL    HW231731   3.540   2.501   8.681 -1.8732  2.0458  2.4231
 6757SOL     OW31732   3.693   0.247   1.716 -0.5443 -0.1968  0.5466
 6757SOL    HW131733   3.614   0.299   1.703  0.1266  1.1926  1.9289
 6757SOL    HW231734   3.722   0.261   1.806  1.4007 -0.7647 -0.0050
 6758SOL     OW31735   0.413   3.146   6.782 -0.5220  0.0477 -0.3752
 6758SOL    HW131736   0.364   3.064   6.789 -1.0784  0.3157 -1.0943
 6758SOL    HW231737   0.338   3.199   6.754  1.4604  2.8708 -0.3870
 6759SOL     OW31738   2.776   3.377   3.711 -0.6469  0.3069  0.4943
 6759SOL    HW131739   2.711   3.307   3.713 -1.5155  1.0509 -1.5492
 6759SOL    HW231740   2.858   3.337   3.681 -1.0176 -0.6164  0.7119
 6760SOL     OW31741   0.161   0.340   3.414  0.7921 -0.6061 -0.2719
 6760SOL    HW131742   0.094   0.370   3.352 -1.2252 -0.6651  1.8816
 6760SOL    HW231743   0.121   0.262   3.454 -0.0509 -0.8384 -1.5449
 6761SOL     OW31744   3.882   4.666  15.172 -0.1658  0.1781 -0.2200
 6761SOL    HW131745   3.819   4.685  15.103 -0.6365  0.4109  0.2791
 6761SOL    HW231746   3.838   4.713  15.242  2.4854  0.3563  1.3434
 6762SOL     OW31747   2.846   3.267  16.307  1.0061 -0.0171  0.5118
 6762SOL    HW131748   2.871   3.175  16.314  2.2178  0.1536 -1.6346
 6762SOL    HW231749   2.769   3.284  16.362  0.4368 -0.9967  0.0178
 6763SOL     OW31750   2.539   1.179   6.761  0.3063  0.4140 -0.4384
 6763SOL    HW131751   2.495   1.226   6.690 -2.8008  0.1840  1.3015
 6763SOL    HW231752   2.505   1.090   6.751 -1.2373  1.0016 -0.4034
 6764SOL     OW31753   2.193   3.710   7.004  0.2375  0.3367 -0.9603
 6764SOL    HW131754   2.266   3.767   6.979  0.2862  2.0046  2.8722
 6764SOL    HW231755   2.124   3.727   6.940  0.4359  1.7776 -0.7929
 6765SOL     OW31756   1.689   4.666   8.914  0.2025 -0.3525  0.5644
 6765SOL    HW131757   1.623   0.008   8.932  1.2685  0.9037 -0.1720
 6765SOL    HW231758   1.669   4.594   8.973  1.6645 -0.4150  0.9786
 6766SOL     OW31759   0.223   4.019   3.489  0.9015  0.1317  0.4505
 6766SOL    HW131760   0.200   4.049   3.576  0.3944  0.8297  0.0748
 6766SOL    HW231761   0.243   3.927   3.503 -0.4507 -0.2029  0.2331
 6767SOL     OW31762   0.504   1.336   2.717  0.0923 -0.1002  0.1380
 6767SOL    HW131763   0.545   1.361   2.799 -0.3005 -3.3636  1.3531
 6767SOL    HW231764   0.522   1.242   2.727  3.0973  0.4366 -0.0961
 6768SOL     OW31765   2.569   3.658   1.603  0.0439  0.0135 -0.6982
 6768SOL    HW131766   2.642   3.701   1.557  0.0935  0.9210  0.2263
 6768SOL    HW231767   2.589   3.689   1.692 -0.1015  0.0355 -0.6741
 6769SOL     OW31768   1.660   2.818   9.015  0.0547 -0.6553 -0.4941
 6769SOL    HW131769   1.730   2.846   8.956 -0.0349  0.4116 -0.0828
 6769SOL    HW231770   1.629   2.901   9.051  0.9741 -0.7659  0.5336
 6770SOL     OW31771   1.257   2.052   3.981 -0.0504 -0.0392 -0.9445
 6770SOL    HW131772   1.338   2.054   3.929  1.1102 -0.6098  0.8434
 6770SOL    HW231773   1.269   2.143   4.008  0.3572  0.3320 -2.3365
 6771SOL     OW31774   0.399   0.302  16.663 -0.0053 -0.0354 -0.2307
 6771SOL    HW131775   0.306   0.320  16.656 -0.0122  0.8647  2.2152
 6771SOL    HW231776   0.408   0.214  16.700  0.6984  0.0529 -0.1760
 6772SOL     OW31777   0.506   2.796  15.238  0.1086 -0.2512 -0.7721
 6772SOL    HW131778   0.428   2.789  15.292  0.7873 -0.6120  0.1580
 6772SOL    HW231779   0.556   2.867  15.279 -0.2459 -0.3498 -0.1730
 6773SOL     OW31780   3.508   1.521   8.123  0.0557  0.2095  0.1170
 6773SOL    HW131781   3.448   1.447   8.114  1.2895 -0.6763 -0.5890
 6773SOL    HW231782   3.546   1.524   8.036 -3.1621 -2.6408 -1.3670
 6774SOL     OW31783   0.746   0.071  17.418 -0.2589  0.2649  0.6976
 6774SOL    HW131784   0.755   0.161  17.388 -0.5584 -0.0584 -0.3858
 6774SOL    HW231785   0.717   0.093  17.506  1.6246 -3.3707  2.2097
 6775SOL     OW31786   0.167   4.600   4.859 -0.2958 -0.1729 -0.0080
 6775SOL    HW131787   0.166   4.515   4.902  4.1206  0.1016  0.6057
 6775SOL    HW231788   0.141   4.577   4.770 -0.5169  4.8194 -1.2147
 6776SOL     OW31789   0.628   3.453  11.879 -0.5652  0.0193  0.8222
 6776SOL    HW131790   0.564   3.410  11.936 -0.2907 -1.9049 -0.3171
 6776SOL    HW231791   0.609   3.404  11.799 -0.7279  0.3611  0.6478
 6777SOL     OW31792   2.397   3.729  11.479  0.2988 -0.4216 -0.1965
 6777SOL    HW131793   2.400   3.685  11.394 -2.8157  0.9676 -1.0153
 6777SOL    HW231794   2.311   3.770  11.473 -0.5870 -2.1383  0.6579
 6778SOL     OW31795   1.922   2.993   2.600  0.5549  0.2972  0.0336
 6778SOL    HW131796   1.877   2.929   2.656  2.5566 -1.1549 -0.0279
 6778SOL    HW231797   1.961   2.926   2.544 -1.8163 -0.3745 -0.8341
 6779SOL     OW31798   0.945   0.113   8.164  0.4858  0.3192 -0.1478
 6779SOL    HW131799   0.917   0.171   8.235  1.5289  1.2482 -0.4861
 6779SOL    HW231800   1.016   0.166   8.127 -1.0577  2.2430 -0.3596
 6780SOL     OW31801   3.179   4.095   4.065 -0.0124 -0.2458  0.2610
 6780SOL    HW131802   3.092   4.062   4.043 -0.5969  1.0997  0.5881
 6780SOL    HW231803   3.159   4.149   4.141 -0.6085  0.4757 -0.4177
 6781SOL     OW31804   1.645   0.267   1.561 -0.0071  0.2701  0.6779
 6781SOL    HW131805   1.617   0.234   1.476  1.8447  1.0076 -0.2150
 6781SOL    HW231806   1.740   0.256   1.559 -0.0644 -0.2009  0.6483
 6782SOL     OW31807   4.022   0.995   7.192  0.4438 -0.0178 -0.7159
 6782SOL    HW131808   3.982   0.909   7.185  1.5288 -0.6165  0.5892
 6782SOL    HW231809   4.117   0.993   7.177  0.4572 -1.4578 -0.3629
 6783SOL     OW31810   4.702   3.779   6.858  0.3467 -0.0286  0.4066
 6783SOL    HW131811   4.724   3.853   6.801  0.7318  1.4558  2.4700
 6783SOL    HW231812   0.059   3.729   6.855 -0.5945 -1.4699 -2.1028
 6784SOL     OW31813   3.648   3.685   3.371  0.5963 -0.1324  0.0500
 6784SOL    HW131814   3.591   3.626   3.421 -0.7814  1.7782  0.7311
 6784SOL    HW231815   3.633   3.661   3.280 -0.4402 -0.1840  0.2322
 6785SOL     OW31816   3.479   0.712   4.672  0.0482  0.0030  0.2389
 6785SOL    HW131817   3.534   0.710   4.593  0.5534 -1.2511  0.6262
 6785SOL    HW231818   3.538   0.688   4.744  2.2451 -2.0758 -2.2268
 6786SOL     OW31819   2.460   1.391   8.030  0.2722  0.1153 -0.3068
 6786SOL    HW131820   2.431   1.304   8.004 -0.1421  0.6113 -1.5043
 6786SOL    HW231821   2.468   1.380   8.125  1.4452  1.4624 -0.2497
 6787SOL     OW31822   1.926   2.878   8.019  0.4560 -0.5226 -0.0263
 6787SOL    HW131823   1.876   2.877   8.100 -0.1466 -1.1444 -0.4023
 6787SOL    HW231824   1.855   2.861   7.957 -0.9057 -0.3472  1.4841
 6788SOL     OW31825   4.119   3.176  16.036  0.3608 -0.2165  0.1835
 6788SOL    HW131826   4.027   3.153  16.051 -0.2090  0.4796 -2.3402
 6788SOL    HW231827   4.151   3.104  16.091  0.7822  0.3625  0.7006
 6789SOL     OW31828   3.290   2.101   6.192 -0.1119  0.0147  0.0311
 6789SOL    HW131829   3.373   2.144   6.168  1.2698 -2.1659  0.8777
 6789SOL    HW231830   3.225   2.159   6.153  0.7927  1.8065  1.1841
 6790SOL     OW31831   2.673   1.003   4.155 -0.2682  0.0796  0.1437
 6790SOL    HW131832   2.627   0.978   4.234  0.6395 -2.5771 -0.1590
 6790SOL    HW231833   2.594   1.017   4.102 -1.1510 -1.4917  1.0541
 6791SOL     OW31834   4.500   1.747  10.067  0.3823 -0.3126  0.3201
 6791SOL    HW131835   4.532   1.809  10.132  0.0635 -0.5641  0.7129
 6791SOL    HW231836   4.463   1.681  10.126  1.3335 -1.3494 -0.2467
 6792SOL     OW31837   2.760   1.784   0.601 -0.3708 -0.4819  0.3417
 6792SOL    HW131838   2.851   1.808   0.614  0.2739 -2.1677 -1.0516
 6792SOL    HW231839   2.766   1.689   0.593 -2.5067 -0.6718  1.0498
 6793SOL     OW31840   3.223   2.856   8.506 -0.0199  0.1669  0.1736
 6793SOL    HW131841   3.280   2.825   8.436 -1.5179  0.5758 -1.2189
 6793SOL    HW231842   3.199   2.943   8.475  0.7193  0.5627  0.7006
 6794SOL     OW31843   3.854   0.730   7.104  0.3240  0.3282  0.4475
 6794SOL    HW131844   3.907   0.657   7.072 -0.8737 -1.7215  3.0220
 6794SOL    HW231845   3.806   0.693   7.179 -1.4111 -0.1055 -0.8715
 6795SOL     OW31846   2.169   4.712   0.951  0.2301 -0.0098 -0.0944
 6795SOL    HW131847   2.248   0.029   0.985  0.8948  0.3117 -1.9917
 6795SOL    HW231848   2.178   4.717   0.855 -1.2766  0.7415 -0.1826
 6796SOL     OW31849   1.811   2.305   9.054  0.2688  0.4387  0.0811
 6796SOL    HW131850   1.800   2.394   9.089  1.2735  0.6375 -0.1132
 6796SOL    HW231851   1.885   2.275   9.107  1.6382  1.6330 -1.1807
 6797SOL     OW31852   0.952   4.361   2.156 -0.1274  0.3492  0.0761
 6797SOL    HW131853   0.950   4.384   2.064 -0.4612  1.1411  0.2821
 6797SOL    HW231854   0.908   4.440   2.188 -0.9492  0.7590 -2.1030
 6798SOL     OW31855   1.977   3.396  12.582 -0.1468  0.0343  0.5712
 6798SOL    HW131856   1.906   3.376  12.522  0.8613  0.3802 -0.7224
 6798SOL    HW231857   2.045   3.334  12.555  0.0174  0.0735  0.8891
 6799SOL     OW31858   0.542   3.874   8.060 -0.2675 -0.1167 -0.3003
 6799SOL    HW131859   0.599   3.949   8.046 -0.7446  0.0934 -1.1298
 6799SOL    HW231860   0.502   3.883   8.146  2.2810  2.5935  0.5959
 6800SOL     OW31861   1.474   0.171   4.597  0.3809 -0.0315  0.6522
 6800SOL    HW131862   1.405   0.225   4.559  1.1801  1.0825  0.7884
 6800SOL    HW231863   1.429   0.151   4.679 -0.3862  0.7745  0.4299
 6801SOL     OW31864   2.274   3.950   1.826 -0.0766  0.3956 -0.0202
 6801SOL    HW131865   2.210   4.005   1.870 -1.1984  0.3707 -1.5944
 6801SOL    HW231866   2.247   3.865   1.861 -0.1395  0.4124 -0.0282
 6802SOL     OW31867   4.560   0.974   7.937 -0.1475 -0.1281  0.4643
 6802SOL    HW131868   4.597   0.907   7.880  3.1934  3.9473 -2.1373
 6802SOL    HW231869   4.477   0.936   7.967 -0.3567 -0.8385 -1.0154
 6803SOL     OW31870   4.671   3.358   2.874 -0.1309  0.0138  0.1796
 6803SOL    HW131871   4.627   3.327   2.795  1.5893 -0.8999 -0.4055
 6803SOL    HW231872   4.697   3.447   2.855  1.1827 -0.0056  1.8562
 6804SOL     OW31873   1.508   1.655   7.786 -0.1739 -0.8576 -0.1505
 6804SOL    HW131874   1.578   1.592   7.796  0.2575 -0.4887 -0.8710
 6804SOL    HW231875   1.511   1.680   7.694  1.4087  0.0588  0.1560
 6805SOL     OW31876   3.963   4.683  13.498 -0.2110 -0.2199  0.6543
 6805SOL    HW131877   3.963   0.049  13.468 -0.1345 -1.0352 -1.7865
 6805SOL    HW231878   3.897   4.679  13.568  0.9077 -3.1433  1.5146
 6806SOL     OW31879   4.304   0.412   4.874  0.4089  0.5360 -0.2164
 6806SOL    HW131880   4.268   0.389   4.960 -0.6662 -0.4750 -0.9337
 6806SOL    HW231881   4.328   0.331   4.830 -0.8897  0.5225 -0.8958
 6807SOL     OW31882   2.044   1.121   1.676  0.1843  0.0910  0.4250
 6807SOL    HW131883   2.088   1.178   1.612 -1.0442 -0.0673 -0.5728
 6807SOL    HW231884   2.103   1.046   1.679 -0.3770 -0.4285 -1.0377
 6808SOL     OW31885   3.719   4.302  10.572  0.1768 -0.3875  0.3096
 6808SOL    HW131886   3.739   4.293  10.479 -1.2097 -2.5589  0.2256
 6808SOL    HW231887   3.757   4.389  10.584 -0.3712 -0.1473  0.3115
 6809SOL     OW31888   3.463   3.782   2.882 -0.2131 -0.4046  0.2430
 6809SOL    HW131889   3.385   3.837   2.894  0.7224  0.6228  1.5613
 6809SOL    HW231890   3.536   3.842   2.892  0.3029 -0.9934  0.0060
 6810SOL     OW31891   3.279   4.705  10.044 -0.1242 -0.2969  0.1118
 6810SOL    HW131892   3.227   0.045   9.998  0.4579  2.1063  2.8212
 6810SOL    HW231893   3.276   0.010  10.135  0.1059  0.9469 -0.2823
 6811SOL     OW31894   1.560   3.886   2.805 -0.7450  0.0531 -0.3449
 6811SOL    HW131895   1.534   3.977   2.820 -0.0959 -0.2237  2.3975
 6811SOL    HW231896   1.653   3.895   2.826 -0.7401 -0.3187 -0.2108
 6812SOL     OW31897   2.758   3.729   5.747 -0.0701 -0.7957 -0.2025
 6812SOL    HW131898   2.708   3.803   5.781 -0.5979 -0.9343 -0.6745
 6812SOL    HW231899   2.790   3.689   5.828  1.5857  0.4173 -0.2533
 6813SOL     OW31900   3.371   4.129   7.179  0.0733 -0.2327  0.4860
 6813SOL    HW131901   3.419   4.056   7.139  0.7823  0.3414  0.2905
 6813SOL    HW231902   3.423   4.194   7.133  1.8668  0.3834  3.3813
 6814SOL     OW31903   2.250   4.418   4.271  0.1196  1.0296 -0.5903
 6814SOL    HW131904   2.200   4.377   4.341 -0.0225  0.1049 -1.2254
 6814SOL    HW231905   2.334   4.432   4.313 -0.2626  2.0936 -0.1742
 6815SOL     OW31906   4.035   2.217   3.834 -0.2461 -0.2968  0.6602
 6815SOL    HW131907   4.035   2.185   3.925 -1.4324 -1.5607  0.2040
 6815SOL    HW231908   4.110   2.169   3.799 -0.2312 -0.4475  0.8916
 6816SOL     OW31909   2.272   4.529   5.219  0.2548 -0.0114  0.2849
 6816SOL    HW131910   2.293   4.573   5.136 -0.4377  0.9344  0.6187
 6816SOL    HW231911   2.186   4.490   5.201  0.3514  0.4825 -1.2571
 6817SOL     OW31912   3.532   2.040  13.092  0.2836  0.4063  0.0104
 6817SOL    HW131913   3.592   2.115  13.083 -0.3665  1.0026  0.6972
 6817SOL    HW231914   3.552   2.017  13.182  0.8686  0.3503 -0.1333
 6818SOL     OW31915   2.422   4.385  16.799  0.3857 -0.6900 -0.1938
 6818SOL    HW131916   2.495   4.446  16.789 -0.3547  0.5279  2.0374
 6818SOL    HW231917   2.428   4.348  16.887 -1.3226 -1.2359 -0.3126
 6819SOL     OW31918   3.476   0.827   9.129  0.2313  0.1208 -0.0492
 6819SOL    HW131919   3.405   0.877   9.089  0.8783  0.1107 -1.1958
 6819SOL    HW231920   3.463   0.845   9.222 -1.7242 -0.4136 -0.2268
 6820SOL     OW31921   4.571   1.926  11.000  0.4729  0.1872  0.0669
 6820SOL    HW131922   4.580   2.010  11.044  0.6852 -1.5042  3.2283
 6820SOL    HW231923   4.477   1.933  10.979  0.2572  0.2971  1.0798
 6821SOL     OW31924   4.584   3.695   2.691  0.7142 -0.3315 -0.2236
 6821SOL    HW131925   4.597   3.719   2.599  0.5228 -2.5683 -0.8509
 6821SOL    HW231926   4.493   3.663   2.693  0.2108  1.1504  0.1585
 6822SOL     OW31927   3.251   4.490   7.632 -0.2328 -0.2453 -0.6758
 6822SOL    HW131928   3.312   4.429   7.591 -1.1585 -0.4336 -1.7590
 6822SOL    HW231929   3.291   4.500   7.718 -0.7469 -1.7643 -0.2516
 6823SOL     OW31930   0.212   2.503   1.234 -0.3443  0.4853  0.8156
 6823SOL    HW131931   0.193   2.592   1.205 -3.2949  0.7610  3.4548
 6823SOL    HW231932   0.237   2.503   1.327  2.5363  2.8677  0.0407
 6824SOL     OW31933   2.930   3.716   7.665  0.1020 -0.2320  0.1391
 6824SOL    HW131934   2.912   3.635   7.618 -3.5130  1.1598 -0.9327
 6824SOL    HW231935   3.022   3.707   7.689  0.1993  0.8107  0.1569
 6825SOL     OW31936   1.272   2.829   6.407  0.1192 -0.2317  0.0117
 6825SOL    HW131937   1.252   2.849   6.498 -0.7742  0.4436 -0.3372
 6825SOL    HW231938   1.252   2.913   6.366  1.3155  0.1314  0.1541
 6826SOL     OW31939   2.827   0.970   2.840  0.0186 -0.1240 -0.1093
 6826SOL    HW131940   2.848   0.942   2.751  0.9342  0.5001 -0.0830
 6826SOL    HW231941   2.806   0.883   2.873  1.5516 -0.4645 -0.0479
 6827SOL     OW31942   4.640   1.761   6.140  0.4464  0.0815 -0.0869
 6827SOL    HW131943   4.717   1.707   6.160 -0.5869 -1.1667  0.5877
 6827SOL    HW231944   4.604   1.776   6.227  0.2823  0.0658 -0.1506
 6828SOL     OW31945   1.938   3.182   6.684  0.3637  0.3351 -0.0148
 6828SOL    HW131946   1.958   3.095   6.717  0.9672  1.1098  1.6437
 6828SOL    HW231947   1.843   3.172   6.672  0.2626  0.7783  0.4057
 6829SOL     OW31948   4.696   3.184   4.512 -0.1515  0.0742 -0.5220
 6829SOL    HW131949   4.630   3.215   4.574 -1.1071 -1.4008 -0.7826
 6829SOL    HW231950   0.036   3.244   4.547 -0.5094  0.1776 -0.0400
 6830SOL     OW31951   4.003   2.662   1.834  0.1117  0.2565  0.3050
 6830SOL    HW131952   3.955   2.719   1.895 -0.1482 -0.4314  0.7413
 6830SOL    HW231953   3.931   2.611   1.796 -0.5402  1.0142  0.5231
 6831SOL     OW31954   4.171   0.423  14.946  0.1079 -0.1774 -0.4787
 6831SOL    HW131955   4.140   0.513  14.936  1.5390  0.3541 -0.0958
 6831SOL    HW231956   4.089   0.373  14.939  1.6724 -2.9857  0.7573
 6832SOL     OW31957   3.477   2.866   9.961  0.1760  0.6943  0.4153
 6832SOL    HW131958   3.423   2.900   9.889 -1.8673 -0.0734  1.5730
 6832SOL    HW231959   3.484   2.771   9.951 -1.5726  0.9299 -3.0924
 6833SOL     OW31960   1.031   0.493   9.995 -0.0069  0.0038 -0.3408
 6833SOL    HW131961   1.011   0.517   9.905  0.5929  1.3190 -0.1192
 6833SOL    HW231962   1.095   0.424   9.977 -1.2342 -1.6396  1.5111
 6834SOL     OW31963   0.056   2.321   7.447  0.1375 -0.3756  0.2877
 6834SOL    HW131964   0.077   2.375   7.523  0.5011  0.7255 -0.5852
 6834SOL    HW231965   0.103   2.243   7.475  0.2103  0.5765  2.7838
 6835SOL     OW31966   4.143   3.509   6.042  0.7442 -0.4460 -0.4831
 6835SOL    HW131967   4.107   3.597   6.058  0.1869 -0.3103 -2.4225
 6835SOL    HW231968   4.055   3.474   6.058  0.9402  0.2548  2.1054
 6836SOL     OW31969   4.019   1.716  10.753 -0.1062 -0.0436  0.1026
 6836SOL    HW131970   3.977   1.630  10.748  2.8668 -1.4761 -0.4410
 6836SOL    HW231971   3.982   1.763  10.679  1.1311  0.3029 -0.2973
 6837SOL     OW31972   1.217   4.326  13.808 -0.0313 -0.5429  0.3488
 6837SOL    HW131973   1.148   4.263  13.827 -0.1992 -0.5142 -0.1592
 6837SOL    HW231974   1.208   4.397  13.871  0.0138 -0.7369  0.5716
 6838SOL     OW31975   3.343   0.681   6.829 -0.1602  0.3419  0.0167
 6838SOL    HW131976   3.305   0.730   6.903  0.2649 -2.1084  1.8592
 6838SOL    HW231977   3.305   0.596   6.851 -0.1413 -0.3020 -2.5240
 6839SOL     OW31978   3.718   4.343  13.330 -0.3644  0.2691 -0.3681
 6839SOL    HW131979   3.651   4.351  13.398  0.2140 -1.4775  0.4081
 6839SOL    HW231980   3.783   4.305  13.390 -0.0283  2.2078  0.5256
 6840SOL     OW31981   2.554   2.926  12.914 -0.4635 -0.0915 -0.2834
 6840SOL    HW131982   2.536   2.930  13.008  0.0168  0.3942 -0.2153
 6840SOL    HW231983   2.545   3.018  12.892 -0.6534  0.8163  3.6080
 6841SOL     OW31984   2.213   1.332   5.927  0.2330 -0.2198  0.3871
 6841SOL    HW131985   2.302   1.366   5.919 -0.3970  2.0469  3.1782
 6841SOL    HW231986   2.226   1.255   5.872 -1.4100 -0.1151 -0.1615
 6842SOL     OW31987   2.101   2.411   4.653  0.2120 -0.0743  0.1629
 6842SOL    HW131988   2.140   2.325   4.663 -0.4077 -0.6334 -2.2627
 6842SOL    HW231989   2.032   2.411   4.720 -0.4444 -0.6424 -0.5143
 6843SOL     OW31990   2.018   3.987   5.384 -0.5284  0.2126  0.2362
 6843SOL    HW131991   2.109   3.959   5.392 -0.0681  1.5050 -0.4887
 6843SOL    HW231992   2.019   4.067   5.332  1.9424  0.5965  0.9062
 6844SOL     OW31993   4.529   2.338   0.073 -0.1468  0.1831 -0.5361
 6844SOL    HW131994   4.485   2.364   0.154 -2.2443 -3.2799 -0.5714
 6844SOL    HW231995   4.612   2.385   0.085  0.4863 -1.7042  2.3667
 6845SOL     OW31996   0.655   2.932   2.900 -0.1152 -0.3516 -0.0052
 6845SOL    HW131997   0.724   2.879   2.859 -1.4822 -0.9781 -1.4918
 6845SOL    HW231998   0.597   2.861   2.930  1.1975 -1.3821  0.1115
 6846SOL     OW31999   3.795   1.774   9.041  0.9482 -0.2352 -0.0318
 6846SOL    HW132000   3.867   1.836   9.047  0.2379  1.0074 -4.5715
 6846SOL    HW232001   3.781   1.758   8.948 -1.5839 -2.1149  0.6430
 6847SOL     OW32002   1.550   3.932   8.507 -0.0768 -0.0529  0.5162
 6847SOL    HW132003   1.637   3.922   8.545  0.5259  1.3174 -0.5420
 6847SOL    HW232004   1.558   4.019   8.469 -0.5607  0.0446  0.6392
 6848SOL     OW32005   1.977   3.227   5.883  0.2211 -0.6176 -0.3665
 6848SOL    HW132006   2.029   3.152   5.913 -1.3363 -1.9979 -1.0672
 6848SOL    HW232007   2.013   3.297   5.937 -1.2172  1.0719 -1.5848
 6849SOL     OW32008   1.976   4.645   4.306  0.1268 -0.0759  0.0219
 6849SOL    HW132009   1.882   4.633   4.293  0.3362 -1.3219 -0.3307
 6849SOL    HW232010   1.998   4.559   4.341 -0.5643 -0.8145 -1.3436
 6850SOL     OW32011   3.341   3.009  13.747 -0.1570  0.1698 -0.0954
 6850SOL    HW132012   3.325   3.094  13.786  0.8439 -0.1199  0.9652
 6850SOL    HW232013   3.276   3.018  13.678 -1.7208  0.1963  1.4067
 6851SOL     OW32014   4.626   0.545   7.521 -0.2714  0.6774  0.2604
 6851SOL    HW132015   4.541   0.589   7.529 -0.4037 -0.0180  2.6577
 6851SOL    HW232016   4.621   0.481   7.592  1.0711  1.7148  1.2790
 6852SOL     OW32017   4.362   0.321  14.669 -0.1859 -0.4902  0.3793
 6852SOL    HW132018   4.295   0.259  14.700 -0.3537  0.5782  2.1690
 6852SOL    HW232019   4.428   0.304  14.737  1.3775  0.2370 -0.9779
 6853SOL     OW32020   1.018   1.980  13.336 -0.4160  0.4204  0.8477
 6853SOL    HW132021   1.017   1.886  13.321 -1.5383  0.8930 -2.0514
 6853SOL    HW232022   1.036   1.978  13.430  0.4812 -2.8879  0.5932
 6854SOL     OW32023   2.808   2.849   4.310 -0.2456 -0.1270 -0.5007
 6854SOL    HW132024   2.815   2.758   4.281  0.4121 -0.2121 -0.0793
 6854SOL    HW232025   2.731   2.884   4.265  0.1858  1.3707 -0.0769
 6855SOL     OW32026   4.428   3.524   6.756 -0.4860 -0.2147  0.0429
 6855SOL    HW132027   4.409   3.450   6.814  0.0554  0.5824  1.2445
 6855SOL    HW232028   4.368   3.508   6.684  0.4528 -3.0434 -0.1066
 6856SOL     OW32029   0.990   2.183  16.973  0.1193 -0.5749  0.8330
 6856SOL    HW132030   0.937   2.104  16.979 -0.5525 -0.3013 -1.3560
 6856SOL    HW232031   1.066   2.153  16.923 -0.9469 -0.1320 -1.0636
 6857SOL     OW32032   3.902   2.794   5.800  0.0330  0.0225  0.0236
 6857SOL    HW132033   3.975   2.733   5.791 -0.5277 -0.3376 -2.0447
 6857SOL    HW232034   3.871   2.789   5.891 -0.5177 -1.7998 -0.2639
 6858SOL     OW32035   3.014   2.746  12.268 -0.7152  0.0286 -0.1974
 6858SOL    HW132036   2.990   2.800  12.343 -2.5655  0.7923 -1.3296
 6858SOL    HW232037   3.038   2.664  12.312  1.9822  0.8942 -0.0730
 6859SOL     OW32038   4.472   3.754   4.420 -0.1330 -0.3062 -0.1886
 6859SOL    HW132039   4.501   3.844   4.434 -0.4269 -0.2389 -0.0159
 6859SOL    HW232040   4.393   3.768   4.367  0.0734 -1.9164 -0.9271
 6860SOL     OW32041   4.623   2.478   0.939  0.5350  0.2087  0.1731
 6860SOL    HW132042   4.616   2.392   0.898  0.4207  1.0057 -1.4870
 6860SOL    HW232043   4.576   2.532   0.876 -1.1364 -1.0185  0.3666
 6861SOL     OW32044   3.903   3.260   9.282  0.6262 -0.2634  0.2078
 6861SOL    HW132045   3.836   3.307   9.332  0.4073  0.7255 -1.0327
 6861SOL    HW232046   3.857   3.210   9.215 -0.2925  0.4357  0.3107
 6862SOL     OW32047   0.624   2.372   5.877  0.4183  0.4828 -0.1259
 6862SOL    HW132048   0.640   2.352   5.969  2.3292  2.0961 -0.1073
 6862SOL    HW232049   0.658   2.461   5.871  1.7687  0.0187  0.4923
 6863SOL     OW32050   0.789   1.423   4.620 -0.5124 -0.1200 -0.2233
 6863SOL    HW132051   0.844   1.454   4.548 -0.7963  1.0922  0.0773
 6863SOL    HW232052   0.792   1.328   4.609  1.0474 -0.2795  1.5294
 6864SOL     OW32053   3.946   0.265   7.063  0.0067 -0.2428 -0.6006
 6864SOL    HW132054   4.005   0.296   7.131  0.1021  1.1257 -1.3264
 6864SOL    HW232055   4.013   0.222   7.009  1.0603  0.4659  0.1544
 6865SOL     OW32056   3.666   1.942  10.952  0.4194 -0.5848 -0.0891
 6865SOL    HW132057   3.671   1.851  10.925  0.0571 -0.2939 -1.1441
 6865SOL    HW232058   3.696   1.990  10.875  1.8980 -1.1232  0.1429
 6866SOL     OW32059   1.009   4.052   4.719 -0.3746  0.0753 -0.1117
 6866SOL    HW132060   1.045   4.000   4.791 -0.9619  0.6720  0.6227
 6866SOL    HW232061   1.089   4.093   4.687  0.2810 -0.1779  1.1765
 6867SOL     OW32062   0.112   1.064   8.100 -0.2974 -0.0366 -0.1370
 6867SOL    HW132063   0.024   1.071   8.137 -1.6937  0.1868 -3.5575
 6867SOL    HW232064   0.134   0.971   8.109 -0.0894 -0.1010 -1.3331
 6868SOL     OW32065   2.427   3.840   6.928 -0.1907  0.0596  0.2741
 6868SOL    HW132066   2.495   3.839   6.996 -0.8543 -2.5074  0.9148
 6868SOL    HW232067   2.474   3.870   6.851 -0.9332  1.6701  0.4457
 6869SOL     OW32068   4.477   0.083   1.981 -0.0442 -0.2608 -0.0116
 6869SOL    HW132069   4.405   0.056   1.923 -0.9726  1.7728  0.2150
 6869SOL    HW232070   4.525   0.002   1.959 -0.7710 -0.6766 -0.0676
 6870SOL     OW32071   3.759   2.364   3.677 -0.2407  0.3189  0.5174
 6870SOL    HW132072   3.770   2.383   3.770  0.7806  0.6047  0.3427
 6870SOL    HW232073   3.763   2.268   3.680  0.5674  0.3209 -0.5168
 6871SOL     OW32074   2.042   1.342   3.223  0.0404 -0.3074 -0.1583
 6871SOL    HW132075   1.973   1.286   3.259 -0.6057 -0.4657 -1.6443
 6871SOL    HW232076   2.035   1.332   3.128 -1.6180 -0.4229 -0.0236
 6872SOL     OW32077   4.336   1.541   1.598  0.2014 -0.2756 -0.3818
 6872SOL    HW132078   4.327   1.574   1.509 -3.4279  2.7672  1.1143
 6872SOL    HW232079   4.429   1.516   1.591  0.4529 -0.3699  3.2716
 6873SOL     OW32080   1.708   2.611   5.683 -0.1971 -0.1309  0.3753
 6873SOL    HW132081   1.631   2.621   5.739  1.1785 -0.1502  2.2624
 6873SOL    HW232082   1.722   2.704   5.664 -1.4549 -0.6240 -3.0155
 6874SOL     OW32083   1.465   2.840  13.499 -0.5100  0.1031  0.0638
 6874SOL    HW132084   1.453   2.797  13.414 -0.0010 -0.8296  0.4739
 6874SOL    HW232085   1.416   2.922  13.486 -1.5282 -0.8539 -2.2750
 6875SOL     OW32086   2.527   3.953   5.580  0.4887 -0.1240  0.3799
 6875SOL    HW132087   2.565   3.965   5.667 -0.1809  2.8364  0.2610
 6875SOL    HW232088   2.534   3.858   5.578  0.0562 -0.0894 -2.7056
 6876SOL     OW32089   4.096   2.704   7.206  0.5648 -0.0260 -0.8765
 6876SOL    HW132090   4.110   2.684   7.299 -2.4444 -0.3798 -0.4884
 6876SOL    HW232091   4.022   2.645   7.189  0.8142 -0.3421 -0.8687
 6877SOL     OW32092   1.012   0.047   6.421  0.0752 -0.2532 -0.2060
 6877SOL    HW132093   0.935   0.058   6.365  0.4944  0.4102 -0.6561
 6877SOL    HW232094   1.030   0.139   6.442 -0.1161  0.0672 -1.4433
 6878SOL     OW32095   3.864   1.921  15.684 -0.3275 -0.0745 -0.2839
 6878SOL    HW132096   3.954   1.931  15.654  0.3133 -1.0068  1.3475
 6878SOL    HW232097   3.865   2.010  15.718  1.0604  1.0473 -3.2509
 6879SOL     OW32098   1.487   0.452   7.160 -0.4330  0.4332 -0.2325
 6879SOL    HW132099   1.510   0.531   7.208  2.0674 -0.5667  0.2028
 6879SOL    HW232100   1.535   0.389   7.212 -0.8775  0.5368  0.3007
 6880SOL     OW32101   0.972   4.329   8.123 -0.4976 -0.3052 -0.3853
 6880SOL    HW132102   0.915   4.330   8.047  0.1729 -0.3466 -0.8921
 6880SOL    HW232103   1.007   4.418   8.120  0.9120 -0.8606 -0.4852
 6881SOL     OW32104   0.995   2.897   7.299 -0.1024  0.3706  1.0488
 6881SOL    HW132105   0.986   2.992   7.299 -0.5318  0.3185  2.6922
 6881SOL    HW232106   0.951   2.874   7.216  1.9954  1.2287 -0.2888
 6882SOL     OW32107   3.962   2.189   1.155  0.1436  0.0888  0.6128
 6882SOL    HW132108   4.003   2.265   1.196 -2.0249  1.9342 -0.6037
 6882SOL    HW232109   3.890   2.234   1.110 -0.2670 -1.8742 -0.6871
 6883SOL     OW32110   0.926   3.576   5.023  0.1734 -0.4760 -0.1279
 6883SOL    HW132111   0.903   3.517   5.094 -0.8658  0.2117  0.1106
 6883SOL    HW232112   0.920   3.659   5.071 -2.3918 -1.1512  0.7346
 6884SOL     OW32113   0.472   3.719   7.857  0.2508  0.2679 -0.1290
 6884SOL    HW132114   0.470   3.655   7.928  1.6546 -0.6124 -0.8828
 6884SOL    HW232115   0.499   3.792   7.912  1.3422  0.9064 -1.5166
 6885SOL     OW32116   1.366   1.393   4.056 -0.0835 -0.2343  0.0713
 6885SOL    HW132117   1.391   1.365   4.144 -0.8471  0.0458  0.3797
 6885SOL    HW232118   1.306   1.462   4.084  0.5360 -0.1833  1.2842
 6886SOL     OW32119   0.083   3.365   3.122 -0.1365 -0.3491 -0.2628
 6886SOL    HW132120   0.175   3.390   3.117  0.2613 -1.7283  0.0920
 6886SOL    HW232121   0.060   3.356   3.029  1.9190  0.3303 -0.8275
 6887SOL     OW32122   2.883   0.007   3.409  0.7212 -0.2704 -0.5308
 6887SOL    HW132123   2.832   4.691   3.339  1.1735 -0.0055 -1.0163
 6887SOL    HW232124   2.972   4.704   3.387  1.2495  1.4755 -0.6439
 6888SOL     OW32125   4.350   1.880  10.381  0.5307  0.2757 -0.3932
 6888SOL    HW132126   4.440   1.911  10.366  2.0801 -3.5241  0.9916
 6888SOL    HW232127   4.318   1.941  10.447  1.0665 -0.7855  0.8481
 6889SOL     OW32128   0.438   3.921   1.040 -0.0000  0.1921 -0.0447
 6889SOL    HW132129   0.369   3.854   1.041  1.7011 -1.5549  0.4301
 6889SOL    HW232130   0.450   3.939   1.133  0.2573  0.6331 -0.1668
 6890SOL     OW32131   2.796   2.537   5.849 -0.0373  0.6766 -0.3284
 6890SOL    HW132132   2.857   2.525   5.922  1.8808  1.5777 -1.7726
 6890SOL    HW232133   2.860   2.556   5.780  0.7073 -0.3563  0.0851
 6891SOL     OW32134   1.916   1.047  13.115  0.0639 -0.4691  0.6833
 6891SOL    HW132135   1.900   1.081  13.203  0.7032  0.1163  0.5775
 6891SOL    HW232136   1.839   1.079  13.067 -1.2235 -1.9591  1.7401
 6892SOL     OW32137   1.545   4.477   7.222 -0.5396 -0.1146  0.7664
 6892SOL    HW132138   1.572   4.459   7.312 -0.2869 -0.4579  0.6188
 6892SOL    HW232139   1.453   4.499   7.237 -1.0443 -0.4221 -1.9110
 6893SOL     OW32140   1.543   3.888   2.044 -0.0954  0.6442  0.4174
 6893SOL    HW132141   1.545   3.908   1.951 -1.8067  1.4710  0.5606
 6893SOL    HW232142   1.530   3.793   2.051 -1.4873  0.9379  1.8702
 6894SOL     OW32143   0.047   0.109   9.107  0.3919  0.8706 -0.2891
 6894SOL    HW132144   4.717   0.152   9.172 -0.8391  1.2144 -1.5362
 6894SOL    HW232145   4.714   0.035   9.088 -1.1289  2.2597 -1.0807
 6895SOL     OW32146   3.734   0.383  14.985 -0.3137 -0.3731  0.1869
 6895SOL    HW132147   3.792   0.320  14.943  3.0421  2.0042  1.2801
 6895SOL    HW232148   3.761   0.385  15.076  0.8420 -0.1219 -0.1633
 6896SOL     OW32149   1.553   0.316  11.380 -0.1863  0.0306 -0.0428
 6896SOL    HW132150   1.633   0.267  11.367  0.8793  1.6148  0.5550
 6896SOL    HW232151   1.522   0.265  11.456  0.1591  0.4425  0.3710
 6897SOL     OW32152   2.694   1.706  16.057  0.2358 -0.1389 -0.2794
 6897SOL    HW132153   2.616   1.713  16.113 -0.8919  0.9678 -1.9660
 6897SOL    HW232154   2.647   1.675  15.980  4.5831 -1.4185 -2.3535
 6898SOL     OW32155   2.331   1.533   6.326 -0.0711  0.2040  0.4875
 6898SOL    HW132156   2.245   1.491   6.324  0.1511 -0.2825  1.1443
 6898SOL    HW232157   2.306   1.621   6.299  0.4555 -0.2505 -1.4441
 6899SOL     OW32158   0.095   4.087   6.468  0.2142 -0.5641 -0.2107
 6899SOL    HW132159   0.148   4.159   6.501  1.6577 -1.4918 -0.5073
 6899SOL    HW232160   0.067   4.130   6.388  1.9619  2.6523  0.9154
 6900SOL     OW32161   0.730   1.822   4.042 -0.3271 -0.0157  0.2844
 6900SOL    HW132162   0.815   1.864   4.059  1.2117 -2.9196 -0.1680
 6900SOL    HW232163   0.724   1.831   3.947  2.8395 -0.8939 -0.0009
 6901SOL     OW32164   1.576   4.139   7.391 -0.2353 -0.1342 -0.5784
 6901SOL    HW132165   1.564   4.063   7.447  1.0233  1.9713  2.5583
 6901SOL    HW232166   1.557   4.101   7.305 -0.7649  0.4260 -0.7076
 6902SOL     OW32167   1.527   0.230   9.844  0.7773  0.2426  0.2340
 6902SOL    HW132168   1.554   0.228   9.935 -0.1606  0.6697  0.5224
 6902SOL    HW232169   1.611   0.250   9.802  0.9397 -1.2388 -0.1508
 6903SOL     OW32170   1.889   3.280   8.723  0.0013  0.5748 -0.3860
 6903SOL    HW132171   1.914   3.353   8.667  2.4856  1.1747  1.4921
 6903SOL    HW232172   1.939   3.213   8.677  0.9591  0.1391  1.2738
 6904SOL     OW32173   2.825   0.965   5.153  0.1156  0.1813 -0.0035
 6904SOL    HW132174   2.854   1.015   5.228 -0.0334  0.6839 -0.2814
 6904SOL    HW232175   2.778   0.892   5.193 -0.1339  0.3303 -0.0254
 6905SOL     OW32176   1.388   4.462  13.658  0.3313  0.5088  0.3030
 6905SOL    HW132177   1.444   4.394  13.621  1.5480  1.6124  0.0890
 6905SOL    HW232178   1.310   4.421  13.694  0.6428 -0.2331  0.1386
 6906SOL     OW32179   3.485   0.895   3.505 -0.6746 -0.7547 -0.1264
 6906SOL    HW132180   3.482   0.809   3.549  2.4055  0.2740  2.0979
 6906SOL    HW232181   3.561   0.939   3.544 -0.8351 -0.9697  0.4291
 6907SOL     OW32182   0.805   4.559   6.037 -0.3731 -0.0882 -0.1657
 6907SOL    HW132183   0.810   4.603   6.121  0.4747  0.2882 -0.4137
 6907SOL    HW232184   0.890   4.584   6.000  1.0012 -1.9148  1.7584
 6908SOL     OW32185   2.583   1.946   7.558  0.1612  0.3789  0.4725
 6908SOL    HW132186   2.641   1.886   7.512  0.5492  2.4010 -1.6670
 6908SOL    HW232187   2.550   1.998   7.484  1.0364 -0.4237 -0.4758
 6909SOL     OW32188   1.764   1.272   9.178  0.3158 -0.1218  0.5323
 6909SOL    HW132189   1.675   1.245   9.154  0.0556  0.4736  0.8401
 6909SOL    HW232190   1.754   1.271   9.273  2.4452 -1.2914  0.7442
 6910SOL     OW32191   3.122   0.364   6.355 -0.8495 -0.4061  0.1388
 6910SOL    HW132192   3.100   0.318   6.274 -0.5055  0.5460 -0.4947
 6910SOL    HW232193   3.204   0.405   6.330 -1.2360 -0.9613 -2.0424
 6911SOL     OW32194   0.916   3.584   3.426  0.5474 -0.2030  0.3536
 6911SOL    HW132195   0.854   3.541   3.367  0.4083  0.4020  0.0658
 6911SOL    HW232196   0.856   3.602   3.499 -0.1267  0.2135 -0.3103
 6912SOL     OW32197   4.443   3.677   1.371 -0.1763 -0.3764  0.0674
 6912SOL    HW132198   4.432   3.655   1.278  0.8883  2.6584 -0.7836
 6912SOL    HW232199   4.457   3.592   1.412 -1.9120 -0.5435  0.2881
 6913SOL     OW32200   1.083   4.403  14.348  0.0432 -0.6105 -0.5550
 6913SOL    HW132201   1.091   4.397  14.443  0.1188 -1.5173 -0.6223
 6913SOL    HW232202   1.143   4.474  14.326 -0.7931 -0.3377 -1.9564
 6914SOL     OW32203   1.470   3.872  10.535  0.0988  0.1315 -0.5844
 6914SOL    HW132204   1.521   3.934  10.482 -0.9910  0.7188 -0.9536
 6914SOL    HW232205   1.392   3.923  10.555 -0.1421 -0.9528  1.1882
 6915SOL     OW32206   0.239   2.611   8.172  0.6172 -0.2281 -0.2061
 6915SOL    HW132207   0.165   2.669   8.156  2.0114  1.9881  1.1957
 6915SOL    HW232208   0.285   2.650   8.247  1.2924  2.0032 -1.7812
 6916SOL     OW32209   2.193   1.409   1.172  0.6969 -0.6037  0.0277
 6916SOL    HW132210   2.228   1.463   1.243 -0.4410  0.8025 -0.4856
 6916SOL    HW232211   2.102   1.432   1.192  1.1666  1.9687 -0.7000
 6917SOL     OW32212   0.140   4.378   9.233 -0.0225  0.0562 -0.5518
 6917SOL    HW132213   0.158   4.375   9.327  0.8799 -2.7032 -0.8180
 6917SOL    HW232214   0.102   4.292   9.215 -1.0984  0.2670  0.7152
 6918SOL     OW32215   3.224   3.769   2.373  0.3748 -0.2470 -0.1406
 6918SOL    HW132216   3.230   3.743   2.281 -3.4879  0.6815 -0.6656
 6918SOL    HW232217   3.309   3.801   2.402 -0.1988  1.1330  0.0368
 6919SOL     OW32218   0.718   1.833  17.434 -0.1046 -0.2913 -0.7086
 6919SOL    HW132219   0.645   1.775  17.452  0.3775 -0.3436  1.0345
 6919SOL    HW232220   0.671   1.894  17.377 -4.0322  1.4721  4.4751
 6920SOL     OW32221   2.822   1.553   7.534 -0.3444  0.5961 -0.4037
 6920SOL    HW132222   2.865   1.581   7.615 -1.1001 -0.5111  0.3723
 6920SOL    HW232223   2.736   1.534   7.570  0.6847 -0.8065  1.2904
 6921SOL     OW32224   3.713   2.325  13.030 -0.1357 -0.3949  0.3632
 6921SOL    HW132225   3.655   2.295  12.961  1.8151  1.1275 -1.9284
 6921SOL    HW232226   3.801   2.303  12.998  1.0490  0.4465  3.0482
 6922SOL     OW32227   0.339   2.657   5.494 -0.4261  0.6074 -0.2262
 6922SOL    HW132228   0.343   2.563   5.511  0.0465  0.3599 -1.6338
 6922SOL    HW232229   0.392   2.693   5.565 -0.1962 -2.3723  1.1119
 6923SOL     OW32230   2.417   0.463   4.582 -0.2538  0.0427 -0.1655
 6923SOL    HW132231   2.413   0.482   4.676 -1.9715 -0.5887 -0.1212
 6923SOL    HW232232   2.505   0.426   4.574 -0.7858 -1.0083 -1.0647
 6924SOL     OW32233   2.322   2.214   4.735 -0.2437  0.1366 -0.5208
 6924SOL    HW132234   2.405   2.215   4.783 -1.4464 -1.7407  1.5852
 6924SOL    HW232235   2.325   2.121   4.713  2.0981 -0.2270  1.2885
 6925SOL     OW32236   3.971   0.946   2.766 -0.5578  0.7515 -0.5281
 6925SOL    HW132237   4.050   0.935   2.714 -0.7097  0.3868 -0.6895
 6925SOL    HW232238   3.903   0.955   2.700 -1.3377 -1.9468 -0.1225
 6926SOL     OW32239   0.977   0.038   1.262  0.3881 -0.3707  0.3481
 6926SOL    HW132240   0.946   4.687   1.212  1.6690 -0.9993  0.4845
 6926SOL    HW232241   1.049   0.005   1.316 -1.0416 -0.9299  1.8921
 6927SOL     OW32242   1.360   4.265   8.605 -0.3699 -0.1857  0.3873
 6927SOL    HW132243   1.435   4.219   8.643  0.2174 -0.3081 -0.9085
 6927SOL    HW232244   1.368   4.344   8.659  0.5083 -0.1811  0.2496
 6928SOL     OW32245   0.559   0.702   7.542 -0.2926 -0.2871 -0.5329
 6928SOL    HW132246   0.591   0.790   7.522 -0.3617  0.0054  0.6590
 6928SOL    HW232247   0.597   0.695   7.629 -1.9590  1.4455  0.3261
 6929SOL     OW32248   3.213   1.771   2.724 -0.0549  0.3522  0.0672
 6929SOL    HW132249   3.254   1.742   2.643  0.5212 -0.2720  0.5802
 6929SOL    HW232250   3.243   1.861   2.736  0.9234  0.0333  0.0605
 6930SOL     OW32251   3.698   0.057   2.399 -0.5168  0.0949 -0.4871
 6930SOL    HW132252   3.625   0.108   2.435 -0.2633  0.8348 -1.0154
 6930SOL    HW232253   3.752   0.125   2.359 -0.6548 -0.9431 -2.4520
 6931SOL     OW32254   3.254   1.846   6.093  0.3597  0.1773 -0.3804
 6931SOL    HW132255   3.269   1.932   6.131 -0.1039  0.1282 -0.0792
 6931SOL    HW232256   3.210   1.812   6.171  1.4503  1.0522  0.6196
 6932SOL     OW32257   0.034   3.277   0.454 -0.2935 -0.8300  0.0486
 6932SOL    HW132258   0.109   3.338   0.451 -1.8383  1.0282 -1.0124
 6932SOL    HW232259   4.697   3.329   0.402 -2.9631 -2.1445  1.9446
 6933SOL     OW32260   1.336   4.668  11.494 -0.8171  0.6183  0.0708
 6933SOL    HW132261   1.262   4.634  11.544 -1.0523 -0.2404 -0.8515
 6933SOL    HW232262   1.390   4.589  11.483 -2.1040 -0.2353 -0.1678
 6934SOL     OW32263   4.616   0.214  16.726 -0.0992  0.6110 -0.2643
 6934SOL    HW132264   4.662   0.211  16.810 -1.1041  0.8836  0.3057
 6934SOL    HW232265   4.527   0.242  16.750  0.6789  1.2178  1.9050
 6935SOL     OW32266   0.725   2.030   6.063  0.1569  0.1892  0.4323
 6935SOL    HW132267   0.637   2.016   6.097  0.5364 -1.4726  0.7012
 6935SOL    HW232268   0.761   2.109   6.104  0.3696  0.5763 -0.5101
 6936SOL     OW32269   3.372   2.712  14.263  0.1812  0.3328 -0.1856
 6936SOL    HW132270   3.281   2.706  14.293  0.4198  1.9699  0.8652
 6936SOL    HW232271   3.412   2.728  14.348 -0.8187 -0.6114  0.4596
 6937SOL     OW32272   0.778   2.147  17.607  0.8809  0.3343 -0.4625
 6937SOL    HW132273   0.868   2.134  17.635  0.9776 -0.7770 -1.2894
 6937SOL    HW232274   0.738   2.068  17.643  1.4912  0.0846 -0.3377
 6938SOL     OW32275   0.274   1.080   5.323 -0.2592 -0.1362  0.1744
 6938SOL    HW132276   0.224   1.007   5.288 -0.1046 -0.0461 -0.2361
 6938SOL    HW232277   0.264   1.078   5.418  0.3533 -1.1637  0.2139
 6939SOL     OW32278   3.549   4.031   8.613 -0.0917 -0.0327  0.2953
 6939SOL    HW132279   3.586   3.985   8.537 -0.3440 -0.4692  0.4365
 6939SOL    HW232280   3.529   3.954   8.667 -2.6180  1.8166  1.9746
 6940SOL     OW32281   2.795   3.841   4.560 -0.0246 -0.5076  0.8187
 6940SOL    HW132282   2.862   3.838   4.628 -1.7157 -1.3030  2.4535
 6940SOL    HW232283   2.851   3.849   4.482 -0.6528  3.2342  0.7505
 6941SOL     OW32284   3.384   2.878   9.339 -0.5966 -0.2955  0.2275
 6941SOL    HW132285   3.371   2.924   9.422  0.0895  0.2579  0.0303
 6941SOL    HW232286   3.306   2.904   9.290 -0.2847 -0.3836 -0.3195
 6942SOL     OW32287   0.743   0.536   2.178  0.4704  0.3844  0.0597
 6942SOL    HW132288   0.657   0.519   2.140 -0.5524  2.3998  1.4662
 6942SOL    HW232289   0.726   0.625   2.209 -1.4745  0.3354 -0.8399
 6943SOL     OW32290   1.001   4.276  14.130 -0.4447  0.2872 -0.7281
 6943SOL    HW132291   1.028   4.315  14.214  2.4108  0.2987 -1.6606
 6943SOL    HW232292   1.022   4.346  14.068 -2.2613 -0.1784 -1.8877
 6944SOL     OW32293   2.412   2.024  13.783  0.0932  0.0380  0.3209
 6944SOL    HW132294   2.390   1.958  13.716  2.7214  1.3659 -1.8599
 6944SOL    HW232295   2.487   2.070  13.746 -3.1394  4.1133 -1.1108
 6945SOL     OW32296   1.938   0.114   3.069  0.4407 -0.1733 -0.6452
 6945SOL    HW132297   1.911   0.115   2.977 -1.6695 -0.4905 -0.0260
 6945SOL    HW232298   1.963   0.205   3.086  0.5496 -0.2732 -0.2566
 6946SOL     OW32299   1.697   4.264   0.369 -0.2948  0.2091 -0.1413
 6946SOL    HW132300   1.659   4.330   0.311 -0.8662  0.9408  1.0686
 6946SOL    HW232301   1.775   4.310   0.400 -1.6061  0.1241  3.2878
 6947SOL     OW32302   4.032   4.014   7.617  0.0670 -0.2606  0.1841
 6947SOL    HW132303   4.114   3.969   7.596 -0.1540 -0.5012 -0.1681
 6947SOL    HW232304   4.013   4.076   7.547 -3.9246 -1.6760 -0.0397
 6948SOL     OW32305   0.945   4.330   6.612  0.2886  0.2023  0.3787
 6948SOL    HW132306   1.012   4.328   6.680 -0.4973 -1.3581  1.0882
 6948SOL    HW232307   0.989   4.379   6.542 -1.0443  0.2794 -0.3983
 6949SOL     OW32308   0.543   3.609   8.266 -0.0133  0.5033  0.5418
 6949SOL    HW132309   0.463   3.636   8.222 -0.1614  0.0324  0.5270
 6949SOL    HW232310   0.616   3.654   8.224 -0.1096  1.4596  1.3920
 6950SOL     OW32311   4.424   1.877   1.320  0.1031  1.0447 -0.1236
 6950SOL    HW132312   4.480   1.813   1.364 -1.3299 -1.0754 -1.3787
 6950SOL    HW232313   4.492   1.943   1.307  1.1667 -0.4668 -2.3004
 6951SOL     OW32314   3.117   0.504   3.883 -0.4796 -0.0961  0.7471
 6951SOL    HW132315   3.120   0.436   3.816 -1.4163 -0.6496  1.2575
 6951SOL    HW232316   3.022   0.506   3.895 -0.3130  1.4152  1.6951
 6952SOL     OW32317   2.248   3.815  13.195  0.2252 -0.8420 -0.0278
 6952SOL    HW132318   2.233   3.853  13.108 -1.1884  1.0804  1.0720
 6952SOL    HW232319   2.181   3.748  13.210 -0.9941  0.7357  1.6181
 6953SOL     OW32320   2.482   2.907  16.913 -0.8544 -0.4794 -0.0459
 6953SOL    HW132321   2.492   2.852  16.835 -2.7389 -2.7500  1.3088
 6953SOL    HW232322   2.567   2.882  16.949 -0.3408 -0.1902 -1.0569
 6954SOL     OW32323   0.792   1.800   4.438  0.2686  0.1346 -0.3535
 6954SOL    HW132324   0.817   1.729   4.379  0.6429 -0.2034  0.2094
 6954SOL    HW232325   0.697   1.796   4.431  0.2669 -0.7406  0.1464
 6955SOL     OW32326   4.410   3.479   8.487 -0.0915 -0.5675  0.6289
 6955SOL    HW132327   4.415   3.389   8.455 -0.9971 -0.7277  0.9441
 6955SOL    HW232328   4.461   3.464   8.566 -0.6034 -1.2687  0.8244
 6956SOL     OW32329   3.062   3.161   5.935  0.4335  0.0325 -0.6530
 6956SOL    HW132330   3.034   3.069   5.933  0.2032  0.0817  0.3708
 6956SOL    HW232331   2.994   3.199   5.991  1.1808 -0.3717  0.5409
 6957SOL     OW32332   3.675   2.079   3.576 -0.6429 -0.3618  0.2503
 6957SOL    HW132333   3.596   2.035   3.546 -1.3166  0.3782  0.9383
 6957SOL    HW232334   3.692   2.015   3.645 -1.1050  1.0598  1.6900
 6958SOL     OW32335   4.720   2.378   7.077 -0.5466  0.5747 -0.2825
 6958SOL    HW132336   0.077   2.426   7.060 -0.6481 -0.0822 -2.6740
 6958SOL    HW232337   4.680   2.394   6.991  1.2883  0.0793 -1.2517
 6959SOL     OW32338   3.913   3.615  14.599  0.2013 -0.5553 -0.1315
 6959SOL    HW132339   3.915   3.520  14.590  2.8390 -0.5690  0.5562
 6959SOL    HW232340   3.873   3.629  14.685 -1.3130 -0.4281 -0.8556
 6960SOL     OW32341   1.544   4.465   3.516 -0.2069  0.1376  0.6254
 6960SOL    HW132342   1.617   4.502   3.564 -0.0962 -0.1111  0.6516
 6960SOL    HW232343   1.467   4.510   3.550  0.6876  2.7483 -0.8324
 6961SOL     OW32344   0.975   3.504   8.679  0.3834 -0.0546 -0.6753
 6961SOL    HW132345   0.956   3.567   8.748 -0.6795 -1.7169  0.5270
 6961SOL    HW232346   1.025   3.566   8.624  1.8014 -0.0600  0.6137
 6962SOL     OW32347   1.041   2.387  11.105  0.0008  0.5793  0.1971
 6962SOL    HW132348   1.033   2.319  11.038 -0.3193  0.4233  0.3928
 6962SOL    HW232349   1.135   2.387  11.122  0.2869  0.2410 -1.3767
 6963SOL     OW32350   0.139   4.102   4.459  0.2731 -0.0795  0.1430
 6963SOL    HW132351   0.117   4.195   4.454 -0.8194 -0.4568 -1.8719
 6963SOL    HW232352   0.093   4.061   4.532 -1.2422  0.7766 -0.3328
 6964SOL     OW32353   2.569   0.433  13.851  0.0379 -0.4571 -0.0942
 6964SOL    HW132354   2.657   0.451  13.885  0.6620 -0.6703 -1.6077
 6964SOL    HW232355   2.562   0.341  13.876  2.7507 -0.8554 -0.7215
 6965SOL     OW32356   1.191   4.078  15.070  0.3666 -0.0349  0.3377
 6965SOL    HW132357   1.141   4.128  15.135  0.7979 -1.6433  1.9218
 6965SOL    HW232358   1.182   3.988  15.101  1.4624 -0.2471  0.0035
 6966SOL     OW32359   2.201   0.211   5.773  0.1895  0.2714  0.3131
 6966SOL    HW132360   2.145   0.159   5.829  0.9411 -2.5212 -1.5476
 6966SOL    HW232361   2.228   0.281   5.833 -0.6105  1.2033 -0.4243
 6967SOL     OW32362   0.256   4.622  11.685 -0.3418 -0.0070 -0.7512
 6967SOL    HW132363   0.259   4.527  11.674  1.9502 -0.2391  1.6849
 6967SOL    HW232364   0.250   4.628  11.780  0.3048  1.1156 -0.7858
 6968SOL     OW32365   1.954   1.701   2.795  0.0579 -0.5098 -0.0104
 6968SOL    HW132366   1.947   1.632   2.729 -4.4282 -1.5483  1.5664
 6968SOL    HW232367   2.049   1.694   2.797  0.1049  0.5293  1.0759
 6969SOL     OW32368   3.351   1.883   2.259  0.6766  0.6162  0.0311
 6969SOL    HW132369   3.263   1.912   2.236  0.6487  0.1514 -0.4553
 6969SOL    HW232370   3.348   1.852   2.349  2.8348 -1.4315 -0.5757
 6970SOL     OW32371   1.322   1.303  11.203 -0.3771  0.5543  0.3263
 6970SOL    HW132372   1.305   1.219  11.246  1.8979 -0.0925 -0.0030
 6970SOL    HW232373   1.410   1.321  11.235 -0.1644  0.4297 -0.1787
 6971SOL     OW32374   1.687   1.857   0.465  0.0522  0.5819  0.2817
 6971SOL    HW132375   1.710   1.871   0.373  0.3300 -0.8494  0.1292
 6971SOL    HW232376   1.743   1.782   0.486 -1.2412 -0.4516  0.0158
 6972SOL     OW32377   4.642   1.561   3.804 -0.5874 -0.2421  0.2194
 6972SOL    HW132378   4.595   1.644   3.804 -0.0719  0.0535  0.4555
 6972SOL    HW232379   4.573   1.504   3.771  0.9824 -2.0406  0.0528
 6973SOL     OW32380   3.354   3.558   6.132 -0.6282 -0.0923  0.5700
 6973SOL    HW132381   3.369   3.527   6.221  0.5027 -0.5978  0.2041
 6973SOL    HW232382   3.427   3.515   6.086  1.7820  1.7481  2.6543
 6974SOL     OW32383   3.155   3.974  14.397  0.4755 -0.4618  0.0436
 6974SOL    HW132384   3.109   3.949  14.316 -0.2671 -2.3354  1.0457
 6974SOL    HW232385   3.159   3.886  14.433 -2.9710  0.1070  1.7611
 6975SOL     OW32386   1.078   4.679   7.410  0.2521 -0.1228 -0.8305
 6975SOL    HW132387   1.021   0.004   7.468  0.9862  0.0642 -0.2731
 6975SOL    HW232388   1.150   4.680   7.473 -1.8242 -0.3302  1.5307
 6976SOL     OW32389   2.632   2.953   2.943 -0.2724 -0.3829 -0.2159
 6976SOL    HW132390   2.700   2.988   3.000 -0.6496 -0.0183  0.0089
 6976SOL    HW232391   2.615   3.033   2.893 -1.2722 -0.9400 -0.7624
 6977SOL     OW32392   2.203   4.710   3.696  0.7175  0.0465  0.1412
 6977SOL    HW132393   2.155   4.697   3.614 -0.5053 -0.9497  1.0189
 6977SOL    HW232394   2.227   4.622   3.727  1.2641  0.0759 -0.1960
 6978SOL     OW32395   0.612   1.120  17.414 -0.2717  0.0574 -0.0535
 6978SOL    HW132396   0.640   1.192  17.471  0.2037 -1.6881  1.9369
 6978SOL    HW232397   0.653   1.055  17.471 -1.2688  0.0563  0.6641
 6979SOL     OW32398   2.493   2.670  12.830  0.1418  0.5340  0.0174
 6979SOL    HW132399   2.548   2.637  12.900 -1.5997 -0.7235  0.7883
 6979SOL    HW232400   2.510   2.763  12.844  0.4304  0.1822  1.9153
 6980SOL     OW32401   3.063   3.271   5.409  0.3911 -0.1768 -0.3790
 6980SOL    HW132402   3.119   3.232   5.342  2.4941 -1.7814  2.3110
 6980SOL    HW232403   3.030   3.351   5.370  0.0607  0.6363  1.5800
 6981SOL     OW32404   0.540   1.696  14.602 -0.2927 -0.0723  0.0432
 6981SOL    HW132405   0.515   1.742  14.522  0.7066  1.0184  0.3638
 6981SOL    HW232406   0.455   1.662  14.631 -0.7311 -1.1662 -2.5025
 6982SOL     OW32407   4.177   2.074   6.662 -0.4445 -0.1920  0.2053
 6982SOL    HW132408   4.137   2.130   6.728  0.7223  2.1535 -1.0947
 6982SOL    HW232409   4.145   1.986   6.681 -1.0295  0.0584  0.3739
 6983SOL     OW32410   1.895   3.820   8.377 -0.5884 -0.0447 -0.7372
 6983SOL    HW132411   1.846   3.842   8.456  2.0980 -0.1180  0.9489
 6983SOL    HW232412   1.954   3.892   8.357  0.6361 -0.9449 -0.3592
 6984SOL     OW32413   4.275   2.422   7.681  0.4495  0.2294 -0.5764
 6984SOL    HW132414   4.357   2.378   7.662  1.2618  1.3167  0.4392
 6984SOL    HW232415   4.228   2.346   7.715 -1.1162 -0.0499 -3.3381
 6985SOL     OW32416   4.062   3.177   5.129 -0.3627  0.3195 -0.5852
 6985SOL    HW132417   4.128   3.133   5.182  0.8442  2.0585 -0.6483
 6985SOL    HW232418   4.023   3.111   5.071  1.5793 -0.0048 -1.5228
 6986SOL     OW32419   1.898   0.748   9.878 -0.0712  0.6366  0.7243
 6986SOL    HW132420   1.939   0.675   9.923 -2.4810 -0.5120  1.0651
 6986SOL    HW232421   1.891   0.811   9.949  0.6749 -0.3589  1.6820
 6987SOL     OW32422   3.875   1.489  16.401 -0.5099  0.8253 -0.1792
 6987SOL    HW132423   3.935   1.507  16.329 -0.9785 -0.5828 -0.9048
 6987SOL    HW232424   3.886   1.566  16.458 -1.7351  0.0986  1.0438
 6988SOL     OW32425   4.120   3.616   2.510  0.1460  0.3922  0.4297
 6988SOL    HW132426   4.209   3.644   2.485  0.3920 -0.0163  0.8666
 6988SOL    HW232427   4.099   3.545   2.450  3.4853 -0.4685  0.2589
 6989SOL     OW32428   1.057   0.231   0.272 -0.3959  0.0883  0.6500
 6989SOL    HW132429   1.074   0.325   0.276  2.0233 -0.3069 -0.8647
 6989SOL    HW232430   1.146   0.197   0.272  0.7525  3.1482  0.6517
 6990SOL     OW32431   3.732   2.680   9.767 -0.2993  0.8668  0.0629
 6990SOL    HW132432   3.812   2.663   9.817 -0.5089  2.2522  0.8855
 6990SOL    HW232433   3.769   2.718   9.687  0.7336  0.8307  0.5214
 6991SOL     OW32434   2.417   0.363   9.125  0.6040  0.1020  0.1575
 6991SOL    HW132435   2.479   0.419   9.078 -0.0553 -0.4689 -1.3780
 6991SOL    HW232436   2.394   0.300   9.058  1.2162 -0.3754  0.3898
 6992SOL     OW32437   1.372   0.902   0.334  0.0192  0.3883  0.3302
 6992SOL    HW132438   1.407   0.973   0.281 -0.7188  1.8064  1.7609
 6992SOL    HW232439   1.404   0.927   0.420 -2.5629  2.4032  0.6903
 6993SOL     OW32440   1.754   2.162   7.158 -0.0243  0.0176 -0.9493
 6993SOL    HW132441   1.716   2.197   7.238  0.1418  2.1004 -1.7900
 6993SOL    HW232442   1.678   2.156   7.100  1.5161  2.1850 -3.1735
 6994SOL     OW32443   3.784   4.179  10.306  0.2029 -0.6797 -0.5124
 6994SOL    HW132444   3.879   4.194  10.302 -0.1240  1.3964 -0.4480
 6994SOL    HW232445   3.770   4.216  10.219 -1.8030 -0.0688  0.0885
 6995SOL     OW32446   1.128   1.899   5.086 -0.0730  0.2555  0.0517
 6995SOL    HW132447   1.222   1.914   5.096 -0.2390  1.0346  0.4715
 6995SOL    HW232448   1.114   1.868   4.997  1.5214 -0.0820 -0.0752
 6996SOL     OW32449   0.884   1.978   4.674 -0.2941 -0.4097  0.3674
 6996SOL    HW132450   0.947   1.939   4.614  0.1872 -0.5006  0.9275
 6996SOL    HW232451   0.913   2.069   4.673 -0.7929 -0.2615 -0.0474
 6997SOL     OW32452   3.438   3.978  12.643  0.3267 -0.6416 -0.6274
 6997SOL    HW132453   3.437   3.913  12.572 -1.3287  1.4041 -2.4876
 6997SOL    HW232454   3.390   4.052  12.606 -0.3936 -1.0565 -0.5362
 6998SOL     OW32455   3.639   0.424  10.340 -0.2184  0.2890  0.1504
 6998SOL    HW132456   3.709   0.359  10.330 -2.1454 -1.8599  0.7093
 6998SOL    HW232457   3.643   0.469  10.255  1.1677 -0.1054 -0.0018
 6999SOL     OW32458   0.620   0.775  16.418  0.2464  0.5435  0.0951
 6999SOL    HW132459   0.603   0.853  16.365 -2.5700 -3.2147 -4.5522
 6999SOL    HW232460   0.691   0.813  16.470 -0.0328  1.4500 -0.1903
 7000SOL     OW32461   0.204   1.318  13.151  0.1857 -0.1495  0.4387
 7000SOL    HW132462   0.150   1.278  13.083  0.4467  2.1366 -1.1016
 7000SOL    HW232463   0.244   1.241  13.192 -0.3513 -0.3279  0.6367
 7001SOL     OW32464   1.646   1.852  12.095 -0.2088 -0.1243  0.3479
 7001SOL    HW132465   1.633   1.761  12.066 -1.4164  0.2043 -0.1113
 7001SOL    HW232466   1.555   1.879  12.108 -0.2713  0.0281 -0.4196
 7002SOL     OW32467   0.126   3.680   6.213 -0.1473 -0.5526 -0.5861
 7002SOL    HW132468   0.043   3.729   6.212  2.3862  3.6998 -0.4080
 7002SOL    HW232469   0.085   3.600   6.245 -1.5643  0.0040 -0.9989
 7003SOL     OW32470   4.231   3.778   5.775  0.4850  0.1507  0.1223
 7003SOL    HW132471   4.138   3.759   5.780  0.1473  1.7120 -0.2777
 7003SOL    HW232472   4.216   3.868   5.745 -0.3005 -0.5584 -1.5872
 7004SOL     OW32473   3.832   4.265   2.243  0.1547  0.1865 -0.1204
 7004SOL    HW132474   3.743   4.230   2.239 -0.4791  2.2105 -3.7481
 7004SOL    HW232475   3.816   4.349   2.285 -1.9399 -1.1761  1.8218
 7005SOL     OW32476   2.250   4.460  12.528 -0.0165  0.2879  0.0396
 7005SOL    HW132477   2.198   4.539  12.513  3.0634  2.3397  0.1993
 7005SOL    HW232478   2.270   4.472  12.621 -0.4156 -0.6946  0.2566
 7006SOL     OW32479   4.197   0.350   0.054  0.5456  0.0254 -0.2649
 7006SOL    HW132480   4.102   0.356   0.050  0.4166  0.1359  2.8027
 7006SOL    HW232481   4.209   0.327   0.147 -1.5656 -2.1782 -0.5629
 7007SOL     OW32482   1.196   2.779  17.020  0.0596  0.2246  0.2966
 7007SOL    HW132483   1.101   2.781  17.019  0.0613  0.1553 -0.1721
 7007SOL    HW232484   1.205   2.703  16.962 -2.0925  0.2788 -0.0949
 7008SOL     OW32485   4.165   0.379   0.551  0.3927  0.7921  0.0178
 7008SOL    HW132486   4.103   0.316   0.587  1.0980  0.5386  0.7961
 7008SOL    HW232487   4.221   0.404   0.625 -0.9334  1.9455  0.6291
 7009SOL     OW32488   3.548   1.441   8.894 -0.0199 -0.3592 -0.0088
 7009SOL    HW132489   3.538   1.533   8.870 -0.3130  0.2010  2.3107
 7009SOL    HW232490   3.465   1.430   8.941  0.3344 -1.8287  0.2755
 7010SOL     OW32491   2.661   4.166   6.502  0.1685  0.0685  0.8765
 7010SOL    HW132492   2.686   4.246   6.457  2.0764 -0.4622  1.0116
 7010SOL    HW232493   2.599   4.128   6.439  0.1750  1.1065  0.2374
 7011SOL     OW32494   2.896   1.938   8.566 -0.4005  0.4194 -0.4489
 7011SOL    HW132495   2.949   1.865   8.532  1.4857  1.4401  0.2741
 7011SOL    HW232496   2.849   1.893   8.637  0.6493  0.2609  0.1559
 7012SOL     OW32497   3.323   3.174   1.741 -0.1494  0.4297  0.5430
 7012SOL    HW132498   3.312   3.190   1.835  0.9272 -1.0977  0.9266
 7012SOL    HW232499   3.260   3.237   1.706 -1.0966 -0.4240  0.7103
 7013SOL     OW32500   0.544   4.611   4.527  0.4128  0.0572 -0.0507
 7013SOL    HW132501   0.473   4.552   4.549 -0.2567  0.6619 -0.5903
 7013SOL    HW232502   0.522   4.691   4.575 -1.2952 -0.4737  0.0450
 7014SOL     OW32503   1.487   2.430   2.316 -0.0310 -0.6925  0.1474
 7014SOL    HW132504   1.442   2.427   2.401 -1.4513 -1.4971 -0.6270
 7014SOL    HW232505   1.571   2.469   2.340 -1.0039  1.4815  0.0758
 7015SOL     OW32506   1.883   0.209   3.529 -0.5224 -0.1795 -0.2560
 7015SOL    HW132507   1.847   0.285   3.575 -1.2282  0.4209 -1.7954
 7015SOL    HW232508   1.976   0.227   3.543 -0.8567  1.3512 -0.0197
 7016SOL     OW32509   0.749   1.856  16.750 -0.0851  0.3437 -0.4045
 7016SOL    HW132510   0.799   1.856  16.668 -0.5659  0.9726 -0.7059
 7016SOL    HW232511   0.702   1.939  16.741 -1.8855 -0.6866 -0.6257
 7017SOL     OW32512   2.202   4.710   2.963  0.1338 -0.1405 -0.0703
 7017SOL    HW132513   2.111   0.016   2.972  0.0925  0.0468 -1.1821
 7017SOL    HW232514   2.210   4.660   3.044  0.0314 -2.0535 -1.2583
 7018SOL     OW32515   2.189   4.372   8.090  0.0362 -0.0837  0.4123
 7018SOL    HW132516   2.132   4.444   8.118 -0.4366 -0.3276  0.0845
 7018SOL    HW232517   2.263   4.391   8.147 -0.5379  2.2465  0.3936
 7019SOL     OW32518   1.918   2.566   5.065 -0.0462 -0.1913  0.2417
 7019SOL    HW132519   1.989   2.566   5.129 -0.2154 -1.9897  0.4380
 7019SOL    HW232520   1.852   2.595   5.128  1.3246  0.4314  1.3956
 7020SOL     OW32521   1.390   2.256   0.679 -0.1061 -0.2593 -0.3428
 7020SOL    HW132522   1.313   2.295   0.720 -0.1190  2.1693 -2.7092
 7020SOL    HW232523   1.447   2.246   0.755 -2.3789  1.8489  1.6386
 7021SOL     OW32524   0.809   3.778   2.825  0.6518  0.4375  0.0541
 7021SOL    HW132525   0.807   3.864   2.868 -2.1085  1.0058 -1.2128
 7021SOL    HW232526   0.735   3.778   2.765 -0.8115  0.2041  1.8888
 7022SOL     OW32527   3.484   2.299   0.433  0.0465 -0.5230 -0.2593
 7022SOL    HW132528   3.562   2.248   0.455 -0.3095 -0.1704  1.8608
 7022SOL    HW232529   3.453   2.248   0.358  1.1192 -2.5580  0.6767
 7023SOL     OW32530   4.461   1.910  10.712 -0.3148  0.4378 -0.3610
 7023SOL    HW132531   4.401   1.838  10.693  0.5410  0.0510 -1.6243
 7023SOL    HW232532   4.540   1.877  10.669 -0.8364 -1.2382 -0.0193
 7024SOL     OW32533   1.135   2.471  16.962 -0.2621 -0.4876  0.2333
 7024SOL    HW132534   1.159   2.381  16.984  0.5268 -0.4885 -0.6553
 7024SOL    HW232535   1.041   2.465  16.977 -0.2692  2.0065  1.2775
 7025SOL     OW32536   0.965   0.721   5.485 -0.0237 -0.0043 -0.2541
 7025SOL    HW132537   0.892   0.698   5.543  0.2146 -1.9622 -0.7183
 7025SOL    HW232538   1.033   0.664   5.522 -0.3808 -0.2853 -0.0262
 7026SOL     OW32539   3.554   1.486   4.343 -0.6703 -0.0554 -0.1872
 7026SOL    HW132540   3.634   1.491   4.396  0.0876  0.3048 -1.3672
 7026SOL    HW232541   3.506   1.429   4.403  0.0226  0.6407  1.0243
 7027SOL     OW32542   1.280   3.955   2.949  0.5427 -0.1703 -0.0783
 7027SOL    HW132543   1.297   3.866   2.980  1.0555  0.7580  2.2711
 7027SOL    HW232544   1.331   4.000   3.017 -0.3082  0.0265  0.4240
 7028SOL     OW32545   0.133   1.206  14.060  0.1353  0.4866  0.0770
 7028SOL    HW132546   0.042   1.227  14.038 -0.2003 -3.0852 -2.0160
 7028SOL    HW232547   0.173   1.192  13.974  1.5160 -0.5202  0.8966
 7029SOL     OW32548   4.349   4.189   6.239 -0.1826  0.1072  0.3036
 7029SOL    HW132549   4.262   4.222   6.220 -0.1301 -0.9212 -1.6859
 7029SOL    HW232550   4.368   4.240   6.318  0.3210  1.0949 -0.4537
 7030SOL     OW32551   1.395   1.124   6.390  0.0070  0.0366 -0.0885
 7030SOL    HW132552   1.404   1.128   6.295 -0.2749  1.0476 -0.0679
 7030SOL    HW232553   1.301   1.126   6.404  0.2559 -0.3727  1.7425
 7031SOL     OW32554   1.988   3.420   4.178 -0.2080 -0.5425 -0.5238
 7031SOL    HW132555   1.893   3.430   4.183 -0.4619 -2.2236 -2.0431
 7031SOL    HW232556   1.996   3.406   4.083  2.0321  0.2223 -0.4474
 7032SOL     OW32557   0.229   3.661   6.574  0.1782  0.0075  0.1212
 7032SOL    HW132558   0.249   3.754   6.586  0.3274 -0.3577  2.7606
 7032SOL    HW232559   0.141   3.662   6.535  0.2234  1.7989  0.0361
 7033SOL     OW32560   3.654   0.235   7.586 -0.7667 -0.0120 -0.7872
 7033SOL    HW132561   3.598   0.253   7.662  2.4191  0.9832  1.2950
 7033SOL    HW232562   3.615   0.300   7.527 -0.9953 -0.1815 -0.8235
 7034SOL     OW32563   2.026   1.248   1.926 -0.8509 -0.2464  0.2900
 7034SOL    HW132564   2.017   1.212   1.837 -0.5276 -0.2982  0.2791
 7034SOL    HW232565   2.110   1.203   1.938 -0.4129  0.7498  0.9579
 7035SOL     OW32566   3.633   2.875   1.290  0.0475  0.1394 -0.1610
 7035SOL    HW132567   3.677   2.902   1.210  0.9795  0.3744  0.4219
 7035SOL    HW232568   3.569   2.946   1.293  3.5592  3.2591  0.7782
 7036SOL     OW32569   3.200   4.291   5.130  0.0142  0.0625  0.2808
 7036SOL    HW132570   3.227   4.256   5.046 -2.6311 -1.2058 -0.0485
 7036SOL    HW232571   3.127   4.238   5.164  0.4260 -0.8222 -0.2338
 7037SOL     OW32572   2.664   1.239   2.793 -0.1663  0.1637  0.3609
 7037SOL    HW132573   2.655   1.185   2.714 -0.2611  1.1169 -0.2717
 7037SOL    HW232574   2.753   1.220   2.822 -0.2374 -0.1537  0.3697
 7038SOL     OW32575   3.563   3.969   9.137  0.3401 -0.0956  0.4980
 7038SOL    HW132576   3.580   4.063   9.143 -1.7742  0.4188 -1.4410
 7038SOL    HW232577   3.654   3.940   9.132  0.5516  0.6925 -0.2076
 7039SOL     OW32578   3.305   2.814   7.474  0.1297 -0.2341  0.3932
 7039SOL    HW132579   3.393   2.850   7.470 -0.6880  1.9152  1.6326
 7039SOL    HW232580   3.301   2.756   7.550  0.6600 -0.1799  0.4574
 7040SOL     OW32581   3.155   1.258   3.969 -0.2933 -0.7813  0.1855
 7040SOL    HW132582   3.204   1.270   3.888  0.3322 -1.1168  0.5179
 7040SOL    HW232583   3.159   1.164   3.985 -0.1125 -0.9464 -0.8717
 7041SOL     OW32584   3.749   1.501   1.176 -0.1497  0.0531  0.5257
 7041SOL    HW132585   3.689   1.509   1.102 -0.6620  3.3566  1.3331
 7041SOL    HW232586   3.833   1.535   1.145  0.2566  0.2435  1.8647
 7042SOL     OW32587   0.583   1.590   2.026  0.0867 -0.3233 -1.1767
 7042SOL    HW132588   0.542   1.540   1.956 -0.5916  1.0326 -1.7347
 7042SOL    HW232589   0.620   1.519   2.079 -0.9678 -0.5081 -0.6803
 7043SOL     OW32590   3.211   3.708   8.405  0.2547 -0.0645  0.0643
 7043SOL    HW132591   3.138   3.653   8.377  0.2457  0.6560 -1.3320
 7043SOL    HW232592   3.267   3.697   8.328 -0.5403  0.7224 -0.6269
 7044SOL     OW32593   3.842   0.620  11.606 -0.4088  0.4513 -0.1931
 7044SOL    HW132594   3.756   0.653  11.582 -0.9520 -1.4208 -0.7896
 7044SOL    HW232595   3.841   0.641  11.700  1.0286  2.0888 -0.5374
 7045SOL     OW32596   0.609   3.876  16.715 -0.0445 -0.1421 -0.2813
 7045SOL    HW132597   0.573   3.875  16.804  0.7020 -2.4174 -0.0140
 7045SOL    HW232598   0.640   3.966  16.717 -0.4556 -0.0824  2.9992
 7046SOL     OW32599   4.706   2.676   6.072 -0.3092 -0.0893  0.0481
 7046SOL    HW132600   4.703   2.771   6.059 -2.4604 -0.3601 -1.4454
 7046SOL    HW232601   0.073   2.672   6.045  0.5409  0.5333  2.9150
 7047SOL     OW32602   0.076   4.084  13.500  0.1300 -0.1483 -0.4194
 7047SOL    HW132603   0.044   4.152  13.440  0.6531  0.4563 -0.0185
 7047SOL    HW232604   0.079   4.124  13.587  1.0283 -0.7943 -0.1616
 7048SOL     OW32605   0.016   2.954   6.777 -0.3963  0.6517 -0.3130
 7048SOL    HW132606   0.002   3.047   6.790  1.9179  1.0955 -1.1263
 7048SOL    HW232607   4.656   2.920   6.807  0.8479 -0.4842  1.9432
 7049SOL     OW32608   3.076   2.306   8.157  0.1540  0.5458 -0.2420
 7049SOL    HW132609   3.037   2.394   8.154 -1.9825 -0.4857 -2.1967
 7049SOL    HW232610   3.000   2.267   8.200  0.5382 -0.7930 -0.7871
 7050SOL     OW32611   3.336   3.430   1.930  0.0532  0.3305  0.0776
 7050SOL    HW132612   3.242   3.414   1.920 -0.2239  0.2666  2.8407
 7050SOL    HW232613   3.351   3.427   2.024 -0.5392  0.1690  0.1675
 7051SOL     OW32614   3.279   0.417  16.132  0.2721 -0.1794 -0.5088
 7051SOL    HW132615   3.223   0.459  16.197  1.2579  0.1772  0.1181
 7051SOL    HW232616   3.276   0.474  16.056  1.8779 -1.3001 -1.4075
 7052SOL     OW32617   2.423   4.173  13.055  0.5715 -0.2113  0.1656
 7052SOL    HW132618   2.470   4.117  13.116 -0.7655 -0.7926  0.6674
 7052SOL    HW232619   2.440   4.257  13.099  1.5831  0.2393 -1.0757
 7053SOL     OW32620   1.813   1.848   2.276  0.4727 -0.0432  0.2797
 7053SOL    HW132621   1.780   1.900   2.203 -1.2612 -0.6226  0.6521
 7053SOL    HW232622   1.908   1.843   2.268  1.0354  3.1361  4.7328
 7054SOL     OW32623   3.621   2.901  10.180  0.4817 -0.0997 -0.4265
 7054SOL    HW132624   3.702   2.931  10.140  0.7738  0.4884  0.6298
 7054SOL    HW232625   3.558   2.907  10.108  0.2541 -1.0945 -0.3142
 7055SOL     OW32626   3.967   1.876  14.872 -0.1624  0.6746 -0.0358
 7055SOL    HW132627   4.002   1.964  14.885  1.1915 -0.0618  1.2634
 7055SOL    HW232628   3.913   1.886  14.794 -0.5545  0.9672  0.2737
 7056SOL     OW32629   1.296   0.466   6.635 -0.2114 -0.1449  0.7498
 7056SOL    HW132630   1.384   0.455   6.671  0.3290 -1.5341 -0.9784
 7056SOL    HW232631   1.306   0.543   6.579  1.3966 -1.0718 -0.2415
 7057SOL     OW32632   4.692   4.170   8.399  0.2242 -0.1882  0.0156
 7057SOL    HW132633   4.696   4.240   8.464  0.7310 -1.0429  0.8885
 7057SOL    HW232634   4.600   4.166   8.370 -0.0796  1.1059  0.7904
 7058SOL     OW32635   3.924   0.618   5.096  0.7197 -0.6032 -0.5857
 7058SOL    HW132636   3.998   0.672   5.067  0.0892  0.3301 -0.4816
 7058SOL    HW232637   3.845   0.667   5.075  0.5283 -0.3643  0.6731
 7059SOL     OW32638   0.022   1.872  11.998  0.0580  0.2117  0.0915
 7059SOL    HW132639   4.652   1.870  11.993  0.2045  2.3403 -2.9901
 7059SOL    HW232640   0.035   1.817  11.921 -0.9341  4.4405 -3.0788
 7060SOL     OW32641   1.061   3.101  16.192  0.3266  0.4737 -0.1942
 7060SOL    HW132642   1.027   3.117  16.104 -0.1078  1.0996  0.0860
 7060SOL    HW232643   1.099   3.186  16.214  1.7081 -0.1693 -0.0961
 7061SOL     OW32644   2.638   1.590  15.477  1.1964  0.4064 -0.3455
 7061SOL    HW132645   2.646   1.542  15.559 -0.6242 -1.0342 -1.0155
 7061SOL    HW232646   2.543   1.601  15.482  1.5720  2.1102  2.9552
 7062SOL     OW32647   1.930   2.560  16.628 -0.4025 -0.9770  0.0225
 7062SOL    HW132648   1.954   2.635  16.682 -2.2401 -1.0186  0.9107
 7062SOL    HW232649   1.873   2.604  16.564 -1.2273  2.2274  3.0034
 7063SOL     OW32650   1.340   0.697  14.247 -0.4274 -0.1060  0.3695
 7063SOL    HW132651   1.370   0.611  14.216 -1.5307 -0.3682  0.0052
 7063SOL    HW232652   1.395   0.751  14.191  0.2114  0.1851  1.2852
 7064SOL     OW32653   4.472   2.114   6.281 -0.0928  0.4554 -0.7322
 7064SOL    HW132654   4.423   2.088   6.358  0.2931  1.8511 -0.0055
 7064SOL    HW232655   4.415   2.079   6.213 -0.4468 -1.6460  0.6366
 7065SOL     OW32656   3.338   0.101   8.122 -0.2675  0.5195 -0.0455
 7065SOL    HW132657   3.402   0.104   8.193  1.4706  0.9460 -1.6208
 7065SOL    HW232658   3.290   0.019   8.132  1.9315 -0.9867 -1.8462
 7066SOL     OW32659   0.725   4.575   5.598 -0.0774  0.1991 -0.7463
 7066SOL    HW132660   0.746   4.584   5.505 -0.9446 -1.2037 -1.0701
 7066SOL    HW232661   0.816   4.572   5.629 -0.3717 -1.3005 -0.0035
 7067SOL     OW32662   1.708   3.728   6.754 -0.0901 -0.1320  0.5767
 7067SOL    HW132663   1.635   3.674   6.784 -3.7991  2.2181 -4.1875
 7067SOL    HW232664   1.766   3.730   6.830 -0.2591 -0.5212  0.7162
 7068SOL     OW32665   0.062   0.134  11.878 -0.1969 -0.0617  0.2914
 7068SOL    HW132666   0.115   0.056  11.897  0.4791  0.3807  0.2073
 7068SOL    HW232667   0.121   0.168  11.811 -2.2121 -0.7222 -1.8355
 7069SOL     OW32668   0.093   3.074   9.464 -0.4872  0.2640  0.8388
 7069SOL    HW132669   0.142   2.994   9.448 -0.0218  0.9010 -0.8994
 7069SOL    HW232670   0.088   3.064   9.559  0.7894 -1.8357  0.6883
 7070SOL     OW32671   1.132   0.240  11.310 -0.0469 -0.2527  0.0276
 7070SOL    HW132672   1.070   0.232  11.383  0.7532 -0.0327  0.7314
 7070SOL    HW232673   1.216   0.219  11.350  0.3101  0.8107 -0.1844
 7071SOL     OW32674   0.940   2.171  16.077  0.0009  0.0123  0.1409
 7071SOL    HW132675   0.916   2.206  15.991 -0.4319 -0.7016 -0.0340
 7071SOL    HW232676   0.889   2.090  16.074 -0.0946  0.0679  0.2459
 7072SOL     OW32677   2.911   2.845   9.181  0.6850  0.2287  0.3177
 7072SOL    HW132678   2.938   2.758   9.153  1.1443 -0.3109  2.4752
 7072SOL    HW232679   2.969   2.887   9.117  1.1935 -0.0112  0.6340
 7073SOL     OW32680   3.860   1.017   7.606  0.0276  0.1824  0.5466
 7073SOL    HW132681   3.905   1.079   7.548 -0.7084  0.8087  0.6463
 7073SOL    HW232682   3.923   0.946   7.620  0.9004  0.5120 -1.7082
 7074SOL     OW32683   2.635   0.202   5.043  0.4374 -0.0117 -0.3891
 7074SOL    HW132684   2.656   0.175   4.953  1.6403  1.7438 -0.6242
 7074SOL    HW232685   2.708   0.263   5.055  1.6866 -1.8098  1.1391
 7075SOL     OW32686   3.282   1.985  12.489  0.7421  0.4845  0.3922
 7075SOL    HW132687   3.311   2.069  12.526 -0.1758  0.3378  1.4610
 7075SOL    HW232688   3.241   1.959  12.572  0.5943  0.6286  0.3639
 7076SOL     OW32689   3.066   4.192   6.186 -0.1108  0.4006  0.6067
 7076SOL    HW132690   3.149   4.163   6.224 -0.8184 -1.8593  0.4594
 7076SOL    HW232691   3.026   4.230   6.265  1.7025  1.5795  0.9660
 7077SOL     OW32692   2.579   0.036  14.708  0.0125  0.5021  0.2048
 7077SOL    HW132693   2.614   0.117  14.671 -2.3619  1.4594  0.0220
 7077SOL    HW232694   2.648   4.700  14.682 -0.0375 -0.1552  1.5743
 7078SOL     OW32695   1.965   2.398   7.187  0.3785  0.3214 -0.2204
 7078SOL    HW132696   1.940   2.305   7.186 -1.1834  0.7235  4.4916
 7078SOL    HW232697   1.879   2.439   7.183 -1.0589 -2.4583  1.8857
 7079SOL     OW32698   3.527   2.220  12.158 -0.7731 -0.2672  0.1006
 7079SOL    HW132699   3.518   2.125  12.148 -3.0332 -0.1361  0.8351
 7079SOL    HW232700   3.573   2.256  12.083  0.6584 -2.0036  0.1421
 7080SOL     OW32701   4.720   2.725   4.493 -0.0102  0.6562  0.1112
 7080SOL    HW132702   4.653   2.768   4.440 -1.2038 -2.2965 -0.7529
 7080SOL    HW232703   0.066   2.738   4.430 -0.0015 -0.4432 -0.1114
 7081SOL     OW32704   2.881   1.286   4.985  0.5600 -0.0458 -0.2823
 7081SOL    HW132705   2.883   1.233   4.905  0.5557 -1.1364  0.4379
 7081SOL    HW232706   2.826   1.357   4.955  1.9243  0.6619 -1.1323
 7082SOL     OW32707   2.502   0.580   7.111  0.2529  0.1062 -0.3441
 7082SOL    HW132708   2.478   0.497   7.070  1.1665  0.6323 -1.9262
 7082SOL    HW232709   2.535   0.632   7.038 -1.3190 -1.0039 -1.8418
 7083SOL     OW32710   1.513   0.375   5.408 -0.2853 -0.0293  0.1550
 7083SOL    HW132711   1.560   0.299   5.373 -2.9975 -1.9590  0.6998
 7083SOL    HW232712   1.499   0.347   5.498  4.2036  0.5231  0.9987
 7084SOL     OW32713   2.844   0.682  11.014  0.2569  0.5722  0.0396
 7084SOL    HW132714   2.767   0.632  11.041  0.1109  0.3311 -0.8391
 7084SOL    HW232715   2.826   0.773  10.993  0.2164  0.1876 -1.5789
 7085SOL     OW32716   1.465   2.507   1.262  0.7656 -0.0680  0.0515
 7085SOL    HW132717   1.541   2.451   1.277  1.4548  0.5188 -1.1754
 7085SOL    HW232718   1.418   2.450   1.201 -1.0490  1.1718  0.2984
 7086SOL     OW32719   1.613   2.168   7.655 -0.2637 -0.7183  0.5129
 7086SOL    HW132720   1.678   2.113   7.611  0.6414  0.2439  0.6589
 7086SOL    HW232721   1.533   2.125   7.625 -0.3250 -0.1142 -0.1699
 7087SOL     OW32722   3.320   3.340  17.548  0.3294  0.6706 -0.1724
 7087SOL    HW132723   3.248   3.277  17.545  2.7002 -2.0648  1.0900
 7087SOL    HW232724   3.396   3.286  17.529 -1.3044 -1.2888 -1.0694
 7088SOL     OW32725   4.515   2.625   9.833 -0.2060  0.1767  0.3280
 7088SOL    HW132726   4.579   2.696   9.835  1.3298 -1.2457  2.1833
 7088SOL    HW232727   4.505   2.605   9.927  2.5563  0.7660  0.7332
 7089SOL     OW32728   3.402   4.521   8.194 -0.6301 -0.1751 -0.5196
 7089SOL    HW132729   3.425   4.608   8.226 -1.4842 -0.4937  0.9349
 7089SOL    HW232730   3.369   4.486   8.276 -0.0186  1.7104  0.5291
 7090SOL     OW32731   0.680   1.316  16.576 -0.6128  0.2410 -0.4546
 7090SOL    HW132732   0.660   1.308  16.669 -0.0045 -0.3334 -0.3767
 7090SOL    HW232733   0.726   1.400  16.569 -0.6178  0.2049 -0.9401
 7091SOL     OW32734   3.292   2.302   9.590  0.1287  0.0680  0.0204
 7091SOL    HW132735   3.345   2.236   9.636 -1.4976 -1.1545  0.1477
 7091SOL    HW232736   3.351   2.363   9.546 -0.3322  0.3826 -0.1592
 7092SOL     OW32737   0.312   4.515   8.281  0.2273  0.1346 -0.3710
 7092SOL    HW132738   0.242   4.454   8.257 -1.4879  1.7020  0.6170
 7092SOL    HW232739   0.280   4.590   8.230 -2.6942  0.5937  2.1111
 7093SOL     OW32740   0.495   2.629  15.009  0.7363 -0.4970 -0.4715
 7093SOL    HW132741   0.501   2.688  14.934  3.2117 -0.4706 -0.2489
 7093SOL    HW232742   0.480   2.694  15.078 -1.2927 -0.9718 -0.4784
 7094SOL     OW32743   4.313   3.926   6.160 -0.3036 -0.3526 -0.3135
 7094SOL    HW132744   4.345   4.014   6.182 -1.3191  0.6619 -2.7764
 7094SOL    HW232745   4.253   3.908   6.232 -0.7074  1.7577 -0.1059
 7095SOL     OW32746   3.166   2.833   5.760  0.0088  0.0578 -0.3659
 7095SOL    HW132747   3.255   2.802   5.744 -0.1800 -0.4364 -0.4880
 7095SOL    HW232748   3.158   2.906   5.698 -2.4019  0.0566 -0.0753
 7096SOL     OW32749   2.338   0.288   5.563 -0.0058 -0.7580 -0.0910
 7096SOL    HW132750   2.333   0.233   5.485  1.1386  0.1099 -0.7635
 7096SOL    HW232751   2.276   0.246   5.623 -0.6790 -0.4411 -0.5690
 7097SOL     OW32752   0.572   1.062   1.328 -0.1965  0.6574  0.0005
 7097SOL    HW132753   0.543   0.988   1.381  0.7751  0.2157 -0.0896
 7097SOL    HW232754   0.522   1.136   1.363 -1.6111 -0.3084  0.0191
 7098SOL     OW32755   1.711   2.160   2.938  0.5135  0.4680 -0.3922
 7098SOL    HW132756   1.783   2.097   2.945  0.6565  0.8866  2.0711
 7098SOL    HW232757   1.662   2.123   2.865 -1.3291 -0.6286  1.3766
 7099SOL     OW32758   0.810   3.255   4.668  0.4341 -0.1287 -1.2021
 7099SOL    HW132759   0.813   3.332   4.724  0.4818  0.1734 -1.6248
 7099SOL    HW232760   0.734   3.217   4.711 -0.4795  2.5244 -0.5358
 7100SOL     OW32761   1.263   2.880   0.535  0.5444 -0.2615 -0.4428
 7100SOL    HW132762   1.308   2.807   0.492 -2.5411 -2.4753  0.0720
 7100SOL    HW232763   1.330   2.948   0.544  0.1070 -0.0399  1.1620
 7101SOL     OW32764   0.005   0.498   3.914  0.2947  0.0231 -0.1437
 7101SOL    HW132765   0.100   0.493   3.904  0.5043  1.0685  1.3810
 7101SOL    HW232766   4.719   0.559   3.986 -2.1210 -0.1651 -0.3447
 7102SOL     OW32767   4.469   2.554  11.859 -0.2726  0.1249 -0.1768
 7102SOL    HW132768   4.449   2.472  11.904  0.8969 -0.5698 -0.9209
 7102SOL    HW232769   4.421   2.614  11.916  1.7624  0.0775  1.6184
 7103SOL     OW32770   3.689   2.342  14.000 -0.0117 -0.6833 -0.5554
 7103SOL    HW132771   3.691   2.431  13.965  1.8106 -1.1466 -1.6307
 7103SOL    HW232772   3.718   2.347  14.091 -1.0631  0.4982 -0.2790
 7104SOL     OW32773   1.919   1.521  16.043 -0.9569  0.2536 -0.1913
 7104SOL    HW132774   1.925   1.594  15.981  0.0973 -0.1828 -0.6047
 7104SOL    HW232775   1.939   1.455  15.977 -0.7700 -0.4732  0.5904
 7105SOL     OW32776   1.054   0.596  11.972 -0.1375 -0.4193  0.3506
 7105SOL    HW132777   1.148   0.598  11.987 -0.0843  0.4798 -0.1176
 7105SOL    HW232778   1.053   0.583  11.877 -0.7677 -2.7439  0.6660
 7106SOL     OW32779   2.309   1.300  16.980  0.4253  0.2524  0.0632
 7106SOL    HW132780   2.300   1.218  16.933  0.5344  0.3776 -0.1777
 7106SOL    HW232781   2.242   1.310  17.048 -0.0094  1.1680 -0.5017
 7107SOL     OW32782   0.759   2.443   3.052  0.0434 -0.1502  0.4028
 7107SOL    HW132783   0.732   2.503   3.122  0.0909  1.3265 -0.8385
 7107SOL    HW232784   0.726   2.494   2.978 -0.6170 -0.8996  0.1798
 7108SOL     OW32785   1.846   1.064  13.738  0.3533  0.4820 -0.0971
 7108SOL    HW132786   1.906   1.080  13.811  0.0771  2.7244 -0.3449
 7108SOL    HW232787   1.763   1.094  13.775  1.7227  1.4749  2.1231
 7109SOL     OW32788   0.320   3.455   1.641  0.0704  0.0837  0.8740
 7109SOL    HW132789   0.287   3.486   1.557 -1.1270  0.3464  1.4468
 7109SOL    HW232790   0.405   3.499   1.644 -0.0898  0.3941  0.9205
 7110SOL     OW32791   3.705   2.348   3.166 -0.0037 -0.0999 -0.1928
 7110SOL    HW132792   3.725   2.261   3.132  2.8253  0.6433 -0.4403
 7110SOL    HW232793   3.713   2.330   3.260 -2.6585 -1.5798 -0.2587
 7111SOL     OW32794   1.582   0.880  11.627  0.2178  0.0588  0.4235
 7111SOL    HW132795   1.632   0.958  11.601 -3.2878  1.8956 -0.8093
 7111SOL    HW232796   1.505   0.878  11.570  2.0017 -1.7018 -1.9375
 7112SOL     OW32797   4.038   1.794   5.547 -0.3634 -0.2106  0.2914
 7112SOL    HW132798   4.031   1.716   5.602 -0.1420 -0.2970  0.1980
 7112SOL    HW232799   3.983   1.767   5.474 -0.6913 -0.5407  0.6620
 7113SOL     OW32800   4.468   2.569   6.596 -0.0814  0.3021 -0.4403
 7113SOL    HW132801   4.454   2.657   6.561  1.7771  1.0801  0.7397
 7113SOL    HW232802   4.548   2.537   6.555  0.7579  0.1343  1.3084
 7114SOL     OW32803   3.429   4.158  12.987 -0.1381  0.7301  0.1274
 7114SOL    HW132804   3.374   4.129  13.059  1.3185 -4.2871 -0.7693
 7114SOL    HW232805   3.511   4.145  13.035  0.8447 -0.8628 -1.9367
 7115SOL     OW32806   3.145   4.558  13.760  0.1746 -1.2395 -0.5155
 7115SOL    HW132807   3.198   4.520  13.830 -0.8762  0.2431  1.0829
 7115SOL    HW232808   3.107   4.640  13.793  0.3291 -2.2634  2.2017
 7116SOL     OW32809   1.740   3.267  13.057 -0.2697  0.5265  0.6833
 7116SOL    HW132810   1.695   3.302  12.980  1.7416 -0.8349 -1.1331
 7116SOL    HW232811   1.762   3.350  13.099 -1.6446  1.8393 -1.2098
 7117SOL     OW32812   0.956   2.447   7.214  0.2119 -0.1167  0.0969
 7117SOL    HW132813   0.907   2.429   7.134  2.3554  1.1870 -1.5140
 7117SOL    HW232814   1.038   2.487   7.186  0.2911  0.6451  1.4000
 7118SOL     OW32815   1.190   2.584  14.387 -0.2023 -0.3498  0.2137
 7118SOL    HW132816   1.216   2.672  14.361 -0.2254 -0.7069 -1.0478
 7118SOL    HW232817   1.274   2.557  14.424 -0.2402  1.9933  1.9677
 7119SOL     OW32818   0.524   1.059   5.123  0.4935 -0.1544 -0.4127
 7119SOL    HW132819   0.574   1.136   5.151 -1.5524  0.0781  2.6131
 7119SOL    HW232820   0.443   1.077   5.171 -0.2921 -1.2103 -1.3613
 7120SOL     OW32821   0.586   2.409   8.558 -0.0502 -0.5252  0.0983
 7120SOL    HW132822   0.573   2.330   8.506 -1.5296 -0.7547  0.8077
 7120SOL    HW232823   0.653   2.377   8.618 -0.1429 -2.4073 -0.8236
 7121SOL     OW32824   2.932   2.321   0.365 -0.0512 -0.0671  0.0002
 7121SOL    HW132825   2.991   2.343   0.292 -0.0205  0.0816  0.0698
 7121SOL    HW232826   2.860   2.383   0.351  1.4168  1.6571  0.0230
 7122SOL     OW32827   0.364   0.944   5.684 -0.0901  0.4791 -1.1893
 7122SOL    HW132828   0.364   1.000   5.761  0.3626 -0.6183 -0.3872
 7122SOL    HW232829   0.290   0.967   5.628 -0.4130 -1.7147 -1.6573
 7123SOL     OW32830   3.008   0.597  10.777 -0.1235  0.1406  0.0330
 7123SOL    HW132831   2.968   0.599  10.864 -0.8435 -1.5087 -0.2467
 7123SOL    HW232832   2.982   0.683  10.744 -1.7567 -0.4317 -0.1929
 7124SOL     OW32833   2.756   1.001   0.774 -0.3725  0.3793  0.6591
 7124SOL    HW132834   2.713   1.085   0.793 -0.3338  0.3702  0.7899
 7124SOL    HW232835   2.816   1.006   0.848  1.3895 -0.2689 -0.7548
 7125SOL     OW32836   1.435   4.393   6.417 -0.1886 -0.0300  0.0797
 7125SOL    HW132837   1.420   4.436   6.501 -0.4941 -1.7696  0.9312
 7125SOL    HW232838   1.453   4.467   6.360  1.3422 -1.5622 -1.4131
 7126SOL     OW32839   1.060   4.517   6.455  0.1621  0.3679 -0.0368
 7126SOL    HW132840   1.049   4.610   6.435  0.0612  0.5020  0.6442
 7126SOL    HW232841   1.074   4.485   6.366  1.4248  1.2548 -0.1619
 7127SOL     OW32842   2.424   2.813   3.371 -0.0435  0.3444  0.6382
 7127SOL    HW132843   2.514   2.793   3.396  0.4382 -1.4282 -2.4976
 7127SOL    HW232844   2.437   2.799   3.277 -0.9933  0.4267  0.4918
 7128SOL     OW32845   2.263   1.553   0.722 -0.1576 -0.3259  0.5051
 7128SOL    HW132846   2.255   1.647   0.738  0.6098 -0.4951  1.8733
 7128SOL    HW232847   2.271   1.526   0.813  0.6480 -1.5387  0.0712
 7129SOL     OW32848   0.880   0.158   5.686  0.0342  0.1835  0.2551
 7129SOL    HW132849   0.814   0.226   5.676 -0.4727  0.1053  3.1851
 7129SOL    HW232850   0.928   0.166   5.603 -0.0780  0.8536  0.2551
 7130SOL     OW32851   4.647   1.557   9.302  0.2403 -0.2456 -0.0420
 7130SOL    HW132852   4.661   1.518   9.216 -0.4627 -1.2172  0.2840
 7130SOL    HW232853   4.686   1.644   9.292  0.9278 -0.3087  2.1015
 7131SOL     OW32854   4.432   4.595   7.190 -0.3550  0.1385  0.2140
 7131SOL    HW132855   4.451   4.619   7.281  0.1701 -0.2229  0.2047
 7131SOL    HW232856   4.487   4.516   7.193  0.3630  0.6521  0.7207
 7132SOL     OW32857   2.968   3.431   9.776  0.1836  0.0065 -0.2869
 7132SOL    HW132858   3.028   3.493   9.817 -0.0133  0.3709 -0.5527
 7132SOL    HW232859   2.895   3.487   9.753  0.3367  0.4090  0.2049
 7133SOL     OW32860   2.766   4.721  14.354 -0.2315 -0.4735 -0.0394
 7133SOL    HW132861   2.775   4.669  14.274  2.1616 -0.4399  0.2121
 7133SOL    HW232862   2.812   0.078  14.339  0.6345 -1.1110 -0.8673
 7134SOL     OW32863   4.287   1.312  10.257  0.4618  0.1351  0.0265
 7134SOL    HW132864   4.311   1.404  10.260  3.3671 -0.7245  2.0692
 7134SOL    HW232865   4.330   1.283  10.176 -0.0721  0.0427 -0.2283
 7135SOL     OW32866   0.184   3.030  11.820 -0.4687  0.0132 -0.0978
 7135SOL    HW132867   0.112   3.089  11.799 -0.3739 -0.7071 -2.4290
 7135SOL    HW232868   0.142   2.946  11.800 -0.2363 -0.2554  0.5468
 7136SOL     OW32869   0.254   3.540   3.729 -0.3723 -0.4427 -0.5988
 7136SOL    HW132870   0.167   3.563   3.760  0.0069  0.7198 -0.3762
 7136SOL    HW232871   0.296   3.621   3.758 -0.2729 -0.2857 -1.1908
 7137SOL     OW32872   1.594   2.782   5.134  0.1753  0.6123  0.1699
 7137SOL    HW132873   1.507   2.815   5.155  0.4502  0.5860  1.4062
 7137SOL    HW232874   1.592   2.768   5.040 -1.6558 -0.2283  0.3314
 7138SOL     OW32875   1.830   0.083   6.713 -0.3598 -0.1678 -0.7869
 7138SOL    HW132876   1.840   0.019   6.783  1.1900  1.3052  0.3397
 7138SOL    HW232877   1.741   0.064   6.685 -0.1565 -0.1434 -1.4640
 7139SOL     OW32878   1.897   1.272  13.915  0.1374  0.2455 -0.4807
 7139SOL    HW132879   1.841   1.346  13.892 -1.2561 -0.3803  0.8862
 7139SOL    HW232880   1.975   1.322  13.939 -0.1070  0.4159 -0.0436
 7140SOL     OW32881   3.826   3.248   8.418 -0.3963 -0.0857 -0.1712
 7140SOL    HW132882   3.789   3.331   8.388 -1.3622  0.0200  1.3025
 7140SOL    HW232883   3.872   3.211   8.343  0.7373  2.1779 -0.5761
 7141SOL     OW32884   0.223   4.279   6.629  0.5765  0.2974  0.1315
 7141SOL    HW132885   0.316   4.296   6.638  1.1457 -0.5893 -4.0520
 7141SOL    HW232886   0.191   4.369   6.622  1.1179  0.4262 -0.5913
 7142SOL     OW32887   3.636   2.066   6.399 -0.3882 -0.1793 -0.2039
 7142SOL    HW132888   3.598   2.008   6.332 -1.6921 -0.1456  0.5029
 7142SOL    HW232889   3.724   2.030   6.402  1.0189  3.6050  2.1550
 7143SOL     OW32890   1.232   4.635   2.549  0.1347 -0.1227  0.0324
 7143SOL    HW132891   1.227   4.555   2.602  0.5682  0.7067  1.3242
 7143SOL    HW232892   1.328   4.645   2.553 -0.0068  1.2540 -0.0754
 7144SOL     OW32893   2.538   0.802  17.387 -0.1672 -0.0368 -0.1583
 7144SOL    HW132894   2.562   0.816  17.479  0.0721 -0.5033 -0.1507
 7144SOL    HW232895   2.628   0.795  17.355  0.8519  0.6620  2.5143
 7145SOL     OW32896   4.498   1.300   4.475  0.1475 -0.1115  0.4966
 7145SOL    HW132897   4.516   1.340   4.560  2.6919 -0.6703  0.1943
 7145SOL    HW232898   4.581   1.313   4.431  0.0159 -0.7693  0.0590
 7146SOL     OW32899   2.743   1.503   2.888  0.4562 -1.0200 -0.3148
 7146SOL    HW132900   2.728   1.409   2.896  0.7824 -1.0457 -0.0164
 7146SOL    HW232901   2.707   1.526   2.973  2.5885 -2.5121  0.9883
 7147SOL     OW32902   1.807   0.566   8.481  0.5860  0.0336 -0.3506
 7147SOL    HW132903   1.832   0.571   8.574  0.4599  1.6159 -0.3979
 7147SOL    HW232904   1.725   0.615   8.479 -1.1944 -2.8726  1.7723
 7148SOL     OW32905   0.317   0.377  13.896 -0.1571 -0.0877 -0.3085
 7148SOL    HW132906   0.343   0.370  13.988 -0.1224  0.8544 -0.2537
 7148SOL    HW232907   0.235   0.427  13.899  1.2332  2.0212  2.2650
 7149SOL     OW32908   0.201   2.009   6.230 -0.1785  0.5288  0.1872
 7149SOL    HW132909   0.148   2.018   6.309  0.0042 -0.4238  0.4177
 7149SOL    HW232910   0.188   1.914   6.221 -1.6678  0.6769  0.7558
 7150SOL     OW32911   1.325   4.307  14.932 -0.5834 -0.2889 -0.4576
 7150SOL    HW132912   1.306   4.257  14.853  1.8016 -1.2439 -0.4585
 7150SOL    HW232913   1.323   4.240  15.001  0.7881 -1.3092 -1.4125
 7151SOL     OW32914   3.953   3.678   8.936 -0.5749 -0.1479 -0.0797
 7151SOL    HW132915   3.955   3.618   9.010 -0.4594 -0.5728 -0.4275
 7151SOL    HW232916   3.906   3.628   8.869 -0.3966  0.1957 -0.4592
 7152SOL     OW32917   0.641   2.052   2.754  0.2761 -0.3835 -0.3853
 7152SOL    HW132918   0.546   2.051   2.758  0.2156  0.1821 -2.0024
 7152SOL    HW232919   0.668   1.963   2.730 -2.1417 -1.6961  1.7374
 7153SOL     OW32920   2.221   0.654  10.238 -0.3951 -0.1949 -0.4374
 7153SOL    HW132921   2.252   0.564  10.250 -1.5330 -0.3540  1.4265
 7153SOL    HW232922   2.239   0.671  10.146  0.9915  0.7929  0.0213
 7154SOL     OW32923   4.471   0.259   9.101  0.3913  0.2464 -0.1348
 7154SOL    HW132924   4.500   0.347   9.076 -0.5152  0.5401 -0.1652
 7154SOL    HW232925   4.535   0.241   9.170  0.0196  0.5193  0.2819
 7155SOL     OW32926   4.299   0.913   2.843  0.3095  0.9231  0.2113
 7155SOL    HW132927   4.293   0.917   2.747  0.0957  0.8602  0.2235
 7155SOL    HW232928   4.283   0.823   2.872  1.1223  0.7559  0.1499
 7156SOL     OW32929   0.491   4.353  10.920  0.0941 -0.3520 -0.2017
 7156SOL    HW132930   0.459   4.404  10.995  1.1146  1.4365 -0.9858
 7156SOL    HW232931   0.409   4.350  10.870  0.4944 -3.2536 -0.6370
 7157SOL     OW32932   1.745   2.255   8.077 -0.0874  0.1072  0.0343
 7157SOL    HW132933   1.726   2.348   8.083  0.2754  0.1659  0.2874
 7157SOL    HW232934   1.660   2.215   8.090 -0.4326  1.1998  1.1637
 7158SOL     OW32935   4.296   4.289   3.450  0.7668  0.1843 -0.7922
 7158SOL    HW132936   4.360   4.324   3.387  1.9637 -0.2433  0.1974
 7158SOL    HW232937   4.248   4.231   3.391 -0.7020  0.4680  0.1452
 7159SOL     OW32938   1.736   0.933   2.016 -0.0803  0.3297 -0.1846
 7159SOL    HW132939   1.706   0.857   1.966  0.4859 -1.0138  1.5136
 7159SOL    HW232940   1.830   0.915   2.016 -0.6657 -2.7561  1.1933
 7160SOL     OW32941   0.121   4.428   2.350  0.0542  0.7264  0.1321
 7160SOL    HW132942   0.210   4.448   2.379  0.0791 -0.3069  0.7708
 7160SOL    HW232943   0.091   4.519   2.346  0.6097  0.8515 -1.4148
 7161SOL     OW32944   3.235   0.276   7.240  0.5966  0.0932  0.5833
 7161SOL    HW132945   3.154   0.325   7.245  0.2256 -0.5850  1.3139
 7161SOL    HW232946   3.276   0.283   7.327 -0.2679 -0.0543  0.9978
 7162SOL     OW32947   1.443   4.697   8.295  0.1300  0.0651 -0.0029
 7162SOL    HW132948   1.424   4.697   8.388  1.1200  0.4325  0.1968
 7162SOL    HW232949   1.354   4.711   8.263 -0.4984 -0.5807  1.4904
 7163SOL     OW32950   4.188   1.059  15.191 -0.1896  0.1607  0.0524
 7163SOL    HW132951   4.143   1.026  15.268  0.0852  0.6474  0.4163
 7163SOL    HW232952   4.246   0.984  15.175 -1.2235 -0.0889 -2.7130
 7164SOL     OW32953   1.668   3.187   6.751 -0.0436 -0.4206  0.2976
 7164SOL    HW132954   1.629   3.104   6.777 -1.9592  0.3143 -0.2120
 7164SOL    HW232955   1.683   3.231   6.834  1.2311  0.0199 -0.1555
 7165SOL     OW32956   1.205   4.119   5.282 -0.0084 -0.0388  0.3516
 7165SOL    HW132957   1.136   4.164   5.331  0.9412  3.2947 -1.3446
 7165SOL    HW232958   1.171   4.052   5.222  0.5465  0.6607 -0.7549
 7166SOL     OW32959   4.666   2.588  16.739  0.0228  0.4393 -0.0384
 7166SOL    HW132960   4.679   2.663  16.798  0.6770  1.3778 -1.3668
 7166SOL    HW232961   4.598   2.539  16.785  0.0434  1.2258  0.8342
 7167SOL     OW32962   0.478   0.288   0.864  0.4623 -0.2771  0.0373
 7167SOL    HW132963   0.423   0.363   0.884  0.3161 -0.6037  0.8933
 7167SOL    HW232964   0.562   0.306   0.906 -0.3694 -0.8059  1.9637
 7168SOL     OW32965   1.839   3.569  13.712  0.5429  0.8821 -0.1624
 7168SOL    HW132966   1.864   3.534  13.797 -1.0764  0.2469  0.0588
 7168SOL    HW232967   1.815   3.657  13.741 -0.2301  0.5476  0.2354
 7169SOL     OW32968   1.293   4.259   0.048 -0.3075 -0.0574 -0.2131
 7169SOL    HW132969   1.306   4.169   0.080 -1.0000  0.1880  0.7395
 7169SOL    HW232970   1.374   4.272  17.700  0.1221 -0.6799  0.3331
 7170SOL     OW32971   1.355   0.256   5.851 -0.1258  0.4898 -0.4359
 7170SOL    HW132972   1.264   0.239   5.828 -0.6683  1.4947  0.9874
 7170SOL    HW232973   1.370   0.350   5.841 -0.0426  0.2070 -2.9881
 7171SOL     OW32974   1.776   3.220   8.968 -0.2030 -0.2305  0.0137
 7171SOL    HW132975   1.822   3.136   8.979  1.7868  0.8186 -0.2954
 7171SOL    HW232976   1.803   3.235   8.878 -1.1374  1.2467 -0.0048
 7172SOL     OW32977   2.300   1.613  15.933 -0.1442  0.1812 -0.3465
 7172SOL    HW132978   2.359   1.686  15.916 -0.8826  0.5913 -1.0972
 7172SOL    HW232979   2.222   1.643  15.888 -1.0225 -0.7888  0.5271
 7173SOL     OW32980   1.253   2.529   8.034  0.1845 -0.2241  0.4393
 7173SOL    HW132981   1.284   2.516   7.945 -2.4242 -0.1594 -0.4673
 7173SOL    HW232982   1.211   2.615   8.037 -0.3375 -0.3867 -3.3078
 7174SOL     OW32983   0.797   1.282  13.516 -0.4658  0.0089 -0.0298
 7174SOL    HW132984   0.746   1.216  13.564 -0.2733 -2.5464 -3.4135
 7174SOL    HW232985   0.765   1.277  13.426 -0.2934 -0.2285 -0.0782
 7175SOL     OW32986   0.890   1.910  16.989 -0.4566 -0.2149 -0.4008
 7175SOL    HW132987   0.965   1.851  16.997 -1.7010 -1.7693 -0.1757
 7175SOL    HW232988   0.840   1.866  16.919 -1.1522  1.9508 -1.2646
 7176SOL     OW32989   2.665   2.201  10.886  0.7532 -0.2241  0.0043
 7176SOL    HW132990   2.635   2.161  10.967 -1.1950 -1.2793 -1.2564
 7176SOL    HW232991   2.704   2.280  10.925  0.3426 -1.2467  2.4658
 7177SOL     OW32992   2.130   0.966  12.953 -0.1439 -0.2075  0.0341
 7177SOL    HW132993   2.178   0.911  13.015  1.2094  1.6346  0.6000
 7177SOL    HW232994   2.052   0.984  13.005 -0.4414 -1.3010 -0.0260
 7178SOL     OW32995   2.707   3.548  10.256 -0.3476  0.1190 -0.1581
 7178SOL    HW132996   2.699   3.453  10.248 -1.8916  0.3319 -1.1483
 7178SOL    HW232997   2.615   3.563  10.278 -0.5369 -1.7824  0.3193
 7179SOL     OW32998   0.581   4.020   4.108  0.5782  0.0514 -0.0143
 7179SOL    HW132999   0.496   3.993   4.074  0.7738 -1.1733  0.4827
 7179SOL    HW233000   0.558   4.105   4.146 -1.6149 -0.4720 -0.1871
 7180SOL     OW33001   1.697   2.246   3.913  0.3340  0.2191 -0.3388
 7180SOL    HW133002   1.659   2.216   3.995 -2.3251  0.6338 -1.4230
 7180SOL    HW233003   1.692   2.161   3.869 -1.6503  0.5879 -0.8103
 7181SOL     OW33004   3.953   0.490   1.060 -0.4938 -0.1490  0.4839
 7181SOL    HW133005   3.923   0.403   1.035  0.5099  0.0992 -1.5227
 7181SOL    HW233006   3.871   0.525   1.095 -0.8252 -0.0818 -0.3583
 7182SOL     OW33007   0.184   0.412   2.706 -0.8444  0.2047  0.4406
 7182SOL    HW133008   0.137   0.458   2.775  0.5436 -0.8558  2.1016
 7182SOL    HW233009   0.261   0.387   2.758 -1.0977 -0.1389  0.6512
 7183SOL     OW33010   0.009   4.403  14.844  0.5760  0.1768  0.0057
 7183SOL    HW133011   0.006   4.350  14.764 -0.9744 -0.2021  0.3256
 7183SOL    HW233012   4.708   4.336  14.906 -0.0793  0.5543  0.1369
 7184SOL     OW33013   3.653   2.367  11.972  0.2749 -0.1569  0.0766
 7184SOL    HW133014   3.713   2.295  11.953  0.5205 -0.6102  2.5060
 7184SOL    HW233015   3.711   2.441  11.950 -0.9834  0.3437 -1.5287
 7185SOL     OW33016   0.666   1.021   9.983 -0.1320 -0.2123 -0.0809
 7185SOL    HW133017   0.746   1.006  10.032 -0.9466 -0.3831  1.1969
 7185SOL    HW233018   0.647   1.115   9.986  1.9015  0.1713  0.5928
 7186SOL     OW33019   1.631   4.485   1.451 -0.4965  0.3584  0.1356
 7186SOL    HW133020   1.630   4.429   1.528  1.0541 -0.4270 -0.4207
 7186SOL    HW233021   1.564   4.547   1.479  1.2220  2.0203  0.5817
 7187SOL     OW33022   0.735   4.414   6.844 -0.0875  0.4287 -0.9284
 7187SOL    HW133023   0.787   4.423   6.764  0.5048 -0.3234 -0.6194
 7187SOL    HW233024   0.699   4.503   6.854 -0.1368  0.3807 -0.6818
 7188SOL     OW33025   1.841   3.746  13.022 -0.0794  0.0278  0.1386
 7188SOL    HW133026   1.877   3.807  12.958 -0.4255  2.0997  1.8985
 7188SOL    HW233027   1.758   3.790  13.044 -0.3923 -0.0349 -0.9087
 7189SOL     OW33028   0.440   1.025  16.303  0.1254 -0.1875 -0.3034
 7189SOL    HW133029   0.363   1.061  16.347 -0.3827 -0.1974 -1.1857
 7189SOL    HW233030   0.495   1.103  16.312  1.8693 -1.6164  1.6303
 7190SOL     OW33031   3.157   4.006   8.507  0.2555  0.6973  0.3124
 7190SOL    HW133032   3.176   3.916   8.482  0.5992  0.2023  2.2928
 7190SOL    HW233033   3.093   3.987   8.576  0.4706  0.7624  0.5325
 7191SOL     OW33034   3.126   3.347   8.983 -0.0795 -0.1058 -0.1747
 7191SOL    HW133035   3.069   3.420   9.008 -0.6555 -0.3251 -0.8501
 7191SOL    HW233036   3.209   3.393   8.999 -0.7876  1.5921 -1.3181
 7192SOL     OW33037   2.690   2.488   8.218  0.2596  0.1072  0.2268
 7192SOL    HW133038   2.599   2.474   8.246  0.4533 -0.3834  0.5930
 7192SOL    HW233039   2.740   2.414   8.252  0.4465  0.1691  0.0866
 7193SOL     OW33040   4.187   2.375   3.157  0.0526 -0.5126  0.1938
 7193SOL    HW133041   4.265   2.394   3.209 -1.4935  2.8110  1.2454
 7193SOL    HW233042   4.149   2.316   3.222  1.8396 -2.1893 -0.2787
 7194SOL     OW33043   4.002   1.159   2.397 -0.0379  0.3337  0.8534
 7194SOL    HW133044   3.954   1.076   2.405  0.9696 -0.4047 -0.6071
 7194SOL    HW233045   3.944   1.203   2.335 -2.9544 -1.1190  2.5701
 7195SOL     OW33046   4.704   1.108  13.473  0.3887  0.9234  0.5583
 7195SOL    HW133047   4.695   1.023  13.430  0.9745 -0.5243  3.3202
 7195SOL    HW233048   4.613   1.135  13.464 -0.1020 -0.0195  2.5521
 7196SOL     OW33049   1.500   0.257  14.737  0.2095 -0.2770  0.1120
 7196SOL    HW133050   1.421   0.204  14.745  1.2876 -1.8529  0.2260
 7196SOL    HW233051   1.456   0.341  14.724 -0.2821 -0.4607  0.5777
 7197SOL     OW33052   2.491   2.192   0.904 -0.0189 -0.5864 -0.4104
 7197SOL    HW133053   2.498   2.287   0.891  2.5799 -0.6435  0.5619
 7197SOL    HW233054   2.402   2.175   0.875 -0.0032 -1.5017  0.0881
 7198SOL     OW33055   0.837   0.385   1.408 -0.2891  0.0611 -0.7142
 7198SOL    HW133056   0.893   0.346   1.475 -1.7705 -1.1092 -0.1569
 7198SOL    HW233057   0.762   0.326   1.398 -0.9294  0.4638  1.5565
 7199SOL     OW33058   0.795   0.406   0.656  0.3534 -0.1032  0.3744
 7199SOL    HW133059   0.814   0.335   0.595 -5.1045 -0.3062 -1.1246
 7199SOL    HW233060   0.873   0.459   0.671 -0.1391  0.9592 -0.8304
 7200SOL     OW33061   3.369   2.489   2.748 -0.2229 -0.4910  0.5665
 7200SOL    HW133062   3.334   2.572   2.780  1.2942  0.1563  0.5493
 7200SOL    HW233063   3.391   2.436   2.825  0.2382  2.0752  2.2001
 7201SOL     OW33064   2.935   2.034  10.798 -0.3782 -0.3170 -0.2266
 7201SOL    HW133065   2.979   2.048  10.882  1.5551  0.9331 -1.4322
 7201SOL    HW233066   2.887   1.952  10.810 -1.2911  0.2017 -0.3097
 7202SOL     OW33067   1.273   3.526   8.457 -0.4755  0.3772 -0.3715
 7202SOL    HW133068   1.202   3.539   8.394 -0.4985 -0.4488 -0.5134
 7202SOL    HW233069   1.317   3.610   8.445 -1.0855  0.5988 -1.0660
 7203SOL     OW33070   1.676   1.156   6.965 -0.0320 -0.1255  0.2182
 7203SOL    HW133071   1.770   1.156   6.947 -0.4646  1.2981 -2.0314
 7203SOL    HW233072   1.647   1.075   6.923  2.9239 -1.0381 -0.1217
 7204SOL     OW33073   2.641   0.909   3.580  0.2725  0.1653 -0.2647
 7204SOL    HW133074   2.632   0.961   3.660 -1.1892 -0.6300  0.0936
 7204SOL    HW233075   2.585   0.833   3.598 -0.4762  0.6759 -0.4370
 7205SOL     OW33076   0.691   2.265   3.357  0.1545 -0.1129 -0.6502
 7205SOL    HW133077   0.647   2.282   3.273 -0.1423 -1.4723 -0.7759
 7205SOL    HW233078   0.614   2.256   3.413  0.6706 -0.3787  0.0135
 7206SOL     OW33079   3.289   2.004  16.762  0.0337 -0.9603  0.9544
 7206SOL    HW133080   3.327   2.073  16.817 -2.7225  0.2038  1.3642
 7206SOL    HW233081   3.206   2.050  16.758  1.2636  1.3331  1.6579
 7207SOL     OW33082   3.532   1.854   4.658 -0.0950 -0.3223 -0.0176
 7207SOL    HW133083   3.450   1.866   4.609  0.8184  0.0051 -1.4640
 7207SOL    HW233084   3.535   1.926   4.721 -1.9699  0.2188 -0.5289
 7208SOL     OW33085   1.205   0.865  11.801 -0.8658  1.0279 -0.2647
 7208SOL    HW133086   1.170   0.899  11.884 -1.6356  0.9773 -0.5744
 7208SOL    HW233087   1.250   0.786  11.830 -2.2470  0.1981 -0.4202
 7209SOL     OW33088   0.281   2.880   9.392  0.4591  0.1722  0.1211
 7209SOL    HW133089   0.360   2.847   9.350 -0.1790 -1.4411  0.2288
 7209SOL    HW233090   0.252   2.913   9.307 -0.6562  0.2822  0.5428
 7210SOL     OW33091   1.847   0.847   4.277 -0.6643  0.5974 -0.0372
 7210SOL    HW133092   1.906   0.773   4.260 -0.9052  0.4889 -0.4152
 7210SOL    HW233093   1.782   0.816   4.340  0.4219 -0.2220  0.6840
 7211SOL     OW33094   2.488   3.780   2.744  0.2456  0.0570 -0.1943
 7211SOL    HW133095   2.397   3.784   2.774  1.3700  1.2360  3.0472
 7211SOL    HW233096   2.504   3.866   2.705 -0.1418  0.7338  1.1359
 7212SOL     OW33097   2.357   2.353   2.305 -0.2823 -0.0098  0.0587
 7212SOL    HW133098   2.446   2.318   2.312  0.1636  0.9639 -0.6345
 7212SOL    HW233099   2.313   2.310   2.378  1.0026  1.8753  1.9263
 7213SOL     OW33100   2.640   2.639   9.430 -0.4637  0.4439  0.5218
 7213SOL    HW133101   2.679   2.552   9.422  0.7989  0.9392  1.4340
 7213SOL    HW233102   2.549   2.614   9.448 -1.7152  2.7501 -2.5894
 7214SOL     OW33103   3.111   1.459   8.231  0.9545 -0.4211 -0.1120
 7214SOL    HW133104   3.178   1.406   8.187  1.3229 -1.1580  1.3272
 7214SOL    HW233105   3.168   1.535   8.241 -0.1440  0.4235 -0.2884
 7215SOL     OW33106   4.091   0.818   4.276  0.3741 -0.0962  0.0374
 7215SOL    HW133107   4.061   0.905   4.250  0.3729  0.5786  2.3482
 7215SOL    HW233108   4.157   0.825   4.345 -0.6698  0.0163  1.0274
 7216SOL     OW33109   2.984   4.628   5.689 -0.1055 -0.2582  0.4925
 7216SOL    HW133110   3.018   4.645   5.600  0.4831  0.0016  0.7628
 7216SOL    HW233111   3.003   4.535   5.699  0.0970 -0.3540 -0.6808
 7217SOL     OW33112   1.973   0.162  15.198 -0.4942  0.3584 -0.5637
 7217SOL    HW133113   2.053   0.138  15.244 -0.6957  0.0970 -0.3472
 7217SOL    HW233114   1.983   0.257  15.185 -3.0176  1.0106  2.1506
 7218SOL     OW33115   3.493   0.935   3.232 -0.4053 -0.0095 -0.2283
 7218SOL    HW133116   3.469   1.027   3.227 -2.8754 -0.6259  0.3025
 7218SOL    HW233117   3.486   0.922   3.326  1.3867 -3.0373 -0.5101
 7219SOL     OW33118   2.946   3.843   6.832  0.9434 -0.0765 -0.2456
 7219SOL    HW133119   2.988   3.830   6.917  0.6772 -0.2110 -0.1329
 7219SOL    HW233120   2.988   3.921   6.796  0.9037 -0.2813 -0.7391
 7220SOL     OW33121   1.264   2.148  14.371  0.1305 -0.2691  0.2885
 7220SOL    HW133122   1.320   2.201  14.314 -0.3232  0.5037  0.5544
 7220SOL    HW233123   1.197   2.127  14.307  1.2107  0.4279 -1.0700
 7221SOL     OW33124   2.830   0.256   8.263 -0.3129  0.2391 -0.4034
 7221SOL    HW133125   2.870   0.264   8.176 -1.3310 -1.5610 -1.0398
 7221SOL    HW233126   2.752   0.201   8.254 -0.5617  0.6557 -0.8074
 7222SOL     OW33127   3.183   3.247  15.903  0.2672  0.3103 -0.0814
 7222SOL    HW133128   3.140   3.203  15.976  0.8933 -0.6132 -0.2689
 7222SOL    HW233129   3.117   3.295  15.853 -0.7133  0.4821  1.3898
 7223SOL     OW33130   3.080   1.109   6.077 -0.0089 -0.2477 -0.1659
 7223SOL    HW133131   3.139   1.060   6.019  1.4416  2.8737 -1.2933
 7223SOL    HW233132   3.133   1.116   6.157 -0.7883  3.7401 -0.0226
 7224SOL     OW33133   3.589   4.530  11.737  0.4909  0.2148  0.4516
 7224SOL    HW133134   3.526   4.602  11.730 -0.7153 -0.9560 -0.4356
 7224SOL    HW233135   3.669   4.581  11.754 -0.1143  1.7619 -1.3302
 7225SOL     OW33136   1.898   3.061  12.780 -0.6757  0.5388 -0.4030
 7225SOL    HW133137   1.987   3.028  12.795 -0.4477  0.7247 -1.3387
 7225SOL    HW233138   1.892   3.052  12.685  1.8778  0.7650 -0.6033
 7226SOL     OW33139   3.922   0.508   9.031 -0.4922 -0.4739 -0.3356
 7226SOL    HW133140   3.951   0.428   9.075 -0.6260 -0.4595 -0.2201
 7226SOL    HW233141   3.827   0.513   9.046 -0.0176 -1.1642  2.9648
 7227SOL     OW33142   2.278   0.831   4.176  0.0066 -0.0803 -0.1660
 7227SOL    HW133143   2.318   0.745   4.162 -1.5059 -0.8545  0.3555
 7227SOL    HW233144   2.225   0.810   4.252 -0.1697  2.0821  0.2940
 7228SOL     OW33145   2.308   3.058  10.205  0.1553  0.0553 -0.1151
 7228SOL    HW133146   2.393   3.014  10.193  0.3514  0.7305 -1.1860
 7228SOL    HW233147   2.324   3.090  10.293 -1.4094  2.1000 -0.5702
 7229SOL     OW33148   2.538   3.477   5.124  0.2726  0.2373  0.3240
 7229SOL    HW133149   2.455   3.430   5.136 -0.2263  0.7798 -1.0188
 7229SOL    HW233150   2.521   3.563   5.162 -0.5136  0.1953  0.0748
 7230SOL     OW33151   2.161   0.351  11.807 -0.7336 -0.3419  0.1891
 7230SOL    HW133152   2.199   0.339  11.894  1.7048  0.6042 -0.7463
 7230SOL    HW233153   2.232   0.401  11.767 -0.5234  0.9359  2.2204
 7231SOL     OW33154   0.246   0.728   0.369  0.4523 -0.2177  0.7381
 7231SOL    HW133155   0.317   0.665   0.383  0.2461 -1.4281 -3.7781
 7231SOL    HW233156   0.176   0.667   0.346  1.2386 -1.2443  1.0863
 7232SOL     OW33157   0.518   4.270   6.298  0.1773  0.0174  0.0715
 7232SOL    HW133158   0.584   4.340   6.295 -1.7732  1.8291 -0.2332
 7232SOL    HW233159   0.557   4.207   6.238  1.4438  0.1684  0.7332
 7233SOL     OW33160   4.556   4.687  11.430  0.0283 -0.2251 -0.5447
 7233SOL    HW133161   4.601   4.653  11.507  2.8037  4.0465 -0.2810
 7233SOL    HW233162   4.462   4.669  11.439  0.4176 -1.7976  0.3870
 7234SOL     OW33163   2.000   2.115   4.585  0.8650  0.4544  0.4274
 7234SOL    HW133164   2.067   2.054   4.618 -2.9911 -2.6084  2.6061
 7234SOL    HW233165   2.011   2.113   4.490  1.6140  1.1808  0.4921
 7235SOL     OW33166   1.129   1.377   6.525 -0.4319 -0.1790 -0.2565
 7235SOL    HW133167   1.142   1.313   6.455 -0.5907  0.3327 -0.7532
 7235SOL    HW233168   1.151   1.333   6.607  0.1198  0.7143  0.0851
 7236SOL     OW33169   4.040   1.068   3.389 -0.0146 -0.2161  0.5209
 7236SOL    HW133170   4.042   1.140   3.326 -0.3018 -1.4617 -0.9450
 7236SOL    HW233171   4.001   0.996   3.338 -3.5881  0.9919  1.5813
 7237SOL     OW33172   4.684   3.701   1.717  0.1150  0.5336 -0.5197
 7237SOL    HW133173   4.604   3.744   1.747 -0.3699 -0.5399 -0.2472
 7237SOL    HW233174   4.691   3.723   1.624 -3.1038  1.0807 -0.6459
 7238SOL     OW33175   0.989   2.560   6.778 -0.4028 -0.2980 -0.9484
 7238SOL    HW133176   1.034   2.551   6.694  0.3977 -1.6416 -0.3875
 7238SOL    HW233177   1.036   2.636   6.813 -1.3128 -0.4457  0.6196
 7239SOL     OW33178   2.631   1.218   0.341  0.3975  0.0888  0.2401
 7239SOL    HW133179   2.630   1.244   0.433 -1.2240  0.4642  0.1261
 7239SOL    HW233180   2.539   1.196   0.327  0.4474 -0.2036  0.3712
 7240SOL     OW33181   0.571   0.312  14.732  0.7501  0.0968 -0.5169
 7240SOL    HW133182   0.491   0.358  14.705  0.6547  1.2446  1.7172
 7240SOL    HW233183   0.641   0.374  14.713  0.9855 -0.3688 -1.1729
 7241SOL     OW33184   2.980   1.822   6.508 -0.4005  0.0396  0.3021
 7241SOL    HW133185   2.963   1.916   6.515  0.9425  0.2428  0.7844
 7241SOL    HW233186   2.991   1.786   6.596  2.7277 -0.3382 -0.2571
 7242SOL     OW33187   3.085   4.406   8.022 -0.2872  0.3230 -0.1995
 7242SOL    HW133188   3.032   4.392   8.101  0.2815  0.0073  0.1211
 7242SOL    HW233189   3.104   4.322   7.982 -0.9669  0.7065 -1.3348
 7243SOL     OW33190   4.485   3.308  13.251 -0.1531  0.0916  0.0438
 7243SOL    HW133191   4.428   3.279  13.180 -2.4525  1.6217  1.2425
 7243SOL    HW233192   4.502   3.401  13.233  0.3759 -0.3776 -1.8293
 7244SOL     OW33193   0.441   4.070   2.431  0.4601 -0.4878 -0.5527
 7244SOL    HW133194   0.427   4.162   2.410 -1.9852 -1.6249 -3.9240
 7244SOL    HW233195   0.356   4.038   2.401  0.5777 -2.6433  1.4051
 7245SOL     OW33196   2.008   1.074   7.731  0.0534 -0.3079  0.0756
 7245SOL    HW133197   2.067   1.077   7.655  0.2474 -0.9891  0.1995
 7245SOL    HW233198   2.056   1.012   7.786  1.3310  0.4478 -0.1783
 7246SOL     OW33199   4.156   0.959   5.258 -0.0317  0.1403 -0.0576
 7246SOL    HW133200   4.065   0.977   5.282 -0.6074  0.8919 -2.7708
 7246SOL    HW233201   4.207   0.998   5.329  0.3636  0.0679 -0.2956
 7247SOL     OW33202   3.179   3.562   9.443 -0.8281  0.4150 -0.4696
 7247SOL    HW133203   3.260   3.511   9.442 -0.8596  0.3815 -1.4500
 7247SOL    HW233204   3.190   3.626   9.513 -1.5478 -0.8311  0.7843
 7248SOL     OW33205   2.303   0.860  15.847 -0.1690  0.3673  0.2982
 7248SOL    HW133206   2.248   0.927  15.887  0.7110 -0.0361  2.1883
 7248SOL    HW233207   2.357   0.825  15.918 -1.0560  2.8558  2.2103
 7249SOL     OW33208   0.221   3.407   3.986 -0.1408 -0.2858  0.4011
 7249SOL    HW133209   0.168   3.462   3.928 -0.3589 -0.7872  0.1204
 7249SOL    HW233210   0.296   3.465   3.975  1.8712 -2.7358  1.3648
 7250SOL     OW33211   2.031   1.440   8.295 -0.7494 -0.5202 -0.2246
 7250SOL    HW133212   1.944   1.431   8.335 -0.8339  2.0050  0.1123
 7250SOL    HW233213   2.010   1.467   8.206 -1.0008  0.6552  0.1968
 7251SOL     OW33214   0.757   0.453   1.816 -0.4243 -0.0371  0.4078
 7251SOL    HW133215   0.674   0.487   1.851 -0.5913 -2.0108  1.9236
 7251SOL    HW233216   0.751   0.364   1.850 -0.5673  0.0493  0.6062
 7252SOL     OW33217   0.775   1.281   2.797 -0.2190  0.0924  0.4415
 7252SOL    HW133218   0.817   1.367   2.804 -0.4511  0.4933 -2.8390
 7252SOL    HW233219   0.740   1.280   2.886  1.6779  1.2173  1.1962
 7253SOL     OW33220   3.571   1.928   3.058 -0.1323  0.4867  0.5298
 7253SOL    HW133221   3.615   2.009   3.086 -0.9906  0.9534  0.5217
 7253SOL    HW233222   3.510   1.956   2.991  1.7362  1.6018 -0.7204
 7254SOL     OW33223   2.152   0.852  12.366  0.3627  0.2004  0.1168
 7254SOL    HW133224   2.224   0.910  12.388 -1.4867  2.4370  0.2210
 7254SOL    HW233225   2.176   0.774  12.417 -1.9238 -0.2249  0.5851
 7255SOL     OW33226   2.462   2.281  14.411 -0.2572  0.1960  0.0497
 7255SOL    HW133227   2.448   2.236  14.495 -0.7889  1.3741  0.5940
 7255SOL    HW233228   2.430   2.216  14.348  2.1828 -0.5644 -0.4143
 7256SOL     OW33229   3.320   2.604   5.055 -0.3186 -0.3446  0.3686
 7256SOL    HW133230   3.286   2.524   5.095 -0.3894 -0.4859  0.0295
 7256SOL    HW233231   3.240   2.629   5.009  1.1120  2.0612 -0.8115
 7257SOL     OW33232   1.284   3.207   7.823 -0.1416  0.0946 -0.6930
 7257SOL    HW133233   1.281   3.288   7.873  0.7767 -0.4077  0.1526
 7257SOL    HW233234   1.359   3.167   7.866 -0.6349  0.1351  0.1961
 7258SOL     OW33235   2.735   0.545   4.883  0.2800 -0.0229 -0.5942
 7258SOL    HW133236   2.759   0.453   4.873  1.1648  0.1881 -0.4142
 7258SOL    HW233237   2.773   0.572   4.967  2.1282  0.9758 -1.7783
 7259SOL     OW33238   3.777   3.005   3.748 -0.3326 -0.2726 -0.1493
 7259SOL    HW133239   3.756   3.019   3.840 -1.8413 -3.0535 -0.0775
 7259SOL    HW233240   3.762   3.090   3.705  0.1872 -0.8367 -1.4421
 7260SOL     OW33241   0.040   0.411   5.803  0.1225 -0.2260 -0.0800
 7260SOL    HW133242   4.698   0.433   5.867 -0.5907  0.1046 -0.9318
 7260SOL    HW233243   0.107   0.390   5.868  0.4254 -1.5176 -0.8003
 7261SOL     OW33244   0.412   3.408   2.394  0.6325 -0.1331 -0.5093
 7261SOL    HW133245   0.493   3.455   2.413  0.9133 -0.9590  0.3612
 7261SOL    HW233246   0.380   3.384   2.481  1.2313 -0.2563 -0.3218
 7262SOL     OW33247   1.536   3.558   6.892  0.2367 -0.6023 -0.5481
 7262SOL    HW133248   1.561   3.477   6.936  1.2632 -0.0203 -0.0724
 7262SOL    HW233249   1.450   3.582   6.926 -0.4745 -1.5305 -1.7091
 7263SOL     OW33250   0.364   3.230   4.823 -0.1780  0.1768 -0.0694
 7263SOL    HW133251   0.306   3.207   4.896  0.3004 -1.3081 -0.1713
 7263SOL    HW233252   0.423   3.292   4.867  2.1047 -0.8265 -1.7413
 7264SOL     OW33253   3.624   1.739  15.697 -0.2042  0.6220 -0.4940
 7264SOL    HW133254   3.546   1.776  15.655 -1.3323 -1.3395 -0.1228
 7264SOL    HW233255   3.691   1.806  15.683  0.1635  1.1085  3.5589
 7265SOL     OW33256   2.201   2.051   9.380  0.7160  0.4381  0.4227
 7265SOL    HW133257   2.173   2.106   9.454 -1.3805 -0.5687  0.3703
 7265SOL    HW233258   2.153   1.969   9.387  1.6482 -0.1569 -0.2952
 7266SOL     OW33259   3.958   2.056   7.390 -0.3031  0.0215 -0.3213
 7266SOL    HW133260   4.029   2.112   7.421 -0.5443  0.4094 -0.4762
 7266SOL    HW233261   3.982   1.984   7.449 -0.2028 -0.5235 -1.0272
 7267SOL     OW33262   3.727   0.305   3.280  0.2779 -0.1817  0.4382
 7267SOL    HW133263   3.670   0.244   3.232  0.8906 -1.3236  1.1762
 7267SOL    HW233264   3.673   0.381   3.304  0.4940  0.2378 -0.4084
 7268SOL     OW33265   3.180   4.530   9.358  0.3893 -0.1324  0.5149
 7268SOL    HW133266   3.225   4.614   9.362 -1.8175  1.0947 -0.4976
 7268SOL    HW233267   3.216   4.483   9.282 -0.5014  0.8460 -0.5026
 7269SOL     OW33268   0.274   2.476   5.747  0.4002 -0.1010  0.0342
 7269SOL    HW133269   0.344   2.411   5.756  0.1633 -0.4298 -0.4684
 7269SOL    HW233270   0.206   2.431   5.696  0.6991  0.1449 -0.5793
 7270SOL     OW33271   3.959   4.033   1.606 -0.8046 -0.2744 -0.3971
 7270SOL    HW133272   4.045   3.995   1.620 -1.1491 -0.8115  0.2692
 7270SOL    HW233273   3.913   3.955   1.574 -2.1283 -0.7386  2.5659
 7271SOL     OW33274   0.394   3.209  12.210  0.0813  0.1861 -0.4019
 7271SOL    HW133275   0.311   3.219  12.255 -0.0823 -2.1620 -0.1621
 7271SOL    HW233276   0.370   3.250  12.127 -0.9342  0.4844  0.0362
 7272SOL     OW33277   0.428   4.271   5.995  0.3319 -0.1320 -0.0112
 7272SOL    HW133278   0.506   4.309   6.037 -0.3528  1.5194 -0.2140
 7272SOL    HW233279   0.473   4.202   5.947 -0.2311  0.4494 -1.3642
 7273SOL     OW33280   4.075   0.203  13.733  0.0062  0.3614  0.1740
 7273SOL    HW133281   4.142   0.193  13.665 -1.3589  1.3442 -1.3423
 7273SOL    HW233282   4.103   0.287  13.768  1.1451  0.6569 -1.4184
 7274SOL     OW33283   2.882   1.629  14.193  0.3900  0.4715  0.6193
 7274SOL    HW133284   2.938   1.571  14.246  1.3017 -0.7773 -1.7311
 7274SOL    HW233285   2.944   1.699  14.177 -1.0586  1.3438 -1.0942
 7275SOL     OW33286   3.498   2.472   8.336 -0.0432  0.5981  0.7345
 7275SOL    HW133287   3.525   2.508   8.421  0.9655 -1.1974  1.1759
 7275SOL    HW233288   3.403   2.463   8.339 -0.0502  0.7252  0.9744
 7276SOL     OW33289   4.355   4.615   6.536  0.4447 -0.1597  0.1461
 7276SOL    HW133290   4.307   4.594   6.616  1.3349 -0.6506  0.5501
 7276SOL    HW233291   4.365   4.530   6.493 -1.4597 -0.3791  0.1236
 7277SOL     OW33292   1.136   3.281  10.830 -0.2449 -0.3417 -0.0695
 7277SOL    HW133293   1.125   3.299  10.737 -0.3242  2.0701  0.3856
 7277SOL    HW233294   1.229   3.287  10.851  0.1357  1.4891 -2.1880
 7278SOL     OW33295   1.349   3.592   7.327  1.0336 -0.4634  0.3166
 7278SOL    HW133296   1.364   3.600   7.421 -0.1884 -1.7661  0.6049
 7278SOL    HW233297   1.263   3.551   7.324  0.2993  1.1405 -1.0316
 7279SOL     OW33298   1.862   3.585   8.189  0.6870 -0.5887  0.0063
 7279SOL    HW133299   1.811   3.534   8.127 -0.7198  3.2935 -2.0572
 7279SOL    HW233300   1.952   3.588   8.158  0.5468 -1.1096 -0.4392
 7280SOL     OW33301   0.356   3.324   1.867  0.6330 -0.8181  0.0259
 7280SOL    HW133302   0.341   3.371   1.786 -1.3477 -0.6013  0.5124
 7280SOL    HW233303   0.379   3.394   1.928  0.3927  1.9208 -3.0539
 7281SOL     OW33304   1.318   3.031   3.392 -0.0796 -0.0755  0.1117
 7281SOL    HW133305   1.295   3.089   3.319 -1.5540 -0.5125  0.2252
 7281SOL    HW233306   1.249   2.967   3.376  2.1068 -2.4197  0.0274
 7282SOL     OW33307   0.381   2.306   1.125 -0.1506  0.0077  0.4971
 7282SOL    HW133308   0.315   2.339   1.186 -0.8351 -1.6986  0.6730
 7282SOL    HW233309   0.361   2.340   1.037  1.2993 -0.8540 -0.1661
 7283SOL     OW33310   2.388   1.045   8.853 -0.0518 -0.2446  0.2145
 7283SOL    HW133311   2.468   1.040   8.906 -0.5083  1.2478  1.0532
 7283SOL    HW233312   2.376   1.140   8.857  0.5164 -0.1745  0.2657
 7284SOL     OW33313   3.839   0.832   3.866  0.0391  0.5979 -0.0356
 7284SOL    HW133314   3.792   0.894   3.921 -2.3184 -1.4837  0.2607
 7284SOL    HW233315   3.922   0.825   3.913 -0.2115 -1.7079  0.0545
 7285SOL     OW33316   3.125   4.032   7.079 -0.3865 -0.0275 -0.4263
 7285SOL    HW133317   3.075   4.029   7.161  0.5590 -1.1495  0.1137
 7285SOL    HW233318   3.198   4.084   7.112 -0.4167 -0.7413  0.7891
 7286SOL     OW33319   1.542   0.388   8.641 -0.1691  0.8593  0.2660
 7286SOL    HW133320   1.578   0.456   8.584  2.2843  0.0400  0.8304
 7286SOL    HW233321   1.562   0.411   8.731 -0.1710 -3.9636  1.5252
 7287SOL     OW33322   0.264   0.457   8.874  0.0377 -0.9972  0.1139
 7287SOL    HW133323   0.316   0.512   8.932 -0.8491 -1.3462  1.2447
 7287SOL    HW233324   0.205   0.522   8.837 -0.6661 -1.0321  1.1699
 7288SOL     OW33325   2.566   3.553  10.527  0.0547  0.3119  0.3168
 7288SOL    HW133326   2.614   3.469  10.529 -1.4937 -0.5536  1.1450
 7288SOL    HW233327   2.519   3.561  10.610 -2.1912 -0.3182 -0.9099
 7289SOL     OW33328   2.788   0.689   8.716 -0.0900  0.2509  0.1396
 7289SOL    HW133329   2.780   0.785   8.714  1.7718  0.4248  1.5135
 7289SOL    HW233330   2.735   0.667   8.792  0.5020 -1.1353  0.1417
 7290SOL     OW33331   2.530   1.775   0.968 -0.3633 -0.0992  0.3530
 7290SOL    HW133332   2.596   1.824   0.918  0.3169 -2.2059 -0.8168
 7290SOL    HW233333   2.560   1.691   0.933 -1.8533  0.9301 -3.4040
 7291SOL     OW33334   0.092   0.753   6.016  0.5151 -0.1818 -0.2254
 7291SOL    HW133335   0.074   0.808   6.093 -1.3619 -0.8549 -0.1689
 7291SOL    HW233336   0.132   0.674   6.051 -0.2214 -0.7060 -0.5809
 7292SOL     OW33337   3.804   1.620  15.884  0.5995 -0.0990 -0.8263
 7292SOL    HW133338   3.732   1.675  15.855  0.2742  1.1014  2.2991
 7292SOL    HW233339   3.882   1.639  15.832  1.2976  2.9272  1.3579
 7293SOL     OW33340   4.104   3.735   1.208 -0.4062 -0.3290 -0.3734
 7293SOL    HW133341   4.012   3.720   1.232 -0.0074  0.3121  1.5447
 7293SOL    HW233342   4.087   3.801   1.140  1.7619  1.6760  1.0407
 7294SOL     OW33343   1.730   0.786   0.213  0.1330  0.2298 -0.2503
 7294SOL    HW133344   1.765   0.848   0.148 -0.2653  0.2415 -0.4490
 7294SOL    HW233345   1.647   0.766   0.171 -0.9656  2.2384  0.9500
 7295SOL     OW33346   2.745   4.058   5.308 -0.2805  0.2170 -0.2983
 7295SOL    HW133347   2.653   4.032   5.313  0.0126 -0.6323  0.6247
 7295SOL    HW233348   2.745   4.116   5.385 -0.9956 -0.4653  0.2178
 7296SOL     OW33349   4.384   3.803   5.348 -0.3225  0.3784  0.2022
 7296SOL    HW133350   4.330   3.803   5.270  0.8247  1.7394 -0.6024
 7296SOL    HW233351   4.315   3.821   5.412  1.5593  1.8390  1.8191
 7297SOL     OW33352   3.483   3.042   0.362 -0.3134 -0.0585  0.1899
 7297SOL    HW133353   3.569   3.050   0.322  0.6110  1.6085  2.5378
 7297SOL    HW233354   3.437   2.972   0.314 -2.5877  2.3816 -1.1582
 7298SOL     OW33355   4.455   3.602   7.762 -0.1903  0.2483 -0.2050
 7298SOL    HW133356   4.475   3.695   7.775  1.4540 -0.6998  4.0781
 7298SOL    HW233357   4.378   3.594   7.819 -0.1801 -2.4222 -0.5772
 7299SOL     OW33358   0.185   1.188   1.269  0.5394 -0.6185  0.5320
 7299SOL    HW133359   0.166   1.276   1.235 -0.8061 -1.8078 -1.7540
 7299SOL    HW233360   0.230   1.140   1.199  0.3827 -0.9728  0.6781
 7300SOL     OW33361   2.524   2.120   0.402 -0.0733  0.0933 -0.0711
 7300SOL    HW133362   2.542   2.131   0.309 -0.2854  1.9016  0.0949
 7300SOL    HW233363   2.495   2.204   0.438  1.0509  1.2755 -1.9226
 7301SOL     OW33364   2.672   1.563   3.151  0.1661  0.0513 -0.2190
 7301SOL    HW133365   2.669   1.618   3.230 -1.7817  1.0825 -1.0046
 7301SOL    HW233366   2.669   1.484   3.204 -1.1190  0.6369  0.5891
 7302SOL     OW33367   4.275   2.136   2.595 -0.2061 -0.4573  0.0201
 7302SOL    HW133368   4.293   2.156   2.687 -0.0685  3.7690 -0.9115
 7302SOL    HW233369   4.179   2.136   2.597 -0.2100 -0.6025 -0.2151
 7303SOL     OW33370   2.981   2.141   0.802 -0.0393 -0.7004  0.0310
 7303SOL    HW133371   2.892   2.151   0.835 -0.7743 -0.5351 -1.9877
 7303SOL    HW233372   3.013   2.098   0.881  0.0037  0.2789  0.5514
 7304SOL     OW33373   1.074   1.435   1.631 -0.0486 -0.6098  0.2810
 7304SOL    HW133374   1.032   1.349   1.619 -0.5352 -0.1485 -1.3986
 7304SOL    HW233375   1.133   1.411   1.702 -2.5025  2.1190  3.2014
 7305SOL     OW33376   1.085   2.636   4.167  0.4939  0.2959  0.4023
 7305SOL    HW133377   1.001   2.669   4.198  0.5614 -0.0584  0.9729
 7305SOL    HW233378   1.048   2.582   4.097 -1.7795 -0.5339  2.2868
 7306SOL     OW33379   2.108   0.325   3.164  0.2383  0.6973  0.4379
 7306SOL    HW133380   2.184   0.274   3.192 -1.2125 -1.2665  0.8752
 7306SOL    HW233381   2.151   0.377   3.097 -0.6900  1.6917  0.6097
 7307SOL     OW33382   3.254   2.477   0.411  0.2977  0.3739  0.5826
 7307SOL    HW133383   3.317   2.412   0.440  1.2245  1.0808  0.1647
 7307SOL    HW233384   3.242   2.442   0.322  2.0171  0.1860  0.4313
 7308SOL     OW33385   2.455   1.326   2.420  0.0655 -0.1355 -0.1817
 7308SOL    HW133386   2.366   1.298   2.400 -0.8257  1.5545  1.4596
 7308SOL    HW233387   2.470   1.368   2.335 -1.0528  1.4912  0.4434
 7309SOL     OW33388   3.560   1.155   6.124 -0.2401 -0.3507  0.0969
 7309SOL    HW133389   3.524   1.214   6.058  1.2116  0.0212 -0.3646
 7309SOL    HW233390   3.481   1.169   6.177  0.4536  2.1708  0.4608
 7310SOL     OW33391   2.695   3.733  10.954  0.2144  0.0431  0.5468
 7310SOL    HW133392   2.740   3.772  10.879  1.4010 -0.1694  1.1402
 7310SOL    HW233393   2.690   3.640  10.930 -0.4826  0.5537 -1.2809
 7311SOL     OW33394   0.265   2.857   8.008 -0.0905  0.3761 -0.1325
 7311SOL    HW133395   0.194   2.856   8.071 -0.2771 -2.3171 -0.3883
 7311SOL    HW233396   0.214   2.850   7.927 -1.1611 -0.2650  0.6039
 7312SOL     OW33397   4.123   1.726  15.844  1.2219  0.5457  0.4232
 7312SOL    HW133398   4.190   1.728  15.775  0.2418  0.1635 -0.5328
 7312SOL    HW233399   4.128   1.811  15.887 -0.9093  2.2161 -2.6351
 7313SOL     OW33400   1.365   0.009   8.541 -0.1340  0.6847 -0.2131
 7313SOL    HW133401   1.321   0.092   8.562 -0.9973  0.2459 -0.2567
 7313SOL    HW233402   1.330   4.684   8.616 -1.2459 -0.3567 -1.4272
 7314SOL     OW33403   0.394   3.094   4.586  0.2252  0.5831  0.0222
 7314SOL    HW133404   0.357   3.159   4.526 -1.0369 -0.9392 -0.8475
 7314SOL    HW233405   0.382   3.143   4.667  1.7576 -1.6718  1.5988
 7315SOL     OW33406   4.489   4.723   2.236 -0.5247 -0.2328 -0.0518
 7315SOL    HW133407   4.477   0.083   2.279  0.9899 -0.8399  1.5289
 7315SOL    HW233408   4.495   0.034   2.147  4.1919 -0.8872  0.0231
 7316SOL     OW33409   2.688   0.712   4.298 -0.6269 -0.3255  0.2190
 7316SOL    HW133410   2.782   0.732   4.299 -0.6330 -0.3320  1.8821
 7316SOL    HW233411   2.683   0.696   4.393  1.8874 -1.3018  0.2044
 7317SOL     OW33412   0.078   1.274   6.067 -0.0987 -0.2413 -0.5831
 7317SOL    HW133413   0.146   1.207   6.072 -0.5803 -0.7601 -1.0554
 7317SOL    HW233414   0.012   1.242   6.129  0.0087  0.2242 -0.2241
 7318SOL     OW33415   3.262   1.145  13.494  0.6411  1.0600  0.8227
 7318SOL    HW133416   3.355   1.124  13.493  1.0621  2.9763 -1.1929
 7318SOL    HW233417   3.231   1.066  13.538 -0.7180  0.6259 -0.8602
 7319SOL     OW33418   4.149   0.768  16.470  0.9495 -0.1671 -0.1650
 7319SOL    HW133419   4.232   0.812  16.487 -0.0211 -0.1525  4.3527
 7319SOL    HW233420   4.106   0.842  16.427 -1.3760 -1.5106 -0.1831
 7320SOL     OW33421   1.980   1.867   9.338  0.1317 -0.5795  0.1331
 7320SOL    HW133422   1.973   1.827   9.251  0.2614 -1.4862  0.5416
 7320SOL    HW233423   1.926   1.946   9.327 -0.7309 -0.9594  1.6707
 7321SOL     OW33424   1.617   3.197   8.135  0.0991  0.5256 -0.2547
 7321SOL    HW133425   1.536   3.231   8.173 -0.0237 -0.4760  0.3818
 7321SOL    HW233426   1.656   3.161   8.215 -0.7247  1.2067  0.4622
 7322SOL     OW33427   1.815   2.914   8.250 -0.2030 -0.2030  0.1095
 7322SOL    HW133428   1.724   2.883   8.247 -0.5775  0.8637  0.4384
 7322SOL    HW233429   1.811   2.964   8.331 -0.3317  1.4453 -0.9066
 7323SOL     OW33430   3.203   2.272   7.268 -0.0878 -0.1420  0.4511
 7323SOL    HW133431   3.232   2.181   7.266 -0.8453 -0.3419 -1.0221
 7323SOL    HW233432   3.204   2.279   7.364  1.7660  0.0035  0.4277
 7324SOL     OW33433   1.056   4.223  10.053  0.1051  0.4534  0.0702
 7324SOL    HW133434   0.971   4.213  10.011 -0.3373  2.8322  0.4012
 7324SOL    HW233435   1.036   4.228  10.146 -0.4548 -0.4464 -0.0089
 7325SOL     OW33436   3.277   1.931  16.363  0.2734  0.7375  0.5443
 7325SOL    HW133437   3.270   1.893  16.450  0.9222 -0.3932  0.0991
 7325SOL    HW233438   3.326   1.869  16.308  0.0738  0.8577  0.2339
 7326SOL     OW33439   2.491   1.311   5.863  0.1798  0.1181  0.3723
 7326SOL    HW133440   2.493   1.219   5.891  1.0807 -0.6340 -2.1789
 7326SOL    HW233441   2.504   1.347   5.951 -1.5043 -0.8915  1.0447
 7327SOL     OW33442   3.267   2.248  12.845  0.3800  0.1216 -0.3660
 7327SOL    HW133443   3.261   2.153  12.853  0.0585  0.1609 -0.1354
 7327SOL    HW233444   3.196   2.270  12.905  0.7431 -3.8895  1.5261
 7328SOL     OW33445   3.678   3.594   7.348  0.1830  0.5620 -0.0204
 7328SOL    HW133446   3.617   3.560   7.413  1.3168 -1.6969 -0.1389
 7328SOL    HW233447   3.634   3.679   7.339 -2.1450 -0.6176  0.2996
 7329SOL     OW33448   1.661   3.269   7.087 -0.1450  0.1443  0.5686
 7329SOL    HW133449   1.668   3.213   7.165  3.2679 -0.7744 -0.3859
 7329SOL    HW233450   1.577   3.310   7.107 -0.1811 -0.5212  1.8306
 7330SOL     OW33451   4.093   0.726  14.573  0.1385 -0.1358  0.2132
 7330SOL    HW133452   4.019   0.774  14.535 -0.2588  2.1615  3.8861
 7330SOL    HW233453   4.118   0.675  14.495 -0.4505  1.8836 -1.2865
 7331SOL     OW33454   3.076   2.438   2.993  0.2998 -0.2609 -0.3631
 7331SOL    HW133455   3.113   2.354   2.966  0.4832 -0.4420  0.4642
 7331SOL    HW233456   2.984   2.414   3.001  0.4101 -0.5133  0.1239
 7332SOL     OW33457   3.811   3.632  11.753  0.0454  0.0274  0.1902
 7332SOL    HW133458   3.761   3.551  11.762  1.7417 -0.9937  0.5062
 7332SOL    HW233459   3.895   3.591  11.771  0.3178  0.2429 -0.6091
 7333SOL     OW33460   3.381   4.166   3.004 -0.2678  0.2071 -0.8469
 7333SOL    HW133461   3.360   4.195   3.093  0.3899 -2.0429  0.0336
 7333SOL    HW233462   3.438   4.236   2.972  1.5160 -0.8661 -0.0311
 7334SOL     OW33463   2.695   4.422   8.262  0.3947 -0.0620  0.4693
 7334SOL    HW133464   2.742   4.385   8.188 -0.7329 -0.5475 -0.0102
 7334SOL    HW233465   2.771   4.438   8.318 -1.0902 -0.0864  2.5212
 7335SOL     OW33466   4.420   3.621   3.908  0.0441  0.9788  0.3807
 7335SOL    HW133467   4.338   3.669   3.895 -0.0244  0.6703 -0.3155
 7335SOL    HW233468   4.430   3.594   3.817 -0.7531 -0.9778  0.8701
 7336SOL     OW33469   0.603   2.253   7.716  0.1986 -0.2775 -0.2615
 7336SOL    HW133470   0.628   2.340   7.747 -0.5776 -0.7851  1.7284
 7336SOL    HW233471   0.508   2.259   7.713  0.2043  0.0894  0.3716
 7337SOL     OW33472   2.789   0.886   2.093 -0.0584 -0.3098  0.2229
 7337SOL    HW133473   2.806   0.941   2.017 -3.9739  0.3918 -0.1782
 7337SOL    HW233474   2.830   0.805   2.063  0.3878  0.5078 -1.3625
 7338SOL     OW33475   0.560   1.887  17.155 -0.6646 -0.3975  0.5805
 7338SOL    HW133476   0.500   1.875  17.082 -0.5617 -0.3735  0.4931
 7338SOL    HW233477   0.529   1.816  17.212  1.8887 -2.2927 -0.3933
 7339SOL     OW33478   2.115   1.956   2.223  0.7151  0.1780  0.5463
 7339SOL    HW133479   2.093   1.863   2.214 -0.3109  0.6249 -1.3829
 7339SOL    HW233480   2.209   1.952   2.243  0.4175 -3.5336  1.3200
 7340SOL     OW33481   4.651   1.984   4.423 -0.6015  0.3808  0.4011
 7340SOL    HW133482   4.646   2.077   4.447  1.7508  0.5220  0.3827
 7340SOL    HW233483   4.630   1.987   4.329 -0.2170 -0.2390  0.2949
 7341SOL     OW33484   1.313   1.461  12.378  0.0987 -0.7802 -0.1592
 7341SOL    HW133485   1.236   1.475  12.322 -0.3038 -0.7608  0.3917
 7341SOL    HW233486   1.271   1.420  12.454  1.8257 -1.0709  0.6206
 7342SOL     OW33487   0.023   2.454  15.338  0.0503 -0.2243 -0.3532
 7342SOL    HW133488   0.011   2.549  15.338 -1.3265 -0.4002 -0.4179
 7342SOL    HW233489   0.085   2.436  15.267 -1.6746 -1.2857 -1.6035
 7343SOL     OW33490   0.263   3.482   7.538  0.4237  0.1067 -0.0489
 7343SOL    HW133491   0.268   3.395   7.497  2.6333 -0.4960  1.5242
 7343SOL    HW233492   0.355   3.499   7.558  1.3989 -3.3038 -1.5529
 7344SOL     OW33493   0.386   1.425  17.269  0.0248  0.1821  0.3518
 7344SOL    HW133494   0.380   1.353  17.331  3.8508 -0.7738 -0.3831
 7344SOL    HW233495   0.304   1.470  17.289  1.2297  1.8677  1.4793
 7345SOL     OW33496   1.245   0.119  16.202 -0.3740 -0.3593 -0.0282
 7345SOL    HW133497   1.181   0.084  16.264 -0.6389  0.5978  0.2414
 7345SOL    HW233498   1.328   0.094  16.241 -0.1430  0.7128  0.1589
 7346SOL     OW33499   1.093   0.243   2.954 -0.3089 -0.1821 -0.1425
 7346SOL    HW133500   1.081   0.261   3.047 -1.5792  1.0542 -0.5478
 7346SOL    HW233501   1.173   0.190   2.960 -0.4145 -0.0925  2.2395
 7347SOL     OW33502   1.550   1.561   1.872  0.3188 -0.0550 -0.3417
 7347SOL    HW133503   1.515   1.476   1.899 -0.1098  1.2181  3.1458
 7347SOL    HW233504   1.546   1.551   1.777  0.4502 -1.6032 -0.1880
 7348SOL     OW33505   1.123   3.229   6.569 -0.4238 -0.2744 -0.3615
 7348SOL    HW133506   1.062   3.163   6.536 -0.4031  0.1425 -1.2335
 7348SOL    HW233507   1.207   3.196   6.536  0.3027  1.8126 -0.5691
 7349SOL     OW33508   2.624   0.983   4.443 -0.0067 -0.1166 -0.1799
 7349SOL    HW133509   2.554   0.923   4.470 -0.0535  0.5606  1.2259
 7349SOL    HW233510   2.693   0.918   4.428 -0.3557 -0.2686 -1.1422
 7350SOL     OW33511   3.890   2.777   2.073 -0.2256 -0.1896  0.0131
 7350SOL    HW133512   3.820   2.755   2.135 -0.4913  0.9219  0.1071
 7350SOL    HW233513   3.921   2.852   2.123 -0.9902 -1.3586  2.2189
 7351SOL     OW33514   0.768   0.023   3.760  0.1414  0.1872 -0.0492
 7351SOL    HW133515   0.773   0.000   3.667 -0.8379  2.5188 -0.6688
 7351SOL    HW233516   0.820   0.102   3.752  0.3066  0.1379  0.5318
 7352SOL     OW33517   2.997   0.745   0.432 -0.0628  0.4541  0.1899
 7352SOL    HW133518   3.055   0.735   0.507 -1.0669 -0.8080  0.7929
 7352SOL    HW233519   3.010   0.671   0.372  3.1936  0.9198  0.3069
 7353SOL     OW33520   2.731   0.839   2.356 -0.2423 -0.2589  0.0444
 7353SOL    HW133521   2.640   0.848   2.326 -0.1002  1.9232  0.3181
 7353SOL    HW233522   2.778   0.853   2.274 -1.5190  0.8963 -0.4973
 7354SOL     OW33523   1.856   3.721   6.986 -0.0315 -0.2672 -0.0647
 7354SOL    HW133524   1.877   3.655   7.053  0.6179 -1.0913 -1.0826
 7354SOL    HW233525   1.909   3.699   6.910  0.4168  0.6625 -0.0286
 7355SOL     OW33526   2.250   0.599   7.250 -0.8481  0.0493  0.7958
 7355SOL    HW133527   2.275   0.563   7.335 -0.7451 -0.7752  0.4159
 7355SOL    HW233528   2.197   0.527   7.216 -0.4443  0.6915 -1.2322
 7356SOL     OW33529   4.634   1.370   5.841  0.1666  0.3610 -0.2079
 7356SOL    HW133530   4.696   1.325   5.899 -0.6753  0.4941  0.8006
 7356SOL    HW233531   4.650   1.340   5.752  1.0543 -1.5343  0.6062
 7357SOL     OW33532   2.262   2.405  15.361 -0.2435 -0.0461  0.1586
 7357SOL    HW133533   2.174   2.438  15.344  0.6532  0.9314 -2.5736
 7357SOL    HW233534   2.274   2.439  15.450 -0.0379  3.5452 -1.2684
 7358SOL     OW33535   3.119   2.670   5.359  0.0203  0.0588  0.1014
 7358SOL    HW133536   3.184   2.601   5.371 -0.1740 -0.0628  0.4464
 7358SOL    HW233537   3.185   2.730   5.323  0.2841  0.0739  0.6063
 7359SOL     OW33538   1.617   3.970   5.024  0.1717  0.2553  0.0101
 7359SOL    HW133539   1.647   3.926   4.944  0.7324  2.8031 -1.1738
 7359SOL    HW233540   1.628   3.912   5.099  2.4081 -0.2881 -0.7268
 7360SOL     OW33541   0.283   1.936   6.822  0.0637  0.3413 -0.5096
 7360SOL    HW133542   0.311   1.876   6.753  1.0615  0.9568 -0.6433
 7360SOL    HW233543   0.198   1.964   6.787 -0.6813  0.6674  1.5763
 7361SOL     OW33544   1.269   1.838  17.209 -0.2797 -0.0095  0.0202
 7361SOL    HW133545   1.336   1.804  17.267  0.5273 -0.2085 -1.0293
 7361SOL    HW233546   1.188   1.842  17.261 -0.0607  1.0985  0.2601
 7362SOL     OW33547   1.814   2.257   5.190 -0.2543  0.0231 -0.8791
 7362SOL    HW133548   1.904   2.230   5.209 -2.0223 -3.9357  1.9937
 7362SOL    HW233549   1.800   2.218   5.104 -2.3160  0.9859 -0.9945
 7363SOL     OW33550   1.831   2.618   8.376  0.4949 -0.0745  0.8522
 7363SOL    HW133551   1.805   2.685   8.313  0.7483 -0.8109 -0.0343
 7363SOL    HW233552   1.914   2.584   8.344 -0.2791 -2.1851  1.0760
 7364SOL     OW33553   1.863   4.443   8.781 -0.2600 -0.5113  0.0420
 7364SOL    HW133554   1.818   4.527   8.794 -2.6762 -1.4821 -2.0832
 7364SOL    HW233555   1.836   4.408   8.866  2.9335 -0.4947  1.0399
 7365SOL     OW33556   2.356   4.489   7.925  0.1922  0.1118  0.7632
 7365SOL    HW133557   2.310   4.454   8.002  1.0791  1.9223  2.1103
 7365SOL    HW233558   2.277   4.512   7.875 -0.1923  0.2725  1.4450
 7366SOL     OW33559   2.957   2.516   6.068 -0.0346 -0.4075  0.0780
 7366SOL    HW133560   2.931   2.451   6.132 -0.0941 -0.2248  0.2411
 7366SOL    HW233561   2.999   2.582   6.123  0.4917 -0.0478 -0.7482
 7367SOL     OW33562   3.612   2.401   6.256 -0.5783  0.2339  0.2639
 7367SOL    HW133563   3.701   2.398   6.290  0.2005 -1.5426 -1.9510
 7367SOL    HW233564   3.571   2.352   6.328 -1.7193 -0.4888 -0.8660
 7368SOL     OW33565   1.137   1.826   9.954  0.0275  0.4977 -0.0828
 7368SOL    HW133566   1.063   1.887   9.949 -1.0750 -0.9099 -0.8056
 7368SOL    HW233567   1.208   1.857   9.898  0.1232  0.2984 -0.0709
 7369SOL     OW33568   0.760   2.278   2.082 -0.4186 -0.0398 -0.1061
 7369SOL    HW133569   0.671   2.278   2.048 -0.3999  0.3193 -0.1521
 7369SOL    HW233570   0.749   2.349   2.144  1.5619 -0.8640  1.1874
 7370SOL     OW33571   1.388   4.142   2.079  0.2248 -0.5226  0.0560
 7370SOL    HW133572   1.416   4.050   2.084  1.0048 -0.3100 -0.3608
 7370SOL    HW233573   1.311   4.156   2.134  0.5543  2.0639 -0.1633
 7371SOL     OW33574   2.905   0.136  11.051 -0.0864 -0.7760 -0.2190
 7371SOL    HW133575   2.878   0.141  10.959  1.8097 -1.9351 -0.8313
 7371SOL    HW233576   2.834   0.089  11.095 -0.6630 -0.1723 -0.5017
 7372SOL     OW33577   3.958   1.513  15.216 -0.8199 -0.6388 -0.3604
 7372SOL    HW133578   3.932   1.596  15.256  0.9402  0.7064 -2.0413
 7372SOL    HW233579   3.935   1.540  15.127  2.6505 -0.6366 -1.2502
 7373SOL     OW33580   4.197   2.554  12.778 -0.2986 -0.0872 -0.1887
 7373SOL    HW133581   4.218   2.488  12.844 -0.4008  1.3287  1.2445
 7373SOL    HW233582   4.268   2.545  12.715  1.9189  0.9496  2.1834
 7374SOL     OW33583   0.822   0.924   2.081  0.0156 -0.0752 -0.3113
 7374SOL    HW133584   0.743   0.881   2.115  0.0420  0.9185  1.0267
 7374SOL    HW233585   0.859   0.960   2.162  0.6392  2.6555 -1.8226
 7375SOL     OW33586   1.184   2.544   1.490 -0.0858  0.2601 -0.0163
 7375SOL    HW133587   1.123   2.583   1.552  1.5073  2.8403 -0.0955
 7375SOL    HW233588   1.267   2.565   1.533  0.4689 -0.3419 -0.7899
 7376SOL     OW33589   2.064   2.475  11.225 -0.4798  0.2967  0.1179
 7376SOL    HW133590   2.046   2.485  11.131  0.9990 -1.6751 -0.3694
 7376SOL    HW233591   2.039   2.384  11.240  0.6679 -0.3419 -1.8260
 7377SOL     OW33592   4.347   1.307   7.735 -0.5545  0.1787 -0.1204
 7377SOL    HW133593   4.333   1.310   7.640  0.0684 -0.4801 -0.2430
 7377SOL    HW233594   4.382   1.394   7.751 -0.7591  0.4769 -1.2719
 7378SOL     OW33595   2.159   3.671   4.436  0.5148 -0.0831  0.0742
 7378SOL    HW133596   2.182   3.650   4.346 -0.1530 -0.1445 -0.0854
 7378SOL    HW233597   2.238   3.646   4.484  0.3860  1.8464  1.2616
 7379SOL     OW33598   3.318   1.978   3.256  0.5792 -0.5947 -0.4399
 7379SOL    HW133599   3.233   1.964   3.215  1.0396  0.2789 -1.6907
 7379SOL    HW233600   3.369   1.898   3.249 -0.1419 -1.0586 -0.4512
 7380SOL     OW33601   2.657   3.947   1.980 -0.0668  0.4844 -0.2511
 7380SOL    HW133602   2.601   4.024   1.990 -1.7122 -0.7712  0.1774
 7380SOL    HW233603   2.622   3.897   2.054 -2.6883 -1.0477 -2.5303
 7381SOL     OW33604   1.251   0.076  15.881 -0.2674  0.6058 -0.2986
 7381SOL    HW133605   1.190   0.076  15.955 -0.1994 -0.2756 -0.2427
 7381SOL    HW233606   1.332   0.080  15.932 -0.8101  0.8758  0.5489
 7382SOL     OW33607   0.226   4.698  10.136  0.9212  0.0928  0.7121
 7382SOL    HW133608   0.177   4.722  10.058  3.1576  2.8355  0.1789
 7382SOL    HW233609   0.154   4.653  10.181 -1.4713 -1.2138 -4.4739
 7383SOL     OW33610   1.622   2.838   7.413  0.5648  0.5909 -1.1521
 7383SOL    HW133611   1.614   2.911   7.474  2.2442 -0.2097  0.0216
 7383SOL    HW233612   1.582   2.867   7.331 -0.5066  0.3383 -0.7242
 7384SOL     OW33613   0.163   1.551   3.592  0.0731 -0.0924  0.7801
 7384SOL    HW133614   0.072   1.522   3.600  0.8076 -2.5826  0.0108
 7384SOL    HW233615   0.152   1.579   3.501 -3.2411 -1.9113  0.6098
 7385SOL     OW33616   3.585   1.589  12.044  0.0614  0.5277 -0.0554
 7385SOL    HW133617   3.560   1.598  12.136 -2.6149  0.0878 -0.7285
 7385SOL    HW233618   3.649   1.518  12.050 -0.2477  0.2340 -0.1793
 7386SOL     OW33619   1.599   0.987  15.147  0.3058 -0.2997  0.3806
 7386SOL    HW133620   1.572   0.978  15.056 -2.3639 -1.5988  1.2890
 7386SOL    HW233621   1.644   1.071  15.141 -1.0512  0.5188  1.5434
 7387SOL     OW33622   0.651   2.082   5.628  0.2058 -0.2472  0.1741
 7387SOL    HW133623   0.657   1.998   5.674  1.8822  0.1864  0.7420
 7387SOL    HW233624   0.657   2.046   5.540  0.8536  0.3929 -0.0471
 7388SOL     OW33625   3.577   1.814   1.782 -0.3196  0.1748 -0.0171
 7388SOL    HW133626   3.546   1.782   1.697 -1.9043  0.1484  0.5515
 7388SOL    HW233627   3.647   1.871   1.753 -0.0026 -0.7957 -1.1698
 7389SOL     OW33628   0.614   0.199   1.999  0.2562 -0.2573  0.4980
 7389SOL    HW133629   0.552   0.208   2.072 -0.3043  0.0564 -0.0102
 7389SOL    HW233630   0.698   0.227   2.034  0.5897 -0.9897  0.2790
 7390SOL     OW33631   2.004   2.252   8.005 -0.0777 -0.1249  0.6609
 7390SOL    HW133632   2.015   2.273   7.912 -0.5252 -0.9793  0.4128
 7390SOL    HW233633   1.909   2.243   8.010 -0.3209  2.0980  0.1075
 7391SOL     OW33634   1.964   0.597   6.252  0.1948  0.5139 -0.5175
 7391SOL    HW133635   2.057   0.588   6.234  0.5102  2.3511  0.1670
 7391SOL    HW233636   1.953   0.643   6.335  0.4356 -1.4980  0.6307
 7392SOL     OW33637   0.697   1.042   9.347  0.5317  0.5947  0.4354
 7392SOL    HW133638   0.617   1.018   9.393  0.3014  1.6104  0.5531
 7392SOL    HW233639   0.660   1.122   9.311 -1.3172 -0.9930 -1.1992
 7393SOL     OW33640   0.445   1.863   4.365 -0.1508 -0.6006  0.1988
 7393SOL    HW133641   0.356   1.890   4.342 -0.7220 -1.1152  1.7958
 7393SOL    HW233642   0.433   1.831   4.454 -1.0317 -1.9307 -0.3815
 7394SOL     OW33643   4.298   1.203   8.648 -0.1641 -0.7309  0.3109
 7394SOL    HW133644   4.308   1.192   8.743 -3.0471 -0.0135  0.7280
 7394SOL    HW233645   4.235   1.275   8.648 -1.1089 -1.5576 -0.4409
 7395SOL     OW33646   1.454   1.855   6.527  0.3307 -0.1938  0.0170
 7395SOL    HW133647   1.509   1.807   6.465  0.2327 -0.4975  0.1646
 7395SOL    HW233648   1.519   1.865   6.597  1.7144  1.1282 -1.4805
 7396SOL     OW33649   1.985   1.888   9.069  0.2672  0.0860 -0.2527
 7396SOL    HW133650   1.942   1.896   8.983 -0.1645 -2.0905 -0.2276
 7396SOL    HW233651   2.028   1.974   9.072  1.4777 -0.4996 -0.8120
 7397SOL     OW33652   0.482   0.201   3.023  0.2606  0.2276  0.1014
 7397SOL    HW133653   0.522   0.256   3.091 -1.1425  1.1765  0.1744
 7397SOL    HW233654   0.530   0.119   3.033  1.4223  0.7811 -0.8964
 7398SOL     OW33655   2.692   3.034   3.379  0.4539 -0.4732  0.4637
 7398SOL    HW133656   2.717   2.945   3.354 -1.4991 -1.1348  0.8401
 7398SOL    HW233657   2.757   3.091   3.338 -0.4578  0.6119  0.5344
 7399SOL     OW33658   3.092   0.386   7.826  0.3275 -0.4795  0.0135
 7399SOL    HW133659   3.043   0.450   7.776  2.4733  1.3125  0.1649
 7399SOL    HW233660   3.088   0.303   7.778  0.2105 -1.2771  1.3852
 7400SOL     OW33661   4.340   3.070  11.606  0.1142 -0.1702  0.4625
 7400SOL    HW133662   4.370   3.019  11.681  1.4961 -1.9422 -1.3162
 7400SOL    HW233663   4.284   3.017  11.549 -1.8237  2.7470 -0.3524
 7401SOL     OW33664   2.283   0.652   9.967  0.2874 -0.4837 -0.0117
 7401SOL    HW133665   2.377   0.635   9.962  0.5198  0.0264  2.6117
 7401SOL    HW233666   2.266   0.701   9.887 -1.7653  2.1335  2.0392
 7402SOL     OW33667   0.456   0.945   1.903  0.1078  0.2190 -0.1197
 7402SOL    HW133668   0.393   0.977   1.839  1.4666  0.0887 -1.5270
 7402SOL    HW233669   0.466   1.023   1.957  1.0912  0.2213 -0.3037
 7403SOL     OW33670   2.039   4.201  10.192  0.5257 -0.3135 -0.2904
 7403SOL    HW133671   2.121   4.154  10.183  1.4884  1.0049  1.4877
 7403SOL    HW233672   2.031   4.204  10.288  0.8415 -0.1190 -0.2701
 7404SOL     OW33673   2.193   3.926  10.587  0.3625  0.2938  0.0336
 7404SOL    HW133674   2.119   3.959  10.638 -2.1098 -1.4080 -2.4187
 7404SOL    HW233675   2.229   4.002  10.542  0.9208 -1.6543 -2.8542
 7405SOL     OW33676   2.095   0.819   3.577 -0.3214 -0.0253 -0.5026
 7405SOL    HW133677   2.114   0.738   3.530  2.2759 -0.3264  1.1213
 7405SOL    HW233678   2.163   0.838   3.642 -1.3572  0.7030  0.3755
 7406SOL     OW33679   2.418   4.632   5.422 -0.3532 -0.6690  0.0030
 7406SOL    HW133680   2.349   4.684   5.463  1.3956  0.2687  1.7914
 7406SOL    HW233681   2.367   4.591   5.353  0.4363 -1.0144 -0.3803
 7407SOL     OW33682   0.201   1.698   9.688 -0.1166  0.1639  0.0403
 7407SOL    HW133683   0.218   1.651   9.606 -0.2915  0.7079 -0.3114
 7407SOL    HW233684   0.206   1.782   9.642 -1.3830  1.1494  1.6919
 7408SOL     OW33685   4.405   0.517   7.265 -0.2241 -0.3547  0.1873
 7408SOL    HW133686   4.330   0.568   7.234 -0.7461 -0.6018  1.0495
 7408SOL    HW233687   4.385   0.426   7.242  0.4130 -0.3170 -0.5142
 7409SOL     OW33688   3.191   3.775  12.653 -0.2969  0.0548  0.5933
 7409SOL    HW133689   3.250   3.767  12.578  0.0606  2.4869  0.6285
 7409SOL    HW233690   3.103   3.792  12.619 -0.0696  1.7034  0.8428
 7410SOL     OW33691   4.657   1.808  12.258 -0.2278 -0.8211  0.5174
 7410SOL    HW133692   4.699   1.838  12.177 -0.7190  0.4487  0.7286
 7410SOL    HW233693   0.002   1.813  12.323  1.3174  2.4673 -1.3567
 7411SOL     OW33694   0.260   3.247   4.384  0.4101 -0.2923  0.3381
 7411SOL    HW133695   0.302   3.332   4.400 -0.9321  0.0833  1.9064
 7411SOL    HW233696   0.178   3.281   4.348  1.3971  1.5397 -0.1625
 7412SOL     OW33697   3.175   3.591   4.983 -0.1932  0.1349  0.0633
 7412SOL    HW133698   3.137   3.504   4.998  0.6246 -0.1969  0.2197
 7412SOL    HW233699   3.211   3.581   4.895 -0.8657 -2.5610  0.0884
 7413SOL     OW33700   2.170   3.607  10.811 -0.4476 -0.1515  0.3633
 7413SOL    HW133701   2.170   3.512  10.810 -0.5159 -0.1718  1.9340
 7413SOL    HW233702   2.247   3.624  10.757 -0.8280  0.5491  0.0330
 7414SOL     OW33703   1.845   0.042   8.366 -0.8229  0.5005  0.0002
 7414SOL    HW133704   1.770   0.045   8.307  0.1656  1.2552 -1.2122
 7414SOL    HW233705   1.792   0.041   8.445  0.0147  2.2260  0.5897
 7415SOL     OW33706   4.068   3.753   9.604 -0.2019 -0.1596  0.1329
 7415SOL    HW133707   4.074   3.844   9.632 -0.4175 -0.3509  0.8000
 7415SOL    HW233708   4.038   3.712   9.685 -0.8088  2.0264  1.0157
 7416SOL     OW33709   0.691   0.180  13.749 -0.0210  0.0847 -0.2936
 7416SOL    HW133710   0.728   0.241  13.812 -0.6444 -0.3971  0.5408
 7416SOL    HW233711   0.634   0.242  13.704 -0.3855 -0.8928 -1.1876
 7417SOL     OW33712   2.763   2.432  11.077  1.0835 -0.0689 -0.0321
 7417SOL    HW133713   2.841   2.389  11.043  1.5114  0.2934  0.5018
 7417SOL    HW233714   2.773   2.429  11.172  0.6560 -0.2972  0.0047
 7418SOL     OW33715   3.753   4.586  10.587 -1.2303  0.4836 -0.1333
 7418SOL    HW133716   3.774   4.575  10.680 -0.0054 -0.1515 -0.4775
 7418SOL    HW233717   3.665   4.622  10.590 -0.2848  2.6806  1.6320
 7419SOL     OW33718   4.419   1.456   9.033 -0.3413  0.5061 -0.2300
 7419SOL    HW133719   4.331   1.427   9.011 -0.0283 -1.4776  1.0974
 7419SOL    HW233720   4.462   1.383   9.077  0.4529  1.3587  0.4352
 7420SOL     OW33721   1.417   0.625   8.418  0.0804 -0.3358  0.0695
 7420SOL    HW133722   1.414   0.705   8.469 -0.4254  0.1214 -0.6852
 7420SOL    HW233723   1.330   0.624   8.379  0.2003  0.7428 -0.2160
 7421SOL     OW33724   0.057   4.233  14.248 -0.5700 -0.4079 -0.0224
 7421SOL    HW133725   0.129   4.291  14.226 -0.4440 -1.1217 -1.5539
 7421SOL    HW233726   0.071   4.154  14.194  0.9636  0.4544 -0.8825
 7422SOL     OW33727   2.650   0.355   4.594 -0.2267 -0.2640 -0.6105
 7422SOL    HW133728   2.719   0.396   4.542 -0.2137  1.4257  0.7645
 7422SOL    HW233729   2.647   0.272   4.545 -2.2575 -0.1417 -0.6948
 7423SOL     OW33730   1.144   2.055   3.639  0.3101 -0.3039 -0.3032
 7423SOL    HW133731   1.109   2.057   3.550  0.5840  0.1306 -0.4006
 7423SOL    HW233732   1.196   2.135   3.647 -2.2319  1.2908  0.1951
 7424SOL     OW33733   4.061   3.213   4.273 -0.6089  0.1369 -0.0525
 7424SOL    HW133734   4.099   3.177   4.192 -0.5237  1.2762 -0.5099
 7424SOL    HW233735   4.140   3.215   4.326  0.0817 -2.3408 -0.9550
 7425SOL     OW33736   3.924   2.073  16.624  0.1805  0.0922 -1.0233
 7425SOL    HW133737   3.944   2.104  16.712 -0.1909  2.2157 -1.6765
 7425SOL    HW233738   3.878   2.148  16.587  1.4394  0.5658 -1.6399
 7426SOL     OW33739   3.420   1.322   7.069 -0.2077  0.1841 -0.0759
 7426SOL    HW133740   3.337   1.274   7.062 -0.0707  0.1080 -1.1160
 7426SOL    HW233741   3.395   1.414   7.083  0.3667  0.3122  0.1212
 7427SOL     OW33742   4.604   2.822   0.914  0.2564  0.8020  0.1228
 7427SOL    HW133743   4.516   2.811   0.951  0.1244 -0.0410 -0.4365
 7427SOL    HW233744   4.583   2.840   0.823 -0.8896  0.8209  0.3920
 7428SOL     OW33745   2.673   0.179   8.631  0.3916 -0.9301  0.2506
 7428SOL    HW133746   2.660   0.263   8.586 -0.0628 -0.6572  0.8920
 7428SOL    HW233747   2.692   0.211   8.720  0.1427 -2.3431  0.8112
 7429SOL     OW33748   4.306   4.481   8.722 -0.0239  0.0718  0.3457
 7429SOL    HW133749   4.381   4.520   8.768  1.3938 -0.8518 -1.1723
 7429SOL    HW233750   4.245   4.517   8.786  0.4194 -0.3504  1.0085
 7430SOL     OW33751   2.485   2.486   0.486  0.5758  0.6174 -0.1438
 7430SOL    HW133752   2.433   2.521   0.558  0.5386  3.2499 -1.4673
 7430SOL    HW233753   2.451   2.540   0.415  1.4979  0.6070 -0.5999
 7431SOL     OW33754   4.309   0.917  15.486 -0.9434  0.2392  0.4426
 7431SOL    HW133755   4.311   0.870  15.570 -0.3449  0.4927  0.5730
 7431SOL    HW233756   4.220   0.951  15.496 -1.1130  0.2882 -1.3312
 7432SOL     OW33757   0.073   0.535  12.308 -0.0496  0.4732  0.0565
 7432SOL    HW133758   0.099   0.461  12.364 -1.8810  0.5941  1.0526
 7432SOL    HW233759   0.124   0.500  12.235 -1.9199 -0.7173 -0.6720
 7433SOL     OW33760   3.104   1.103   4.302 -0.1171 -0.3046 -0.2371
 7433SOL    HW133761   3.197   1.123   4.294 -0.7084  1.6600 -2.0855
 7433SOL    HW233762   3.081   1.067   4.217 -1.6778 -2.3836  1.0571
 7434SOL     OW33763   0.171   3.743   3.415 -0.0620  0.1109  0.4172
 7434SOL    HW133764   0.222   3.773   3.340 -0.0352 -2.1483 -0.4682
 7434SOL    HW233765   0.210   3.658   3.433 -2.3897 -1.2460 -0.9255
 7435SOL     OW33766   1.043   3.876   9.069 -0.0052  0.2694  0.1521
 7435SOL    HW133767   0.952   3.859   9.047  0.1757  1.3560 -1.4571
 7435SOL    HW233768   1.026   3.946   9.131  0.4772 -0.4523  1.1023
 7436SOL     OW33769   0.136   3.313   5.027  0.5108 -0.2362 -0.1122
 7436SOL    HW133770   0.114   3.263   5.105 -1.1080 -0.4624 -0.7180
 7436SOL    HW233771   0.111   3.255   4.954 -1.0583 -0.9283  1.0007
 7437SOL     OW33772   2.352   3.161   5.195 -0.2083 -0.3005  0.4112
 7437SOL    HW133773   2.310   3.105   5.130 -1.0887 -0.1832  0.8876
 7437SOL    HW233774   2.403   3.099   5.248 -0.7865 -0.4977  0.7363
 7438SOL     OW33775   3.170   1.366   4.624  0.2902  0.6360 -0.1864
 7438SOL    HW133776   3.115   1.314   4.565  1.5340  0.4737 -1.1967
 7438SOL    HW233777   3.117   1.442   4.646  0.1061  0.4083  0.1711
 7439SOL     OW33778   1.432   0.477  14.104  0.4818  0.3082 -0.1545
 7439SOL    HW133779   1.515   0.458  14.062 -0.2312 -1.5967 -0.6786
 7439SOL    HW233780   1.366   0.431  14.052 -0.9311  0.9312  1.0474
 7440SOL     OW33781   0.239   1.006   1.689  0.3515 -0.1010 -0.1852
 7440SOL    HW133782   0.235   1.101   1.700  1.3516 -0.1046  0.2329
 7440SOL    HW233783   0.201   0.995   1.602  1.6534 -4.0597 -0.2817
 7441SOL     OW33784   0.333   4.634   0.291 -0.6742  0.6258  0.6482
 7441SOL    HW133785   0.261   4.571   0.290  0.2956 -0.4613 -0.6417
 7441SOL    HW233786   0.315   4.659   0.201  0.5061  1.6829  0.7058
 7442SOL     OW33787   4.247   2.830  12.791  0.2388  0.7058  0.0717
 7442SOL    HW133788   4.223   2.740  12.769  1.3148  0.9151 -1.9633
 7442SOL    HW233789   4.279   2.825  12.881 -0.8574 -0.9016  0.3738
 7443SOL     OW33790   2.032   0.817   7.026  0.3450  0.0224 -0.3443
 7443SOL    HW133791   2.007   0.726   7.006 -0.5676  0.4084 -0.9695
 7443SOL    HW233792   2.126   0.798   7.029  0.4653  0.7444  0.4484
 7444SOL     OW33793   1.013   4.694   7.164 -0.2551  0.3500  0.2358
 7444SOL    HW133794   1.045   4.682   7.253  0.0656 -0.2535  0.0363
 7444SOL    HW233795   1.101   4.700   7.128  0.0284  0.7673  0.9988
 7445SOL     OW33796   2.664   2.073   0.615  0.4493  0.2291  0.0740
 7445SOL    HW133797   2.617   2.089   0.533 -1.0993 -1.4140  0.6510
 7445SOL    HW233798   2.701   1.988   0.591 -1.5970  0.0864 -2.7092
 7446SOL     OW33799   4.067   0.118   6.069  0.0211 -0.2230 -0.0323
 7446SOL    HW133800   4.050   0.122   5.975 -1.7717  0.3165  0.3107
 7446SOL    HW233801   3.995   0.168   6.107  0.9482  1.2977 -0.2776
 7447SOL     OW33802   0.197   0.239   2.962 -0.0174  0.3417 -0.5477
 7447SOL    HW133803   0.292   0.227   2.959 -0.4958 -3.4659 -1.1516
 7447SOL    HW233804   0.172   0.152   2.928 -1.3834  0.7686 -0.6571
 7448SOL     OW33805   2.320   1.331   5.380  0.2338 -0.0300  0.0675
 7448SOL    HW133806   2.365   1.330   5.464  1.3381  2.2527 -0.4928
 7448SOL    HW233807   2.380   1.280   5.326  0.8004 -1.4463  2.0626
 7449SOL     OW33808   3.322   3.922   3.633 -0.2470  0.0872 -0.0529
 7449SOL    HW133809   3.303   3.987   3.700  0.5063  0.3041 -0.0482
 7449SOL    HW233810   3.403   3.883   3.664 -0.8879 -0.1512  1.3175
 7450SOL     OW33811   1.164   1.529  11.178 -0.1195  0.1445 -0.2739
 7450SOL    HW133812   1.225   1.457  11.194 -2.3857 -1.9269 -0.8314
 7450SOL    HW233813   1.153   1.507  11.085 -0.9267  1.3632 -0.4577
 7451SOL     OW33814   1.707   1.335   0.254 -0.9884 -0.3543 -0.1638
 7451SOL    HW133815   1.627   1.366   0.297 -0.6303  0.0373  0.2162
 7451SOL    HW233816   1.764   1.345   0.330  0.7460 -1.7888 -1.2853
 7452SOL     OW33817   1.459   1.600  11.884  0.1529  0.2141  0.3877
 7452SOL    HW133818   1.499   1.598  11.971  1.0765 -1.1874 -0.0723
 7452SOL    HW233819   1.512   1.555  11.819 -0.2615  0.4313 -0.0980
 7453SOL     OW33820   1.841   2.691   7.080  0.0252  0.1532 -0.1280
 7453SOL    HW133821   1.832   2.785   7.065 -2.3032  0.0731  0.7654
 7453SOL    HW233822   1.918   2.681   7.136  1.1180 -0.4121 -1.7238
 7454SOL     OW33823   0.582   3.130   1.566 -0.2921 -0.0441  0.2051
 7454SOL    HW133824   0.508   3.107   1.621  0.9706 -1.6755  1.2102
 7454SOL    HW233825   0.604   3.044   1.531 -0.2507  0.0727 -0.0570
 7455SOL     OW33826   0.532   2.033  16.742  0.4419 -0.2453  0.3994
 7455SOL    HW133827   0.470   2.102  16.766  0.2005 -1.0905  2.1809
 7455SOL    HW233828   0.549   2.050  16.649  0.8207 -1.0091  0.3260
 7456SOL     OW33829   2.317   0.060   6.091 -0.3299 -0.3624  0.0526
 7456SOL    HW133830   2.243   0.071   6.032 -0.5409 -1.0848  0.1780
 7456SOL    HW233831   2.292   4.700   6.128  1.2684  0.0001  2.0152
 7457SOL     OW33832   2.770   2.323   4.769 -0.0385 -0.0271 -0.3695
 7457SOL    HW133833   2.848   2.297   4.818 -0.1837  0.9691  0.4042
 7457SOL    HW233834   2.813   2.404   4.741  0.2687  0.0632  0.3713
 7458SOL     OW33835   3.457   0.761   6.223  0.1285  0.4999 -0.0714
 7458SOL    HW133836   3.494   0.799   6.303 -2.6699  1.6754  0.6552
 7458SOL    HW233837   3.366   0.780   6.247 -0.8639 -1.6743 -2.1558
 7459SOL     OW33838   2.263   1.882   6.908  0.3125 -0.2595  0.1095
 7459SOL    HW133839   2.329   1.843   6.851 -1.1898  0.0167 -1.8218
 7459SOL    HW233840   2.245   1.972   6.878  0.3075 -0.5317 -0.7090
 7460SOL     OW33841   1.178   4.283   5.528 -0.0372 -0.1803  0.6783
 7460SOL    HW133842   1.264   4.254   5.496 -0.7335 -1.3210 -0.1600
 7460SOL    HW233843   1.203   4.344   5.597 -4.4519  1.4503  0.8141
 7461SOL     OW33844   3.499   0.913   4.918 -1.1555  0.2087 -0.7803
 7461SOL    HW133845   3.532   0.933   4.830  4.1894 -0.6079  1.0224
 7461SOL    HW233846   3.483   0.992   4.970 -0.9894 -0.2474 -0.0414
 7462SOL     OW33847   1.998   1.321  15.892  0.7438 -0.5704 -0.5191
 7462SOL    HW133848   1.936   1.248  15.891  0.9898 -0.7576 -2.1700
 7462SOL    HW233849   2.043   1.306  15.809  1.2279  0.4779 -0.4452
 7463SOL     OW33850   3.805   1.167   7.139 -0.3639  0.2633  0.1263
 7463SOL    HW133851   3.892   1.145   7.172 -0.1151 -0.7931 -1.1963
 7463SOL    HW233852   3.757   1.084   7.151  0.3845 -0.1620  0.2004
 7464SOL     OW33853   0.895   3.993   5.343  0.4124 -0.2180  0.6079
 7464SOL    HW133854   0.925   4.030   5.426 -0.8058  1.7150  0.1949
 7464SOL    HW233855   0.807   3.968   5.374 -0.1972  1.6168  0.3517
 7465SOL     OW33856   3.248   4.464  10.285  0.3804 -0.4754 -0.3180
 7465SOL    HW133857   3.260   4.546  10.332  2.6104 -0.5820 -0.6869
 7465SOL    HW233858   3.282   4.410  10.356  1.8027  2.8045  1.4756
 7466SOL     OW33859   0.328   3.442   6.998 -0.2711  0.3632 -0.0145
 7466SOL    HW133860   0.265   3.382   7.038  0.9230 -2.1688 -1.8921
 7466SOL    HW233861   0.326   3.403   6.911 -0.3820 -1.8810  0.9839
 7467SOL     OW33862   0.448   4.308   1.693  0.1893  0.3366  0.4869
 7467SOL    HW133863   0.428   4.308   1.786  1.6104  0.7964  0.7923
 7467SOL    HW233864   0.541   4.328   1.696  0.2655  0.0273  0.2575
 7468SOL     OW33865   2.966   1.162   6.687 -0.6766  0.2082 -0.0076
 7468SOL    HW133866   2.914   1.202   6.757  0.5225  0.4065  0.7708
 7468SOL    HW233867   2.917   1.080   6.683  0.0798 -0.2632  0.2756
 7469SOL     OW33868   2.581   0.660   4.048  0.0173 -0.0943  0.9460
 7469SOL    HW133869   2.624   0.695   4.126  2.3358 -0.4198 -0.1798
 7469SOL    HW233870   2.522   0.594   4.083  1.2056 -0.2655  2.5946
 7470SOL     OW33871   0.031   1.271   3.362 -0.0318 -0.3592  0.6329
 7470SOL    HW133872   4.694   1.323   3.415 -2.2140 -0.9068 -1.3728
 7470SOL    HW233873   4.707   1.193   3.338 -3.5346  1.8690  0.4471
 7471SOL     OW33874   2.825   0.973  10.780 -0.2227 -0.0899  1.4127
 7471SOL    HW133875   2.817   0.894  10.726 -1.0295  0.8998  0.1006
 7471SOL    HW233876   2.920   0.987  10.772 -0.5714  0.4644 -1.9138
 7472SOL     OW33877   2.542   2.150   7.073 -0.5957 -0.5733  0.4157
 7472SOL    HW133878   2.557   2.139   6.979  1.3765 -1.9817  0.9090
 7472SOL    HW233879   2.519   2.243   7.077  1.5082 -0.0749  0.9790
 7473SOL     OW33880   0.248   2.318   1.776  0.4638  0.0286  0.0291
 7473SOL    HW133881   0.235   2.320   1.681  3.0973 -1.2167 -0.3499
 7473SOL    HW233882   0.166   2.364   1.794  0.0653 -0.8824  0.5077
 7474SOL     OW33883   0.377   2.990   1.685 -0.2557  0.2565  0.1492
 7474SOL    HW133884   0.342   2.905   1.659 -0.9086  0.2306  1.1148
 7474SOL    HW233885   0.313   3.014   1.752 -0.7659  2.0646 -0.9729
 7475SOL     OW33886   0.821   4.466   2.605 -0.3684  0.3207  0.0921
 7475SOL    HW133887   0.870   4.397   2.650  0.5144  1.2913  0.6326
 7475SOL    HW233888   0.790   4.513   2.682  1.1883  1.2960  0.1083
 7476SOL     OW33889   4.592   4.443   8.110 -0.2004 -0.5123  0.1018
 7476SOL    HW133890   4.686   4.427   8.122 -0.6005 -1.6204  1.6712
 7476SOL    HW233891   4.562   4.355   8.085  1.0558 -1.0320  0.4449
 7477SOL     OW33892   2.022   2.094   3.781 -0.5345  0.5947  0.2184
 7477SOL    HW133893   2.041   2.101   3.874 -0.7400 -1.1382  0.3907
 7477SOL    HW233894   2.056   2.177   3.748  1.7556 -0.3659  0.1060
 7478SOL     OW33895   2.004   3.013   2.185 -0.0610 -0.5623  0.2485
 7478SOL    HW133896   2.079   3.060   2.223  1.2134 -1.2389 -1.4279
 7478SOL    HW233897   2.022   3.012   2.091 -0.3220  0.9961  0.1789
 7479SOL     OW33898   2.793   4.308   4.400  0.5335  0.4412  0.2221
 7479SOL    HW133899   2.770   4.226   4.445 -0.3029  0.9111  0.6735
 7479SOL    HW233900   2.720   4.345   4.350  0.2109  0.9910  1.0981
 7480SOL     OW33901   0.809   3.319   2.222  0.2838 -0.4630 -0.1550
 7480SOL    HW133902   0.868   3.293   2.293 -1.9573  0.5467  2.0427
 7480SOL    HW233903   0.882   3.330   2.160  2.0777  0.1119  2.0441
 7481SOL     OW33904   4.365   4.571   3.857  0.0526 -0.5020  0.6243
 7481SOL    HW133905   4.358   4.477   3.840 -1.3322 -0.4145  0.7003
 7481SOL    HW233906   4.394   4.586   3.767  0.1684  2.6494  1.1872
 7482SOL     OW33907   2.944   4.406   4.970 -0.4866  0.0777  0.0736
 7482SOL    HW133908   3.023   4.449   4.937 -1.9091  1.5959 -1.3617
 7482SOL    HW233909   2.983   4.373   5.051  1.0901 -1.0059 -1.1316
 7483SOL     OW33910   1.247   2.463   3.078 -0.2100 -0.1974 -0.2152
 7483SOL    HW133911   1.227   2.371   3.062  0.3568 -0.6103  1.4332
 7483SOL    HW233912   1.341   2.447   3.094  0.1075  0.2288 -1.6532
 7484SOL     OW33913   0.897   1.628   0.201  0.1867 -0.3082  0.0040
 7484SOL    HW133914   0.911   1.697   0.266 -0.9089  0.6107 -0.7494
 7484SOL    HW233915   0.857   1.670   0.125  3.2347 -0.8031 -1.9160
 7485SOL     OW33916   4.561   2.310   2.223 -0.3849  0.1395 -0.7700
 7485SOL    HW133917   4.555   2.332   2.130  0.8255 -0.3903 -0.9673
 7485SOL    HW233918   4.590   2.220   2.213 -1.4263 -0.2157 -0.6707
 7486SOL     OW33919   3.254   0.169   7.624 -0.4302  0.0426 -0.0003
 7486SOL    HW133920   3.310   0.104   7.666  0.5347  1.2675  0.6076
 7486SOL    HW233921   3.168   0.143   7.656 -0.6797  0.4418 -0.3432
 7487SOL     OW33922   2.933   0.275   5.685 -0.1706 -0.3697 -0.7067
 7487SOL    HW133923   2.899   0.346   5.740 -0.8401 -0.7612 -0.6054
 7487SOL    HW233924   2.947   0.212   5.756 -1.9325 -1.2790 -1.1456
 7488SOL     OW33925   4.489   0.310   8.538  0.4063 -0.9550  0.1440
 7488SOL    HW133926   4.522   0.278   8.622  0.1507 -0.5875  0.3818
 7488SOL    HW233927   4.435   0.235   8.511 -0.5452  0.0867 -0.8493
 7489SOL     OW33928   4.044   1.305   4.779  0.0571  0.0701  0.2943
 7489SOL    HW133929   4.133   1.268   4.782 -0.3923 -0.8590  2.0239
 7489SOL    HW233930   4.008   1.264   4.857  0.5716 -2.1281 -0.6043
 7490SOL     OW33931   4.435   2.676  11.589 -0.3138  0.6285 -0.1177
 7490SOL    HW133932   4.409   2.749  11.645 -0.1191 -0.0205  0.8176
 7490SOL    HW233933   4.437   2.603  11.652 -0.1370  0.6138 -0.1401
 7491SOL     OW33934   1.332   2.272  14.606 -0.4090  0.6017  0.8263
 7491SOL    HW133935   1.292   2.239  14.526  1.8174  1.7501 -0.7788
 7491SOL    HW233936   1.318   2.367  14.607  0.3994  0.7252  0.5049
 7492SOL     OW33937   1.152   2.915   8.111 -0.2123  0.2997 -0.3968
 7492SOL    HW133938   1.103   2.978   8.059 -0.2017  0.1560 -0.5808
 7492SOL    HW233939   1.108   2.919   8.196 -1.6802  0.2735 -1.1768
 7493SOL     OW33940   0.251   4.659   8.065 -0.0112  0.2029 -0.2275
 7493SOL    HW133941   0.310   4.617   8.002 -0.8498  0.5989 -1.2720
 7493SOL    HW233942   0.169   4.638   8.021 -0.1969  1.9289 -0.7105
 7494SOL     OW33943   2.876   3.452   2.859 -0.2874  0.1359  0.8668
 7494SOL    HW133944   2.822   3.460   2.780  2.1643 -2.3355 -1.0475
 7494SOL    HW233945   2.937   3.523   2.838  0.1188 -0.9821 -1.6254
 7495SOL     OW33946   3.978   2.544  13.384  0.7496 -0.6367  0.6518
 7495SOL    HW133947   3.929   2.627  13.387  0.9973 -0.4042 -1.3586
 7495SOL    HW233948   3.908   2.496  13.341  0.9871  0.6413 -1.1929
 7496SOL     OW33949   3.801   4.011   5.815  0.1266  0.2488 -0.3409
 7496SOL    HW133950   3.845   4.095   5.825  1.3005 -0.2484 -1.4036
 7496SOL    HW233951   3.785   3.998   5.909  0.7955  1.3837 -0.0681
 7497SOL     OW33952   3.185   4.124   5.524 -0.4874  0.1305  0.1755
 7497SOL    HW133953   3.126   4.193   5.554  0.7069  1.6904 -1.0854
 7497SOL    HW233954   3.126   4.077   5.465 -2.5295  2.1158  0.6321
 7498SOL     OW33955   0.478   0.087  11.196  0.5537  0.0058 -0.4638
 7498SOL    HW133956   0.521   0.165  11.159  0.0945 -1.3290 -3.7886
 7498SOL    HW233957   0.389   0.078  11.162  1.1438 -2.0181 -1.4896
 7499SOL     OW33958   1.809   4.120   6.770  0.2851 -0.3954  0.3532
 7499SOL    HW133959   1.886   4.172   6.795  0.1447 -0.8655  1.7313
 7499SOL    HW233960   1.759   4.192   6.731 -1.4136 -1.0879  1.2626
 7500SOL     OW33961   1.092   0.125  10.802  0.4842  0.0822 -0.6769
 7500SOL    HW133962   1.092   0.219  10.789  1.0074  0.6814  3.4126
 7500SOL    HW233963   1.118   0.129  10.895  0.0466  1.6991 -0.6343
 7501SOL     OW33964   2.729   3.878   4.077 -0.2956 -0.1699 -0.8965
 7501SOL    HW133965   2.797   3.872   4.010  1.2263 -1.7423  0.7754
 7501SOL    HW233966   2.758   3.818   4.145  0.2955  1.0734 -0.0577
 7502SOL     OW33967   0.222   3.597  15.892  0.1024  0.3763  0.0525
 7502SOL    HW133968   0.168   3.581  15.815 -0.6896 -2.1135  1.1060
 7502SOL    HW233969   0.209   3.685  15.926 -0.7580  0.7842 -1.3738
 7503SOL     OW33970   3.508   3.316  13.128 -0.3639 -0.3840  0.1170
 7503SOL    HW133971   3.502   3.411  13.120  0.8058 -0.5279 -2.3840
 7503SOL    HW233972   3.512   3.294  13.035 -1.1433 -1.0261  0.2379
 7504SOL     OW33973   3.644   3.293  14.834  0.0210  0.0206 -0.4235
 7504SOL    HW133974   3.685   3.258  14.755  0.9552 -1.0093  0.5329
 7504SOL    HW233975   3.633   3.387  14.816 -0.8561  0.1713  0.9123
 7505SOL     OW33976   3.351   4.037   6.214 -0.1893 -0.2550  0.7196
 7505SOL    HW133977   3.444   4.018   6.211  0.1259  1.7066 -1.6730
 7505SOL    HW233978   3.337   4.044   6.120  1.6010  0.8486  0.5400
 7506SOL     OW33979   0.658   2.853  14.261 -0.1401 -0.2608 -0.3987
 7506SOL    HW133980   0.713   2.828  14.187  0.3883 -1.5297  0.4237
 7506SOL    HW233981   0.712   2.851  14.339  1.2786 -1.1205 -1.3984
 7507SOL     OW33982   1.221   2.267   5.577 -0.7415 -0.6610 -0.2290
 7507SOL    HW133983   1.166   2.345   5.570  0.2570 -0.1348 -2.1755
 7507SOL    HW233984   1.151   2.201   5.583 -0.5967 -0.8698 -0.8243
 7508SOL     OW33985   2.112   4.422  14.053 -0.2657 -0.1300  0.6097
 7508SOL    HW133986   2.207   4.434  14.056 -0.2856 -0.0329  0.8953
 7508SOL    HW233987   2.107   4.386  13.965  2.4898 -1.0803  0.8435
 7509SOL     OW33988   3.686   2.794   2.281  0.4475  0.4461  0.1349
 7509SOL    HW133989   3.622   2.847   2.234 -0.1754 -0.9682 -0.6098
 7509SOL    HW233990   3.680   2.817   2.374 -1.7036 -2.3108  0.6787
 7510SOL     OW33991   2.204   3.903   7.340  0.3949 -0.2723 -0.5642
 7510SOL    HW133992   2.258   3.955   7.281  1.5351  0.7978  1.4126
 7510SOL    HW233993   2.201   3.965   7.413 -2.8279  1.3561 -2.0647
 7511SOL     OW33994   2.819   2.627   3.780 -0.3344  0.5729 -0.4575
 7511SOL    HW133995   2.909   2.624   3.812 -0.5285 -0.4613 -0.0229
 7511SOL    HW233996   2.774   2.694   3.832  0.2879 -0.1898  1.0680
 7512SOL     OW33997   0.090   3.088   8.566  0.3210  0.2627  0.5056
 7512SOL    HW133998   0.046   3.144   8.630 -0.2559 -0.0072  0.3469
 7512SOL    HW233999   0.110   3.012   8.620  1.4835  0.2530  0.0501
 7513SOL     OW34000   2.964   0.532   4.191 -0.1938  0.4118  0.2142
 7513SOL    HW134001   3.002   0.616   4.216  3.8962 -1.2829 -0.4388
 7513SOL    HW234002   2.916   0.555   4.111 -1.1056  0.0990  0.6699
 7514SOL     OW34003   1.202   0.213   3.542 -0.6139 -0.5011 -0.5088
 7514SOL    HW134004   1.205   0.289   3.599 -4.2193  1.6051 -3.1145
 7514SOL    HW234005   1.208   0.139   3.603  0.7983 -1.0581 -1.3311
 7515SOL     OW34006   2.137   1.086  15.752 -0.2494 -0.3133 -0.3793
 7515SOL    HW134007   2.136   1.076  15.657  3.0057 -1.5879 -0.2902
 7515SOL    HW234008   2.042   1.094  15.758 -0.4793 -3.0796 -0.2110
 7516SOL     OW34009   0.009   4.680  11.038 -0.4356 -0.1252  0.2088
 7516SOL    HW134010   4.703   0.013  11.107 -1.8436  1.0609 -1.4375
 7516SOL    HW234011   0.090   4.718  11.004 -1.7282  1.1261 -1.4325
 7517SOL     OW34012   0.427   0.020  17.264  0.5680 -0.1661  0.1207
 7517SOL    HW134013   0.479   4.667  17.281 -0.3871 -1.0677 -1.0776
 7517SOL    HW234014   0.398   0.032  17.354 -0.1388 -3.2468  0.2849
 7518SOL     OW34015   4.476   0.804   5.606 -0.2224 -0.2909 -0.3312
 7518SOL    HW134016   4.501   0.762   5.689 -1.7190 -0.5039  0.0009
 7518SOL    HW234017   4.549   0.772   5.553  0.8062  0.0581  0.8701
 7519SOL     OW34018   1.353   1.024   4.692  0.0743  0.2097 -0.1109
 7519SOL    HW134019   1.286   1.050   4.754  0.8070  3.1820 -0.5708
 7519SOL    HW234020   1.429   1.016   4.750 -0.9374  0.7980  1.2995
 7520SOL     OW34021   4.336   0.481  12.401 -0.0244 -0.2513  0.8041
 7520SOL    HW134022   4.390   0.555  12.373 -1.4021  0.9248  1.2518
 7520SOL    HW234023   4.376   0.458  12.485  0.8174  0.7549  0.6741
 7521SOL     OW34024   1.789   3.478   2.871  0.0968 -0.0371 -0.2726
 7521SOL    HW134025   1.883   3.494   2.879  0.0084 -0.3239  1.5232
 7521SOL    HW234026   1.771   3.515   2.785 -1.9723 -1.3940 -0.4481
 7522SOL     OW34027   1.783   3.335   3.959  0.0869  0.2113 -0.1269
 7522SOL    HW134028   1.721   3.266   3.983  3.7975 -2.3234  2.2058
 7522SOL    HW234029   1.819   3.311   3.873  1.8163 -1.4838  1.0680
 7523SOL     OW34030   3.703   4.440  12.027 -0.2188 -0.2393 -0.4315
 7523SOL    HW134031   3.666   4.473  11.945  2.0045 -0.2487 -1.4288
 7523SOL    HW234032   3.745   4.518  12.062 -0.8811  0.8008 -1.9612
 7524SOL     OW34033   2.762   1.200   5.365  0.3427 -0.0278 -0.4673
 7524SOL    HW134034   2.737   1.201   5.458  1.4602  1.2949 -0.1726
 7524SOL    HW234035   2.841   1.146   5.374  1.1251  0.9450 -1.4274
 7525SOL     OW34036   3.844   3.300   4.926 -0.2353 -0.4744 -0.0593
 7525SOL    HW134037   3.785   3.369   4.956 -3.3063 -1.8089 -3.0793
 7525SOL    HW234038   3.926   3.343   4.949  0.0264 -1.1729  0.3229
 7526SOL     OW34039   2.556   0.431   3.744  0.6099  0.8317  0.5094
 7526SOL    HW134040   2.650   0.439   3.732  0.3991  0.4998 -1.4335
 7526SOL    HW234041   2.553   0.355   3.802 -1.1595  0.6254  0.1563
 7527SOL     OW34042   3.559   4.141   3.798  0.0214  0.4998 -0.0195
 7527SOL    HW134043   3.467   4.158   3.777 -0.6782 -1.8838  1.0873
 7527SOL    HW234044   3.560   4.087   3.877 -0.7406  1.4033  0.6001
 7528SOL     OW34045   2.986   3.890   3.912  0.0830  0.0761 -0.0863
 7528SOL    HW134046   2.991   3.985   3.897  1.1372  0.0459  0.0848
 7528SOL    HW234047   3.021   3.858   3.829 -2.4002 -2.4228 -0.1768
 7529SOL     OW34048   3.360   0.143   6.795  0.5764 -0.4486 -0.5889
 7529SOL    HW134049   3.351   0.055   6.759 -1.0468 -0.2364 -0.6718
 7529SOL    HW234050   3.336   0.130   6.887  0.0397 -0.6049 -0.7506
 7530SOL     OW34051   2.617   1.225   2.040  0.0493 -0.8838  0.2784
 7530SOL    HW134052   2.608   1.180   1.956 -0.0743 -1.3288  0.5292
 7530SOL    HW234053   2.668   1.296   2.001  1.1575 -2.1245 -0.5425
 7531SOL     OW34054   4.324   1.253   3.848  0.3518  0.2055  0.1048
 7531SOL    HW134055   4.336   1.347   3.856 -0.2946  0.1887  1.2239
 7531SOL    HW234056   4.406   1.216   3.880  0.4432 -1.0367 -1.5486
 7532SOL     OW34057   4.487   0.358   9.888  0.1250 -0.0313 -0.4047
 7532SOL    HW134058   4.493   0.429   9.824  1.0824 -0.1707 -0.4776
 7532SOL    HW234059   4.525   0.387   9.971 -0.3166 -0.3932 -0.0808
 7533SOL     OW34060   4.442   4.033  16.681  0.0341  0.3248  0.0398
 7533SOL    HW134061   4.392   3.951  16.680  0.9952 -0.2692  0.7396
 7533SOL    HW234062   4.379   4.091  16.723  1.3601  2.5502 -1.0970
 7534SOL     OW34063   3.761   1.878   2.484 -0.3515  0.3273  0.9346
 7534SOL    HW134064   3.815   1.950   2.452 -0.1423  0.4435  1.5516
 7534SOL    HW234065   3.692   1.877   2.417 -1.5368 -1.8454  2.1957
 7535SOL     OW34066   1.468   3.179   8.788 -0.0503  0.6570  0.3003
 7535SOL    HW134067   1.540   3.223   8.744 -0.8861 -1.1981 -2.9425
 7535SOL    HW234068   1.394   3.234   8.763 -1.5688 -1.0918  0.8809
 7536SOL     OW34069   3.372   0.347  13.045  0.0681 -0.2714  0.3680
 7536SOL    HW134070   3.342   0.422  13.097  0.5714 -0.6582  1.2080
 7536SOL    HW234071   3.305   0.335  12.977 -2.6761 -1.6446  3.3411
 7537SOL     OW34072   0.741   1.319   8.169  0.2031  1.0037  0.0246
 7537SOL    HW134073   0.805   1.381   8.136  0.2376  0.3360 -1.1495
 7537SOL    HW234074   0.779   1.305   8.256 -2.1559 -0.6087  0.8038
 7538SOL     OW34075   3.711   2.830  16.337  0.1010 -0.2716  0.2180
 7538SOL    HW134076   3.706   2.810  16.431  0.7429 -0.8121  0.1357
 7538SOL    HW234077   3.639   2.892  16.323 -2.1989 -3.0047  0.0519
 7539SOL     OW34078   4.017   1.434   6.825 -0.1667 -0.1760  0.7364
 7539SOL    HW134079   3.949   1.493   6.858  0.4691  0.2165  1.3536
 7539SOL    HW234080   4.072   1.496   6.777  0.1110 -0.0170  1.2509
 7540SOL     OW34081   1.213   4.361   2.666 -0.2785 -0.3808 -0.0938
 7540SOL    HW134082   1.132   4.310   2.657 -0.7732  0.5025 -0.6848
 7540SOL    HW234083   1.265   4.319   2.735 -1.7256 -2.6762 -0.4027
 7541SOL     OW34084   0.966   2.062   9.891 -0.0326 -0.0152  0.3080
 7541SOL    HW134085   0.987   2.152   9.915  0.6785 -0.0579 -0.1713
 7541SOL    HW234086   0.916   2.074   9.810 -0.7300 -1.9037  0.4671
 7542SOL     OW34087   0.801   2.449   2.309  0.3101 -0.6125  0.2735
 7542SOL    HW134088   0.803   2.510   2.236  1.1822 -1.2772 -0.2611
 7542SOL    HW234089   0.892   2.420   2.313  0.6706  0.6368  0.8845
 7543SOL     OW34090   1.819   4.448   5.856  0.5946  0.8407 -0.3165
 7543SOL    HW134091   1.879   4.404   5.916  0.8965  0.1585 -1.1188
 7543SOL    HW234092   1.739   4.454   5.909  1.3804  0.2923  0.9550
 7544SOL     OW34093   4.597   0.404   4.908 -0.3532  0.2773 -0.1753
 7544SOL    HW134094   4.584   0.376   4.818  0.7448  2.1123 -0.9128
 7544SOL    HW234095   4.611   0.321   4.953  1.1758  0.2051 -0.7724
 7545SOL     OW34096   3.535   3.885   7.352 -0.1619  0.0397 -0.1627
 7545SOL    HW134097   3.503   3.896   7.262 -1.5906 -2.2311  0.0550
 7545SOL    HW234098   3.564   3.972   7.380 -1.2543  0.1323  0.6905
 7546SOL     OW34099   0.349   3.054   1.409  0.6457 -0.0511  0.5844
 7546SOL    HW134100   0.371   3.051   1.502 -0.0753  0.7263  0.7866
 7546SOL    HW234101   0.322   2.963   1.398 -2.7362  1.0770 -0.3251
 7547SOL     OW34102   3.706   4.257  11.729 -0.2893  0.4082 -0.5638
 7547SOL    HW134103   3.770   4.284  11.795  0.5636  0.9382 -1.6024
 7547SOL    HW234104   3.649   4.333  11.731 -0.2746  0.4444 -1.3124
 7548SOL     OW34105   1.753   3.525  13.141  0.7313  0.6942  0.2916
 7548SOL    HW134106   1.748   3.555  13.232 -1.5562 -0.6456  0.6175
 7548SOL    HW234107   1.771   3.608  13.097  1.4702  0.1689 -0.3881
 7549SOL     OW34108   1.047   0.831   4.669  0.1691 -0.0876 -0.4937
 7549SOL    HW134109   1.032   0.810   4.761 -1.7668 -1.5919 -1.1689
 7549SOL    HW234110   1.103   0.760   4.637 -0.2769  0.5897 -2.7066
 7550SOL     OW34111   4.077   1.481   5.174  0.8747 -0.1683  0.3223
 7550SOL    HW134112   4.127   1.562   5.161 -1.4241  1.0860 -0.6412
 7550SOL    HW234113   4.155   1.427   5.189 -1.1174 -2.9805  0.4771
 7551SOL     OW34114   1.122   0.888   8.458  0.5577 -0.5724 -0.6076
 7551SOL    HW134115   1.098   0.968   8.412 -1.8414 -1.0723 -0.2208
 7551SOL    HW234116   1.214   0.906   8.475 -0.6089  2.4642  2.3479
 7552SOL     OW34117   4.615   2.491   4.611  0.2724 -0.6017 -0.5651
 7552SOL    HW134118   4.642   2.579   4.586 -2.7453  0.6167  0.4048
 7552SOL    HW234119   4.525   2.507   4.640  1.2766 -0.5874  2.5166
 7553SOL     OW34120   1.610   2.439   4.909 -0.6276 -0.1127 -0.1960
 7553SOL    HW134121   1.581   2.430   5.000 -0.0353  0.9166  0.0944
 7553SOL    HW234122   1.600   2.351   4.874  1.9633 -1.6476  2.8665
 7554SOL     OW34123   0.204   4.708   4.496  0.3929  0.1192 -0.1088
 7554SOL    HW134124   0.119   4.687   4.456  1.2280 -0.7145 -1.4221
 7554SOL    HW234125   0.235   4.618   4.492 -2.7525 -1.0527  1.7309
 7555SOL     OW34126   1.734   3.289   5.587 -0.0173  0.8275 -0.0888
 7555SOL    HW134127   1.764   3.267   5.499 -0.3199  0.5581 -0.1277
 7555SOL    HW234128   1.698   3.374   5.561 -1.3933 -0.6704 -3.2297
 7556SOL     OW34129   2.814   3.970   2.895  0.2518  0.2093  0.5961
 7556SOL    HW134130   2.742   3.910   2.875  1.0386 -0.9652  1.2640
 7556SOL    HW234131   2.887   3.910   2.914  0.1273  0.3303  1.4622
 7557SOL     OW34132   0.334   4.490   3.812 -0.0005 -0.1329  0.0100
 7557SOL    HW134133   0.276   4.417   3.833  0.3403 -0.7592 -1.2602
 7557SOL    HW234134   0.359   4.517   3.901  2.2530 -0.0905 -0.6453
 7558SOL     OW34135   2.491   3.690   5.294  0.0990 -0.4308 -0.2065
 7558SOL    HW134136   2.535   3.702   5.378  2.0605  1.7105 -1.5255
 7558SOL    HW234137   2.480   3.777   5.256 -0.7483 -0.3990  0.1194
 7559SOL     OW34138   2.913   1.970   3.587 -0.8834 -0.2001  0.5821
 7559SOL    HW134139   2.870   2.056   3.579 -2.0155 -0.8793 -0.6622
 7559SOL    HW234140   2.897   1.960   3.681  1.1081 -0.8941  0.8331
 7560SOL     OW34141   1.368   1.717  12.396  0.1821  0.1429  0.0085
 7560SOL    HW134142   1.351   1.623  12.388 -0.5866  0.2564  0.3436
 7560SOL    HW234143   1.447   1.706  12.450  1.6119 -0.2154 -2.1608
 7561SOL     OW34144   2.608   2.177  10.099  0.1309 -0.4144  0.3102
 7561SOL    HW134145   2.661   2.249  10.133 -0.0622  0.1506 -0.5792
 7561SOL    HW234146   2.596   2.136  10.185  1.9620 -0.9354  0.3110
 7562SOL     OW34147   1.173   3.536   2.360 -0.5501  0.0868  0.0164
 7562SOL    HW134148   1.179   3.617   2.310 -2.0982  0.6774  0.7884
 7562SOL    HW234149   1.239   3.487   2.311  1.3374  2.1224  0.5139
 7563SOL     OW34150   2.144   0.742   2.742  0.4017 -0.0267  0.3236
 7563SOL    HW134151   2.092   0.813   2.704 -0.3883 -0.7824 -0.0122
 7563SOL    HW234152   2.175   0.688   2.669 -0.5711  0.4796 -0.4749
 7564SOL     OW34153   4.090   1.820   9.877  0.1489  0.1173 -0.2131
 7564SOL    HW134154   4.000   1.854   9.880  0.5117  1.0138  0.5270
 7564SOL    HW234155   4.089   1.811   9.973 -1.7733 -2.2651 -0.4596
 7565SOL     OW34156   1.736   0.923   6.186  0.0016  0.2427  0.1905
 7565SOL    HW134157   1.677   0.857   6.220  1.6337 -1.6246 -0.6168
 7565SOL    HW234158   1.677   0.998   6.178 -1.4115 -0.8381  0.6432
 7566SOL     OW34159   2.055   1.542  15.597  0.0789  0.3482 -0.2956
 7566SOL    HW134160   2.058   1.446  15.597  1.4995  0.3964  0.8795
 7566SOL    HW234161   1.977   1.553  15.543  0.1745 -1.4221 -0.8110
 7567SOL     OW34162   1.533   2.404   9.752 -0.5198  0.5424  0.9257
 7567SOL    HW134163   1.615   2.416   9.801  0.8021  2.0725 -1.6400
 7567SOL    HW234164   1.534   2.492   9.713 -0.0804 -0.2446 -0.8367
 7568SOL     OW34165   2.299   0.627   7.722  0.1489 -0.2679 -0.2070
 7568SOL    HW134166   2.286   0.532   7.730  1.8524 -0.6204 -1.7357
 7568SOL    HW234167   2.213   0.667   7.735 -0.7991 -1.6028 -2.2751
 7569SOL     OW34168   1.901   3.911   2.465 -0.2166  0.4508  0.0609
 7569SOL    HW134169   1.807   3.918   2.448 -0.7753 -0.6068  2.6844
 7569SOL    HW234170   1.924   4.003   2.483  1.8971 -0.4036  1.7255
 7570SOL     OW34171   3.358   0.251  10.667  0.0248 -0.2040  0.7437
 7570SOL    HW134172   3.434   0.290  10.624 -0.3804 -1.0040 -0.6816
 7570SOL    HW234173   3.298   0.326  10.666  2.6130  1.8617 -0.4239
 7571SOL     OW34174   0.330   1.254   0.260 -0.6825  0.1050  0.6411
 7571SOL    HW134175   0.313   1.342   0.227  1.4722 -0.7051 -2.6354
 7571SOL    HW234176   0.246   1.209   0.252 -1.7020  2.2156 -0.3607
 7572SOL     OW34177   4.064   3.475   1.917 -0.1434  0.1284  0.1084
 7572SOL    HW134178   4.034   3.393   1.877  0.2707 -0.5118  1.1194
 7572SOL    HW234179   4.157   3.478   1.895  0.3845  0.0722  2.3874
 7573SOL     OW34180   0.755   0.629   2.982 -0.2816  0.7399  0.4118
 7573SOL    HW134181   0.773   0.550   2.931  0.2473 -0.0434  1.7875
 7573SOL    HW234182   0.737   0.581   3.063  3.3386  0.1615  0.8834
 7574SOL     OW34183   1.249   3.599   3.293 -0.2072 -0.2076  0.7463
 7574SOL    HW134184   1.187   3.526   3.291  1.2604 -1.4790  1.6189
 7574SOL    HW234185   1.305   3.580   3.218  0.3005  3.5243  0.2234
 7575SOL     OW34186   4.352   4.700   4.276  0.2381  0.3765  0.0627
 7575SOL    HW134187   4.421   0.041   4.268  0.1372  0.4057 -0.5954
 7575SOL    HW234188   4.275   0.030   4.289  0.2574 -0.0374  2.0244
 7576SOL     OW34189   1.647   1.887   8.627 -0.2577 -0.0874  0.0001
 7576SOL    HW134190   1.576   1.831   8.597 -0.3205 -0.0245  0.0303
 7576SOL    HW234191   1.711   1.851   8.566  0.5006  0.4993  0.4389
 7577SOL     OW34192   0.335   2.393   7.063  0.1789 -0.3924  0.3396
 7577SOL    HW134193   0.364   2.303   7.046 -0.9781 -0.5153 -0.9305
 7577SOL    HW234194   0.407   2.421   7.120 -1.9194  2.0856  1.7736
 7578SOL     OW34195   4.259   4.596   5.620 -0.0128 -0.0534  0.1281
 7578SOL    HW134196   4.225   4.538   5.552 -1.7814  0.4715  0.5745
 7578SOL    HW234197   4.182   4.598   5.677  0.1620 -0.9812  0.4006
 7579SOL     OW34198   3.348   1.280   4.191  0.8409  0.1285  0.2865
 7579SOL    HW134199   3.427   1.334   4.199  0.4206  0.4817  2.1120
 7579SOL    HW234200   3.295   1.310   4.116 -1.2245  0.2175  1.7691
 7580SOL     OW34201   0.453   4.044   6.464  0.1470 -0.0789  0.2275
 7580SOL    HW134202   0.494   3.992   6.394  3.6164  1.1553  1.3494
 7580SOL    HW234203   0.459   4.135   6.436 -0.1673 -0.5310 -1.3525
 7581SOL     OW34204   4.227   1.134  10.459  0.7708  0.3599 -0.1486
 7581SOL    HW134205   4.258   1.195  10.392 -0.4826 -0.3075 -1.3188
 7581SOL    HW234206   4.165   1.193  10.502 -0.4531 -1.6043  0.7641
 7582SOL     OW34207   1.419   4.321  10.047 -0.0989 -0.2004  0.1489
 7582SOL    HW134208   1.378   4.255  10.102 -0.2492  0.4855  0.8723
 7582SOL    HW234209   1.357   4.394  10.056 -0.4445 -0.2737 -1.6099
 7583SOL     OW34210   4.690   0.881  15.551 -0.7005 -0.1894  0.4793
 7583SOL    HW134211   4.656   0.894  15.640 -1.6894  2.7340 -0.3326
 7583SOL    HW234212   0.030   0.813  15.569  0.6643  1.0756  0.3265
 7584SOL     OW34213   0.399   3.731   1.812  0.3143  0.5857 -0.1722
 7584SOL    HW134214   0.427   3.672   1.742  0.2561 -0.2493  0.5107
 7584SOL    HW234215   0.432   3.680   1.885 -0.8745 -0.0410 -0.0769
 7585SOL     OW34216   1.063   3.271   8.581 -0.2266  0.4553 -0.1505
 7585SOL    HW134217   1.026   3.317   8.657 -1.2816 -1.0465  0.2532
 7585SOL    HW234218   0.985   3.222   8.554 -0.8307  0.5603  1.3945
 7586SOL     OW34219   2.641   3.691   3.446 -0.1639 -0.0317  0.1982
 7586SOL    HW134220   2.691   3.674   3.366 -1.9490  0.5973 -1.0419
 7586SOL    HW234221   2.556   3.721   3.415 -0.7890 -1.4136  0.5563
 7587SOL     OW34222   4.272   0.335  15.813 -0.3404 -0.1766  0.1122
 7587SOL    HW134223   4.287   0.293  15.898  0.8178  1.6618  0.8174
 7587SOL    HW234224   4.289   0.266  15.749 -2.0075 -1.8863  1.5315
 7588SOL     OW34225   0.715   1.447   5.809 -0.4038  0.6120  0.4420
 7588SOL    HW134226   0.672   1.526   5.842 -0.8025 -0.0150  1.4232
 7588SOL    HW234227   0.642   1.386   5.812 -0.0656  0.0487 -3.4131
 7589SOL     OW34228   2.637   2.532   2.265  0.0663  0.1196 -0.1589
 7589SOL    HW134229   2.638   2.472   2.339  1.8896 -1.8371 -1.7706
 7589SOL    HW234230   2.724   2.521   2.228 -0.3025  1.3497 -1.4110
 7590SOL     OW34231   2.971   0.523   0.298  0.2807 -0.0286  0.2833
 7590SOL    HW134232   2.879   0.543   0.284  0.3301 -0.4227 -0.5692
 7590SOL    HW234233   2.979   0.488   0.210  2.4656  0.4807  0.2853
 7591SOL     OW34234   0.516   0.897   8.133  0.2310 -0.7221  0.0227
 7591SOL    HW134235   0.508   0.928   8.223 -1.0396 -0.2668 -0.2360
 7591SOL    HW234236   0.439   0.840   8.127  0.2515 -0.7968  0.4344
 7592SOL     OW34237   3.142   3.621   8.680 -1.0501 -0.2246 -0.2559
 7592SOL    HW134238   3.081   3.687   8.648  1.3567  0.7976 -2.7649
 7592SOL    HW234239   3.204   3.614   8.607 -0.8436 -2.9750  0.2102
 7593SOL     OW34240   4.251   3.236   4.897  0.2858 -0.1034  0.0364
 7593SOL    HW134241   4.329   3.181   4.887  0.6171  0.2786  0.5353
 7593SOL    HW234242   4.247   3.253   4.991  1.2040 -1.8123  0.3905
 7594SOL     OW34243   4.066   3.438  11.774  0.0713  0.1625 -0.5858
 7594SOL    HW134244   4.044   3.362  11.721 -1.4606  1.6464 -2.0692
 7594SOL    HW234245   4.123   3.484  11.713  0.5683 -0.4794 -0.6104
 7595SOL     OW34246   4.678   3.329  11.548  0.0590 -0.1292  0.1773
 7595SOL    HW134247   4.674   3.290  11.636 -2.3084  2.2355  1.0996
 7595SOL    HW234248   4.587   3.325  11.521  0.8860 -0.8852 -2.4732
 7596SOL     OW34249   2.508   3.195  12.809  0.0026 -0.0046 -0.2192
 7596SOL    HW134250   2.509   3.224  12.718  2.6706 -1.6755 -0.7199
 7596SOL    HW234251   2.544   3.277  12.841  1.1849 -0.7084  0.2459
 7597SOL     OW34252   1.887   3.245   9.926  0.3669 -0.3110  0.0534
 7597SOL    HW134253   1.795   3.264   9.907  0.6981  0.5620 -0.6378
 7597SOL    HW234254   1.928   3.272   9.845  4.5583  0.0158  2.3100
 7598SOL     OW34255   1.130   3.860  15.221 -0.1598  0.0826 -0.2768
 7598SOL    HW134256   1.163   3.807  15.293  3.9754  0.4028 -1.9594
 7598SOL    HW234257   1.043   3.825  15.202 -1.6721  2.1950  2.7337
 7599SOL     OW34258   0.788   1.547   2.800 -0.4751 -0.4344  0.1122
 7599SOL    HW134259   0.846   1.619   2.827  1.3222 -1.9056  0.1958
 7599SOL    HW234260   0.724   1.552   2.871 -1.0399  1.9351 -0.5817
 7600SOL     OW34261   3.619   0.298  10.582  0.3751  0.3790 -0.3328
 7600SOL    HW134262   3.623   0.318  10.489  1.7730  2.4652  0.1848
 7600SOL    HW234263   3.710   0.273  10.596  0.0898 -1.7558 -2.3971
 7601SOL     OW34264   1.543   3.731   4.777  0.5257  0.2241  0.3425
 7601SOL    HW134265   1.502   3.807   4.738  0.9633  0.4777  0.3755
 7601SOL    HW234266   1.636   3.752   4.766  0.7202  0.9858  3.3029
 7602SOL     OW34267   4.087   3.338  15.424  0.2879 -0.5267 -0.0984
 7602SOL    HW134268   4.080   3.289  15.506 -1.4450  0.6976  0.4958
 7602SOL    HW234269   4.049   3.419  15.458 -2.3363 -1.4762 -0.7674
 7603SOL     OW34270   0.366   0.280   2.494 -0.2561 -0.3631  0.4397
 7603SOL    HW134271   0.298   0.226   2.534  0.4698  1.3406  4.0060
 7603SOL    HW234272   0.390   0.339   2.565 -0.7664 -0.0225  0.3316
 7604SOL     OW34273   3.875   4.523   6.768  0.5982 -0.2432 -0.0731
 7604SOL    HW134274   3.887   4.595   6.830 -0.9576 -0.1746  0.1443
 7604SOL    HW234275   3.956   4.473   6.777  1.1338  0.3572 -1.4208
 7605SOL     OW34276   2.475   3.775   3.982  0.2396 -0.1150 -0.0364
 7605SOL    HW134277   2.545   3.829   4.020  1.8297 -1.5304 -0.9364
 7605SOL    HW234278   2.519   3.765   3.897 -0.0905  3.3046 -0.5784
 7606SOL     OW34279   1.057   3.357   2.056  0.3556  0.0510  0.6095
 7606SOL    HW134280   1.059   3.436   2.001 -1.0754 -0.5991 -0.3740
 7606SOL    HW234281   1.081   3.296   1.987 -2.0354 -0.7088  0.4663
 7607SOL     OW34282   0.570   0.794  10.087  0.2526 -0.2928 -0.3182
 7607SOL    HW134283   0.594   0.867  10.030 -2.6292 -0.1922 -1.3943
 7607SOL    HW234284   0.653   0.747  10.080  0.2105 -0.2706 -0.9981
 7608SOL     OW34285   1.567   3.832  11.316 -0.5394 -0.2816 -0.5040
 7608SOL    HW134286   1.578   3.884  11.395  1.0706  0.2674 -1.0869
 7608SOL    HW234287   1.483   3.790  11.333  0.5698 -0.9732  3.1718
 7609SOL     OW34288   1.497   3.169   4.921 -0.4612 -0.0693 -0.3023
 7609SOL    HW134289   1.485   3.207   5.009  0.2230 -0.6620  0.0443
 7609SOL    HW234290   1.589   3.188   4.904  0.0964 -2.7022 -0.1853
 7610SOL     OW34291   1.334   0.336   1.595  0.2394 -0.2799 -0.6695
 7610SOL    HW134292   1.429   0.348   1.584  0.5162 -1.4072  0.5926
 7610SOL    HW234293   1.334   0.242   1.580  0.7288 -0.5848  1.3312
 7611SOL     OW34294   4.102   3.363   5.606  0.5590 -0.0965 -0.7470
 7611SOL    HW134295   4.179   3.375   5.663  0.5732 -2.8454 -0.1625
 7611SOL    HW234296   4.053   3.299   5.658 -0.2894 -0.2880 -1.7935
 7612SOL     OW34297   3.584   4.153   4.861 -0.1429  0.8834  0.0131
 7612SOL    HW134298   3.658   4.092   4.855 -1.7836 -1.5505  4.9055
 7612SOL    HW234299   3.588   4.201   4.944  0.6269 -0.8366  0.9615
 7613SOL     OW34300   4.502   2.347   5.533 -0.1463  0.3234  0.0715
 7613SOL    HW134301   4.418   2.304   5.548 -0.0285 -0.7015 -2.2935
 7613SOL    HW234302   4.481   2.434   5.569 -0.5855  0.1406  0.2541
 7614SOL     OW34303   0.868   0.725  10.556  0.6066  0.3850 -0.2174
 7614SOL    HW134304   0.781   0.740  10.520 -0.0287  0.0430  1.1888
 7614SOL    HW234305   0.871   0.767  10.641  0.7809  2.6427 -1.3434
 7615SOL     OW34306   3.075   0.643   6.157  0.4164  0.4181 -0.0603
 7615SOL    HW134307   3.157   0.601   6.184  1.7693  3.0080 -0.1267
 7615SOL    HW234308   3.015   0.569   6.171 -1.3559  1.8747 -0.0179
 7616SOL     OW34309   1.157   4.325   9.337 -0.0909  0.1501  0.4348
 7616SOL    HW134310   1.231   4.386   9.337 -2.0729  2.5577 -0.3974
 7616SOL    HW234311   1.130   4.324   9.245 -0.0747 -1.5696  0.4467
 7617SOL     OW34312   2.956   0.063   5.900  0.2507 -0.0274  0.5612
 7617SOL    HW134313   2.861   0.052   5.901  0.3632 -0.9740 -0.9600
 7617SOL    HW234314   2.985   4.721   5.839 -1.2304  0.6096 -0.8276
 7618SOL     OW34315   3.639   1.908  17.495 -0.5626 -0.1502 -0.1180
 7618SOL    HW134316   3.557   1.861  17.512 -1.0696  1.1032  0.9107
 7618SOL    HW234317   3.611   1.998  17.514  1.3533  0.7025 -1.2845
 7619SOL     OW34318   3.239   0.760   3.861 -0.1210 -0.2430 -0.3166
 7619SOL    HW134319   3.219   0.772   3.768 -0.2668  0.2955 -0.2132
 7619SOL    HW234320   3.211   0.668   3.862 -1.4474  0.2424  5.0106
 7620SOL     OW34321   1.101   2.794   4.880 -0.0794  0.0935 -0.3567
 7620SOL    HW134322   1.052   2.840   4.812  0.8672 -0.2901 -1.3087
 7620SOL    HW234323   1.035   2.736   4.916  0.6651 -0.0867  0.7120
 7621SOL     OW34324   0.247   4.400   9.526  0.0819  0.0469 -0.0153
 7621SOL    HW134325   0.322   4.448   9.492  0.6093 -0.6097  0.2219
 7621SOL    HW234326   0.182   4.468   9.539  0.5672  0.6931 -0.9642
 7622SOL     OW34327   3.317   2.055   6.943  0.5012 -0.1150  0.4494
 7622SOL    HW134328   3.287   2.134   6.899 -0.5815  0.1490  1.6549
 7622SOL    HW234329   3.230   2.018   6.958 -0.2928  1.2828 -0.7132
 7623SOL     OW34330   3.539   3.625  13.658  0.2154 -0.4518 -0.3713
 7623SOL    HW134331   3.586   3.683  13.719  0.8424 -0.1437 -1.1415
 7623SOL    HW234332   3.601   3.553  13.651  2.7257  1.6939 -0.6459
 7624SOL     OW34333   4.022   1.776  11.353  0.7799  0.3943 -0.1453
 7624SOL    HW134334   4.058   1.688  11.343 -0.6264 -0.0738 -1.1130
 7624SOL    HW234335   4.070   1.819  11.282 -1.1480 -1.7182 -2.7431
 7625SOL     OW34336   1.235   1.278  13.629 -0.4478 -0.1766  0.1107
 7625SOL    HW134337   1.242   1.337  13.705  1.2029 -1.5789  1.0547
 7625SOL    HW234338   1.324   1.249  13.609 -0.2739 -0.5589  1.4437
 7626SOL     OW34339   1.074   1.775   9.156 -0.2491 -0.3302 -0.1072
 7626SOL    HW134340   1.149   1.739   9.202 -0.1531 -1.4976 -1.1937
 7626SOL    HW234341   1.109   1.856   9.119 -0.3979  0.4517  1.4257
 7627SOL     OW34342   1.855   1.400   0.499  0.4444 -0.4331 -0.3830
 7627SOL    HW134343   1.829   1.417   0.590 -0.2031  0.3610 -0.7233
 7627SOL    HW234344   1.901   1.318   0.516  0.8082 -0.3056 -0.7375
 7628SOL     OW34345   4.377   4.042   2.797 -0.9022 -0.6072 -0.1314
 7628SOL    HW134346   4.394   3.975   2.863  1.4329  1.4098  1.3285
 7628SOL    HW234347   4.287   4.022   2.771 -1.5384  0.5625  1.1140
 7629SOL     OW34348   4.619   1.554   6.903 -0.8360 -0.0894  0.0102
 7629SOL    HW134349   4.558   1.569   6.831  1.2404 -2.5923 -2.2396
 7629SOL    HW234350   4.703   1.544   6.859 -0.9129 -0.3826 -0.0670
 7630SOL     OW34351   1.586   3.265   9.953  0.2473  0.0476 -0.5158
 7630SOL    HW134352   1.496   3.283   9.978 -0.5107 -2.1116 -1.6392
 7630SOL    HW234353   1.595   3.188  10.010 -1.1837  0.0842 -0.2380
 7631SOL     OW34354   2.006   4.137   5.690 -0.1383 -0.4190  0.3799
 7631SOL    HW134355   1.917   4.128   5.724  0.0605  2.6864  1.7883
 7631SOL    HW234356   2.010   4.050   5.652 -1.0733  0.0411 -0.7870
 7632SOL     OW34357   0.824   1.940   1.840 -0.1912  0.7304  0.1266
 7632SOL    HW134358   0.846   2.027   1.873 -0.7383  1.4684 -1.4379
 7632SOL    HW234359   0.795   1.888   1.915  1.9496 -1.1462 -0.3323
 7633SOL     OW34360   0.922   0.350  11.148  0.5322 -0.0963 -0.5918
 7633SOL    HW134361   0.988   0.375  11.084  1.2596  1.0905  0.6198
 7633SOL    HW234362   0.969   0.280  11.195  0.4922  0.5617  0.4335
 7634SOL     OW34363   3.215   0.363  10.943  0.2497 -0.3232  0.1060
 7634SOL    HW134364   3.199   0.391  10.852  2.7972 -1.2273 -0.6237
 7634SOL    HW234365   3.187   0.438  10.996  0.1638  0.3384 -0.8748
 7635SOL     OW34366   3.872   0.824   6.804 -0.0217  0.2108 -0.2135
 7635SOL    HW134367   3.788   0.819   6.758 -0.4316  1.1869  0.4446
 7635SOL    HW234368   3.840   0.813   6.893 -1.2336  1.1188 -0.5286
 7636SOL     OW34369   0.523   1.572   5.168 -0.5652  0.8276  0.7505
 7636SOL    HW134370   0.523   1.625   5.248  1.4966  2.6750 -0.4619
 7636SOL    HW234371   0.609   1.532   5.180  0.0558  1.9345 -0.0081
 7637SOL     OW34372   0.629   3.786   4.752  0.1197 -0.0245 -0.3921
 7637SOL    HW134373   0.709   3.746   4.721  0.9491 -0.1540  1.9284
 7637SOL    HW234374   0.599   3.733   4.826 -0.6050 -0.0143 -0.6750
 7638SOL     OW34375   1.142   0.576  11.266 -0.4545  0.1839  0.1881
 7638SOL    HW134376   1.119   0.533  11.183 -1.2347 -1.3122  1.1764
 7638SOL    HW234377   1.074   0.524  11.310  0.6433  0.2105  1.9124
 7639SOL     OW34378   2.810   2.645   5.349  0.3946  0.1577  0.2590
 7639SOL    HW134379   2.731   2.643   5.294  0.8940  0.7916 -0.4857
 7639SOL    HW234380   2.866   2.576   5.313  2.4734  1.5038  0.8912
 7640SOL     OW34381   4.723   3.413  15.373  0.3996 -0.2900  0.7687
 7640SOL    HW134382   0.010   3.391  15.281  0.6581 -0.9904  0.9743
 7640SOL    HW234383   4.685   3.502  15.375 -0.5761 -0.6621 -1.0905
 7641SOL     OW34384   0.032   4.258   4.806  0.3427 -0.3793 -0.2481
 7641SOL    HW134385   0.127   4.267   4.796  0.3762 -0.1497  0.2584
 7641SOL    HW234386   0.012   4.173   4.768 -0.5300 -0.2435 -0.0929
 7642SOL     OW34387   2.116   4.298   2.789 -0.1944 -0.1729 -0.0798
 7642SOL    HW134388   2.148   4.388   2.796  0.0417 -0.3690  1.3873
 7642SOL    HW234389   2.030   4.308   2.829  0.5957  0.3489  1.4884
 7643SOL     OW34390   1.333   1.942   4.396 -0.3545  0.1502 -0.7113
 7643SOL    HW134391   1.425   1.940   4.371  0.4235 -3.9039  2.4932
 7643SOL    HW234392   1.331   2.034   4.422  1.2491 -0.1691  0.5204
 7644SOL     OW34393   2.828   1.431  12.816 -0.1953 -0.0647  0.1247
 7644SOL    HW134394   2.875   1.347  12.819 -0.7539 -0.3824  0.1194
 7644SOL    HW234395   2.874   1.478  12.885 -1.5090  0.5015  0.6054
 7645SOL     OW34396   1.384   3.982   6.427  0.4557 -0.3915  0.0964
 7645SOL    HW134397   1.319   4.028   6.482  1.4584 -0.0623  1.0028
 7645SOL    HW234398   1.451   3.974   6.494 -0.0147 -1.0677  0.4879
 7646SOL     OW34399   0.617   4.326   4.364  0.3797 -0.2547  0.3106
 7646SOL    HW134400   0.570   4.243   4.380 -0.6466 -0.0299 -1.4772
 7646SOL    HW234401   0.546   4.384   4.336  0.8891  0.7777  1.2184
 7647SOL     OW34402   2.264   0.544   9.399  0.2048 -0.2250 -0.2573
 7647SOL    HW134403   2.198   0.611   9.413 -1.3083 -1.5745 -0.9435
 7647SOL    HW234404   2.316   0.587   9.331  0.4689  0.1348  0.1709
 7648SOL     OW34405   1.614   1.004  16.997  0.0690 -0.7921  0.1465
 7648SOL    HW134406   1.569   1.022  17.080 -0.2601  0.4741 -0.3106
 7648SOL    HW234407   1.542   0.999  16.934 -0.2981 -0.7156  0.5573
 7649SOL     OW34408   4.469   4.457   6.924 -0.7517  0.2380  0.0679
 7649SOL    HW134409   4.519   4.457   7.006 -1.6099 -0.6574  0.6012
 7649SOL    HW234410   4.524   4.397   6.873  1.3279  1.3868  0.9647
 7650SOL     OW34411   0.570   2.870   5.046  0.2071 -0.3724 -0.1265
 7650SOL    HW134412   0.575   2.954   5.000  0.7991  0.4087  1.3545
 7650SOL    HW234413   0.481   2.845   5.021 -0.2098  1.2227 -0.2773
 7651SOL     OW34414   3.369   2.996   8.030 -0.1584  0.3703  0.0197
 7651SOL    HW134415   3.440   2.970   7.972  0.3255  0.6521  0.4844
 7651SOL    HW234416   3.352   3.077   7.980  0.9756  0.7055  0.1776
 7652SOL     OW34417   1.759   1.395   3.653  0.9676  0.0858 -0.9222
 7652SOL    HW134418   1.695   1.465   3.641 -0.8647 -1.1797  1.5836
 7652SOL    HW234419   1.758   1.394   3.748 -0.8513 -2.3217 -0.9815
 7653SOL     OW34420   1.593   0.549   6.456  1.0201 -0.4145  0.2484
 7653SOL    HW134421   1.603   0.457   6.431  0.0849 -0.3001 -0.5459
 7653SOL    HW234422   1.581   0.546   6.551 -1.5519 -0.8470 -0.0984
 7654SOL     OW34423   0.854   1.249   5.334 -0.4036 -0.5086  0.1665
 7654SOL    HW134424   0.777   1.260   5.278  1.3969  1.1290 -1.9416
 7654SOL    HW234425   0.830   1.307   5.406  0.0458  2.3077 -1.9939
 7655SOL     OW34426   0.427   0.098   6.189 -0.5991  0.1180  0.0908
 7655SOL    HW134427   0.333   0.080   6.180 -0.3011 -1.1218 -0.4826
 7655SOL    HW234428   0.456   0.117   6.100  0.4997 -2.3335 -0.0806
 7656SOL     OW34429   2.969   4.242   5.278 -0.7692 -0.7045 -0.4582
 7656SOL    HW134430   2.892   4.185   5.275  0.1429 -1.8792 -1.5426
 7656SOL    HW234431   2.963   4.281   5.365 -1.9833  3.6362 -2.5010
 7657SOL     OW34432   2.844   1.273  14.203  0.0163  0.0625 -1.1780
 7657SOL    HW134433   2.809   1.295  14.117  1.3942  2.0955 -1.2225
 7657SOL    HW234434   2.776   1.257  14.268  0.2199 -0.0640 -0.9923
 7658SOL     OW34435   1.691   0.784   0.954 -0.7395  0.9874 -0.5321
 7658SOL    HW134436   1.676   0.690   0.962  1.5663  0.6080 -0.6137
 7658SOL    HW234437   1.723   0.779   0.864 -1.8367  1.0172 -0.9303
 7659SOL     OW34438   0.532   1.348  12.486  0.7148  0.2603  0.6098
 7659SOL    HW134439   0.562   1.258  12.472 -0.0832  0.0481  0.2755
 7659SOL    HW234440   0.603   1.381  12.542 -0.2540  4.0922 -0.4689
 7660SOL     OW34441   0.607   2.095   9.806  0.5237 -0.4678 -0.0791
 7660SOL    HW134442   0.681   2.089   9.745  0.2140 -0.1608 -0.4911
 7660SOL    HW234443   0.532   2.083   9.747  0.3471 -2.8655  0.6661
 7661SOL     OW34444   3.823   3.016   2.501 -0.2739  0.1818 -0.2512
 7661SOL    HW134445   3.812   2.938   2.555  2.3374 -0.4626 -0.6439
 7661SOL    HW234446   3.737   3.031   2.462  0.8914  1.4497 -2.3489
 7662SOL     OW34447   1.136   2.605  12.025 -0.1290 -0.2494  0.9606
 7662SOL    HW134448   1.228   2.620  12.005 -0.8864 -0.4267 -2.5851
 7662SOL    HW234449   1.127   2.638  12.114 -1.3026  1.6868  0.1150
 7663SOL     OW34450   3.999   4.418   7.222 -0.2267  0.2871 -0.3589
 7663SOL    HW134451   4.061   4.491   7.220  2.8327 -2.2393  2.1271
 7663SOL    HW234452   3.915   4.458   7.199  0.0028 -0.8270 -3.1299
 7664SOL     OW34453   0.189   4.196   5.469  0.0710  0.4114 -0.0233
 7664SOL    HW134454   0.108   4.208   5.519 -1.5338  0.3216 -2.5628
 7664SOL    HW234455   0.245   4.162   5.538  0.1974  1.1687  0.2469
 7665SOL     OW34456   1.168   2.320   8.679 -0.4745  0.0989 -0.4331
 7665SOL    HW134457   1.143   2.234   8.713  3.9166 -0.1069  2.2888
 7665SOL    HW234458   1.183   2.301   8.587  0.1711  0.1059 -0.3356
 7666SOL     OW34459   1.013   0.659   6.140 -0.2005  0.0637 -0.0555
 7666SOL    HW134460   0.933   0.679   6.091 -0.6350 -1.9776 -0.1491
 7666SOL    HW234461   1.083   0.692   6.082 -0.2109  0.8911  0.3988
 7667SOL     OW34462   1.432   2.910   7.999 -0.2636 -0.2265  0.3400
 7667SOL    HW134463   1.393   2.887   7.915  0.2955 -3.1378  0.8701
 7667SOL    HW234464   1.350   2.910   8.050  0.6800  0.6805  1.8676
 7668SOL     OW34465   1.719   0.732   2.922  0.1691  0.6773  0.7045
 7668SOL    HW134466   1.680   0.686   2.848 -0.3071 -0.7410  1.8374
 7668SOL    HW234467   1.653   0.714   2.989  1.2493 -2.2481  1.0039
 7669SOL     OW34468   0.079   4.323   1.498 -0.5565 -0.1131  0.1786
 7669SOL    HW134469   0.105   4.376   1.574 -1.7025  0.2753  0.3116
 7669SOL    HW234470   0.021   4.380   1.447 -0.5320  1.2469  1.6481
 7670SOL     OW34471   4.595   0.881   2.781  0.2038  0.2542 -0.2365
 7670SOL    HW134472   4.581   0.915   2.869 -0.5875 -0.9140  0.0906
 7670SOL    HW234473   4.679   0.919   2.756 -0.3739  1.8439  0.2406
 7671SOL     OW34474   3.976   1.961   9.065  0.6017 -0.2991 -0.0773
 7671SOL    HW134475   3.987   2.037   9.122  2.2935 -0.8546  0.3272
 7671SOL    HW234476   4.059   1.915   9.067  1.2769  0.9427  0.6084
 7672SOL     OW34477   1.323   0.474   6.943  0.7993 -0.3222  0.4649
 7672SOL    HW134478   1.395   0.491   7.003  0.7508  0.0526  0.4154
 7672SOL    HW234479   1.342   0.538   6.875  0.3330 -0.5794  0.0946
 7673SOL     OW34480   3.586   4.173   2.171 -0.6964 -0.3380  0.0546
 7673SOL    HW134481   3.499   4.152   2.135 -1.8375 -2.3301  3.9483
 7673SOL    HW234482   3.636   4.129   2.103  2.2334 -0.7750  2.4818
 7674SOL     OW34483   1.906   1.969  14.468 -0.5273  0.0792 -0.1338
 7674SOL    HW134484   1.980   1.992  14.412  0.3134  0.7795  1.2516
 7674SOL    HW234485   1.850   1.922  14.406 -0.9195 -0.7753  0.8686
 7675SOL     OW34486   4.415   0.857   6.065 -0.1939  0.1166  0.3274
 7675SOL    HW134487   4.474   0.872   6.139  1.4014 -1.8128 -0.5540
 7675SOL    HW234488   4.352   0.791   6.096  0.9101 -0.3387  1.6063
 7676SOL     OW34489   0.206   1.420   2.224 -0.0664  0.6247 -0.5354
 7676SOL    HW134490   0.188   1.440   2.132  0.0289 -3.0419 -1.3371
 7676SOL    HW234491   0.148   1.479   2.272  2.2510  1.9990  0.5870
 7677SOL     OW34492   1.890   2.879   5.040  0.1157  0.0704 -0.2037
 7677SOL    HW134493   1.878   2.829   5.120  0.6613  3.3242  1.9026
 7677SOL    HW234494   1.806   2.921   5.022  1.2691  3.0202  1.3306
 7678SOL     OW34495   4.069   3.818  15.671  0.0849 -0.2193  0.1349
 7678SOL    HW134496   4.143   3.787  15.724  0.0771 -0.0905  0.2201
 7678SOL    HW234497   4.038   3.881  15.736  1.9644  2.4081 -1.5259
 7679SOL     OW34498   2.055   2.036   4.308 -0.3182  0.2741 -0.3935
 7679SOL    HW134499   2.130   2.092   4.292  0.2370 -0.9592 -2.1056
 7679SOL    HW234500   2.006   2.046   4.226 -0.3871 -0.8441 -0.4902
 7680SOL     OW34501   3.422   3.275  13.542 -0.0655  0.0655  0.1201
 7680SOL    HW134502   3.343   3.249  13.590 -0.4981  2.0508  0.4832
 7680SOL    HW234503   3.413   3.223  13.462 -2.3143  0.1877  0.2908
 7681SOL     OW34504   3.541   2.259  12.842  0.3023  0.4190 -0.0978
 7681SOL    HW134505   3.447   2.270  12.853  0.1071  0.1796 -1.5774
 7681SOL    HW234506   3.541   2.248  12.747 -0.2180  1.0142 -0.1689
 7682SOL     OW34507   0.553   2.237  16.480 -0.1481  0.5191  0.7409
 7682SOL    HW134508   0.633   2.185  16.469  0.0416  1.1568 -0.9892
 7682SOL    HW234509   0.564   2.300  16.408  1.6973 -0.5550  0.0944
 7683SOL     OW34510   1.089   4.369  14.645  0.5922 -0.1741 -0.0203
 7683SOL    HW134511   1.130   4.286  14.668  1.9443  0.5536  0.1806
 7683SOL    HW234512   0.999   4.368  14.679  1.2971  1.2763  1.8978
 7684SOL     OW34513   0.124   1.982   1.272 -0.3059  0.8027  0.5147
 7684SOL    HW134514   0.046   1.930   1.293  1.4721 -1.7021  0.9870
 7684SOL    HW234515   0.099   2.058   1.325 -1.6735  1.8719 -1.6649
 7685SOL     OW34516   3.269   1.098  17.558 -0.0052  0.2221 -0.6172
 7685SOL    HW134517   3.332   1.159  17.520  2.0028 -0.6480  1.2853
 7685SOL    HW234518   3.205   1.103  17.487 -0.8348 -2.7271 -0.0452
 7686SOL     OW34519   2.049   1.363  14.220  0.1933  0.1635  0.3882
 7686SOL    HW134520   2.145   1.356  14.224  0.1634  0.0056  0.7848
 7686SOL    HW234521   2.012   1.288  14.266 -1.2033 -0.2172 -1.3398
 7687SOL     OW34522   1.175   0.664   8.222 -0.5278  0.4247  0.2247
 7687SOL    HW134523   1.199   0.629   8.136 -1.3477  1.4660 -0.4283
 7687SOL    HW234524   1.200   0.756   8.211 -0.3379  0.1471 -1.7084
 7688SOL     OW34525   0.427   1.807  13.214 -0.3364 -0.0904  0.3221
 7688SOL    HW134526   0.433   1.746  13.288  0.9774 -0.0557  0.2576
 7688SOL    HW234527   0.341   1.785  13.180  0.1799  0.3519 -1.2846
 7689SOL     OW34528   0.920   2.883   6.192 -0.2403  0.4145  0.2908
 7689SOL    HW134529   0.984   2.895   6.121  0.0522  2.2520  0.8703
 7689SOL    HW234530   0.863   2.953   6.160 -0.4028  0.5159  0.8110
 7690SOL     OW34531   3.267   0.080  11.542 -0.2491  0.4387 -0.5246
 7690SOL    HW134532   3.327   0.153  11.560 -0.9139  0.8638 -0.0190
 7690SOL    HW234533   3.328   0.027  11.491 -0.6971  0.9162 -1.5551
 7691SOL     OW34534   2.047   4.471   5.415 -0.0160 -0.8741  0.4637
 7691SOL    HW134535   2.015   4.447   5.328 -1.1689 -0.6007  0.8122
 7691SOL    HW234536   2.033   4.565   5.421  1.5216 -0.5272 -1.1871
 7692SOL     OW34537   2.903   2.944  13.626  0.1254  0.1094 -0.0508
 7692SOL    HW134538   2.915   2.853  13.599  0.2062 -1.1123  4.0849
 7692SOL    HW234539   2.811   2.968  13.634 -0.2163 -1.5449  0.9428
 7693SOL     OW34540   0.508   2.040  10.068 -0.5399  0.2313  0.1009
 7693SOL    HW134541   0.570   2.027   9.997  1.0566  0.7478  1.3911
 7693SOL    HW234542   0.530   1.965  10.123  0.5638  0.7022  0.2922
 7694SOL     OW34543   1.607   3.863   3.149  0.7802  0.0081 -0.1076
 7694SOL    HW134544   1.548   3.933   3.119  1.6786 -0.1055 -2.1459
 7694SOL    HW234545   1.608   3.803   3.074  1.7851 -0.0911 -0.0189
 7695SOL     OW34546   1.560   1.054   5.836 -0.4667 -0.1275  0.1682
 7695SOL    HW134547   1.585   0.968   5.803 -2.0204 -0.0882 -1.1066
 7695SOL    HW234548   1.491   1.087   5.779 -0.1630  0.1407 -0.0430
 7696SOL     OW34549   2.147   3.084   3.893  0.0239  0.9224  0.4516
 7696SOL    HW134550   2.087   3.093   3.967 -1.5030 -0.6607 -0.5811
 7696SOL    HW234551   2.220   3.140   3.919  0.8872  0.1621 -0.3337
 7697SOL     OW34552   3.602   4.597   6.878  0.1499 -0.2274 -0.2938
 7697SOL    HW134553   3.629   4.683   6.910  0.0784 -0.7457  1.1650
 7697SOL    HW234554   3.684   4.561   6.847  1.1032  0.4587  1.4027
 7698SOL     OW34555   4.359   3.438   1.882  0.4922  0.4356 -0.0259
 7698SOL    HW134556   4.385   3.356   1.841  0.9695  1.4241 -1.7037
 7698SOL    HW234557   4.377   3.416   1.974 -0.2541 -2.8449 -0.6721
 7699SOL     OW34558   4.444   1.938   5.676 -1.1259 -0.1004  0.3747
 7699SOL    HW134559   4.501   1.899   5.742 -0.3835 -1.5524 -1.1040
 7699SOL    HW234560   4.360   1.899   5.698 -1.6164  1.3590  1.0796
 7700SOL     OW34561   0.735   2.470   7.494  0.1781 -0.0244  0.4441
 7700SOL    HW134562   0.808   2.411   7.474  0.6409  0.8908 -0.5575
 7700SOL    HW234563   0.770   2.558   7.477 -0.6396  0.3834  0.8471
 7701SOL     OW34564   2.379   1.573   3.484  0.9259  0.1595  0.1379
 7701SOL    HW134565   2.295   1.542   3.451  1.8726  1.1317 -3.1813
 7701SOL    HW234566   2.420   1.486   3.488  1.6609  0.5528  1.2120
 7702SOL     OW34567   1.010   0.876   4.070 -0.0545  0.0732  0.0072
 7702SOL    HW134568   0.943   0.889   4.137  0.0057 -1.1049  0.2913
 7702SOL    HW234569   1.068   0.810   4.110 -2.9126 -1.2754  1.9140
 7703SOL     OW34570   2.038   0.017   6.061 -0.2431 -0.0401 -0.7564
 7703SOL    HW134571   2.054   4.691   6.141 -0.4675  1.5773  0.3315
 7703SOL    HW234572   1.960   0.065   6.088 -2.0658 -2.3021 -2.0894
 7704SOL     OW34573   3.039   4.387   3.139  0.4950 -0.2012  0.4243
 7704SOL    HW134574   2.997   4.303   3.123  1.3538 -0.4782 -0.3397
 7704SOL    HW234575   3.131   4.377   3.116  0.3639 -0.1304 -0.1306
 7705SOL     OW34576   1.868   0.374   5.920 -0.7458  0.1952 -0.8248
 7705SOL    HW134577   1.815   0.453   5.935 -1.0759 -0.2024  0.0767
 7705SOL    HW234578   1.848   0.355   5.829  2.6180  0.4698 -1.6297
 7706SOL     OW34579   3.176   1.365   5.315  0.0004 -0.2661 -0.3149
 7706SOL    HW134580   3.137   1.418   5.246 -0.1258  0.3813  0.2604
 7706SOL    HW234581   3.124   1.392   5.391  1.8206 -0.6969  1.1030
 7707SOL     OW34582   3.219   2.878   2.103  0.2092  0.5803  0.1620
 7707SOL    HW134583   3.131   2.873   2.140  1.0652  0.4957  2.2424
 7707SOL    HW234584   3.209   2.950   2.041  0.8629  1.0148  0.5567
 7708SOL     OW34585   4.059   0.329   7.314  0.1269 -0.0740 -0.3452
 7708SOL    HW134586   4.080   0.403   7.371  0.2204  1.7424 -2.7542
 7708SOL    HW234587   4.141   0.279   7.313  0.6063  0.7597 -1.7886
 7709SOL     OW34588   4.122   3.211   9.482 -0.2428  0.4701  0.6358
 7709SOL    HW134589   4.154   3.121   9.476 -1.9930 -0.3590  3.7147
 7709SOL    HW234590   4.044   3.202   9.427  0.1846 -1.9982  0.4417
 7710SOL     OW34591   1.566   2.730   4.224 -0.4175  0.6693  0.2375
 7710SOL    HW134592   1.650   2.774   4.238  1.1390 -2.3286  0.1139
 7710SOL    HW234593   1.507   2.799   4.254  0.4393  2.7810 -2.8839
 7711SOL     OW34594   1.817   1.272   4.508  0.0368 -0.6403  0.5273
 7711SOL    HW134595   1.883   1.207   4.484  2.6971  1.7514  1.4065
 7711SOL    HW234596   1.750   1.219   4.552 -0.4739 -0.5584 -0.1476
 7712SOL     OW34597   1.123   1.412  17.621  0.1848 -0.2795 -0.1836
 7712SOL    HW134598   1.156   1.442   0.004  0.0983 -0.1711 -0.1876
 7712SOL    HW234599   1.029   1.400  17.633  0.4936 -1.9371  0.5329
 7713SOL     OW34600   0.268   4.241   6.932 -0.2825 -0.3143  0.4235
 7713SOL    HW134601   0.259   4.146   6.931  2.8145 -0.6207  0.4258
 7713SOL    HW234602   0.233   4.264   6.846  2.5819  1.3815 -0.2997
 7714SOL     OW34603   2.918   0.913  16.485  0.3510  0.7468 -0.6870
 7714SOL    HW134604   2.872   0.868  16.556  2.3038  0.6049  0.5057
 7714SOL    HW234605   2.964   0.845  16.435 -1.0639 -0.7299  0.0305
 7715SOL     OW34606   0.397   1.602   4.881 -0.3969  0.6109  0.3275
 7715SOL    HW134607   0.438   1.554   4.809 -0.2182  0.6998  0.3711
 7715SOL    HW234608   0.383   1.532   4.944 -1.2616  1.2698  0.8727
 7716SOL     OW34609   3.631   0.378  11.205 -0.0385  0.3586  0.1729
 7716SOL    HW134610   3.673   0.461  11.225  2.1761 -1.1903  1.9999
 7716SOL    HW234611   3.627   0.376  11.109  2.0991 -3.0626  0.1461
 7717SOL     OW34612   0.856   3.383   6.666  0.0089  0.1719  0.1113
 7717SOL    HW134613   0.837   3.460   6.719  2.1628  1.5062 -1.0769
 7717SOL    HW234614   0.770   3.342   6.670 -0.4275  1.0756 -0.3204
 7718SOL     OW34615   1.000   4.420   9.829 -0.0156  0.1247  0.1207
 7718SOL    HW134616   1.046   4.383   9.905 -0.4786 -1.8599 -0.5463
 7718SOL    HW234617   1.074   4.425   9.768 -0.2054  0.2239 -0.1033
 7719SOL     OW34618   1.405   0.868   8.528  0.0080 -0.1094 -0.0451
 7719SOL    HW134619   1.394   0.944   8.471  1.3613 -0.2738 -0.5202
 7719SOL    HW234620   1.400   0.898   8.619  0.3900  0.8211 -0.3385
 7720SOL     OW34621   3.264   2.627   1.880 -0.3402 -0.6072  0.4527
 7720SOL    HW134622   3.307   2.701   1.837  1.2595 -0.9899  1.4275
 7720SOL    HW234623   3.296   2.641   1.969 -0.0196 -1.0912  0.4121
 7721SOL     OW34624   1.893   2.293   2.181 -0.1611  0.1075 -0.7656
 7721SOL    HW134625   1.915   2.382   2.152 -2.0393  1.4426  1.8698
 7721SOL    HW234626   1.941   2.245   2.114  1.6131 -1.4227  1.5912
 7722SOL     OW34627   1.654   2.348   5.631  0.6456 -0.3569 -0.2078
 7722SOL    HW134628   1.571   2.347   5.680  0.1866  0.5944 -0.9719
 7722SOL    HW234629   1.667   2.443   5.636  0.6853 -0.4164  0.9816
 7723SOL     OW34630   3.905   3.715   3.476  0.0385  0.4392 -0.4761
 7723SOL    HW134631   3.826   3.689   3.430 -0.0166 -1.6498  0.8186
 7723SOL    HW234632   3.971   3.722   3.407  1.1077  0.2863  0.5227
 7724SOL     OW34633   2.200   4.188   8.796 -0.0950  0.5231  0.2463
 7724SOL    HW134634   2.277   4.190   8.738 -0.7264  1.3735 -0.5761
 7724SOL    HW234635   2.234   4.208   8.883 -0.9788  0.1846  0.6663
 7725SOL     OW34636   0.724   1.491   1.387  0.4639  0.3589  0.1017
 7725SOL    HW134637   0.774   1.411   1.373 -0.6176 -0.6048  1.7322
 7725SOL    HW234638   0.762   1.515   1.472 -3.6473 -0.7027  2.2697
 7726SOL     OW34639   2.550   3.172  14.824  0.1790  0.2816  0.0207
 7726SOL    HW134640   2.595   3.142  14.903  1.9357  1.7188 -0.4339
 7726SOL    HW234641   2.559   3.268  14.831 -1.0374  0.3076  1.1906
 7727SOL     OW34642   2.828   3.603   4.813 -0.0782  0.1110 -0.1003
 7727SOL    HW134643   2.781   3.666   4.866  0.9224  0.7987 -0.0224
 7727SOL    HW234644   2.907   3.652   4.789 -1.2125  2.2577  0.5861
 7728SOL     OW34645   0.222   1.429  15.538  0.1710 -0.0321 -0.4212
 7728SOL    HW134646   0.254   1.379  15.463  1.7501  1.4217 -0.7495
 7728SOL    HW234647   0.134   1.392  15.541  1.0884 -2.1063  0.9490
 7729SOL     OW34648   2.919   4.635  11.614  0.2542  0.0036 -0.1892
 7729SOL    HW134649   2.859   4.568  11.646  0.2084  1.4548  2.6926
 7729SOL    HW234650   2.984   4.632  11.684 -2.3680  1.7921  2.3044
 7730SOL     OW34651   4.447   4.413   4.145 -0.5673  0.6724 -0.1591
 7730SOL    HW134652   4.361   4.453   4.152 -0.1927  1.3104  0.8820
 7730SOL    HW234653   4.497   4.474   4.199 -0.5442  0.2241  0.3259
 7731SOL     OW34654   2.442   4.126  15.393 -0.4278 -0.4493 -0.1276
 7731SOL    HW134655   2.458   4.219  15.376  1.1828 -0.7374 -0.1392
 7731SOL    HW234656   2.457   4.148  15.485 -0.4187  1.3536 -0.5537
 7732SOL     OW34657   4.683   1.497   8.518 -0.1732  0.0930  0.2387
 7732SOL    HW134658   0.026   1.436   8.487  1.2014  2.1724 -0.8085
 7732SOL    HW234659   4.623   1.510   8.445  0.3928 -1.9954 -0.6089
 7733SOL     OW34660   3.545   0.320   1.036  0.0497  0.1114 -0.3743
 7733SOL    HW134661   3.635   0.332   1.005 -0.3760 -2.7924 -2.6709
 7733SOL    HW234662   3.543   0.259   1.109  0.4126  0.0933 -0.3800
 7734SOL     OW34663   2.004   3.318   4.896 -0.0649  0.5217 -0.1902
 7734SOL    HW134664   2.074   3.369   4.856  1.3067 -0.5051  0.9027
 7734SOL    HW234665   2.014   3.328   4.991  1.4434 -2.8547  0.0006
 7735SOL     OW34666   2.013   4.420   5.134  0.3987  0.0153  0.3359
 7735SOL    HW134667   2.006   4.463   5.048  0.1900 -1.0768 -0.1934
 7735SOL    HW234668   1.995   4.329   5.112 -0.2897  0.4051 -0.7398
 7736SOL     OW34669   2.222   1.763   6.190  0.2610  0.1561  0.7865
 7736SOL    HW134670   2.267   1.723   6.115  2.2944  0.6690  1.7414
 7736SOL    HW234671   2.131   1.738   6.179  0.0046  1.8165 -0.7266
 7737SOL     OW34672   3.170   3.153   8.487  0.7919  0.6448  0.2741
 7737SOL    HW134673   3.195   3.187   8.574  2.2428 -2.4450  1.0333
 7737SOL    HW234674   3.196   3.227   8.432  2.3616  0.3649  0.6517
 7738SOL     OW34675   4.103   4.243  10.811  0.2201 -0.1937 -0.3326
 7738SOL    HW134676   4.011   4.225  10.828 -0.5118  3.6868 -0.2020
 7738SOL    HW234677   4.126   4.164  10.762  2.7664 -0.5507  1.4266
 7739SOL     OW34678   4.408   0.449   6.860  0.6008  0.0821  0.4293
 7739SOL    HW134679   4.440   0.394   6.788 -1.7826 -2.2912  1.1780
 7739SOL    HW234680   4.317   0.456   6.830  0.0147  0.6698  2.3838
 7740SOL     OW34681   4.306   0.497  16.465 -0.0625 -0.0731 -0.4946
 7740SOL    HW134682   4.240   0.566  16.476 -0.4417 -0.7395  1.4007
 7740SOL    HW234683   4.253   0.418  16.473 -1.5608  1.1172  1.3841
 7741SOL     OW34684   0.250   2.439   6.206  0.0366 -0.1254  0.3057
 7741SOL    HW134685   0.252   2.361   6.262 -0.1350 -1.1761 -1.1613
 7741SOL    HW234686   0.156   2.431   6.188  0.4854 -1.1300 -1.5315
 7742SOL     OW34687   3.342   3.224   2.510  0.5090  0.4504 -0.1384
 7742SOL    HW134688   3.340   3.270   2.426 -1.0508 -0.9021 -0.8445
 7742SOL    HW234689   3.361   3.294   2.572 -0.8659  0.8016 -0.1120
 7743SOL     OW34690   4.301   3.357   8.175 -0.6468  0.4356  0.4664
 7743SOL    HW134691   4.297   3.289   8.108  2.2051  0.4057  0.3197
 7743SOL    HW234692   4.263   3.312   8.251  2.6666 -0.2495  1.7164
 7744SOL     OW34693   3.466   1.961   3.495  1.0682 -0.8404  0.2638
 7744SOL    HW134694   3.407   1.950   3.570 -0.0650 -0.4623 -0.5734
 7744SOL    HW234695   3.405   1.994   3.429 -1.0687 -0.4525  2.4417
 7745SOL     OW34696   4.587   0.404  16.495 -0.5119  0.7091 -0.2621
 7745SOL    HW134697   4.602   0.341  16.565  1.4131  0.7671 -0.6090
 7745SOL    HW234698   4.511   0.455  16.521 -0.5822 -0.3995  1.6630
 7746SOL     OW34699   3.175   3.580   7.706 -0.0881  0.2775  0.2128
 7746SOL    HW134700   3.191   3.488   7.689 -2.3097 -0.0253 -0.2306
 7746SOL    HW234701   3.234   3.626   7.645 -1.0292  1.2152 -0.0049
 7747SOL     OW34702   1.517   3.672   6.369  0.2021  0.6148  0.3568
 7747SOL    HW134703   1.480   3.645   6.452 -0.8804  2.5445  0.5189
 7747SOL    HW234704   1.531   3.764   6.390  3.0899 -0.4117  2.7810
 7748SOL     OW34705   4.033   2.544  11.437  0.3794  0.2737  0.1536
 7748SOL    HW134706   3.944   2.529  11.405  0.3856  2.4941 -0.9383
 7748SOL    HW234707   4.011   2.598  11.513  1.5995  0.6489  0.2329
 7749SOL     OW34708   2.824   3.065   3.115 -0.1110  0.1253 -0.1059
 7749SOL    HW134709   2.882   3.093   3.044 -2.0384  1.0130 -1.3481
 7749SOL    HW234710   2.885   3.008   3.161  0.4238 -0.3941 -1.4856
 7750SOL     OW34711   2.524   2.621   5.922  0.5500 -0.1524 -0.3150
 7750SOL    HW134712   2.481   2.640   5.839  0.1292  0.1824 -0.0218
 7750SOL    HW234713   2.617   2.612   5.903  0.5191  0.7023 -0.8379
 7751SOL     OW34714   0.690   2.390  14.243 -0.5354  0.3854 -0.1838
 7751SOL    HW134715   0.727   2.320  14.190  0.4216 -0.1359  1.1836
 7751SOL    HW234716   0.765   2.442  14.271 -1.2501  1.7071 -0.7401
 7752SOL     OW34717   2.923   1.561   6.441 -0.1859 -0.0745  0.5840
 7752SOL    HW134718   3.013   1.534   6.459 -0.4339 -0.1986  1.6255
 7752SOL    HW234719   2.933   1.656   6.442  0.0933 -0.1096  0.9733
 7753SOL     OW34720   4.075   2.228   4.628 -0.0446  0.0393 -0.5999
 7753SOL    HW134721   4.000   2.197   4.679 -0.8499  2.5016 -0.2565
 7753SOL    HW234722   4.141   2.256   4.692  1.9154 -2.5315 -1.5117
 7754SOL     OW34723   0.707   2.856   5.300 -0.6810  0.2144  0.3450
 7754SOL    HW134724   0.655   2.870   5.220 -2.0003 -0.5537  1.0794
 7754SOL    HW234725   0.793   2.876   5.262 -0.2939 -0.4958  0.8636
 7755SOL     OW34726   0.887   0.311   3.826  0.5055 -0.1560 -0.1766
 7755SOL    HW134727   0.956   0.377   3.835  1.6131 -1.2277 -0.6408
 7755SOL    HW234728   0.841   0.305   3.909  0.9615  2.0921  0.2245
 7756SOL     OW34729   3.431   3.184   7.786 -0.4446 -0.2046 -0.5672
 7756SOL    HW134730   3.453   3.094   7.763  0.1281 -0.4950  1.0883
 7756SOL    HW234731   3.512   3.236   7.783 -0.9960  0.7867  1.1574
 7757SOL     OW34732   1.802   3.755   4.287 -0.1482 -0.1304  0.3832
 7757SOL    HW134733   1.851   3.732   4.208  3.7176  1.4213  2.3052
 7757SOL    HW234734   1.765   3.672   4.318  1.7002 -0.8913  0.5412
 7758SOL     OW34735   4.609   0.287  14.189  0.5325 -0.1777  0.9594
 7758SOL    HW134736   4.615   0.227  14.114 -0.4401 -1.1489  1.6538
 7758SOL    HW234737   4.702   0.309  14.193  0.0338  1.9053  1.1314
 7759SOL     OW34738   1.617   2.431   7.780  0.0499  0.0404  0.4618
 7759SOL    HW134739   1.691   2.464   7.729 -0.6791  1.5769  0.3985
 7759SOL    HW234740   1.616   2.341   7.749  1.9196 -0.2038  1.1177
 7760SOL     OW34741   4.539   1.386   1.929  0.4398  0.3131 -0.4329
 7760SOL    HW134742   4.604   1.448   1.963 -0.6184  2.0002 -1.4682
 7760SOL    HW234743   4.596   1.311   1.913 -1.2143 -1.2189  0.7096
 7761SOL     OW34744   0.768   0.228   4.640 -0.2760 -0.2669  0.3395
 7761SOL    HW134745   0.679   0.202   4.663  0.0704  0.1982  2.1817
 7761SOL    HW234746   0.809   0.261   4.720 -0.6229  0.4090  0.2441
 7762SOL     OW34747   2.925   4.528   6.262  0.5523 -0.1665  0.6520
 7762SOL    HW134748   2.858   4.460   6.259 -0.5088  0.8940  0.7811
 7762SOL    HW234749   2.866   4.602   6.250 -0.0345 -0.7389  0.0455
 7763SOL     OW34750   2.891   3.479   9.110 -0.2563  0.1764  0.1189
 7763SOL    HW134751   2.830   3.437   9.048 -0.5913  1.3700 -0.3624
 7763SOL    HW234752   2.875   3.437   9.194  0.8239  0.8134  0.6417
 7764SOL     OW34753   4.204   4.548   2.728 -0.3505 -0.2252 -0.5142
 7764SOL    HW134754   4.269   4.479   2.717  0.0294  0.0268  0.1522
 7764SOL    HW234755   4.218   4.585   2.641  0.5628  1.4338  0.3244
 7765SOL     OW34756   1.003   0.092  12.131 -0.3272 -0.5064  0.3931
 7765SOL    HW134757   1.066   0.153  12.170  1.1107 -2.2988  0.8772
 7765SOL    HW234758   0.956   0.058  12.207  0.1175 -0.4364  0.6978
 7766SOL     OW34759   1.039   2.015   1.664  0.3046 -0.0386  0.1249
 7766SOL    HW134760   1.101   2.071   1.710  1.8749 -1.6974  0.0043
 7766SOL    HW234761   0.970   2.011   1.730 -0.2389 -1.8253 -0.5589
 7767SOL     OW34762   4.100   3.767   4.614  0.0338  0.5489 -0.0108
 7767SOL    HW134763   4.108   3.738   4.705  1.6797  1.5613  0.1812
 7767SOL    HW234764   4.064   3.856   4.620 -0.9439  0.2617 -1.7334
 7768SOL     OW34765   2.785   1.557  13.936 -0.3698  0.0021 -0.2959
 7768SOL    HW134766   2.862   1.581  13.885 -0.8743  2.1755 -0.0465
 7768SOL    HW234767   2.807   1.592  14.022  1.5076  2.3739 -1.7435
 7769SOL     OW34768   4.519   3.559  13.149 -0.1254 -0.4781  0.3105
 7769SOL    HW134769   4.483   3.645  13.131  1.1804 -0.0659 -0.3827
 7769SOL    HW234770   4.547   3.536  13.060  0.8654  0.2071  0.4440
 7770SOL     OW34771   1.919   1.492   2.591  0.6201  0.7399 -0.3614
 7770SOL    HW134772   2.011   1.486   2.568  0.4497  0.9883 -1.1239
 7770SOL    HW234773   1.874   1.506   2.507 -1.0529 -0.1423  0.3973
 7771SOL     OW34774   0.629   2.391  15.022  0.1214 -0.2994 -0.0811
 7771SOL    HW134775   0.608   2.483  15.003  0.9915 -0.3537 -1.3613
 7771SOL    HW234776   0.724   2.391  15.033  0.1062 -1.7417 -0.0623
 7772SOL     OW34777   2.749   2.334   0.631 -0.6394  0.6384 -0.1579
 7772SOL    HW134778   2.683   2.381   0.581 -1.3780  0.4846  0.6861
 7772SOL    HW234779   2.703   2.250   0.636 -0.1880  0.5643  2.6781
 7773SOL     OW34780   0.718   0.092   1.753  0.2657 -0.4757 -0.1504
 7773SOL    HW134781   0.692   0.099   1.845 -3.1973 -0.2497 -1.1690
 7773SOL    HW234782   0.636   0.118   1.713 -0.0208 -1.2098 -0.0352
 7774SOL     OW34783   4.577   2.688   7.121 -0.2324  0.2537 -0.0170
 7774SOL    HW134784   4.583   2.661   7.213  2.0553  0.5263 -0.1073
 7774SOL    HW234785   4.668   2.694   7.092  0.4242  0.7324  2.1517
 7775SOL     OW34786   3.246   4.714   4.645  0.1307 -0.5526  0.2357
 7775SOL    HW134787   3.208   0.075   4.628 -0.8682 -1.0235  0.0803
 7775SOL    HW234788   3.323   4.714   4.589 -0.0169  1.1795  0.0502
 7776SOL     OW34789   3.883   1.857  10.576 -0.1077 -0.0476 -0.1806
 7776SOL    HW134790   3.837   1.929  10.620 -1.5905 -1.2967  0.3257
 7776SOL    HW234791   3.871   1.877  10.483 -1.6163 -0.2305 -0.0257
 7777SOL     OW34792   3.524   1.150   4.381  0.0247  0.0157 -0.8031
 7777SOL    HW134793   3.467   1.210   4.430 -1.9267 -1.7676 -0.9026
 7777SOL    HW234794   3.467   1.127   4.309 -0.9861 -1.5501  0.5085
 7778SOL     OW34795   2.346   4.653   3.407  0.0538 -0.4094 -0.6476
 7778SOL    HW134796   2.272   4.610   3.365  0.8286 -1.7628 -0.6085
 7778SOL    HW234797   2.395   4.580   3.443  1.3368  0.3975 -0.7423
 7779SOL     OW34798   2.723   0.400   2.149 -0.2154  0.1099 -0.3325
 7779SOL    HW134799   2.747   0.447   2.069  0.8875 -2.3118 -1.4370
 7779SOL    HW234800   2.764   0.317   2.126 -0.0094 -0.5392  2.4110
 7780SOL     OW34801   3.590   0.949  14.454  0.0546  0.4068 -0.4326
 7780SOL    HW134802   3.573   1.013  14.384  0.1343 -0.9109 -1.6535
 7780SOL    HW234803   3.613   1.010  14.524  3.4072 -0.1341 -1.0727
 7781SOL     OW34804   3.032   4.562   6.691 -0.1800  0.0677  0.7281
 7781SOL    HW134805   3.059   4.543   6.781  0.2689  0.9161  0.7720
 7781SOL    HW234806   2.945   4.524   6.705 -0.8850  2.0159  1.6321
 7782SOL     OW34807   4.411   0.108   3.452  0.5819  0.7707 -0.0826
 7782SOL    HW134808   4.326   0.143   3.425  0.5806  0.7335 -0.1265
 7782SOL    HW234809   4.449   0.181   3.502  0.0528  0.1044  1.2917
 7783SOL     OW34810   2.141   1.418   5.068 -0.0581 -0.3611  0.7844
 7783SOL    HW134811   2.227   1.428   5.109  0.0238  1.3221  0.2162
 7783SOL    HW234812   2.172   1.414   4.978 -2.5137  0.4621 -0.1190
 7784SOL     OW34813   3.068   4.357   5.640  0.3320  0.3214 -0.6401
 7784SOL    HW134814   3.151   4.399   5.661  0.5964  1.3042 -3.6941
 7784SOL    HW234815   3.040   4.314   5.721  2.6539 -0.8682 -0.4769
 7785SOL     OW34816   0.725   2.025   7.654  0.0609 -0.4949 -0.8717
 7785SOL    HW134817   0.712   2.119   7.665 -2.6102 -0.9144 -0.4571
 7785SOL    HW234818   0.644   1.995   7.613 -0.9310 -0.5367  1.1087
 7786SOL     OW34819   3.174   1.402   6.221  0.3988 -0.3919  0.2016
 7786SOL    HW134820   3.230   1.404   6.143 -0.0652 -2.2328 -0.1834
 7786SOL    HW234821   3.106   1.347   6.184  0.4915  1.4205 -2.6787
 7787SOL     OW34822   2.811   3.759   1.489  0.2415  0.5706  0.7269
 7787SOL    HW134823   2.802   3.811   1.570  1.8382  1.4555  0.3455
 7787SOL    HW234824   2.855   3.819   1.428 -0.0055  0.8407  0.8154
 7788SOL     OW34825   0.408   4.338  13.685 -0.4181  0.0206  0.2450
 7788SOL    HW134826   0.497   4.347  13.720 -0.6604  0.4521  0.7452
 7788SOL    HW234827   0.430   4.311  13.596 -1.5132  0.2066 -0.0724
 7789SOL     OW34828   2.563   2.546   6.362 -0.1662 -0.1033 -0.1585
 7789SOL    HW134829   2.492   2.598   6.400  0.3672  0.8135 -0.4251
 7789SOL    HW234830   2.522   2.515   6.281 -1.8811  0.3546  0.5224
 7790SOL     OW34831   1.834   0.097   2.813 -0.8279  0.5798  0.1239
 7790SOL    HW134832   1.856   0.040   2.739 -1.9156  1.2345 -0.6923
 7790SOL    HW234833   1.739   0.087   2.809 -0.9404  1.7508  0.0286
 7791SOL     OW34834   0.846   3.470   0.149  0.3528 -0.1497  0.3371
 7791SOL    HW134835   0.813   3.492   0.236 -1.7012  1.2231 -0.7753
 7791SOL    HW234836   0.912   3.407   0.177 -2.5070 -3.0055  0.6631
 7792SOL     OW34837   0.084   0.105   0.190  0.5786 -0.0950 -0.5213
 7792SOL    HW134838   4.716   0.125   0.184  0.6912  0.4884 -0.3440
 7792SOL    HW234839   0.088   0.009   0.194 -0.0955 -0.0448  1.1650
 7793SOL     OW34840   3.881   2.123  14.020 -0.5996 -0.3711 -1.3650
 7793SOL    HW134841   3.853   2.181  13.949  0.4648  1.0837 -0.6088
 7793SOL    HW234842   3.809   2.121  14.082 -0.4205 -0.0353 -1.1437
 7794SOL     OW34843   3.248   4.390  11.620 -0.0797 -0.6917  0.0690
 7794SOL    HW134844   3.282   4.304  11.645 -0.1306 -0.1167  2.0786
 7794SOL    HW234845   3.155   4.372  11.635 -0.7406  1.8031 -1.0169
 7795SOL     OW34846   0.580   1.296   0.346 -0.4328 -0.0541  0.2012
 7795SOL    HW134847   0.510   1.281   0.283  1.5940 -1.3985 -1.7034
 7795SOL    HW234848   0.591   1.204   0.370  1.9492  0.1341 -0.1574
 7796SOL     OW34849   1.880   3.820   5.978  0.7400 -0.0959  0.4358
 7796SOL    HW134850   1.948   3.766   5.938 -0.5256 -2.6073  1.7124
 7796SOL    HW234851   1.843   3.756   6.038 -1.2805  1.2869  0.6685
 7797SOL     OW34852   2.180   4.565   3.193 -0.2006 -0.2782  0.4877
 7797SOL    HW134853   2.215   4.477   3.174 -0.9515 -0.5245  0.2500
 7797SOL    HW234854   2.093   4.548   3.229 -0.3107 -1.4788 -0.3364
 7798SOL     OW34855   3.516   3.163  17.420  0.4141  0.5020 -0.9105
 7798SOL    HW134856   3.563   3.152  17.503 -2.9306  0.0449  0.9010
 7798SOL    HW234857   3.589   3.177  17.359  1.1873 -0.2708 -0.1548
 7799SOL     OW34858   2.589   4.045   6.750 -0.8374  0.1929  0.0721
 7799SOL    HW134859   2.668   4.038   6.802 -0.6404 -1.9190 -0.4964
 7799SOL    HW234860   2.632   4.080   6.672  2.5854  1.3517  2.5058
 7800SOL     OW34861   4.223   3.023   5.751 -0.5260  0.0988  0.5931
 7800SOL    HW134862   4.157   3.074   5.705  0.1652  1.3570  1.0127
 7800SOL    HW234863   4.213   3.067   5.835  1.8975  3.1083 -0.6974
 7801SOL     OW34864   2.520   3.701   8.337  0.2683  0.2260  0.2726
 7801SOL    HW134865   2.518   3.797   8.340  3.8251  0.4033 -4.0756
 7801SOL    HW234866   2.446   3.687   8.396  0.4145  1.0580  0.6638
 7802SOL     OW34867   0.988   4.100   5.578 -0.2712  0.1810 -0.8218
 7802SOL    HW134868   0.914   4.134   5.628 -0.8490 -1.8658 -0.2689
 7802SOL    HW234869   1.038   4.181   5.572  1.8289 -0.8613  2.7987
 7803SOL     OW34870   4.012   1.377   3.859  0.4073 -0.8485 -0.0532
 7803SOL    HW134871   4.086   1.330   3.897  0.6325 -1.3397 -1.1193
 7803SOL    HW234872   3.940   1.332   3.903 -2.4759  2.9229 -0.8417
 7804SOL     OW34873   1.065   2.462   1.260 -0.3991  1.1037  0.0163
 7804SOL    HW134874   1.114   2.481   1.340 -0.1056 -1.6237  0.4691
 7804SOL    HW234875   0.977   2.460   1.296  0.4772 -0.1653  2.1345
 7805SOL     OW34876   2.615   3.576   7.876  0.0343 -0.3149 -0.0127
 7805SOL    HW134877   2.600   3.510   7.943 -1.4867 -0.3333 -0.3848
 7805SOL    HW234878   2.589   3.648   7.934  0.6954  0.2027 -0.3493
 7806SOL     OW34879   4.717   0.020  13.437 -0.0045 -0.1099  0.0169
 7806SOL    HW134880   4.682   4.659  13.414 -2.2335  0.3813  1.4740
 7806SOL    HW234881   0.021   0.008  13.528 -2.1023 -0.5803  0.6247
 7807SOL     OW34882   4.249   3.509   9.208  0.3006 -0.1529  0.1700
 7807SOL    HW134883   4.197   3.546   9.279  0.0623 -0.1268 -0.0167
 7807SOL    HW234884   4.337   3.534   9.236  0.8686 -2.0799  0.1069
 7808SOL     OW34885   0.708   1.982   0.311  0.1447  0.2454  0.0577
 7808SOL    HW134886   0.788   1.955   0.356  0.5697  1.2644 -0.0772
 7808SOL    HW234887   0.657   2.034   0.373  1.1341 -0.9461  1.8859
 7809SOL     OW34888   0.240   1.436   9.835 -0.0566  0.7968  0.1344
 7809SOL    HW134889   0.301   1.409   9.766 -0.9514 -0.1818 -0.2653
 7809SOL    HW234890   0.227   1.523   9.796 -1.3063 -0.1742 -1.5646
 7810SOL     OW34891   4.142   3.653   7.828  0.0706 -0.1092 -0.5154
 7810SOL    HW134892   4.171   3.744   7.837 -0.5844 -0.2243  2.7970
 7810SOL    HW234893   4.091   3.645   7.747 -3.3829 -1.3591  1.7719
 7811SOL     OW34894   0.924   3.295  12.506  0.6358 -0.6168  0.0939
 7811SOL    HW134895   0.979   3.286  12.583  0.4318  1.7237  0.5179
 7811SOL    HW234896   0.894   3.384  12.524  0.0347 -0.6254 -0.8370
 7812SOL     OW34897   2.487   0.469   1.932 -0.2395  0.2555 -0.6789
 7812SOL    HW134898   2.470   0.412   2.008  3.6789  0.6020  0.4370
 7812SOL    HW234899   2.580   0.453   1.917 -0.9978 -2.1604 -2.8955
 7813SOL     OW34900   0.881   0.471   8.340 -0.2317 -0.1520  0.1449
 7813SOL    HW134901   0.918   0.550   8.381 -0.2447 -1.0664  1.9402
 7813SOL    HW234902   0.893   0.400   8.403  0.1584 -1.5938 -1.5840
 7814SOL     OW34903   4.350   4.648   9.618  0.4088  0.2000  0.0769
 7814SOL    HW134904   4.375   4.691   9.537 -1.9363 -0.5486 -1.0469
 7814SOL    HW234905   4.259   4.674   9.631  1.4486  4.3788 -0.7873
 7815SOL     OW34906   3.729   0.640   7.328 -0.3550  0.0159  0.3718
 7815SOL    HW134907   3.665   0.578   7.363 -1.6342  0.3765 -1.2927
 7815SOL    HW234908   3.740   0.686   7.411 -1.7517 -0.5252  0.8535
 7816SOL     OW34909   1.585   1.623   7.241  0.2549 -0.3296  0.2396
 7816SOL    HW134910   1.598   1.529   7.249 -0.4895 -0.4017  0.5633
 7816SOL    HW234911   1.536   1.614   7.160 -3.0822  1.7139  2.0453
 7817SOL     OW34912   0.278   0.723  14.586 -0.3605 -0.0491 -0.6975
 7817SOL    HW134913   0.192   0.765  14.578  0.3564  1.0876 -2.3640
 7817SOL    HW234914   0.333   0.790  14.627 -1.9743 -0.0205  1.4286
 7818SOL     OW34915   3.344   2.581   0.133  0.5661  0.1363 -0.2986
 7818SOL    HW134916   3.305   2.617   0.053 -1.6693 -0.9090  0.3193
 7818SOL    HW234917   3.392   2.510   0.091 -0.1257  0.4428 -1.6309
 7819SOL     OW34918   3.301   0.521   2.798  0.9379  0.5364  0.0001
 7819SOL    HW134919   3.310   0.508   2.703 -0.3226  0.7472 -0.1510
 7819SOL    HW234920   3.366   0.590   2.812  0.9611  0.8075 -1.3933
 7820SOL     OW34921   1.999   3.175   1.717  0.0580  0.0019 -0.8269
 7820SOL    HW134922   1.995   3.239   1.647  2.3069  0.9857 -0.0321
 7820SOL    HW234923   2.072   3.118   1.693  0.2571  0.2859 -0.8828
 7821SOL     OW34924   0.312   1.251  16.374  0.8250 -0.1144 -0.2625
 7821SOL    HW134925   0.357   1.334  16.358  1.2570 -0.6807 -1.9852
 7821SOL    HW234926   0.233   1.262  16.322  0.3786 -1.2039  0.1718
 7822SOL     OW34927   4.076   1.371   8.666 -0.2487  0.1812  0.0808
 7822SOL    HW134928   4.022   1.443   8.634 -0.7324  0.2027  0.9492
 7822SOL    HW234929   4.009   1.343   8.728  0.9504 -1.0257  0.8345
 7823SOL     OW34930   2.929   1.743   9.212  0.0131 -0.2515  0.0111
 7823SOL    HW134931   2.841   1.741   9.249 -0.4864  2.0782 -1.0676
 7823SOL    HW234932   2.985   1.768   9.286 -0.3049  2.7786 -0.7839
 7824SOL     OW34933   3.660   2.382  16.305  0.1901  1.0732 -0.0086
 7824SOL    HW134934   3.671   2.429  16.388 -1.9526  3.1374 -0.8979
 7824SOL    HW234935   3.582   2.430  16.274 -1.6659  1.1360  4.7337
 7825SOL     OW34936   2.782   2.020   6.258  0.4602  0.4244  0.0393
 7825SOL    HW134937   2.700   2.033   6.209  0.0186 -0.9697  0.4080
 7825SOL    HW234938   2.821   1.944   6.217  1.2710 -0.2657  2.0759
 7826SOL     OW34939   0.972   3.008   1.551  0.5378 -0.6484 -0.1939
 7826SOL    HW134940   0.933   3.056   1.624 -1.0300 -1.5212 -0.4436
 7826SOL    HW234941   1.054   2.969   1.580 -0.0299 -1.6746  0.0227
 7827SOL     OW34942   3.280   1.702   5.851 -0.3674  0.9778 -0.2834
 7827SOL    HW134943   3.259   1.623   5.901  0.5685 -0.2691 -1.8420
 7827SOL    HW234944   3.307   1.752   5.928  3.6484 -2.7882  0.7546
 7828SOL     OW34945   4.083   0.815   3.968 -0.7639  0.7106 -0.8100
 7828SOL    HW134946   4.108   0.793   4.057 -0.3010  2.2514 -0.5571
 7828SOL    HW234947   4.112   0.906   3.957  3.0244 -0.6499 -2.1293
 7829SOL     OW34948   2.873   2.373   7.762 -0.0944 -0.4973 -0.5580
 7829SOL    HW134949   2.830   2.412   7.686  1.2763  0.4847 -0.8292
 7829SOL    HW234950   2.817   2.410   7.831  1.3994  1.6829 -0.5215
 7830SOL     OW34951   1.881   0.469  13.498  0.0644  0.0209  0.3542
 7830SOL    HW134952   1.920   0.382  13.515 -0.1281 -0.1576 -0.1403
 7830SOL    HW234953   1.872   0.502  13.587  0.6502 -1.1331  0.8552
 7831SOL     OW34954   4.686   1.123   6.283  0.1287  0.5899 -0.2939
 7831SOL    HW134955   0.023   1.152   6.349 -2.1453  1.3311  1.5082
 7831SOL    HW234956   4.604   1.153   6.321  0.5586 -0.9269  1.8283
 7832SOL     OW34957   1.276   0.396   7.362  0.4203 -0.0700 -0.0558
 7832SOL    HW134958   1.292   0.378   7.269 -0.5851  1.4907 -0.5330
 7832SOL    HW234959   1.302   0.310   7.394  1.0737 -0.4820 -1.6935
 7833SOL     OW34960   1.469   2.176   6.709  0.6642  0.6425 -0.0832
 7833SOL    HW134961   1.508   2.260   6.683  0.8237 -0.0712 -2.1567
 7833SOL    HW234962   1.528   2.149   6.780  0.6029 -1.2703 -0.7683
 7834SOL     OW34963   1.391   3.606   6.641  0.4104  0.4778 -0.0572
 7834SOL    HW134964   1.337   3.530   6.621  0.3946  0.6017 -0.5077
 7834SOL    HW234965   1.430   3.561   6.715 -1.0727  1.2716  1.2092
 7835SOL     OW34966   3.964   2.634   4.300 -0.4115  0.6550  1.1551
 7835SOL    HW134967   3.941   2.713   4.349 -1.0843  1.5591 -0.6349
 7835SOL    HW234968   3.998   2.581   4.372  1.2948  0.7809  0.4322
 7836SOL     OW34969   3.989   3.190   5.762  0.2480 -0.6065  0.1916
 7836SOL    HW134970   4.031   3.202   5.848  1.0021 -2.5975  0.1085
 7836SOL    HW234971   3.916   3.131   5.779  0.4534 -1.1642 -0.8453
 7837SOL     OW34972   2.719   1.035   7.082 -0.3570 -0.6028 -0.0287
 7837SOL    HW134973   2.629   1.003   7.084 -0.2125 -1.1721 -2.6269
 7837SOL    HW234974   2.701   1.122   7.117  1.9467 -0.2608  0.2797
 7838SOL     OW34975   1.094   2.846  16.017 -0.0294 -0.0051 -0.0269
 7838SOL    HW134976   1.039   2.925  16.017 -1.5176 -1.0404 -1.9869
 7838SOL    HW234977   1.135   2.856  16.103  2.0980 -0.9195 -0.9256
 7839SOL     OW34978   2.006   1.556   5.766 -0.3609  0.5921 -0.1374
 7839SOL    HW134979   1.965   1.638   5.737 -0.6135 -0.8078 -3.7530
 7839SOL    HW234980   2.004   1.506   5.684 -0.6578 -0.1976  0.3517
 7840SOL     OW34981   2.529   3.963  15.830 -0.3562 -0.2309 -0.4415
 7840SOL    HW134982   2.513   3.893  15.767 -1.1888 -0.3808 -0.0567
 7840SOL    HW234983   2.515   3.910  15.908 -2.1612 -1.4841 -1.6219
 7841SOL     OW34984   0.584   0.680  14.826 -0.3282  0.7069 -0.3402
 7841SOL    HW134985   0.526   0.604  14.830 -0.7484  1.0597  0.1951
 7841SOL    HW234986   0.660   0.625  14.809 -1.9138 -2.1915  1.9603
 7842SOL     OW34987   1.082   1.794   2.072 -0.4342  0.2980 -0.6282
 7842SOL    HW134988   0.989   1.781   2.054 -0.5148 -0.2435  0.1972
 7842SOL    HW234989   1.118   1.753   1.993  3.1514  1.9416  0.1624
 7843SOL     OW34990   1.991   2.827   3.730  0.2104  0.0694 -0.4587
 7843SOL    HW134991   2.076   2.870   3.722 -0.3915  1.4724  0.7628
 7843SOL    HW234992   1.987   2.790   3.641  2.1577 -0.1621 -0.4479
 7844SOL     OW34993   0.457   1.479   1.807 -0.5482  0.1050  0.4399
 7844SOL    HW134994   0.485   1.406   1.752  0.9585  0.5675  0.5768
 7844SOL    HW234995   0.397   1.527   1.751 -0.0990  0.5686  0.3568
 7845SOL     OW34996   1.722   1.847   4.552 -0.6913 -0.4908 -0.1387
 7845SOL    HW134997   1.636   1.882   4.528 -0.8780 -1.9445 -1.5916
 7845SOL    HW234998   1.753   1.814   4.467  0.4393 -1.0992  0.5070
 7846SOL     OW34999   2.992   2.727   3.555 -0.1244 -0.2006 -0.5951
 7846SOL    HW135000   3.059   2.708   3.489  0.3776  0.5908 -0.3163
 7846SOL    HW235001   2.953   2.640   3.563 -3.0786  1.3812  2.1258
 7847SOL     OW35002   3.590   2.035   2.339 -0.5830 -0.2221 -0.2970
 7847SOL    HW135003   3.522   1.987   2.293 -1.7824  0.4113  0.8150
 7847SOL    HW235004   3.563   2.123   2.313 -0.3256  0.5466  2.0512
 7848SOL     OW35005   3.380   2.314   3.664 -0.2633 -0.0364 -0.1732
 7848SOL    HW135006   3.449   2.279   3.720  0.6736  0.7262 -0.8608
 7848SOL    HW235007   3.300   2.277   3.702  0.5552 -1.9978 -0.3632
 7849SOL     OW35008   0.804   1.354   0.226  0.3060  0.0003 -0.0517
 7849SOL    HW135009   0.726   1.342   0.282 -0.4346 -2.5470 -1.6390
 7849SOL    HW235010   0.816   1.449   0.230  0.9030 -0.0148 -1.8374
 7850SOL     OW35011   0.483   3.129   2.874  0.0943 -0.0220  0.3223
 7850SOL    HW135012   0.546   3.057   2.866 -1.4743 -1.2463 -1.1205
 7850SOL    HW235013   0.523   3.183   2.806  0.7363 -0.3297  0.4555
 7851SOL     OW35014   1.648   4.126   8.055 -0.3290 -0.0943 -0.8587
 7851SOL    HW135015   1.741   4.138   8.074 -0.3690 -1.1773  0.0004
 7851SOL    HW235016   1.653   4.043   8.006 -0.9924 -2.1108  2.5109
 7852SOL     OW35017   1.573   1.296  11.339  0.2363 -0.2731 -0.2459
 7852SOL    HW135018   1.645   1.352  11.309  2.5825 -2.3279  1.5063
 7852SOL    HW235019   1.615   1.210  11.334 -0.9815 -0.8333 -0.8576
 7853SOL     OW35020   0.378   1.968   0.160  0.4511  0.2135 -0.4093
 7853SOL    HW135021   0.350   2.042   0.107 -1.7626 -1.3456 -1.3908
 7853SOL    HW235022   0.469   1.966   0.132  0.3943 -1.5507 -0.4559
 7854SOL     OW35023   4.071   2.796   2.791 -0.0229  0.2000 -0.1367
 7854SOL    HW135024   4.156   2.838   2.779  0.4850 -0.4438  1.2504
 7854SOL    HW235025   4.088   2.714   2.745 -0.2055  0.7413 -1.1743
 7855SOL     OW35026   3.089   2.534   7.875  0.3884  0.6836 -0.2353
 7855SOL    HW135027   3.042   2.452   7.865  2.2600 -0.4665  0.3388
 7855SOL    HW235028   3.015   2.593   7.887  1.5492  1.6005  2.4473
 7856SOL     OW35029   3.633   4.459   4.398  0.5433 -0.0162  0.1160
 7856SOL    HW135030   3.541   4.469   4.374  0.7477  0.7805 -0.3321
 7856SOL    HW235031   3.677   4.470   4.313 -1.7554 -1.0181 -1.2136
 7857SOL     OW35032   3.115   2.229   5.986  0.2178 -0.2826  0.3163
 7857SOL    HW135033   3.074   2.301   6.033 -1.3734  0.3735 -2.1017
 7857SOL    HW235034   3.045   2.188   5.935  0.7283  1.0784 -1.4624
 7858SOL     OW35035   3.943   3.192   9.850 -0.7068 -0.1185  0.0799
 7858SOL    HW135036   3.894   3.251   9.907  0.7088  0.7246  0.4276
 7858SOL    HW235037   4.010   3.257   9.827  0.5957 -1.1786  0.8471
 7859SOL     OW35038   4.327   1.419  15.713 -0.1670  0.0945  0.6409
 7859SOL    HW135039   4.256   1.364  15.744  0.0247 -0.2346  0.4915
 7859SOL    HW235040   4.299   1.503  15.751 -0.2098  0.8182 -0.9733
 7860SOL     OW35041   1.388   4.689   8.952 -0.5692 -0.2560  0.2623
 7860SOL    HW135042   1.325   4.704   8.881 -1.6198 -1.3167  0.9771
 7860SOL    HW235043   1.362   0.030   9.016  0.9482  1.0083 -0.4382
 7861SOL     OW35044   1.532   1.730  17.335 -0.1220  0.2056 -0.9307
 7861SOL    HW135045   1.594   1.704  17.403  0.0027  1.7475 -0.4641
 7861SOL    HW235046   1.570   1.699  17.253  0.2504 -4.5236  0.9728
 7862SOL     OW35047   3.752   3.087   2.976  0.0374  0.7453  0.1282
 7862SOL    HW135048   3.847   3.078   2.970  0.1408  1.4204  0.8378
 7862SOL    HW235049   3.732   3.175   2.945 -0.5684  0.4593 -0.2842
 7863SOL     OW35050   3.024   4.628   5.424  0.2396  0.0398 -0.2610
 7863SOL    HW135051   3.097   4.574   5.394  1.8624  1.6395  0.8022
 7863SOL    HW235052   2.997   4.673   5.344 -1.8779 -1.6588 -0.5106
 7864SOL     OW35053   0.466   1.703   0.243 -0.7533  0.6042  0.5061
 7864SOL    HW135054   0.466   1.705   0.339 -2.0538  1.5746  0.4980
 7864SOL    HW235055   0.440   1.794   0.230 -1.5339 -0.3041 -4.2382
 7865SOL     OW35056   4.292   1.128   4.398 -0.1821  0.2559 -0.2478
 7865SOL    HW135057   4.350   1.190   4.441  1.1968 -1.3830  0.2746
 7865SOL    HW235058   4.330   1.121   4.310 -1.1292  1.0015 -0.7239
 7866SOL     OW35059   3.100   3.911   7.398  0.4364 -0.4489  0.3142
 7866SOL    HW135060   3.094   3.828   7.352  0.3494  0.0915 -0.6503
 7866SOL    HW235061   3.025   3.895   7.455  1.8815 -0.1831  2.3276
 7867SOL     OW35062   0.446   0.506   7.655  0.4570  0.0687 -0.1620
 7867SOL    HW135063   0.463   0.595   7.625 -0.3829 -0.4366 -2.1280
 7867SOL    HW235064   0.356   0.499   7.623  0.9618 -0.7562 -1.4060
 7868SOL     OW35065   2.080   2.401  15.818 -0.1533  0.2575 -0.1058
 7868SOL    HW135066   2.116   2.475  15.867  0.6809 -1.0751  1.2846
 7868SOL    HW235067   2.152   2.370  15.763  1.0843  3.2785 -0.1973
 7869SOL     OW35068   3.583   3.496   0.455  0.0949  0.3241 -0.7361
 7869SOL    HW135069   3.492   3.510   0.429 -0.2125 -0.4620 -0.0606
 7869SOL    HW235070   3.580   3.409   0.494  0.1472  1.4007  1.7152
 7870SOL     OW35071   3.470   0.165   6.289  0.2237  0.2290  1.2300
 7870SOL    HW135072   3.466   0.248   6.336  1.4573  1.2928 -0.5570
 7870SOL    HW235073   3.498   0.186   6.200 -0.4036  0.3300  1.0532
 7871SOL     OW35074   3.229   0.014   1.363  0.6029  0.8051  0.2009
 7871SOL    HW135075   3.298   4.689   1.407  1.0362  0.4959 -0.8518
 7871SOL    HW235076   3.227   4.710   1.272  1.3825  1.6689 -0.0879
 7872SOL     OW35077   0.350   4.179  16.190  0.3712 -0.2186 -0.4793
 7872SOL    HW135078   0.321   4.258  16.145 -1.1175  0.3469  1.4516
 7872SOL    HW235079   0.259   4.150  16.202  0.1754  1.0633  1.0477
 7873SOL     OW35080   1.328   2.818   4.723  0.0168  0.0130  0.2701
 7873SOL    HW135081   1.250   2.795   4.772  1.9325  0.0248  3.3475
 7873SOL    HW235082   1.310   2.769   4.643 -1.5090  0.3203  0.4383
 7874SOL     OW35083   3.308   2.548  12.104 -0.4074  0.3774  0.1633
 7874SOL    HW135084   3.365   2.552  12.027 -0.4503 -0.9468  0.0681
 7874SOL    HW235085   3.316   2.634  12.146  0.7080  0.5974 -0.5075
 7875SOL     OW35086   4.519   1.800   5.909  0.0824  0.2914 -0.4832
 7875SOL    HW135087   4.579   1.782   5.981 -1.8448  1.2480  1.3344
 7875SOL    HW235088   4.456   1.730   5.929 -1.4311  1.3966 -1.3531
 7876SOL     OW35089   0.550   0.468  15.289 -0.2963  0.5064  0.3059
 7876SOL    HW135090   0.499   0.399  15.247 -0.2964  0.2408  0.7409
 7876SOL    HW235091   0.596   0.495  15.209  0.0918 -3.8681 -0.9490
 7877SOL     OW35092   0.008   0.648   5.478 -0.6602 -0.1343  0.4396
 7877SOL    HW135093   4.699   0.559   5.490  0.1955 -0.4424  0.5792
 7877SOL    HW235094   0.100   0.642   5.503 -0.0381  1.9431 -1.3512
 7878SOL     OW35095   4.176   0.917   2.594  0.6302  0.2163  0.0149
 7878SOL    HW135096   4.184   1.002   2.551 -0.8674  1.1755  1.5838
 7878SOL    HW235097   4.179   0.862   2.516  0.9457 -2.1875  1.7303
 7879SOL     OW35098   1.957   2.605   8.890 -0.5298  0.8356 -0.2547
 7879SOL    HW135099   1.938   2.652   8.809 -3.5949 -0.6851 -0.4165
 7879SOL    HW235100   2.050   2.627   8.894 -0.1795 -0.5937 -0.3888
 7880SOL     OW35101   3.504   0.035  12.933  0.3272  0.2158 -0.0859
 7880SOL    HW135102   3.486   0.024  13.026  1.2121  1.6669  0.2530
 7880SOL    HW235103   3.568   0.105  12.934  2.0894 -1.4414  1.8159
 7881SOL     OW35104   1.356   0.021   7.996  0.2703  0.1780  0.2173
 7881SOL    HW135105   1.371   4.653   8.011 -2.0943 -0.4798 -1.5112
 7881SOL    HW235106   1.439   0.054   7.961  0.0789 -0.2363 -0.6079
 7882SOL     OW35107   3.897   1.044   7.886  0.3829  0.0273 -0.1802
 7882SOL    HW135108   3.923   1.037   7.794  3.1469 -0.4056  0.6229
 7882SOL    HW235109   3.917   0.962   7.930  0.5199  0.2867  0.2403
 7883SOL     OW35110   4.350   3.397   3.514 -0.3732  0.2293 -0.2526
 7883SOL    HW135111   4.298   3.374   3.437 -1.9429  0.8334  0.6103
 7883SOL    HW235112   4.307   3.343   3.580  0.0641 -2.4045 -2.1138
 7884SOL     OW35113   3.532   1.995   7.421  0.7258  0.2586  0.1470
 7884SOL    HW135114   3.528   1.970   7.328 -2.7856 -0.5708  0.5222
 7884SOL    HW235115   3.469   1.927   7.443 -0.1209  0.9687 -0.0741
 7885SOL     OW35116   4.595   2.383   6.840  0.3252  0.0201 -0.4044
 7885SOL    HW135117   4.503   2.386   6.866 -0.0102 -0.3700 -1.5550
 7885SOL    HW235118   4.588   2.299   6.795  0.4870 -0.1794 -0.0551
 7886SOL     OW35119   0.371   3.019  10.741 -0.3109  0.4639  0.2928
 7886SOL    HW135120   0.466   3.032  10.736  0.0182 -2.0370 -0.0639
 7886SOL    HW235121   0.360   2.925  10.757 -2.3212  0.4715 -1.0821
 7887SOL     OW35122   4.355   2.162  15.167  0.4650  0.4631  0.9492
 7887SOL    HW135123   4.408   2.125  15.096 -0.0086 -0.9777  1.3541
 7887SOL    HW235124   4.423   2.222  15.200  1.1113 -0.8831  2.0658
 7888SOL     OW35125   4.579   4.096  12.023  0.2705 -0.0789  0.4219
 7888SOL    HW135126   4.520   4.112  11.950 -2.7405 -0.7710  2.7190
 7888SOL    HW235127   4.526   4.068  12.098  0.7946 -4.6932 -0.9396
 7889SOL     OW35128   3.941   0.707   2.490  0.0497  0.1045 -0.5193
 7889SOL    HW135129   4.032   0.685   2.512 -0.1149  0.8286  0.9206
 7889SOL    HW235130   3.916   0.619   2.463 -0.2317 -0.1273  0.4798
 7890SOL     OW35131   3.711   4.460   7.193  1.1177 -0.4690  0.0402
 7890SOL    HW135132   3.720   4.525   7.262  2.2479 -0.2059 -0.3605
 7890SOL    HW235133   3.658   4.503   7.125  1.0255  1.2078  1.1882
 7891SOL     OW35134   2.071   2.815   4.038 -0.0538  0.3601 -0.1682
 7891SOL    HW135135   2.033   2.890   3.991 -2.0002 -0.6958 -0.2831
 7891SOL    HW235136   2.037   2.738   3.993  2.8157  0.0255 -1.7529
 7892SOL     OW35137   2.584   4.591   6.924  0.8005 -0.2525 -0.2902
 7892SOL    HW135138   2.499   4.608   6.965  0.5121  1.8783 -1.7248
 7892SOL    HW235139   2.562   4.602   6.832  2.3510 -1.7791 -0.8327
 7893SOL     OW35140   0.705   2.860   8.553 -0.2319  0.4672  0.3137
 7893SOL    HW135141   0.689   2.780   8.502 -1.0975  1.1732 -0.5285
 7893SOL    HW235142   0.785   2.837   8.600 -0.9457 -1.3035  0.6669
 7894SOL     OW35143   1.970   0.840   3.964  0.1097  0.2283  0.1360
 7894SOL    HW135144   1.885   0.799   3.948  0.5202 -0.4716 -0.2648
 7894SOL    HW235145   1.972   0.806   4.053 -0.4366  0.9940  0.4340
 7895SOL     OW35146   2.703   1.221  14.418  0.1833 -0.0273 -0.2574
 7895SOL    HW135147   2.793   1.202  14.444 -0.5472  0.0694  2.3002
 7895SOL    HW235148   2.663   1.227  14.504  0.4646 -0.0863 -0.1208
 7896SOL     OW35149   1.865   0.971   2.912  0.3444  0.2402  0.1619
 7896SOL    HW135150   1.925   0.958   2.839  1.1787  2.1387  0.5062
 7896SOL    HW235151   1.815   0.889   2.912  0.3953  0.2041 -1.0154
 7897SOL     OW35152   1.843   0.627   2.266  0.1445  0.4613  0.7673
 7897SOL    HW135153   1.751   0.639   2.242 -0.1811 -1.1823  1.2010
 7897SOL    HW235154   1.876   0.715   2.287  2.8909 -0.4603  0.3195
 7898SOL     OW35155   4.558   4.593   8.852  0.0930  0.3920 -0.3191
 7898SOL    HW135156   4.596   4.661   8.798 -0.8975 -0.3471 -1.9452
 7898SOL    HW235157   4.619   4.582   8.926  0.7508 -2.5936 -1.2770
 7899SOL     OW35158   1.498   3.799   7.226  0.3994 -0.1471  0.8532
 7899SOL    HW135159   1.450   3.805   7.144  0.1768 -2.2372  0.8318
 7899SOL    HW235160   1.441   3.730   7.259 -1.4545  0.7280 -0.5374
 7900SOL     OW35161   3.989   1.025   0.561  0.1853  0.2684 -0.3848
 7900SOL    HW135162   4.002   0.931   0.573 -0.6948  0.3259  1.0490
 7900SOL    HW235163   4.069   1.058   0.518  0.5206 -0.1412 -0.0763
 7901SOL     OW35164   4.169   0.722   6.117 -0.0498  0.2042  0.2924
 7901SOL    HW135165   4.115   0.761   6.186 -0.0882  0.8639 -0.1140
 7901SOL    HW235166   4.152   0.628   6.109 -0.5552  0.1795  1.5488
 7902SOL     OW35167   2.231   4.463   1.007 -0.1688 -0.0308  0.4991
 7902SOL    HW135168   2.270   4.427   0.927 -0.5597 -0.1413  0.3570
 7902SOL    HW235169   2.233   4.554   0.977 -0.5812 -0.3417 -0.4993
 7903SOL     OW35170   2.961   0.988   4.076  0.2288  0.2539  0.3278
 7903SOL    HW135171   2.867   0.977   4.090 -0.3613  2.7810 -1.5855
 7903SOL    HW235172   2.968   0.966   3.983 -1.8764 -1.2407  0.5254
 7904SOL     OW35173   2.635   1.739  12.507  0.3562 -0.6585  0.2179
 7904SOL    HW135174   2.626   1.662  12.564 -3.2322  0.1031  0.6187
 7904SOL    HW235175   2.566   1.798  12.536  0.0201  0.2127 -2.3944
 7905SOL     OW35176   1.400   0.594  10.076  0.1298 -0.6256 -0.2515
 7905SOL    HW135177   1.326   0.654  10.076  0.5762 -0.0566 -1.6523
 7905SOL    HW235178   1.468   0.643  10.122  0.3427 -1.8071  0.7086
 7906SOL     OW35179   2.982   1.722  12.547 -0.2369  0.4723 -0.2919
 7906SOL    HW135180   2.892   1.723  12.514 -0.5928 -0.8972  0.5982
 7906SOL    HW235181   2.982   1.669  12.628  0.5167  0.4949 -0.2820
 7907SOL     OW35182   1.795   3.857  16.393  0.2489  0.1352 -0.3233
 7907SOL    HW135183   1.855   3.925  16.360  1.9245 -0.9585  0.4803
 7907SOL    HW235184   1.861   3.795  16.424 -1.2024 -0.6059  1.2853
 7908SOL     OW35185   1.332   2.580   4.147 -0.3349  0.0030  0.0630
 7908SOL    HW135186   1.249   2.627   4.149  0.0709  0.6531  1.3426
 7908SOL    HW235187   1.396   2.650   4.162 -0.1768 -0.3599  1.0907
 7909SOL     OW35188   0.208   2.980  14.743 -0.3315 -0.3060 -0.2862
 7909SOL    HW135189   0.291   2.943  14.770 -0.7068  0.6129  2.0823
 7909SOL    HW235190   0.204   3.068  14.781  0.1024 -0.4912  0.1792
 7910SOL     OW35191   1.669   0.287   7.301  0.0335 -0.4870  0.0966
 7910SOL    HW135192   1.741   0.273   7.362 -0.0547 -3.2456 -0.4457
 7910SOL    HW235193   1.688   0.215   7.241  0.4951  0.2733 -0.6618
 7911SOL     OW35194   1.648   3.490   4.969  0.2995 -0.2737 -0.0983
 7911SOL    HW135195   1.600   3.454   4.895 -0.5054  1.2389 -0.3201
 7911SOL    HW235196   1.696   3.565   4.933 -0.2052 -0.6242 -1.4876
 7912SOL     OW35197   0.297   0.338   5.213  0.3254  0.0904 -0.0397
 7912SOL    HW135198   0.216   0.386   5.195  0.6275  0.2115 -1.0628
 7912SOL    HW235199   0.283   0.252   5.172  2.5650  0.1616 -0.9991
 7913SOL     OW35200   2.134   2.581   3.767  0.7390 -0.0079 -0.1764
 7913SOL    HW135201   2.106   2.673   3.777 -1.1682 -0.5431 -0.5885
 7913SOL    HW235202   2.057   2.527   3.784  2.0159 -2.0602 -0.9931
 7914SOL     OW35203   2.563   3.856  15.048 -0.0885  0.3787  0.4010
 7914SOL    HW135204   2.546   3.923  14.982 -0.8959  0.5053  0.7414
 7914SOL    HW235205   2.575   3.776  14.997  1.9017  1.7560 -1.2962
 7915SOL     OW35206   3.049   1.486   5.766  0.4362  0.4736 -0.4801
 7915SOL    HW135207   3.004   1.571   5.766  0.0804  0.2867 -0.3504
 7915SOL    HW235208   2.994   1.441   5.830  1.2582 -0.7375 -0.6407
 7916SOL     OW35209   4.034   0.185   3.914 -0.7533 -0.1520 -0.8122
 7916SOL    HW135210   4.107   0.127   3.937 -1.5172 -1.1886 -0.9830
 7916SOL    HW235211   3.960   0.142   3.956 -1.7498  1.2376 -1.1427
 7917SOL     OW35212   1.154   4.706   1.460  0.1744 -0.6634 -0.1796
 7917SOL    HW135213   1.237   4.669   1.492  0.1414 -1.7333 -1.3451
 7917SOL    HW235214   1.129   0.039   1.531 -1.3526 -2.5915  0.8474
 7918SOL     OW35215   4.051   3.496  11.481  0.5123  0.3079 -0.4449
 7918SOL    HW135216   4.019   3.407  11.466  1.4705 -0.0938 -0.0861
 7918SOL    HW235217   3.968   3.544  11.489  0.5253  0.5663 -1.8032
 7919SOL     OW35218   1.651   2.420  15.777 -0.9636 -0.1112  0.1169
 7919SOL    HW135219   1.718   2.453  15.718 -2.1347  0.1562 -1.0894
 7919SOL    HW235220   1.630   2.504  15.818  1.0488  1.4578 -2.0935
 7920SOL     OW35221   2.585   0.129   6.066  0.4205 -0.2180 -0.0486
 7920SOL    HW135222   2.552   0.052   6.020 -1.2474  0.0128  0.7332
 7920SOL    HW235223   2.498   0.163   6.086 -1.0968 -3.7178 -0.6792
 7921SOL     OW35224   4.241   4.467  15.500 -1.1320 -0.0654 -0.3373
 7921SOL    HW135225   4.181   4.393  15.494  0.3143 -1.2296 -0.6297
 7921SOL    HW235226   4.204   4.511  15.423  0.0180  1.2155 -0.1528
 7922SOL     OW35227   4.405   2.559   8.214 -0.0834 -0.0999  0.0616
 7922SOL    HW135228   4.413   2.464   8.218  1.3294  0.0642  0.9373
 7922SOL    HW235229   4.403   2.579   8.308 -0.5529  0.5881 -0.0913
 7923SOL     OW35230   2.198   0.545   1.045  0.1253  0.5712  0.2082
 7923SOL    HW135231   2.156   0.500   1.119 -1.0291  1.6894  0.2430
 7923SOL    HW235232   2.291   0.544   1.064  0.5666 -0.1554 -2.0410
 7924SOL     OW35233   3.195   0.374   8.144 -0.3085 -0.9541  0.1516
 7924SOL    HW135234   3.243   0.373   8.062  0.8015  0.4582  0.7767
 7924SOL    HW235235   3.215   0.289   8.183  2.3961  0.4395  1.7930
 7925SOL     OW35236   4.511   3.321   7.399 -0.3208 -0.2113 -0.0454
 7925SOL    HW135237   4.496   3.310   7.492  0.6896 -4.2013 -0.3790
 7925SOL    HW235238   4.497   3.416   7.391 -2.2816 -0.2658  2.7781
 7926SOL     OW35239   2.547   4.475   3.483 -0.7243  0.6860 -0.1421
 7926SOL    HW135240   2.589   4.398   3.520  1.7066  1.7529 -0.7107
 7926SOL    HW235241   2.582   4.544   3.540 -1.1661  3.0695 -2.8006
 7927SOL     OW35242   4.238   4.273   1.529 -0.1967 -0.7005 -0.0386
 7927SOL    HW135243   4.177   4.314   1.591  0.1962  0.2998 -0.3008
 7927SOL    HW235244   4.261   4.345   1.470  0.0146 -1.7938 -1.2860
 7928SOL     OW35245   1.258   0.170  16.676  0.0871  0.4767 -0.1617
 7928SOL    HW135246   1.216   0.179  16.590 -0.5091  2.7017  0.3719
 7928SOL    HW235247   1.181   0.143  16.726  0.5908 -0.9653 -0.1434
 7929SOL     OW35248   3.158   3.039  13.553  0.3071  0.2028 -0.0126
 7929SOL    HW135249   3.129   2.978  13.485 -0.1629  1.6145 -1.0627
 7929SOL    HW235250   3.078   3.091  13.563 -0.7548 -0.8709 -2.9576
 7930SOL     OW35251   4.656   0.115   3.715  0.1130 -0.3562  0.5081
 7930SOL    HW135252   4.563   0.138   3.712 -0.0531 -1.4295 -1.9105
 7930SOL    HW235253   4.654   0.020   3.703 -2.9828 -0.3473  0.8154
 7931SOL     OW35254   0.429   1.957   3.138  0.1772 -0.2627  0.2388
 7931SOL    HW135255   0.494   1.964   3.208  1.9348 -1.1575 -1.2993
 7931SOL    HW235256   0.406   2.050   3.128  1.9269  0.2294  0.8018
 7932SOL     OW35257   1.604   3.669   2.970 -0.5906 -0.2242 -0.2274
 7932SOL    HW135258   1.572   3.695   2.884  0.4899  0.6283 -0.3623
 7932SOL    HW235259   1.680   3.611   2.961  0.0120  0.4137  0.7264
 7933SOL     OW35260   3.903   1.736   7.137  0.1829 -0.3978  0.0781
 7933SOL    HW135261   3.884   1.663   7.078 -1.1310  0.8019 -0.9877
 7933SOL    HW235262   3.858   1.810   7.096 -0.6253 -0.1983  1.3212
 7934SOL     OW35263   1.874   3.448  17.540  0.0690 -0.4030  0.3206
 7934SOL    HW135264   1.868   3.531  17.586 -0.1099 -0.0156 -0.4093
 7934SOL    HW235265   1.798   3.444  17.482 -0.5648  0.0802  1.1324
 7935SOL     OW35266   3.047   3.674  16.555 -0.2351  0.5959 -0.8127
 7935SOL    HW135267   2.993   3.754  16.559  0.3246  0.8295  2.1149
 7935SOL    HW235268   3.029   3.640  16.467 -0.0550  0.3519 -0.7534
 7936SOL     OW35269   4.104   1.395   3.357  0.0394  0.2596  0.3707
 7936SOL    HW135270   4.073   1.350   3.278 -0.1463  0.4585  0.3292
 7936SOL    HW235271   4.183   1.425   3.312  0.4548  0.3466  1.1636
 7937SOL     OW35272   3.881   2.071  17.530  0.4996 -0.0736 -0.5062
 7937SOL    HW135273   3.863   2.103  17.442  1.9522  0.5719 -0.5698
 7937SOL    HW235274   3.793   2.035  17.543  0.9757 -0.7140  1.0281
 7938SOL     OW35275   2.033   3.055   1.359  0.5038  0.1023  0.2528
 7938SOL    HW135276   2.071   2.973   1.391 -0.3483 -1.0753 -1.6984
 7938SOL    HW235277   2.086   3.114   1.411  1.7614 -0.6253 -0.2094
 7939SOL     OW35278   3.827   4.400  14.048 -0.2907  0.5322 -0.7699
 7939SOL    HW135279   3.758   4.421  14.112 -1.2465  2.0635 -2.3224
 7939SOL    HW235280   3.896   4.459  14.077  1.2598 -3.3409  3.5310
 7940SOL     OW35281   3.257   4.002   2.827  0.5950 -0.7628  0.2379
 7940SOL    HW135282   3.237   4.070   2.762 -1.8887 -1.0036  0.7574
 7940SOL    HW235283   3.308   4.060   2.884 -1.2239  1.8820 -0.7906
 7941SOL     OW35284   0.732   2.768   4.807  0.1269 -0.5168 -0.1369
 7941SOL    HW135285   0.712   2.683   4.766 -0.9535  0.0498 -0.7765
 7941SOL    HW235286   0.702   2.757   4.897  2.7884  0.6641  0.8895
 7942SOL     OW35287   4.502   2.869   1.616  0.5429  0.4160 -0.6136
 7942SOL    HW135288   4.443   2.882   1.690  2.1138 -1.4978  0.9966
 7942SOL    HW235289   4.456   2.927   1.556  1.6002  1.6035 -0.2807
 7943SOL     OW35290   2.879   2.062   6.800  0.0669  0.0221  0.3005
 7943SOL    HW135291   2.809   2.081   6.862 -0.9665  1.3174 -1.2637
 7943SOL    HW235292   2.831   2.064   6.717  0.4225  0.0785  0.0936
 7944SOL     OW35293   3.872   2.915   1.681  0.3351  0.1543  0.3457
 7944SOL    HW135294   3.857   2.836   1.631 -0.8218  1.3491 -1.1994
 7944SOL    HW235295   3.923   2.956   1.611  0.9249  0.2572  0.8427
 7945SOL     OW35296   4.521   3.255   4.711  0.0998 -0.2073 -0.1638
 7945SOL    HW135297   4.551   3.233   4.800 -0.9125 -1.2893 -0.0868
 7945SOL    HW235298   4.485   3.343   4.714  0.1495 -0.2328  1.4284
 7946SOL     OW35299   4.459   1.992   7.182  0.0095  0.1459  0.4680
 7946SOL    HW135300   4.533   1.940   7.213  0.6020  0.0422 -1.0815
 7946SOL    HW235301   4.449   1.969   7.089 -3.0827 -1.7995  1.3037
 7947SOL     OW35302   3.809   1.318   6.681 -0.2679  0.0177 -0.7649
 7947SOL    HW135303   3.869   1.345   6.751 -0.7270  0.5824 -0.5858
 7947SOL    HW235304   3.788   1.234   6.721 -1.4838  0.1531 -1.1225
 7948SOL     OW35305   0.923   1.532  14.440 -0.3907 -0.3653 -0.4194
 7948SOL    HW135306   0.904   1.482  14.361  2.5911  0.5381 -1.7271
 7948SOL    HW235307   1.002   1.583  14.419  0.8346 -1.3654  1.8340
 7949SOL     OW35308   3.371   2.836   5.995 -0.0483 -0.7402  0.0815
 7949SOL    HW135309   3.374   2.911   5.936 -0.1793  0.2601  1.3451
 7949SOL    HW235310   3.429   2.778   5.946 -1.1044 -0.9104 -0.9681
 7950SOL     OW35311   4.612   1.207   0.894  0.0722 -0.2502 -0.0646
 7950SOL    HW135312   4.578   1.294   0.915  1.0095 -0.4637  2.3165
 7950SOL    HW235313   4.548   1.152   0.939 -1.0011  0.2588 -0.9533
 7951SOL     OW35314   0.817   1.636   1.176  0.5809 -0.3438 -0.5762
 7951SOL    HW135315   0.771   1.706   1.221  0.0805  0.4517 -2.3469
 7951SOL    HW235316   0.794   1.567   1.239 -0.9883  1.2001  0.5272
 7952SOL     OW35317   2.951   1.709   7.186 -0.2761 -0.3582 -0.1626
 7952SOL    HW135318   3.011   1.772   7.148  0.4372 -0.6661  0.4592
 7952SOL    HW235319   3.019   1.667   7.239 -0.9423  0.0728  1.0471
 7953SOL     OW35320   1.522   2.850   1.979 -0.0704 -0.2686 -0.3460
 7953SOL    HW135321   1.570   2.790   1.922  0.6340 -1.0597  1.0586
 7953SOL    HW235322   1.441   2.861   1.930 -0.7555 -0.2671  0.7752
 7954SOL     OW35323   1.370   1.913  12.187 -0.1369 -0.5326 -0.4702
 7954SOL    HW135324   1.286   1.891  12.146  0.1162  0.1414 -1.3506
 7954SOL    HW235325   1.367   1.853  12.262  1.8522 -2.1922 -1.7657
 7955SOL     OW35326   0.645   0.768   0.272  0.1314 -0.1461 -0.2583
 7955SOL    HW135327   0.656   0.716   0.351 -4.5945 -0.6180  0.1332
 7955SOL    HW235328   0.681   0.711   0.205 -0.2186  1.0666 -1.4796
 7956SOL     OW35329   1.028   1.060   3.157 -0.0632  0.5929 -0.5425
 7956SOL    HW135330   1.103   1.105   3.118 -0.1599 -0.3234 -1.7542
 7956SOL    HW235331   1.045   1.070   3.251 -1.1208 -0.3068 -0.2602
 7957SOL     OW35332   1.930   2.487  12.053 -0.6223 -0.0892  0.2407
 7957SOL    HW135333   1.934   2.423  11.982  0.2559  0.1331  0.0900
 7957SOL    HW235334   2.009   2.538  12.037 -1.0049  0.9129  1.5465
 7958SOL     OW35335   1.525   1.504   8.344 -0.4995  0.0374 -0.3503
 7958SOL    HW135336   1.483   1.444   8.404  3.0258 -0.8330  1.2797
 7958SOL    HW235337   1.609   1.522   8.387  0.7634 -0.8393 -2.4165
 7959SOL     OW35338   0.226   2.907  10.497 -0.6388  0.4045 -0.0767
 7959SOL    HW135339   0.145   2.867  10.465 -0.0414 -0.9790  0.1537
 7959SOL    HW235340   0.238   2.856  10.577 -0.1151 -0.5547 -0.7724
 7960SOL     OW35341   1.225   0.226   8.115  0.0484 -0.3291 -0.0684
 7960SOL    HW135342   1.270   0.150   8.078  1.2789 -0.7918  2.3687
 7960SOL    HW235343   1.221   0.271   8.030 -2.2592 -0.6544 -0.1513
 7961SOL     OW35344   3.486   0.011   1.694 -0.3011  0.1891  0.0379
 7961SOL    HW135345   3.447   0.091   1.730  1.5615  0.9428  0.3524
 7961SOL    HW235346   3.556   4.715   1.755  0.1406  0.2354 -0.4490
 7962SOL     OW35347   1.649   0.100   8.537  0.0240 -0.4094 -0.5859
 7962SOL    HW135348   1.617   0.181   8.576 -0.9612 -1.5114  0.8796
 7962SOL    HW235349   1.571   0.068   8.492  1.6676 -2.5148 -1.9377
 7963SOL     OW35350   4.478   2.930  10.566  0.4631 -0.1195 -0.4966
 7963SOL    HW135351   4.439   2.874  10.633 -0.6743 -0.6113 -1.5739
 7963SOL    HW235352   4.487   3.012  10.614  2.6195  0.6974 -2.2861
 7964SOL     OW35353   1.748   0.230   6.967 -0.0127  0.3565 -0.1331
 7964SOL    HW135354   1.671   0.229   6.910  0.3025 -5.1901 -0.3949
 7964SOL    HW235355   1.722   0.157   7.023  1.2529  0.1032  0.1154
 7965SOL     OW35356   1.038   2.753   7.920 -0.6845  0.7193 -0.7285
 7965SOL    HW135357   1.058   2.720   7.832  1.5595  0.7835 -0.2410
 7965SOL    HW235358   1.089   2.833   7.922  0.0239  0.2532 -0.3518
 7966SOL     OW35359   1.976   1.946  14.908  0.3267 -0.6114  0.0935
 7966SOL    HW135360   2.056   1.941  14.961  0.0941 -0.5959  0.4471
 7966SOL    HW235361   1.909   1.971  14.971 -1.4952 -0.0303 -2.1225
 7967SOL     OW35362   1.371   4.652   6.876 -0.1552  0.4478  0.1073
 7967SOL    HW135363   1.356   4.676   6.968 -1.4593  3.6560 -0.9276
 7967SOL    HW235364   1.286   4.647   6.832 -0.8320 -0.6699  1.5621
 7968SOL     OW35365   3.516   1.086   5.117  0.7808  0.4928 -0.1162
 7968SOL    HW135366   3.550   1.046   5.197 -0.0300  1.8733  0.9090
 7968SOL    HW235367   3.480   1.166   5.154 -0.5122 -0.4042  0.5398
 7969SOL     OW35368   4.042   0.382  14.642  0.3505  0.1453 -0.0295
 7969SOL    HW135369   4.099   0.429  14.582 -0.6459  1.0291 -0.2847
 7969SOL    HW235370   3.980   0.447  14.677 -1.9525 -2.9800  1.7665
 7970SOL     OW35371   1.566   2.371  14.868  0.1463  0.0873  0.2610
 7970SOL    HW135372   1.528   2.354  14.955 -0.1028  1.5686  0.4374
 7970SOL    HW235373   1.491   2.335  14.820 -0.4498 -0.4884  1.6219
 7971SOL     OW35374   0.310   3.567   5.590  0.3298 -0.5170 -0.3325
 7971SOL    HW135375   0.371   3.532   5.525 -0.2156 -1.4644 -0.3336
 7971SOL    HW235376   0.308   3.496   5.654 -2.3297  0.5407  0.7632
 7972SOL     OW35377   4.497   1.490   8.342 -0.2105  0.3865 -0.5477
 7972SOL    HW135378   4.409   1.493   8.381 -0.5747 -0.1929 -1.3211
 7972SOL    HW235379   4.473   1.439   8.265  2.3614 -1.6352  0.0209
 7973SOL     OW35380   3.486   1.689   7.838 -0.4891 -0.1506  0.4692
 7973SOL    HW135381   3.548   1.756   7.867 -1.0568 -0.1608  1.7048
 7973SOL    HW235382   3.556   1.623   7.836  0.4394  0.7995  1.2682
 7974SOL     OW35383   1.244   3.770   4.806 -0.3588  0.1376  0.1998
 7974SOL    HW135384   1.281   3.850   4.768  2.8152 -0.9729  0.9806
 7974SOL    HW235385   1.319   3.734   4.852  0.9834  2.1584 -0.4263
 7975SOL     OW35386   0.400   0.629   6.391  0.0594  0.1717  1.1270
 7975SOL    HW135387   0.370   0.694   6.328 -1.8938 -0.7549  1.0865
 7975SOL    HW235388   0.327   0.635   6.452  0.9763  0.0598  2.2406
 7976SOL     OW35389   3.983   0.458   8.729  0.1248 -0.1069  0.2085
 7976SOL    HW135390   3.902   0.427   8.690  0.6635 -0.1097 -0.9076
 7976SOL    HW235391   3.950   0.514   8.799  0.8054  0.8259 -0.2092
 7977SOL     OW35392   3.764   1.078   3.678  0.0273 -0.2574  0.2628
 7977SOL    HW135393   3.769   1.012   3.748  1.0996  1.0125  1.3922
 7977SOL    HW235394   3.670   1.063   3.673  0.0077 -0.1493  0.3147
 7978SOL     OW35395   3.164   3.554   3.778 -0.0805 -0.3735  0.1761
 7978SOL    HW135396   3.069   3.561   3.773 -0.0512  1.0655  1.3454
 7978SOL    HW235397   3.171   3.560   3.874  0.4215 -0.8391  0.1681
 7979SOL     OW35398   4.638   4.541   7.435  0.0844  0.1376  0.3725
 7979SOL    HW135399   0.008   4.550   7.433  0.5114 -3.2945  5.3192
 7979SOL    HW235400   4.638   4.500   7.522 -3.3535  0.1004  0.3668
 7980SOL     OW35401   3.306   1.002   2.621 -0.1736  0.3607 -0.5126
 7980SOL    HW135402   3.268   0.947   2.689 -0.2257  1.3349  0.2360
 7980SOL    HW235403   3.325   1.082   2.669 -0.2136  1.3091 -2.0629
 7981SOL     OW35404   0.946   1.933   7.740 -0.0056 -0.4953  0.1347
 7981SOL    HW135405   0.866   1.962   7.697  1.2686  0.3950 -1.6428
 7981SOL    HW235406   1.008   1.961   7.673 -1.0699 -0.4061 -0.7922
 7982SOL     OW35407   1.078   2.052   5.723 -0.1760 -0.0535  0.0136
 7982SOL    HW135408   1.004   1.998   5.751 -1.5307  1.8079  0.0250
 7982SOL    HW235409   1.133   2.070   5.799  0.5533 -0.3421 -0.4543
 7983SOL     OW35410   3.066   1.531  15.087  0.2560  0.9862  0.2225
 7983SOL    HW135411   3.143   1.538  15.031 -1.4096 -0.8331 -2.3163
 7983SOL    HW235412   3.009   1.478  15.032  0.4138  0.7056  0.3316
 7984SOL     OW35413   2.972   3.917   5.356  0.3952 -0.1506 -0.4627
 7984SOL    HW135414   2.894   3.969   5.334 -0.2509 -0.0572  2.0841
 7984SOL    HW235415   2.995   3.880   5.271 -0.6081 -0.6777 -0.5067
 7985SOL     OW35416   2.628   1.228  15.126  0.0285 -0.0057 -0.1099
 7985SOL    HW135417   2.569   1.264  15.059  2.8893  1.9496 -1.5337
 7985SOL    HW235418   2.660   1.310  15.163 -0.5778 -0.0543  0.5263
 7986SOL     OW35419   0.613   2.540   2.805  0.2593  0.4891 -0.1782
 7986SOL    HW135420   0.678   2.524   2.737 -0.3897 -1.0030 -0.4395
 7986SOL    HW235421   0.552   2.466   2.807 -0.8096  1.3828  0.1024
 7987SOL     OW35422   2.866   3.333   5.729  0.0820 -0.5284  0.1887
 7987SOL    HW135423   2.818   3.267   5.678  1.1238 -2.2081  1.4218
 7987SOL    HW235424   2.797   3.373   5.782 -0.1185 -0.4274 -0.1444
 7988SOL     OW35425   2.029   3.498   3.182  0.0755 -0.1042 -0.3748
 7988SOL    HW135426   2.095   3.527   3.119  0.2305  1.3658  0.4653
 7988SOL    HW235427   2.048   3.404   3.191 -0.8959 -0.2121  0.5549
 7989SOL     OW35428   0.590   1.290  17.146 -0.2244 -0.3262  0.0582
 7989SOL    HW135429   0.525   1.348  17.187  0.8534  2.3018 -1.9481
 7989SOL    HW235430   0.567   1.207  17.187  0.7843  0.9596  3.2017
 7990SOL     OW35431   2.461   3.344   7.540  0.4692 -0.0876  0.1210
 7990SOL    HW135432   2.538   3.361   7.593  0.6390  0.3719 -0.2729
 7990SOL    HW235433   2.490   3.372   7.453  1.7456 -1.4962  0.0958
 7991SOL     OW35434   3.622   3.963   0.657 -0.4343  0.6094 -0.3340
 7991SOL    HW135435   3.535   3.999   0.638 -0.6121 -0.8959 -2.3206
 7991SOL    HW235436   3.671   3.973   0.576 -0.3339 -0.4581 -0.4060
 7992SOL     OW35437   0.127   3.725   5.851  0.3656  0.1598  0.1502
 7992SOL    HW135438   0.155   3.668   5.779  0.2605  1.1869 -0.7072
 7992SOL    HW235439   0.080   3.789   5.797 -0.2334 -1.3240 -1.1099
 7993SOL     OW35440   2.148   1.513   7.415  0.0934 -0.5434 -0.4699
 7993SOL    HW135441   2.164   1.519   7.509  0.0638 -2.2638 -0.3582
 7993SOL    HW235442   2.212   1.451   7.379  2.2458 -0.2539  2.9037
 7994SOL     OW35443   1.154   0.432   3.703  0.3670  0.5473  0.0377
 7994SOL    HW135444   1.099   0.491   3.754  0.8693  0.4200  0.7265
 7994SOL    HW235445   1.229   0.489   3.685 -0.3064  0.5310 -2.8954
 7995SOL     OW35446   3.887   4.066   8.243  0.2783  0.1070 -0.3640
 7995SOL    HW135447   3.979   4.042   8.246 -0.6996 -3.8356 -2.1681
 7995SOL    HW235448   3.868   4.096   8.331  1.2115 -0.0380 -0.1150
 7996SOL     OW35449   3.426   2.011   9.112  0.2539 -0.5176  0.2194
 7996SOL    HW135450   3.441   1.950   9.040 -1.8976 -1.5445  0.6290
 7996SOL    HW235451   3.503   2.009   9.168 -0.8404  0.3063  1.7723
 7997SOL     OW35452   2.588   3.253  10.339 -0.5056 -0.3055 -0.3963
 7997SOL    HW135453   2.495   3.235  10.334 -0.8814  1.5541 -0.2482
 7997SOL    HW235454   2.594   3.251  10.435  0.6245 -0.8100 -0.4753
 7998SOL     OW35455   0.648   2.526   4.986  0.4007 -0.0607 -0.1244
 7998SOL    HW135456   0.559   2.526   4.952  0.4674 -3.1483 -0.3046
 7998SOL    HW235457   0.631   2.547   5.078  1.2359  1.5862 -0.3464
 7999SOL     OW35458   1.805   3.480   3.686 -0.2529  0.0010 -0.1138
 7999SOL    HW135459   1.862   3.429   3.630  1.3900  0.8351  0.8096
 7999SOL    HW235460   1.866   3.508   3.754  0.0408  1.3879 -0.9347
 8000SOL     OW35461   4.165   3.897   1.617 -0.1282  0.1975  1.0251
 8000SOL    HW135462   4.244   3.946   1.639 -0.9623  1.8289  0.3573
 8000SOL    HW235463   4.199   3.814   1.584  1.2973  1.3116 -0.2770
 8001SOL     OW35464   4.685   0.854   9.925  0.0219 -0.1028  0.0503
 8001SOL    HW135465   4.643   0.820  10.004  0.8958 -1.4440 -0.0621
 8001SOL    HW235466   0.039   0.899   9.954 -0.3382  1.8826 -2.0478
 8002SOL     OW35467   3.019   2.800   2.418  0.0472  0.0311  0.1343
 8002SOL    HW135468   2.992   2.773   2.506  0.5565 -2.0121 -0.3506
 8002SOL    HW235469   3.058   2.886   2.434 -0.4235  0.0178  1.3375
 8003SOL     OW35470   2.200   2.661   8.197  0.0402  0.0415  0.7274
 8003SOL    HW135471   2.173   2.742   8.241  0.8260  0.6548  0.0810
 8003SOL    HW235472   2.115   2.634   8.163  0.3327  0.0187  0.0136
 8004SOL     OW35473   4.143   2.337  10.364 -0.2342  0.2914  0.1674
 8004SOL    HW135474   4.189   2.347  10.447  1.3659  1.6752 -0.8729
 8004SOL    HW235475   4.190   2.402  10.310 -0.5960  0.9160  0.6142
 8005SOL     OW35476   1.151   0.816   5.902  0.2139  0.4133 -0.3333
 8005SOL    HW135477   1.167   0.774   5.818  0.5942  1.5244 -0.8268
 8005SOL    HW235478   1.086   0.882   5.876  0.5670  0.4102 -1.2100
 8006SOL     OW35479   2.599   1.991   5.422 -0.0604  0.6887 -0.3687
 8006SOL    HW135480   2.574   1.955   5.336 -0.2080 -0.8074  0.2943
 8006SOL    HW235481   2.690   2.017   5.408  0.3297  0.3231  1.5833
 8007SOL     OW35482   1.099   3.316   4.678  0.0205  0.2156 -1.1384
 8007SOL    HW135483   1.003   3.315   4.675 -0.0242 -1.9372  0.8191
 8007SOL    HW235484   1.112   3.410   4.677 -1.0620  0.3831  0.1719
 8008SOL     OW35485   2.668   3.351   7.710  0.4771 -0.4292 -0.2072
 8008SOL    HW135486   2.646   3.420   7.772 -3.7162 -1.2590 -0.7632
 8008SOL    HW235487   2.753   3.323   7.744  1.6054  3.0372 -0.0872
 8009SOL     OW35488   0.668   4.346   2.991 -0.4505  0.0629  0.4678
 8009SOL    HW135489   0.664   4.345   3.086 -1.6087  0.7815  0.4336
 8009SOL    HW235490   0.693   4.437   2.975 -0.6406  0.0777  0.2364
 8010SOL     OW35491   4.615   0.526   7.069 -0.6671 -0.3198  0.0867
 8010SOL    HW135492   4.582   0.485   7.149  0.4944 -0.9338  0.2514
 8010SOL    HW235493   4.547   0.495   7.009  0.3559  0.2583 -1.3522
 8011SOL     OW35494   0.622   2.390   0.898  0.0709  0.3029 -0.0801
 8011SOL    HW135495   0.584   2.415   0.814  0.5481  2.0623  0.2376
 8011SOL    HW235496   0.557   2.424   0.958 -1.6497 -1.0666 -1.1576
 8012SOL     OW35497   2.126   4.278   7.360 -0.2824  0.0152  0.0418
 8012SOL    HW135498   2.118   4.230   7.278 -2.2827  0.5979 -0.1106
 8012SOL    HW235499   2.215   4.254   7.386 -0.8691 -1.9741  0.1852
 8013SOL     OW35500   2.004   3.707   6.295 -0.0954  0.1377 -0.8320
 8013SOL    HW135501   2.082   3.699   6.349  0.2997 -0.1791 -1.4490
 8013SOL    HW235502   1.962   3.621   6.288  1.4624 -0.9579  3.5491
 8014SOL     OW35503   3.254   0.803   5.132 -0.0539  0.0567  0.1158
 8014SOL    HW135504   3.318   0.815   5.062  2.2783 -0.1198  2.2403
 8014SOL    HW235505   3.279   0.882   5.179 -0.5380 -0.8211  1.8292
 8015SOL     OW35506   1.321   3.445   4.047  0.0087 -0.4706 -0.0165
 8015SOL    HW135507   1.329   3.537   4.023 -0.1224  0.2077  2.4863
 8015SOL    HW235508   1.226   3.434   4.049 -0.1739  0.9096 -1.1343
 8016SOL     OW35509   4.450   0.577   8.891 -0.2746 -0.1126 -0.0590
 8016SOL    HW135510   4.389   0.589   8.963  1.1213 -0.5204  1.2035
 8016SOL    HW235511   4.391   0.536   8.827 -0.6551  0.8966 -0.3468
 8017SOL     OW35512   1.383   0.547   5.234 -0.2156 -0.4637 -0.2054
 8017SOL    HW135513   1.393   0.637   5.266  1.4751 -1.2354  1.4270
 8017SOL    HW235514   1.406   0.500   5.314  1.8810 -1.8602 -1.6193
 8018SOL     OW35515   3.553   2.532  14.946 -0.0756 -0.4573 -0.2038
 8018SOL    HW135516   3.545   2.452  14.998  0.5830  0.2863  1.0428
 8018SOL    HW235517   3.643   2.550  14.973  0.1408  0.4262 -1.5186
 8019SOL     OW35518   0.093   3.068   4.894 -0.4500 -0.2982  0.2233
 8019SOL    HW135519   0.042   3.016   4.831 -1.5663 -0.1549  1.0019
 8019SOL    HW235520   0.121   2.996   4.951  2.4715 -0.0189 -0.8548
 8020SOL     OW35521   2.826   4.509   3.029  0.1713 -0.0333 -0.4606
 8020SOL    HW135522   2.902   4.459   3.059  0.4681  0.4597 -0.4069
 8020SOL    HW235523   2.782   4.534   3.110  1.4200 -0.0339  0.2228
 8021SOL     OW35524   3.705   3.210  12.918 -0.1255  0.0278  0.2650
 8021SOL    HW135525   3.673   3.225  12.829  0.4501 -2.6654 -0.3936
 8021SOL    HW235526   3.768   3.281  12.925 -3.3150  2.8765  0.4301
 8022SOL     OW35527   3.101   4.205   2.088  0.0393 -0.0858  0.0938
 8022SOL    HW135528   3.050   4.124   2.077 -0.4104  0.2330 -0.1459
 8022SOL    HW235529   3.062   4.256   2.017  0.4117 -1.7297 -1.2951
 8023SOL     OW35530   2.001   3.892   4.399  0.0425 -0.0403 -0.2564
 8023SOL    HW135531   2.047   3.813   4.427 -2.4287 -1.2867  0.2382
 8023SOL    HW235532   1.918   3.863   4.362 -1.6636 -1.6488  4.8148
 8024SOL     OW35533   4.586   2.610  14.022  0.1164  0.0116  0.0548
 8024SOL    HW135534   4.599   2.639  13.932 -0.3752 -1.6093 -0.5473
 8024SOL    HW235535   4.593   2.514  14.018 -2.3905 -0.0879 -1.8159
 8025SOL     OW35536   4.472   0.567   5.087  0.2590  0.6248  0.1109
 8025SOL    HW135537   4.461   0.496   5.150 -0.9005  0.1686 -0.5925
 8025SOL    HW235538   4.484   0.521   5.004  0.9751  1.2635 -0.1367
 8026SOL     OW35539   4.667   0.474   9.022  0.2352 -0.3459 -0.1207
 8026SOL    HW135540   4.721   0.444   8.949 -0.4543  1.1520 -1.2453
 8026SOL    HW235541   4.587   0.503   8.978 -0.3048 -0.7984  0.5653
 8027SOL     OW35542   0.116   1.187   7.245  0.3648 -0.0911 -0.0531
 8027SOL    HW135543   0.069   1.248   7.301 -2.7260 -0.1796 -2.5958
 8027SOL    HW235544   0.206   1.214   7.267 -0.1799 -0.1465  2.2096
 8028SOL     OW35545   2.857   1.189   2.997  1.0160 -0.0419 -0.0313
 8028SOL    HW135546   2.842   1.110   2.946  1.2506 -2.1049  3.0674
 8028SOL    HW235547   2.944   1.167   3.031  0.9847 -0.3499 -0.1481
 8029SOL     OW35548   0.570   4.380  15.118 -0.0212  0.1403  0.1489
 8029SOL    HW135549   0.490   4.366  15.067 -1.2164  0.8860  1.8208
 8029SOL    HW235550   0.636   4.334  15.066  1.1597  2.7562 -0.6960
 8030SOL     OW35551   4.095   4.507   4.237  0.1089 -0.0735  0.2095
 8030SOL    HW135552   4.114   4.595   4.204 -0.4512  0.0038  0.0986
 8030SOL    HW235553   4.128   4.453   4.166  1.6201  0.0730  0.8053
 8031SOL     OW35554   0.422   1.986  17.435  0.9686 -0.1870  0.3236
 8031SOL    HW135555   0.424   2.078  17.460 -0.2112 -0.0273 -0.1713
 8031SOL    HW235556   0.442   1.986  17.341  1.5949 -1.5416  0.4615
 8032SOL     OW35557   2.733   4.398  11.684 -0.0481  0.2258 -0.1499
 8032SOL    HW135558   2.721   4.400  11.779 -1.8106  0.4278 -0.3757
 8032SOL    HW235559   2.709   4.309  11.660  1.0792 -0.7012  2.1185
 8033SOL     OW35560   0.816   4.697  14.158 -0.2850 -0.3787 -0.0007
 8033SOL    HW135561   0.818   4.631  14.228  2.2879  0.8260  1.0638
 8033SOL    HW235562   0.801   4.635  14.087 -0.9913 -1.2875  0.9473
 8034SOL     OW35563   1.605   4.043  16.427 -0.4242  0.4636 -0.7422
 8034SOL    HW135564   1.518   4.004  16.417 -0.7968  1.5345 -1.7238
 8034SOL    HW235565   1.669   3.972  16.424 -0.1161  0.7010  0.5360
 8035SOL     OW35566   3.312   3.853   3.354 -0.6856  0.1223  0.1108
 8035SOL    HW135567   3.308   3.903   3.436  0.0264  2.3541 -1.2330
 8035SOL    HW235568   3.393   3.891   3.321 -1.0243  0.8664  0.1384
 8036SOL     OW35569   4.239   0.294   3.360 -0.2864  0.7875  0.2625
 8036SOL    HW135570   4.235   0.384   3.326  1.4003  0.2838 -1.2452
 8036SOL    HW235571   4.150   0.293   3.395 -0.3289  2.4330  0.2054
 8037SOL     OW35572   3.936   1.224   6.448 -0.3169 -0.5893  0.2527
 8037SOL    HW135573   3.864   1.191   6.395 -0.7412  3.6904 -1.8728
 8037SOL    HW235574   3.884   1.242   6.527  1.2384  1.1670  0.8906
 8038SOL     OW35575   3.973   2.523   5.711 -0.4325  0.1871  0.5285
 8038SOL    HW135576   4.042   2.513   5.645 -0.6300  1.3060  0.1627
 8038SOL    HW235577   4.028   2.523   5.789  0.8360  1.5258 -0.3667
 8039SOL     OW35578   4.586   4.045   3.359 -0.1494  0.3755 -0.1347
 8039SOL    HW135579   4.632   4.129   3.361 -3.5775  2.2568  0.7491
 8039SOL    HW235580   4.661   3.997   3.324 -0.1274 -0.2933  0.8209
 8040SOL     OW35581   3.612   4.600  13.271  0.2816  0.1755 -0.1897
 8040SOL    HW135582   3.584   4.549  13.195  1.2014 -0.3191 -0.1947
 8040SOL    HW235583   3.666   4.532  13.310  0.1383 -0.0443 -0.3768
 8041SOL     OW35584   1.900   0.366   9.484 -0.4936  0.0823  0.2694
 8041SOL    HW135585   1.991   0.347   9.508 -0.4540 -0.8494 -0.6246
 8041SOL    HW235586   1.865   0.339   9.569 -0.6271 -1.7633 -0.3846
 8042SOL     OW35587   4.407   1.126   6.424 -0.3802 -0.3609 -0.0003
 8042SOL    HW135588   4.349   1.125   6.347 -1.8270  1.6513  1.0543
 8042SOL    HW235589   4.339   1.138   6.491 -3.0302 -0.8750 -2.5607
 8043SOL     OW35590   1.241   2.339  10.774  0.3336  0.2594 -0.1041
 8043SOL    HW135591   1.257   2.331  10.868 -0.0020  0.6059 -0.0144
 8043SOL    HW235592   1.252   2.248  10.750 -3.5875 -0.1755 -0.3545
 8044SOL     OW35593   4.672   3.325   3.514  0.5004  0.1775  0.0536
 8044SOL    HW135594   0.007   3.266   3.560  0.4768  1.4411  1.6917
 8044SOL    HW235595   4.585   3.298   3.544 -0.5843  0.0720 -3.0942
 8045SOL     OW35596   2.033   4.176   9.049 -0.0350  0.2786 -0.0591
 8045SOL    HW135597   1.993   4.262   9.032 -0.2578  0.2736  0.4416
 8045SOL    HW235598   2.006   4.165   9.140  1.1465  0.9828  0.3674
 8046SOL     OW35599   2.865   1.068   0.253 -0.1771 -0.6627 -0.0085
 8046SOL    HW135600   2.854   1.046   0.346 -0.1496 -2.0483 -0.3442
 8046SOL    HW235601   2.798   1.136   0.241 -2.0250 -2.1394  1.8350
 8047SOL     OW35602   2.241   3.775   2.835  0.2704 -0.5979 -0.0549
 8047SOL    HW135603   2.173   3.747   2.774  0.2747 -0.0956 -0.2978
 8047SOL    HW235604   2.204   3.857   2.869  3.6395  0.8556  0.1278
 8048SOL     OW35605   0.031   4.189   5.255  0.1246  0.0361 -0.0374
 8048SOL    HW135606   0.032   4.095   5.237  1.8479  0.5401 -2.4946
 8048SOL    HW235607   0.086   4.193   5.333 -0.6581  0.9427  0.4673
 8049SOL     OW35608   3.630   3.349   3.421  0.5438  0.0826  0.4468
 8049SOL    HW135609   3.535   3.359   3.423  0.4174 -0.8412 -0.9240
 8049SOL    HW235610   3.661   3.411   3.355 -2.6805  3.3269  2.0209
 8050SOL     OW35611   4.456   2.448  16.859 -1.0351  0.1564 -0.1963
 8050SOL    HW135612   4.436   2.390  16.933 -1.7558 -0.4180 -0.8435
 8050SOL    HW235613   4.447   2.386  16.786  0.2489 -1.5530  1.0783
 8051SOL     OW35614   4.401   3.546   1.616  0.1273  0.4307 -0.2341
 8051SOL    HW135615   4.400   3.559   1.711  0.2188 -0.4298 -0.1129
 8051SOL    HW235616   4.310   3.569   1.597  0.2391  1.3522  0.3670
 8052SOL     OW35617   2.830   4.546   7.193 -0.2105  0.3233  0.0379
 8052SOL    HW135618   2.774   4.553   7.270  0.2826  0.6517  0.3620
 8052SOL    HW235619   2.888   4.472   7.208  3.0302  2.7161 -0.7918
 8053SOL     OW35620   2.545   0.035   3.546 -0.4557 -0.5140  0.3705
 8053SOL    HW135621   2.564   0.114   3.494 -0.4401  1.1146  2.8620
 8053SOL    HW235622   2.472   4.722   3.497 -1.1604  0.9285  0.2766
 8054SOL     OW35623   2.073   1.150   0.318  0.3109  0.4039 -0.1148
 8054SOL    HW135624   2.031   1.233   0.340 -0.0361  0.1629  0.1359
 8054SOL    HW235625   1.999   1.091   0.330  0.3380  0.4891  0.4641
 8055SOL     OW35626   2.424   3.381  12.616  0.1409 -0.1376  0.1193
 8055SOL    HW135627   2.379   3.452  12.662 -1.5061  0.0399 -1.7403
 8055SOL    HW235628   2.483   3.430  12.559  0.6312 -0.3628  0.4320
 8056SOL     OW35629   3.784   1.274  12.739 -0.5312  0.4675 -0.8516
 8056SOL    HW135630   3.834   1.342  12.695 -1.8256  0.9187 -1.6477
 8056SOL    HW235631   3.724   1.325  12.794 -0.7832  0.2549 -0.9274
 8057SOL     OW35632   0.885   1.905   5.865 -0.1361 -0.3022  0.5956
 8057SOL    HW135633   0.835   1.955   5.929  0.9257 -0.9900  1.9748
 8057SOL    HW235634   0.815   1.863   5.816  1.7616 -1.2361 -1.3255
 8058SOL     OW35635   3.859   4.164   8.516 -0.7950 -0.2026  0.2759
 8058SOL    HW135636   3.859   4.254   8.486  0.3374 -0.5626 -0.7924
 8058SOL    HW235637   3.819   4.185   8.601 -0.7838  3.1594 -0.5552
 8059SOL     OW35638   0.269   1.148  10.278 -0.2325 -0.8551 -0.4968
 8059SOL    HW135639   0.233   1.233  10.251  0.1167 -0.7760 -0.7152
 8059SOL    HW235640   0.198   1.090  10.252 -2.9561  2.0963  0.3090
 8060SOL     OW35641   2.394   0.114  15.704 -0.2290 -0.2897  0.2444
 8060SOL    HW135642   2.393   0.020  15.690  2.7746 -0.5977  2.1378
 8060SOL    HW235643   2.348   0.137  15.623  0.0914  2.0190  0.7061
 8061SOL     OW35644   0.697   3.181   7.616 -0.4201 -0.0725 -0.5033
 8061SOL    HW135645   0.723   3.093   7.644  0.0172  1.3344  3.4965
 8061SOL    HW235646   0.711   3.182   7.521 -1.3117  0.5468 -0.6274
 8062SOL     OW35647   3.702   2.734   1.501 -1.5176  0.5073  0.4005
 8062SOL    HW135648   3.704   2.797   1.429  0.0716  0.5695  0.5014
 8062SOL    HW235649   3.660   2.664   1.452 -2.2850  0.2457  1.4311
 8063SOL     OW35650   0.641   3.314  12.647  0.0390 -0.2866 -0.5328
 8063SOL    HW135651   0.617   3.407  12.649 -1.2012 -0.6032 -0.8482
 8063SOL    HW235652   0.623   3.289  12.738 -1.7233 -1.1770 -1.1283
 8064SOL     OW35653   2.641   0.458   8.567 -0.4635  0.3485  0.0800
 8064SOL    HW135654   2.683   0.543   8.580  1.4736 -0.2188 -2.3195
 8064SOL    HW235655   2.620   0.469   8.474 -0.1333  0.8380  0.0631
 8065SOL     OW35656   4.380   1.532  16.786  0.7233  0.0982  0.1989
 8065SOL    HW135657   4.465   1.492  16.767  0.2243 -1.3432  0.9858
 8065SOL    HW235658   4.316   1.485  16.732  0.3364  0.3046  0.4872
 8066SOL     OW35659   3.679   1.181   2.786  0.1830 -0.0520  0.1383
 8066SOL    HW135660   3.751   1.237   2.757 -1.7673  1.6012 -1.5798
 8066SOL    HW235661   3.603   1.240   2.783 -0.8164 -1.3729 -0.1801
 8067SOL     OW35662   4.572   0.089  12.081  0.4249 -0.9763  0.3353
 8067SOL    HW135663   4.579   0.173  12.125  0.0648  0.0623 -1.5897
 8067SOL    HW235664   4.648   0.084  12.022 -1.3086  0.0564 -2.0074
 8068SOL     OW35665   3.615   3.131  17.667  0.5809 -0.5413 -0.9129
 8068SOL    HW135666   3.670   3.079   0.024 -1.8095 -0.2898  1.5512
 8068SOL    HW235667   3.559   3.169   0.034 -0.2085  2.3553 -3.1703
 8069SOL     OW35668   2.798   1.430   6.215  0.7723  0.2632  0.4570
 8069SOL    HW135669   2.705   1.428   6.240  0.3501  0.5115 -1.1421
 8069SOL    HW235670   2.837   1.468   6.294  1.2832  1.2040 -0.2531
 8070SOL     OW35671   0.689   1.811  10.448 -0.2209  0.1954 -0.1593
 8070SOL    HW135672   0.666   1.747  10.516  1.1226 -1.0261 -0.8502
 8070SOL    HW235673   0.730   1.761  10.377 -2.0043 -1.7707  0.2277
 8071SOL     OW35674   4.232   1.853   9.096 -0.0974 -0.6395  0.2774
 8071SOL    HW135675   4.287   1.866   9.172 -1.1081  0.8639  0.7318
 8071SOL    HW235676   4.258   1.762   9.079 -1.3683 -0.6407 -1.6702
 8072SOL     OW35677   4.553   4.256   1.732  0.5257  0.1303  0.1112
 8072SOL    HW135678   4.501   4.233   1.809 -1.1781  1.7796 -0.5337
 8072SOL    HW235679   4.614   4.308   1.785  0.6842 -0.5778  0.6149
 8073SOL     OW35680   3.679   3.074   5.508 -0.7448 -0.9336  0.2358
 8073SOL    HW135681   3.628   3.101   5.433  0.6178 -0.2497 -0.4476
 8073SOL    HW235682   3.766   3.112   5.495 -0.6585 -1.0989  0.3315
 8074SOL     OW35683   1.509   3.342   5.965 -0.0046  0.7722  0.5944
 8074SOL    HW135684   1.510   3.431   5.931  0.9986  0.4975 -0.1135
 8074SOL    HW235685   1.498   3.298   5.881 -1.2237  0.8071  0.7398
 8075SOL     OW35686   0.640   0.568   4.253  0.6821  0.8554  0.0810
 8075SOL    HW135687   0.554   0.558   4.296 -1.3545 -1.4515 -4.5111
 8075SOL    HW235688   0.620   0.515   4.176  1.2399 -0.3286  0.7365
 8076SOL     OW35689   1.441   1.695   3.231 -0.0515  0.0990  0.3398
 8076SOL    HW135690   1.398   1.654   3.306 -1.9727  1.0312 -0.2593
 8076SOL    HW235691   1.509   1.750   3.269 -1.4402  0.9487  1.5823
 8077SOL     OW35692   4.042   0.292   6.523 -0.4363  0.0412 -0.3551
 8077SOL    HW135693   3.961   0.245   6.543 -0.6886  0.7853  0.3875
 8077SOL    HW235694   4.109   0.235   6.560  1.1669  1.4793 -1.0548
 8078SOL     OW35695   2.886   2.215  12.834 -0.1791  0.0823  0.2183
 8078SOL    HW135696   2.961   2.234  12.779  0.8720  1.5720  2.1947
 8078SOL    HW235697   2.860   2.131  12.797  1.5997 -0.7964  0.9657
 8079SOL     OW35698   3.785   2.383  13.300  0.2503  0.3750 -0.3436
 8079SOL    HW135699   3.807   2.297  13.334  1.6148  1.5664  1.7867
 8079SOL    HW235700   3.744   2.356  13.217  0.0352 -0.1261 -0.0726
 8080SOL     OW35701   0.803   3.319   3.330  0.1106 -0.4042 -0.0792
 8080SOL    HW135702   0.816   3.332   3.236 -0.6949 -1.2996 -0.3234
 8080SOL    HW235703   0.712   3.289   3.332  0.5296 -1.7341 -0.4448
 8081SOL     OW35704   1.075   0.633   6.925  0.2788  0.1753 -0.0369
 8081SOL    HW135705   1.154   0.590   6.957 -0.4498 -1.0356  0.1601
 8081SOL    HW235706   1.057   0.678   7.008 -1.4312 -1.4028  0.4493
 8082SOL     OW35707   2.259   1.014   6.303 -0.2322  0.0209  0.7552
 8082SOL    HW135708   2.352   1.033   6.286  0.2291 -2.8447  0.0362
 8082SOL    HW235709   2.264   0.933   6.353  0.9417  0.3809  1.2363
 8083SOL     OW35710   2.933   0.770   8.488  1.0676  0.4975  0.1191
 8083SOL    HW135711   2.954   0.687   8.445  1.4580 -0.1376  1.5417
 8083SOL    HW235712   2.900   0.750   8.576 -0.6388  2.0417 -0.1508
 8084SOL     OW35713   4.603   1.398   7.122 -0.6158 -0.2218  0.2439
 8084SOL    HW135714   4.666   1.445   7.176 -0.1157 -0.7363  0.1035
 8084SOL    HW235715   4.606   1.456   7.046 -0.1212  0.3423  0.6901
 8085SOL     OW35716   1.858   2.477   7.677 -0.4818  0.4189 -0.5648
 8085SOL    HW135717   1.870   2.549   7.615 -1.3483  1.6176  0.6774
 8085SOL    HW235718   1.889   2.412   7.614 -0.6106 -2.5705  2.4777
 8086SOL     OW35719   1.470   4.597   6.218 -0.2200  0.6409  0.4447
 8086SOL    HW135720   1.416   4.676   6.217  0.1055  0.8767  1.5185
 8086SOL    HW235721   1.515   4.611   6.135  0.7009 -3.0589  0.3030
 8087SOL     OW35722   4.395   2.899   8.456  0.2282 -0.4143 -0.5275
 8087SOL    HW135723   4.491   2.890   8.451  0.6201  3.2193  0.7031
 8087SOL    HW235724   4.365   2.815   8.489 -1.5541  0.3713 -0.1803
 8088SOL     OW35725   1.774   0.558   1.580 -0.0726  0.4375  0.2476
 8088SOL    HW135726   1.736   0.570   1.493 -0.5233 -0.3241  0.3465
 8088SOL    HW235727   1.731   0.477   1.606  1.9333 -0.8219 -0.2924
 8089SOL     OW35728   3.525   3.913   7.087 -0.2235 -0.0685 -0.1008
 8089SOL    HW135729   3.530   3.818   7.100 -1.0620 -0.0684  0.1798
 8089SOL    HW235730   3.604   3.929   7.036  0.8887 -0.6725  1.4193
 8090SOL     OW35731   1.644   3.722   5.649  0.7708 -0.1169 -0.0904
 8090SOL    HW135732   1.587   3.797   5.629 -1.0329 -1.8283 -1.3647
 8090SOL    HW235733   1.728   3.767   5.657 -0.9025  2.7238  1.8879
 8091SOL     OW35734   0.568   3.258   2.161 -0.8285 -0.1755  0.5486
 8091SOL    HW135735   0.652   3.295   2.189 -0.6917  0.2830 -0.4731
 8091SOL    HW235736   0.504   3.307   2.212 -0.3182  0.5856  0.4615
 8092SOL     OW35737   0.046   1.902   4.785 -0.4422  0.4559 -0.1926
 8092SOL    HW135738   4.677   1.884   4.776  0.1498 -2.2485 -0.9100
 8092SOL    HW235739   0.087   1.837   4.728 -1.7336  1.2325 -1.9894
 8093SOL     OW35740   1.634   0.680   0.450  0.7395 -0.1633 -0.4837
 8093SOL    HW135741   1.578   0.618   0.402 -2.3464  2.7437 -0.6070
 8093SOL    HW235742   1.694   0.709   0.381  2.9509  0.1398  1.5858
 8094SOL     OW35743   0.329   3.633   6.035 -0.8234 -0.0233 -0.2211
 8094SOL    HW135744   0.252   3.634   6.092  0.2348 -1.5051  1.2177
 8094SOL    HW235745   0.293   3.667   5.953 -3.6538 -1.1668  0.5398
 8095SOL     OW35746   1.245   3.720   2.151 -0.5953 -0.3294  0.0209
 8095SOL    HW135747   1.322   3.684   2.108  0.4555  2.4396 -0.3931
 8095SOL    HW235748   1.185   3.698   2.080  1.0276  1.6467 -1.9599
 8096SOL     OW35749   1.456   3.909  17.593 -0.4864 -0.2573  0.2260
 8096SOL    HW135750   1.442   3.830  17.646  1.8271 -0.6634  0.2639
 8096SOL    HW235751   1.527   3.863  17.547  0.5572  0.4722  1.1187
 8097SOL     OW35752   4.482   4.033   4.409  0.4620  0.4077  0.1637
 8097SOL    HW135753   4.430   4.068   4.337 -2.7978 -2.9465  0.9139
 8097SOL    HW235754   4.479   4.109   4.467 -1.2893  0.3371  0.1562
 8098SOL     OW35755   0.278   1.529  16.609 -0.1132  0.1985  0.1593
 8098SOL    HW135756   0.332   1.529  16.687  0.4848  1.0459 -0.2513
 8098SOL    HW235757   0.324   1.594  16.555 -0.0098 -0.1305 -0.1466
 8099SOL     OW35758   4.449   2.180   1.744 -0.2626  0.2290 -0.5847
 8099SOL    HW135759   4.412   2.105   1.699  2.4724 -1.6920  0.3645
 8099SOL    HW235760   4.432   2.148   1.833 -1.3558  3.6294  0.4593
 8100SOL     OW35761   1.226   3.040   5.680 -0.4561  0.0562  0.0412
 8100SOL    HW135762   1.249   2.947   5.681  0.4595  0.3210  2.1686
 8100SOL    HW235763   1.310   3.076   5.708 -0.3472 -0.3656  0.2542
 8101SOL     OW35764   1.965   4.180  11.088 -0.1323  0.1008  0.1429
 8101SOL    HW135765   1.922   4.152  11.168 -0.4144 -0.1477 -0.0958
 8101SOL    HW235766   1.937   4.107  11.033 -0.2708  1.1987 -1.2347
 8102SOL     OW35767   4.055   4.147  16.616  0.5448  0.5317  0.0118
 8102SOL    HW135768   4.037   4.114  16.704  0.9021  0.3632  0.0188
 8102SOL    HW235769   3.966   4.161  16.582 -0.2771 -2.3563  0.9663
 8103SOL     OW35770   0.917   3.617   7.312  0.3070  0.4594 -0.3297
 8103SOL    HW135771   0.823   3.631   7.324  0.1606 -0.7322 -0.0728
 8103SOL    HW235772   0.947   3.685   7.373  2.3522 -0.1140 -0.7020
 8104SOL     OW35773   2.765   1.911   7.992 -0.4774  0.1974 -0.1316
 8104SOL    HW135774   2.856   1.941   7.980  0.0764 -1.3507  0.1978
 8104SOL    HW235775   2.759   1.875   8.080 -0.1801 -1.5506 -0.8365
 8105SOL     OW35776   2.655   2.810  12.513  0.6307  0.2363 -0.5687
 8105SOL    HW135777   2.659   2.749  12.439 -1.3244 -0.3070 -0.2425
 8105SOL    HW235778   2.652   2.756  12.593  1.4720  1.9944  0.6435
 8106SOL     OW35779   2.499   2.943   3.849 -0.2219 -0.3067 -0.5780
 8106SOL    HW135780   2.426   2.905   3.801 -0.0684 -0.2314 -0.8662
 8106SOL    HW235781   2.487   3.037   3.834 -0.8727 -0.8817 -3.5686
 8107SOL     OW35782   0.248   4.612   7.756  0.3054  0.2620 -0.0123
 8107SOL    HW135783   0.162   4.642   7.785  0.9582  0.6366  1.5627
 8107SOL    HW235784   0.256   4.667   7.678  1.1284  1.0249  0.6055
 8108SOL     OW35785   0.101   4.404   5.068 -0.0861 -0.1310 -0.5951
 8108SOL    HW135786   0.057   4.347   5.131 -1.4477 -0.4944 -1.8521
 8108SOL    HW235787   0.119   4.343   4.996  2.0317 -0.2627  0.0431
 8109SOL     OW35788   1.162   0.664   7.671  0.2242 -0.3943 -0.4626
 8109SOL    HW135789   1.111   0.706   7.602 -0.6523 -1.1071 -0.2507
 8109SOL    HW235790   1.251   0.671   7.635 -0.0681 -1.8392 -1.4450
 8110SOL     OW35791   3.533   1.762   1.519 -0.4286 -0.1689 -0.5144
 8110SOL    HW135792   3.515   1.839   1.465  0.7221  0.4941  0.0483
 8110SOL    HW235793   3.593   1.710   1.466  1.4486 -0.3413  1.7734
 8111SOL     OW35794   3.341   0.752   8.059  0.1917 -0.0948  0.2889
 8111SOL    HW135795   3.377   0.759   8.147 -1.0392  0.4388  0.7576
 8111SOL    HW235796   3.312   0.843   8.046 -1.5107 -1.2813 -3.9814
 8112SOL     OW35797   0.994   3.512   6.994 -0.1146  0.0256 -0.4622
 8112SOL    HW135798   0.949   3.442   7.041 -0.9197  1.1207  0.3980
 8112SOL    HW235799   0.921   3.559   6.953 -1.0917 -0.3325  0.8925
 8113SOL     OW35800   0.777   3.829   4.101 -0.1902  0.5974  0.9596
 8113SOL    HW135801   0.841   3.875   4.047 -0.1084 -4.1225 -2.9927
 8113SOL    HW235802   0.705   3.890   4.086 -0.1071  0.8479  1.5835
 8114SOL     OW35803   2.041   2.576   7.860 -0.4777 -0.1931 -0.1171
 8114SOL    HW135804   1.952   2.588   7.826 -0.0681 -3.3889 -2.3951
 8114SOL    HW235805   2.066   2.497   7.811  0.6807  0.4276 -0.5196
 8115SOL     OW35806   4.142   4.059   8.813 -0.1441  0.9210 -0.1242
 8115SOL    HW135807   4.047   4.047   8.804 -0.6930  3.2503  2.6779
 8115SOL    HW235808   4.132   4.151   8.835 -0.7955  0.7533  0.3039
 8116SOL     OW35809   1.312   4.370   7.007 -0.1096  0.1747  0.1173
 8116SOL    HW135810   1.381   4.394   7.070  0.3464 -0.0917 -0.2785
 8116SOL    HW235811   1.354   4.308   6.947 -1.0540  0.3012 -0.6540
 8117SOL     OW35812   1.075   0.052  10.512 -0.0615  0.2558 -0.1280
 8117SOL    HW135813   1.072   0.101  10.594 -0.4254 -0.1481  0.1028
 8117SOL    HW235814   1.117   4.704  10.559  0.6534  1.4905  1.1538
 8118SOL     OW35815   2.168   2.246   2.966 -0.3439  0.2857  0.1810
 8118SOL    HW135816   2.162   2.299   2.887  1.0310 -0.5389 -0.4805
 8118SOL    HW235817   2.182   2.164   2.920 -1.6746  0.0490  0.2041
 8119SOL     OW35818   0.926   1.532   2.442  0.2279 -0.5058 -0.0304
 8119SOL    HW135819   0.920   1.600   2.375 -1.0143  0.3445  0.9629
 8119SOL    HW235820   0.839   1.540   2.480  0.2273 -0.7547  0.0206
 8120SOL     OW35821   2.108   2.646   2.364 -0.0240  0.6258  0.0627
 8120SOL    HW135822   2.178   2.619   2.423  0.1763 -2.6727 -1.6520
 8120SOL    HW235823   2.159   2.681   2.291  1.2960  1.1961  1.2611
 8121SOL     OW35824   3.128   1.208   7.031 -0.0586  0.2638  0.0011
 8121SOL    HW135825   3.070   1.133   7.045 -0.3407  1.1698  3.7721
 8121SOL    HW235826   3.130   1.238   7.122 -2.6269 -0.6855  0.3776
 8122SOL     OW35827   1.761   3.910   7.554 -0.2009 -0.0924  0.1665
 8122SOL    HW135828   1.689   3.851   7.532 -1.4215  0.7885  1.8780
 8122SOL    HW235829   1.798   3.911   7.465 -0.8499 -0.9983 -0.1183
 8123SOL     OW35830   2.929   4.652   3.691 -0.1339  0.1245 -0.0965
 8123SOL    HW135831   2.935   4.659   3.595 -2.2220  0.6186 -0.1947
 8123SOL    HW235832   2.842   4.613   3.698 -1.2348  2.0533 -2.7971
 8124SOL     OW35833   1.143   4.646   4.445  0.0807 -0.1508  0.2766
 8124SOL    HW135834   1.055   4.609   4.456 -0.1008 -0.5670 -2.6347
 8124SOL    HW235835   1.175   4.646   4.535 -1.5886  1.6021  0.8608
 8125SOL     OW35836   3.429   4.152   8.175 -0.1547 -0.4672  0.3711
 8125SOL    HW135837   3.428   4.087   8.245 -2.4628 -2.8891 -1.9585
 8125SOL    HW235838   3.350   4.200   8.196  0.6540  1.2954 -0.6173
 8126SOL     OW35839   2.882   2.317  17.698 -0.0511  0.2439  0.0687
 8126SOL    HW135840   2.898   2.397  17.648  0.4270 -0.4311 -0.8416
 8126SOL    HW235841   2.853   2.354   0.081  0.1536  1.6510 -0.4728
 8127SOL     OW35842   3.796   4.025  10.551  0.1345  0.1198 -0.7300
 8127SOL    HW135843   3.751   4.043  10.469 -0.3704 -0.0534 -0.4921
 8127SOL    HW235844   3.828   3.935  10.552  0.1038  0.1242  0.4936
 8128SOL     OW35845   2.935   3.472  13.808 -0.3096  0.0299 -0.1066
 8128SOL    HW135846   2.858   3.420  13.831 -0.4090  0.5309  0.6770
 8128SOL    HW235847   2.920   3.512  13.722 -2.0142  1.4528  0.8695
 8129SOL     OW35848   0.340   1.533  13.253 -0.2295  0.0496  0.4541
 8129SOL    HW135849   0.331   1.449  13.209 -3.5090  0.8287 -0.3575
 8129SOL    HW235850   0.311   1.506  13.340 -3.0978  3.3659  0.5413
 8130SOL     OW35851   1.779   1.588   3.369 -0.6632 -0.2329 -0.1152
 8130SOL    HW135852   1.778   1.658   3.305 -1.1390 -0.9394 -0.8739
 8130SOL    HW235853   1.737   1.522   3.315  0.1553 -1.9115  1.2859
 8131SOL     OW35854   1.610   4.677   7.433  0.4449 -0.2931 -0.7613
 8131SOL    HW135855   1.649   4.691   7.519 -0.6140  0.6141 -0.4328
 8131SOL    HW235856   1.581   4.587   7.449  1.6656 -0.3923  0.8387
 8132SOL     OW35857   4.644   1.334   1.238  0.0952  0.1668 -0.0078
 8132SOL    HW135858   4.602   1.404   1.288  0.6884 -0.3043  1.1513
 8132SOL    HW235859   4.651   1.382   1.156 -0.1061  0.1536 -0.0312
 8133SOL     OW35860   1.676   2.818  16.979  0.4602 -0.1885 -0.1390
 8133SOL    HW135861   1.689   2.845  16.888  1.5381  0.3187  0.1652
 8133SOL    HW235862   1.687   2.723  16.986  0.8929 -0.3372 -2.5763
 8134SOL     OW35863   0.124   1.519   3.999  0.1665 -0.6851 -0.1651
 8134SOL    HW135864   0.157   1.591   3.945  1.2169  0.1580  1.5980
 8134SOL    HW235865   0.050   1.484   3.949  0.0141 -2.2004  1.1342
 8135SOL     OW35866   1.238   1.774   6.990 -0.2676 -0.3332 -0.7874
 8135SOL    HW135867   1.179   1.730   6.929 -0.4489 -0.0062 -0.8485
 8135SOL    HW235868   1.258   1.861   6.954  3.2314 -0.8307 -0.0209
 8136SOL     OW35869   4.141   4.527   0.460 -0.0003 -0.0723  0.1010
 8136SOL    HW135870   4.200   4.518   0.535 -2.0523  2.4467  1.9859
 8136SOL    HW235871   4.101   4.441   0.444 -0.7931 -0.2950  3.3471
 8137SOL     OW35872   3.829   3.097   1.976 -0.3704 -0.4700 -0.1019
 8137SOL    HW135873   3.833   3.127   1.885  0.2923 -0.5516 -0.1031
 8137SOL    HW235874   3.869   3.010   1.967  0.1125 -0.2922  0.3502
 8138SOL     OW35875   0.781   3.363   7.098  0.7567 -0.4654  0.7334
 8138SOL    HW135876   0.720   3.436   7.094  1.4667  0.1032  0.4145
 8138SOL    HW235877   0.719   3.290   7.091  0.1444  0.2650 -1.4549
 8139SOL     OW35878   0.167   2.726  13.631  0.1116 -0.2676  0.2767
 8139SOL    HW135879   0.231   2.656  13.645 -0.6483 -0.8922  0.6169
 8139SOL    HW235880   0.133   2.705  13.544  2.6947  1.8752 -1.2632
 8140SOL     OW35881   4.018   2.940   9.713  0.2742 -0.3587  0.4709
 8140SOL    HW135882   4.065   2.984   9.642 -0.9303  1.3136  0.7159
 8140SOL    HW235883   4.059   2.995   9.780  0.7441 -0.0117 -0.0949
 8141SOL     OW35884   1.638   0.082   4.060  0.5496 -0.5306  0.0004
 8141SOL    HW135885   1.673   0.120   3.979 -2.1478  0.3244 -0.7488
 8141SOL    HW235886   1.634   0.151   4.126  1.7864 -0.5471  0.0967
 8142SOL     OW35887   2.540   1.494   1.539  0.1961 -0.2134  0.1105
 8142SOL    HW135888   2.552   1.556   1.611  0.2075 -1.1252  0.8911
 8142SOL    HW235889   2.454   1.472   1.574  1.2819 -0.6407  2.5344
 8143SOL     OW35890   4.457   2.553   4.305  0.2111  0.0401  0.0049
 8143SOL    HW135891   4.425   2.588   4.222 -0.3698 -1.5507 -0.4442
 8143SOL    HW235892   4.540   2.599   4.316  0.0673 -0.1911  2.0944
 8144SOL     OW35893   1.884   4.153  15.385 -0.1063 -0.1863  0.2527
 8144SOL    HW135894   1.924   4.083  15.436 -0.0029  0.3967  0.9673
 8144SOL    HW235895   1.793   4.141  15.411 -0.6372  0.2639 -1.3771
 8145SOL     OW35896   1.610   1.626   3.655  0.3262  0.1995 -0.4490
 8145SOL    HW135897   1.606   1.666   3.568 -0.8332  2.1618  0.4812
 8145SOL    HW235898   1.519   1.605   3.677  1.0794 -3.7048 -1.0783
 8146SOL     OW35899   2.435   1.630   8.873  0.0641  0.5920 -0.1048
 8146SOL    HW135900   2.519   1.674   8.890 -0.2206  1.4790 -1.0264
 8146SOL    HW235901   2.377   1.680   8.930 -0.0877  0.2098  0.0781
 8147SOL     OW35902   2.713   2.827   1.028  0.0045  0.5735  0.5067
 8147SOL    HW135903   2.668   2.881   1.092 -0.9688  0.3889 -0.0307
 8147SOL    HW235904   2.636   2.783   0.992  0.1523 -0.3105  1.2847
 8148SOL     OW35905   2.991   3.330   7.276  0.4556 -0.0090 -0.0745
 8148SOL    HW135906   2.918   3.268   7.278 -0.0105  0.4786 -2.4820
 8148SOL    HW235907   3.063   3.271   7.296  2.0875  2.9981  2.9335
 8149SOL     OW35908   3.759   0.354   4.847 -0.3327 -0.5508 -0.5579
 8149SOL    HW135909   3.792   0.370   4.758 -1.5153  0.8656 -0.7350
 8149SOL    HW235910   3.840   0.330   4.892  0.4866  1.7281 -0.7786
 8150SOL     OW35911   0.917   1.265   2.191  0.0350 -0.0599  0.0008
 8150SOL    HW135912   1.001   1.260   2.144 -1.1236  0.5562 -2.1535
 8150SOL    HW235913   0.957   1.221   2.266  0.4763  0.4147  0.0449
 8151SOL     OW35914   1.952   4.236   6.496  0.1192 -0.2614  0.3568
 8151SOL    HW135915   1.910   4.312   6.457  2.8636 -0.0533 -2.1559
 8151SOL    HW235916   1.951   4.262   6.588 -1.3670  0.3712  0.1709
 8152SOL     OW35917   4.368   1.815   9.798  0.2264 -0.3335 -0.2410
 8152SOL    HW135918   4.275   1.832   9.814  0.6236 -0.1867  1.9260
 8152SOL    HW235919   4.377   1.720   9.809 -3.9915 -0.5917  1.1092
 8153SOL     OW35920   4.200   0.734   8.376 -0.2860  0.0536  0.3456
 8153SOL    HW135921   4.244   0.651   8.394 -0.5759 -0.0673  0.4977
 8153SOL    HW235922   4.166   0.715   8.289 -1.6035 -2.3501  1.4033
 8154SOL     OW35923   2.414   2.777  14.132 -0.2654 -0.7651 -0.0659
 8154SOL    HW135924   2.431   2.853  14.078  0.7648 -1.2493 -0.4151
 8154SOL    HW235925   2.329   2.752  14.096 -0.4450  0.8068 -0.7321
 8155SOL     OW35926   0.825   0.535   3.278  0.1021 -0.1444  0.4902
 8155SOL    HW135927   0.885   0.516   3.350 -1.1376  0.2273  1.6152
 8155SOL    HW235928   0.776   0.606   3.320  0.4269 -0.5655  1.5614
 8156SOL     OW35929   0.165   0.202   8.175  0.1738  0.6314 -0.3751
 8156SOL    HW135930   0.193   0.126   8.123  0.0501  2.1014 -2.5805
 8156SOL    HW235931   0.248   0.240   8.205  0.8560 -0.1886 -1.2105
 8157SOL     OW35932   1.206   2.080  16.835 -0.5726  0.0302  0.5114
 8157SOL    HW135933   1.245   2.012  16.780 -3.2771 -1.0768 -0.0476
 8157SOL    HW235934   1.245   2.154  16.789  0.8836 -2.1668 -1.7975
 8158SOL     OW35935   0.604   2.174   1.300 -1.0117 -0.1817  0.3657
 8158SOL    HW135936   0.676   2.181   1.236 -1.2869  2.2692  0.3152
 8158SOL    HW235937   0.547   2.110   1.257  0.2393 -1.2519  0.2892
 8159SOL     OW35938   4.342   3.125   2.781  0.2493  1.1674  0.4096
 8159SOL    HW135939   4.350   3.058   2.850  1.4034  0.7225 -0.1580
 8159SOL    HW235940   4.429   3.147   2.747  0.2992 -0.6787 -0.6804
 8160SOL     OW35941   4.322   1.565   6.271  0.3793 -0.3520 -0.2671
 8160SOL    HW135942   4.251   1.545   6.333 -0.2633  1.0890 -0.5295
 8160SOL    HW235943   4.324   1.486   6.217 -2.3585 -0.1585 -0.6734
 8161SOL     OW35944   1.131   1.689   6.753  0.3113 -0.0635  0.4477
 8161SOL    HW135945   1.203   1.627   6.745 -0.9282 -1.4342  0.0152
 8161SOL    HW235946   1.093   1.692   6.665  1.1660 -0.7789  0.0496
 8162SOL     OW35947   3.476   2.544   1.647 -0.1458  0.0299 -0.3179
 8162SOL    HW135948   3.380   2.547   1.652 -0.2566 -1.3321 -1.6097
 8162SOL    HW235949   3.494   2.626   1.693  0.9999 -0.7243  0.5931
 8163SOL     OW35950   2.055   2.908   9.082  0.4703 -0.3531 -0.6334
 8163SOL    HW135951   2.024   2.842   9.143  0.1707  0.5573  0.2054
 8163SOL    HW235952   2.150   2.907   9.094  0.6835 -0.5434 -2.3739
 8164SOL     OW35953   3.563   0.138   4.865  0.1422 -0.7605 -0.1897
 8164SOL    HW135954   3.622   0.203   4.827  0.4639 -0.9762 -0.0632
 8164SOL    HW235955   3.500   0.196   4.907 -1.9069 -1.8655 -1.7869
 8165SOL     OW35956   1.520   4.091  10.999  0.2167 -0.1584 -0.4858
 8165SOL    HW135957   1.600   4.068  11.047  1.4342  0.9224 -1.9781
 8165SOL    HW235958   1.515   4.011  10.946 -0.5431 -1.7310  2.0049
 8166SOL     OW35959   3.023   0.213   5.406 -0.4270  0.0545 -0.6834
 8166SOL    HW135960   2.989   0.292   5.448 -1.4500 -0.8737  0.2214
 8166SOL    HW235961   2.991   0.154   5.473 -0.9147  0.9421 -0.1326
 8167SOL     OW35962   2.686   0.350  10.791  0.1951  0.4020 -0.6383
 8167SOL    HW135963   2.622   0.327  10.858  1.7799 -1.5658  0.1985
 8167SOL    HW235964   2.752   0.286  10.818 -0.7945  0.2322  1.3439
 8168SOL     OW35965   1.719   1.894  13.943 -0.3144 -0.6518  0.5086
 8168SOL    HW135966   1.650   1.836  13.973 -0.4453 -0.1710  1.1376
 8168SOL    HW235967   1.721   1.864  13.852  2.3976 -1.6531  0.9072
 8169SOL     OW35968   4.534   1.383   5.554 -0.6356 -0.0799  0.0866
 8169SOL    HW135969   4.470   1.451   5.575  0.0114  0.5769 -0.0889
 8169SOL    HW235970   4.613   1.433   5.570  1.0706 -1.7040 -3.2358
 8170SOL     OW35971   4.521   0.674   3.313 -0.1839  0.6185  0.4046
 8170SOL    HW135972   4.537   0.734   3.385  0.7303 -0.2174  0.9083
 8170SOL    HW235973   4.603   0.684   3.263  0.4440 -1.6205  1.0040
 8171SOL     OW35974   4.202   2.056  10.218 -0.7451 -0.1791  0.5954
 8171SOL    HW135975   4.245   2.139  10.235 -2.1197  0.6657 -0.0636
 8171SOL    HW235976   4.277   1.996  10.217 -0.8322 -0.2605 -0.9819
 8172SOL     OW35977   2.461   0.760  13.510  0.0279 -0.2359 -0.4233
 8172SOL    HW135978   2.462   0.677  13.558 -1.0926 -0.5498 -0.9433
 8172SOL    HW235979   2.370   0.765  13.483  0.7518 -0.7924 -2.9570
 8173SOL     OW35980   1.243   4.524   5.680  0.7317  0.3432  0.2541
 8173SOL    HW135981   1.212   4.568   5.759 -1.0916  0.5474 -0.5913
 8173SOL    HW235982   1.338   4.524   5.694  0.7105  2.9034  0.3888
 8174SOL     OW35983   2.123   3.541   8.321  0.1653 -0.1463  0.5100
 8174SOL    HW135984   2.198   3.573   8.272  0.3347  0.0817  0.9239
 8174SOL    HW235985   2.156   3.457   8.355  0.0734 -1.3385 -2.3248
 8175SOL     OW35986   0.001   1.670   8.264  0.1814  0.6051  0.4674
 8175SOL    HW135987   4.632   1.686   8.253  0.0460 -0.3002  0.3191
 8175SOL    HW235988   0.007   1.585   8.222  1.6179  0.5261  0.8507
 8176SOL     OW35989   3.240   1.626   6.885 -0.4011  0.0632  0.0615
 8176SOL    HW135990   3.205   1.543   6.853  0.0905 -0.5212  1.0357
 8176SOL    HW235991   3.332   1.618   6.862 -0.4926  2.6260 -1.1481
 8177SOL     OW35992   4.226   2.937  13.258  0.2000  0.5730 -0.3387
 8177SOL    HW135993   4.174   2.950  13.337  0.2357  1.1146 -0.4022
 8177SOL    HW235994   4.163   2.900  13.196 -0.1555 -2.3613  1.7647
 8178SOL     OW35995   3.096   1.784   9.427  0.1703  0.1349  0.4809
 8178SOL    HW135996   3.048   1.835   9.493 -2.1608 -0.1725 -0.9974
 8178SOL    HW235997   3.179   1.832   9.432  0.2356  0.1344 -0.6009
 8179SOL     OW35998   4.415   2.342  11.001  0.5251 -0.2577 -0.5135
 8179SOL    HW135999   4.328   2.374  11.026  0.5403 -1.2293  0.7911
 8179SOL    HW236000   4.393   2.265  10.950 -1.1145  1.1460 -1.9396
 8180SOL     OW36001   1.959   1.052   5.464  0.1766  0.0004  0.2535
 8180SOL    HW136002   1.940   1.140   5.433 -1.4320 -0.3009  0.3696
 8180SOL    HW236003   1.945   1.062   5.558  1.8171  0.1669  0.4622
 8181SOL     OW36004   1.701   0.725   4.776 -0.0732  0.1983  0.0539
 8181SOL    HW136005   1.746   0.681   4.848 -3.9285 -1.4592  1.4918
 8181SOL    HW236006   1.694   0.647   4.720 -4.0698  1.5020 -1.3044
 8182SOL     OW36007   1.671   1.415   7.844 -0.1060  0.5276 -0.0225
 8182SOL    HW136008   1.585   1.376   7.858 -0.3484  0.4273 -1.8493
 8182SOL    HW236009   1.728   1.348   7.805 -1.6564 -0.1466 -1.1091
 8183SOL     OW36010   3.503   1.355  14.608 -0.0841 -0.3549  0.0175
 8183SOL    HW136011   3.508   1.440  14.565  0.5404 -1.5275 -2.2385
 8183SOL    HW236012   3.572   1.300  14.570 -1.7493 -0.9154 -2.2211
 8184SOL     OW36013   4.392   1.662   6.778 -0.1740 -0.8021 -0.0450
 8184SOL    HW136014   4.354   1.596   6.836  1.2321 -0.4776  1.2700
 8184SOL    HW236015   4.424   1.720   6.848 -0.9935  0.5009 -0.7604
 8185SOL     OW36016   1.356   2.473   3.901 -0.6609  0.0676  0.3184
 8185SOL    HW136017   1.446   2.492   3.873 -0.7582  0.5148  0.3126
 8185SOL    HW236018   1.356   2.516   3.986 -1.3133  1.7618 -0.5313
 8186SOL     OW36019   4.633   3.238   6.476  0.4467  0.1591  0.0240
 8186SOL    HW136020   4.650   3.297   6.549  1.4682 -0.7981  0.5534
 8186SOL    HW236021   4.686   3.162   6.500  0.6970  1.0704  2.3673
 8187SOL     OW36022   0.477   1.704   3.047 -0.2599  0.1336  1.0638
 8187SOL    HW136023   0.453   1.792   3.074  1.6988  0.6957  0.9837
 8187SOL    HW236024   0.393   1.668   3.020 -0.3141  3.0699 -2.6005
 8188SOL     OW36025   2.468   2.793   3.108  0.2003  0.0076  0.0655
 8188SOL    HW136026   2.536   2.825   3.049  0.8969 -0.0041  0.8699
 8188SOL    HW236027   2.398   2.763   3.051  2.5916 -1.1495 -2.2849
 8189SOL     OW36028   1.628   1.312   5.862 -0.4284  0.1139  0.0011
 8189SOL    HW136029   1.723   1.317   5.859 -0.5457 -0.0914 -4.3152
 8189SOL    HW236030   1.624   1.216   5.868  0.4544  0.1465  1.0649
 8190SOL     OW36031   0.032   3.599   5.552  0.0994  0.0324 -0.1208
 8190SOL    HW136032   0.104   3.537   5.564  2.5632  2.8321 -0.4994
 8190SOL    HW236033   4.723   3.563   5.470 -1.6690  0.0196  0.6168
 8191SOL     OW36034   3.376   0.151  13.239  0.2821 -0.6216  0.3433
 8191SOL    HW136035   3.411   0.216  13.178 -1.8383 -0.6165 -0.9034
 8191SOL    HW236036   3.281   0.166  13.233  0.3124 -0.2349  0.8601
 8192SOL     OW36037   4.202   0.842   2.338 -0.7792 -0.4028 -0.2693
 8192SOL    HW136038   4.188   0.913   2.276 -2.4542 -1.3247 -0.9530
 8192SOL    HW236039   4.216   0.768   2.278  0.9236 -0.5621  0.3112
 8193SOL     OW36040   0.902   1.226   3.474  0.9372  0.7524 -0.5497
 8193SOL    HW136041   0.831   1.196   3.530  0.6312  0.6106 -1.0167
 8193SOL    HW236042   0.977   1.196   3.526 -0.4592 -0.6877  0.6589
 8194SOL     OW36043   0.324   2.948   3.299 -0.3523  0.2514  0.2160
 8194SOL    HW136044   0.321   2.996   3.216 -0.7254 -0.6279 -0.2894
 8194SOL    HW236045   0.385   2.998   3.354  1.7674 -1.4272 -0.5939
 8195SOL     OW36046   0.576   4.257  11.237  0.1565 -0.0830 -0.3429
 8195SOL    HW136047   0.599   4.282  11.326 -0.3876 -1.5514  0.2176
 8195SOL    HW236048   0.536   4.337  11.205 -0.9037 -0.1080  0.9581
 8196SOL     OW36049   0.985   0.579   2.516 -0.1451 -0.4496 -0.4363
 8196SOL    HW136050   1.027   0.557   2.599  1.0935 -2.2175 -1.5241
 8196SOL    HW236051   0.899   0.538   2.526  0.2241 -0.7416  1.4488
 8197SOL     OW36052   0.067   0.627   7.920 -0.3979 -0.2150  0.3348
 8197SOL    HW136053   0.133   0.578   7.870  0.1861  1.4263 -0.5121
 8197SOL    HW236054   0.002   0.558   7.903 -2.3823  1.6067  0.6040
 8198SOL     OW36055   4.147   2.595   7.873 -0.4549  0.3743 -0.3054
 8198SOL    HW136056   4.176   2.542   7.798  0.2870  1.0591 -0.4912
 8198SOL    HW236057   4.100   2.669   7.834 -1.6272 -1.1167 -1.7602
 8199SOL     OW36058   1.743   2.460   9.904  0.0446  0.7379 -0.1911
 8199SOL    HW136059   1.778   2.549   9.908  0.0824  0.6336  1.8535
 8199SOL    HW236060   1.676   2.461   9.972 -0.4838  2.1003 -0.7306
 8200SOL     OW36061   1.090   1.766  17.553 -0.2152 -0.0305 -0.4060
 8200SOL    HW136062   1.182   1.791  17.562 -0.2471 -0.2831  0.7317
 8200SOL    HW236063   1.090   1.692  17.493 -2.5939 -1.0204  0.8378
 8201SOL     OW36064   2.262   3.018   4.474 -0.3576  0.6142 -0.2725
 8201SOL    HW136065   2.182   3.037   4.523 -1.7676  1.0508 -2.7085
 8201SOL    HW236066   2.224   2.957   4.410 -0.3510  0.7023 -0.3605
 8202SOL     OW36067   1.526   4.240   3.647 -0.2024  0.0710  0.3630
 8202SOL    HW136068   1.515   4.180   3.572 -0.1907  2.4884 -1.5702
 8202SOL    HW236069   1.527   4.319   3.593  0.7319  1.1338  1.9453
 8203SOL     OW36070   3.215   2.147   5.267  0.0130 -0.3146 -0.5705
 8203SOL    HW136071   3.292   2.097   5.292 -0.1608  0.8149  2.2507
 8203SOL    HW236072   3.183   2.086   5.201 -4.3400 -0.2994  1.5073
 8204SOL     OW36073   0.421   2.242  17.492 -0.7785  0.0545  0.3881
 8204SOL    HW136074   0.362   2.312  17.464  1.4440  1.3617 -1.0070
 8204SOL    HW236075   0.495   2.261  17.435 -0.2769  1.5716  1.5582
 8205SOL     OW36076   2.234   0.228   3.809  0.4954 -0.3933  0.8495
 8205SOL    HW136077   2.223   0.142   3.768  1.7436 -0.4752  0.6850
 8205SOL    HW236078   2.149   0.268   3.790  1.3577  1.7450  1.5052
 8206SOL     OW36079   0.533   3.427   7.422 -0.5354 -0.3523 -0.0788
 8206SOL    HW136080   0.454   3.381   7.391  0.1539 -3.0144  2.1600
 8206SOL    HW236081   0.604   3.378   7.380  0.3658  2.2295 -1.5978
 8207SOL     OW36082   3.763   3.086   9.113  0.2879 -0.2594 -0.4569
 8207SOL    HW136083   3.815   3.075   9.033  1.3805 -1.1979  0.3792
 8207SOL    HW236084   3.676   3.070   9.076  1.5291 -2.3134 -2.4711
 8208SOL     OW36085   4.492   4.063   2.354 -0.0442  0.2197 -0.5945
 8208SOL    HW136086   4.424   4.117   2.314  0.3326  1.1388  0.0265
 8208SOL    HW236087   4.525   4.014   2.279 -0.0174 -0.0858 -0.3868
 8209SOL     OW36088   0.424   0.576   0.512 -0.2114  0.2582  0.7240
 8209SOL    HW136089   0.351   0.593   0.571 -2.4304  1.7954 -2.4786
 8209SOL    HW236090   0.436   0.483   0.529  0.5589  0.1692 -0.3475
 8210SOL     OW36091   3.344   4.157  14.316 -0.2153 -0.1201 -0.0996
 8210SOL    HW136092   3.289   4.084  14.345  0.4825 -1.0848 -1.1793
 8210SOL    HW236093   3.394   4.177  14.395 -2.9845  0.1230  1.5679
 8211SOL     OW36094   2.698   4.238   2.251 -0.7334  0.1854  0.5588
 8211SOL    HW136095   2.638   4.212   2.181 -2.7499  2.1909  1.5153
 8211SOL    HW236096   2.737   4.154   2.275 -2.3727 -0.5599  0.5632
 8212SOL     OW36097   2.002   0.287   6.369  0.4060  0.4828  0.2421
 8212SOL    HW136098   1.930   0.286   6.433 -0.8909 -1.7479 -1.2742
 8212SOL    HW236099   1.963   0.341   6.300  1.9587 -1.2199 -1.9436
 8213SOL     OW36100   3.984   2.105   2.591  0.1212 -0.2786 -0.0585
 8213SOL    HW136101   3.968   2.092   2.497  0.8733  1.8338 -0.4788
 8213SOL    HW236102   3.904   2.132   2.637  0.1174 -0.6153  0.1312
 8214SOL     OW36103   0.290   1.654  11.999 -0.3875  0.1498  0.2478
 8214SOL    HW136104   0.339   1.701  11.932 -0.6415  0.2930  0.1630
 8214SOL    HW236105   0.311   1.707  12.076 -0.2394  1.9683 -1.0443
 8215SOL     OW36106   3.185   2.382  17.623  0.1932  0.0957  0.5106
 8215SOL    HW136107   3.278   2.401  17.606 -0.6755  3.7057 -0.2009
 8215SOL    HW236108   3.183   2.288  17.605  0.6289  0.2270 -0.2035
 8216SOL     OW36109   3.490   1.232  11.065 -0.1095  0.3650  0.1517
 8216SOL    HW136110   3.445   1.148  11.056  0.3355  0.4059 -2.4181
 8216SOL    HW236111   3.545   1.215  11.141 -0.3952  2.5409  0.8189
 8217SOL     OW36112   0.816   2.553  11.105 -0.4439 -0.2099 -0.3842
 8217SOL    HW136113   0.885   2.486  11.110 -0.3529  0.0135  1.1858
 8217SOL    HW236114   0.847   2.600  11.027  1.0942  0.5959  0.7158
 8218SOL     OW36115   2.878   3.063  17.492  0.4306  0.4608  0.0573
 8218SOL    HW136116   2.868   3.098  17.404 -2.0049 -0.1087  0.1041
 8218SOL    HW236117   2.794   3.019  17.505  1.5343 -1.4355  0.8807
 8219SOL     OW36118   3.124   1.372   3.534  0.7081  0.4922 -0.4713
 8219SOL    HW136119   3.110   1.388   3.441 -1.9304  1.9409  0.1625
 8219SOL    HW236120   3.034   1.382   3.565  1.7910  1.0494  2.4963
 8220SOL     OW36121   2.051   3.975   6.822  0.1438 -0.0523  0.1381
 8220SOL    HW136122   2.069   3.962   6.729  0.0729 -2.2598  0.4409
 8220SOL    HW236123   1.958   3.956   6.831  0.2682 -0.2539  0.9812
 8221SOL     OW36124   1.821   3.601   2.356  0.1408 -0.0915  0.4044
 8221SOL    HW136125   1.733   3.613   2.322 -0.2336 -0.6392  1.1613
 8221SOL    HW236126   1.856   3.556   2.279  1.1950  1.0025  0.2566
 8222SOL     OW36127   4.443   2.025   4.628  0.2544 -0.0435 -0.3293
 8222SOL    HW136128   4.450   2.115   4.658 -1.0526  0.7748 -2.4566
 8222SOL    HW236129   4.417   2.051   4.539  1.7377 -2.1290 -1.3628
 8223SOL     OW36130   2.566   2.975  12.191  0.0820  0.4157  0.2533
 8223SOL    HW136131   2.645   2.922  12.195 -0.6344 -0.5703  1.5130
 8223SOL    HW236132   2.505   2.904  12.169  0.0763 -0.4083  2.8907
 8224SOL     OW36133   3.454   1.742   3.215 -0.7289 -0.1875 -0.2801
 8224SOL    HW136134   3.517   1.669   3.215  0.9354  1.2513 -1.1092
 8224SOL    HW236135   3.479   1.774   3.128 -0.4228 -1.1823 -0.5591
 8225SOL     OW36136   1.354   2.392   7.320  0.5241 -0.1855 -0.4760
 8225SOL    HW136137   1.414   2.446   7.371 -1.0496  0.5443  0.6034
 8225SOL    HW236138   1.318   2.454   7.256 -2.5208  0.6371  2.0418
 8226SOL     OW36139   2.543   3.049   5.963 -0.0068 -0.7256  0.1102
 8226SOL    HW136140   2.571   3.124   6.015 -0.1925 -0.5590 -0.0279
 8226SOL    HW236141   2.621   3.016   5.918  1.4072  1.4169  1.0195
 8227SOL     OW36142   1.832   0.746  16.513 -0.2001  0.3598  0.7076
 8227SOL    HW136143   1.770   0.743  16.587 -0.5347  0.2310  0.4208
 8227SOL    HW236144   1.803   0.819  16.458 -1.1349  0.3446  1.1751
 8228SOL     OW36145   3.565   2.482   4.983  0.2714  0.3295  0.0954
 8228SOL    HW136146   3.558   2.468   5.078 -0.3338 -0.0365 -0.0030
 8228SOL    HW236147   3.497   2.548   4.971  0.5444  0.6176  0.1372
 8229SOL     OW36148   0.693   4.508  13.981 -0.0340 -0.3202 -0.2949
 8229SOL    HW136149   0.736   4.558  13.912  1.5751 -0.9617  0.2291
 8229SOL    HW236150   0.661   4.439  13.923  1.8085  0.4568 -2.2094
 8230SOL     OW36151   1.939   1.455   9.848 -0.0614 -0.1865  0.1488
 8230SOL    HW136152   2.025   1.482   9.814  0.2218 -1.2481  0.0108
 8230SOL    HW236153   1.891   1.418   9.774 -0.0814  0.3258 -0.0975
 8231SOL     OW36154   3.717   0.619  11.255 -0.6068  0.9821  0.2869
 8231SOL    HW136155   3.746   0.667  11.177  0.4154  1.9603  1.2613
 8231SOL    HW236156   3.772   0.665  11.319  0.3087  1.9208 -1.1701
 8232SOL     OW36157   1.771   1.665   8.193 -0.5092 -0.0611 -0.2699
 8232SOL    HW136158   1.846   1.624   8.151  0.0136  0.3921  0.2268
 8232SOL    HW236159   1.741   1.719   8.120 -2.5896  1.4472  1.6800
 8233SOL     OW36160   2.167   4.678   8.063 -0.2353 -0.4557 -0.1267
 8233SOL    HW136161   2.163   0.005   8.143  0.7066  0.6806 -0.8095
 8233SOL    HW236162   2.077   4.648   8.049 -0.2785 -0.5355  0.3243
 8234SOL     OW36163   4.174   0.259  16.552 -0.0872  0.8075  0.0855
 8234SOL    HW136164   4.150   0.177  16.594  0.4585  0.9687  0.7083
 8234SOL    HW236165   4.247   0.228  16.498 -0.5116  0.8020 -0.4901
 8235SOL     OW36166   1.594   4.689   5.680  0.8937  0.3904 -0.3805
 8235SOL    HW136167   1.588   4.622   5.748  1.1012  1.3750  0.6130
 8235SOL    HW236168   1.614   4.631   5.606 -0.0634 -0.6245  0.1543
 8236SOL     OW36169   4.651   1.697   5.697 -0.2104 -0.1601  0.3778
 8236SOL    HW136170   4.570   1.688   5.647 -0.3170 -0.7669  0.6553
 8236SOL    HW236171   4.615   1.735   5.778  0.8823 -2.3227  1.8759
 8237SOL     OW36172   1.629   0.449   8.906 -0.7531  0.3007  0.2660
 8237SOL    HW136173   1.626   0.542   8.886 -1.4131  0.5517  1.5422
 8237SOL    HW236174   1.577   0.452   8.986 -0.2006 -2.1516  0.7247
 8238SOL     OW36175   3.539   3.807   8.809 -0.8182 -0.0180 -0.3610
 8238SOL    HW136176   3.546   3.839   8.899 -0.9512  0.3658 -0.4879
 8238SOL    HW236177   3.462   3.751   8.809 -0.1170 -0.9617 -1.1132
 8239SOL     OW36178   0.102   3.046   2.094  0.2326  0.1578  0.1062
 8239SOL    HW136179   0.192   3.061   2.124  0.6740  0.9953 -1.6515
 8239SOL    HW236180   0.067   3.133   2.112  0.0285 -0.3252  2.0159
 8240SOL     OW36181   4.696   2.713   3.005 -0.4858 -0.5021 -0.6305
 8240SOL    HW136182   4.712   2.775   3.076 -1.7722 -0.0416 -0.7429
 8240SOL    HW236183   4.655   2.771   2.941 -0.6921 -0.2795 -0.2990
 8241SOL     OW36184   2.650   1.491  15.720  0.3186  0.0452 -0.4943
 8241SOL    HW136185   2.615   1.483  15.808  0.9700  0.2332 -0.2202
 8241SOL    HW236186   2.738   1.519  15.744 -0.0868 -0.7759  1.9564
 8242SOL     OW36187   1.322   1.990  15.663  0.0977  1.0851 -1.0580
 8242SOL    HW136188   1.377   1.915  15.682 -0.9783  0.8774  1.2226
 8242SOL    HW236189   1.252   1.940  15.622 -1.3742  1.5485  0.9101
 8243SOL     OW36190   3.302   4.583   1.969 -0.4137  0.1177  0.4886
 8243SOL    HW136191   3.389   4.543   1.972  0.1648  1.3876  0.5896
 8243SOL    HW236192   3.261   4.549   2.049  1.0880 -0.3546  1.0684
 8244SOL     OW36193   1.072   2.343  11.908 -0.7066  0.2792  0.1500
 8244SOL    HW136194   1.153   2.362  11.860 -0.6423  1.2327  0.6326
 8244SOL    HW236195   1.063   2.418  11.967  1.0236 -0.6279  1.5684
 8245SOL     OW36196   3.154   0.544   5.177  1.7816  0.5634 -0.1140
 8245SOL    HW136197   3.206   0.482   5.127 -2.3615 -1.2952 -2.0588
 8245SOL    HW236198   3.192   0.622   5.135  1.0190  0.5602 -0.7960
 8246SOL     OW36199   2.266   3.746   2.066  0.1729  0.1702  0.0767
 8246SOL    HW136200   2.215   3.779   2.140  0.8314  2.4075 -0.4653
 8246SOL    HW236201   2.190   3.714   2.017  0.9707 -0.5697 -0.6594
 8247SOL     OW36202   2.226   2.247   2.499  0.3785 -0.4902 -0.3395
 8247SOL    HW136203   2.146   2.218   2.456  2.1384  1.1890 -4.8006
 8247SOL    HW236204   2.270   2.167   2.525  0.2634 -0.3514  0.2756
 8248SOL     OW36205   0.854   0.595   4.406  0.3480 -0.0348 -0.1402
 8248SOL    HW136206   0.856   0.690   4.417 -2.7830  0.0031  0.2976
 8248SOL    HW236207   0.790   0.573   4.338 -1.6259  3.4439  0.5650
 8249SOL     OW36208   1.219   2.232   7.491  0.5839  0.0969  0.0350
 8249SOL    HW136209   1.251   2.279   7.415  0.1007  1.5199  0.7093
 8249SOL    HW236210   1.194   2.300   7.554  0.5999 -2.3594  2.6724
 8250SOL     OW36211   2.317   1.958   8.697  0.1911  0.0586  0.0082
 8250SOL    HW136212   2.311   1.869   8.661 -4.4166 -0.8614  2.9785
 8250SOL    HW236213   2.410   1.955   8.720 -0.3100 -2.0964  1.6835
 8251SOL     OW36214   3.648   3.453   8.101 -0.6149 -0.3909 -0.0339
 8251SOL    HW136215   3.726   3.506   8.113  0.6990 -1.6394 -3.1344
 8251SOL    HW236216   3.621   3.482   8.014  2.5536  0.1340 -0.8272
 8252SOL     OW36217   2.392   0.338   3.533  0.1446 -0.2197 -0.1499
 8252SOL    HW136218   2.422   0.343   3.624 -0.6729  2.7584 -0.0451
 8252SOL    HW236219   2.458   0.398   3.498  1.0172 -0.3891  1.2073
 8253SOL     OW36220   4.467   3.238   5.337 -0.3048 -0.4313 -0.7523
 8253SOL    HW136221   4.385   3.214   5.292 -0.5313  0.2463 -0.6915
 8253SOL    HW236222   4.458   3.198   5.424  0.0125  0.9657 -0.0884
 8254SOL     OW36223   3.173   3.350  13.411 -0.4121  0.6256 -0.2353
 8254SOL    HW136224   3.251   3.300  13.388  0.8415  0.9344  3.2871
 8254SOL    HW236225   3.218   3.429  13.441 -1.0548  0.2124  1.8218
 8255SOL     OW36226   1.649   0.744  10.163 -0.2863 -0.5811  0.2991
 8255SOL    HW136227   1.682   0.674  10.107 -0.0933 -1.1886  1.1746
 8255SOL    HW236228   1.702   0.821  10.141  0.8732 -1.6387 -0.5318
 8256SOL     OW36229   0.265   0.468   6.172 -0.3296  0.4273 -0.5157
 8256SOL    HW136230   0.337   0.488   6.112 -0.5805  0.7462 -0.7142
 8256SOL    HW236231   0.291   0.512   6.253 -1.6929 -1.5003  0.9670
 8257SOL     OW36232   4.440   4.111   7.826  0.0805 -0.3034 -0.2125
 8257SOL    HW136233   4.482   4.143   7.906 -1.2817 -1.2544  0.8900
 8257SOL    HW236234   4.517   4.106   7.770  0.7887  1.3068  0.6046
 8258SOL     OW36235   2.039   0.611  14.908  0.6472 -0.4777  0.5084
 8258SOL    HW136236   2.074   0.522  14.898 -0.7995 -1.1742  1.6770
 8258SOL    HW236237   2.022   0.645  14.820 -0.1248 -0.0168  0.8318
 8259SOL     OW36238   0.342   2.145   2.409 -0.0371 -0.1259  0.0711
 8259SOL    HW136239   0.368   2.058   2.378 -0.2720 -0.1584 -0.0373
 8259SOL    HW236240   0.429   2.183   2.403 -0.4620  0.3679 -2.5751
 8260SOL     OW36241   3.634   2.593   7.943 -0.0731 -0.1164  0.3881
 8260SOL    HW136242   3.703   2.535   7.909 -1.0656 -2.2338  1.9596
 8260SOL    HW236243   3.562   2.529   7.944 -0.2303  0.0598  0.3744
 8261SOL     OW36244   4.051   2.761   2.432 -0.3316  0.1665  0.0789
 8261SOL    HW136245   4.037   2.684   2.378 -0.2140 -0.5210  1.0171
 8261SOL    HW236246   3.995   2.749   2.509  0.2008 -1.1776  0.2521
 8262SOL     OW36247   0.374   4.623   5.450  0.1245 -0.1047  0.3462
 8262SOL    HW136248   0.331   4.585   5.526 -1.6850  2.8369  0.8007
 8262SOL    HW236249   0.316   4.590   5.381  0.3536  0.3200 -0.0508
 8263SOL     OW36250   2.407   3.360  15.077  0.0517 -0.2818 -0.0298
 8263SOL    HW136251   2.476   3.398  15.023 -0.5338  1.1629  0.2328
 8263SOL    HW236252   2.348   3.318  15.013  0.1897  1.3062 -1.1811
 8264SOL     OW36253   0.940   3.910  17.000 -0.2616 -0.4969  0.3937
 8264SOL    HW136254   0.937   3.994  17.046 -1.8873  0.9742 -2.3489
 8264SOL    HW236255   0.867   3.862  17.037  1.8619 -0.8850  4.0171
 8265SOL     OW36256   4.346   3.801   2.154  0.5178  0.1362  0.3805
 8265SOL    HW136257   4.362   3.880   2.103 -0.7130  0.7974  1.0246
 8265SOL    HW236258   4.251   3.802   2.146  0.4426 -1.3322  0.9860
 8266SOL     OW36259   2.903   0.998   8.844  0.1270 -0.3741  0.0386
 8266SOL    HW136260   2.883   1.013   8.751 -0.4902 -0.7932  0.0974
 8266SOL    HW236261   2.925   1.088   8.866 -1.2460  0.0216 -0.1783
 8267SOL     OW36262   1.742   0.969   5.192  0.2765  0.6659 -0.3174
 8267SOL    HW136263   1.673   1.011   5.243  0.9487  2.3287 -0.7761
 8267SOL    HW236264   1.733   1.018   5.111  0.3476  1.0800 -0.0738
 8268SOL     OW36265   0.347   3.285  15.641  0.3879 -0.0383 -0.0721
 8268SOL    HW136266   0.364   3.364  15.692  2.0929  0.5385 -1.5344
 8268SOL    HW236267   0.251   3.286  15.645  0.3062 -0.1778 -2.1706
 8269SOL     OW36268   0.857   1.672   2.016 -0.0874  0.2335  0.4618
 8269SOL    HW136269   0.766   1.676   2.043 -0.6129 -2.1601 -0.9726
 8269SOL    HW236270   0.851   1.593   1.963 -1.4325  0.1610  0.7397
 8270SOL     OW36271   0.524   3.406   8.405  0.3468 -0.2477 -0.5515
 8270SOL    HW136272   0.535   3.488   8.357 -0.5581 -0.6999 -1.5302
 8270SOL    HW236273   0.504   3.347   8.332  0.1414  0.7198 -1.2787
 8271SOL     OW36274   0.500   4.110   0.877 -0.0875 -0.1367 -0.6792
 8271SOL    HW136275   0.475   4.039   0.936  0.1352 -0.5645 -1.0984
 8271SOL    HW236276   0.585   4.128   0.916  0.7140 -2.7534 -1.2507
 8272SOL     OW36277   0.726   3.354   5.662 -0.2315  0.6618 -0.3871
 8272SOL    HW136278   0.756   3.445   5.657 -1.6470  1.2507  1.8302
 8272SOL    HW236279   0.783   3.312   5.727  0.6994  1.0672 -0.9444
 8273SOL     OW36280   4.134   0.666   5.495  0.4256 -0.2118 -0.4675
 8273SOL    HW136281   4.163   0.758   5.500 -0.7243  0.1416 -0.2988
 8273SOL    HW236282   4.051   0.683   5.450  0.8703  0.4787 -1.0352
 8274SOL     OW36283   2.029   1.400   8.636  0.4436 -0.5967 -0.8513
 8274SOL    HW136284   2.067   1.325   8.590  2.2500 -0.2601  0.0730
 8274SOL    HW236285   2.065   1.386   8.724  0.3391 -0.6879 -0.8236
 8275SOL     OW36286   3.920   0.785  11.407 -0.4045  0.1627  0.2964
 8275SOL    HW136287   3.914   0.711  11.468 -2.3533  0.8952  1.0022
 8275SOL    HW236288   3.900   0.860  11.463  0.8833  0.5971  0.1791
 8276SOL     OW36289   0.278   2.284  16.383 -0.7208 -0.1534 -0.9985
 8276SOL    HW136290   0.316   2.362  16.343  0.3783  0.3673  1.0622
 8276SOL    HW236291   0.359   2.243  16.415 -2.1805 -2.9252 -0.8414
 8277SOL     OW36292   0.069   0.823   8.462 -0.5325  0.5920  0.0443
 8277SOL    HW136293   4.708   0.830   8.505  0.5651 -0.5630  2.4567
 8277SOL    HW236294   0.091   0.731   8.472 -1.6838  0.4043  0.9822
 8278SOL     OW36295   0.675   1.809   3.759  0.0126 -0.5730 -0.0747
 8278SOL    HW136296   0.634   1.750   3.696  1.0200  0.4553 -1.7118
 8278SOL    HW236297   0.718   1.871   3.699  0.2730 -1.6880 -1.0299
 8279SOL     OW36298   3.670   1.549   3.259  0.2936  0.0773  0.1473
 8279SOL    HW136299   3.749   1.536   3.311  1.1016 -1.8869 -1.5533
 8279SOL    HW236300   3.720   1.563   3.178 -0.6904  0.7573 -0.3463
 8280SOL     OW36301   3.256   2.477   6.141  0.8640 -0.1900 -0.4315
 8280SOL    HW136302   3.302   2.452   6.221  1.7344  2.9606  0.0692
 8280SOL    HW236303   3.215   2.562   6.160 -0.6451 -1.2256  0.9430
 8281SOL     OW36304   4.700   1.668  17.244 -0.0149 -1.2157  0.7122
 8281SOL    HW136305   4.607   1.651  17.232  0.6410 -3.3238 -1.4410
 8281SOL    HW236306   0.009   1.665  17.154  1.7498 -3.3171  1.4654
 8282SOL     OW36307   1.868   2.412   6.661  0.1984 -0.8255  0.1315
 8282SOL    HW136308   1.940   2.475   6.658 -1.6342  1.2075 -0.3185
 8282SOL    HW236309   1.839   2.428   6.751 -0.0284 -1.4429  0.1682
 8283SOL     OW36310   2.796   4.417  17.582  1.1823 -0.3144 -0.7444
 8283SOL    HW136311   2.863   4.474  17.620  1.7786 -2.2288  1.0854
 8283SOL    HW236312   2.841   4.350  17.531  1.5766 -0.8216  0.2746
 8284SOL     OW36313   4.500   2.813   7.806 -0.1821 -0.4914  0.0374
 8284SOL    HW136314   4.421   2.856   7.772  0.2814  0.5162  0.2395
 8284SOL    HW236315   4.493   2.726   7.767  0.0848 -1.2176  1.6098
 8285SOL     OW36316   3.459   1.593   7.139 -0.3221  0.3368  0.7633
 8285SOL    HW136317   3.535   1.615   7.086 -0.7460 -0.0821 -0.0137
 8285SOL    HW236318   3.498   1.560   7.220  2.2666  2.3975  0.3335
 8286SOL     OW36319   2.403   4.197   8.641 -0.0761  0.2135 -0.1088
 8286SOL    HW136320   2.447   4.274   8.606  0.4442  0.2037  0.5104
 8286SOL    HW236321   2.484   4.148   8.657  0.5246  0.5247 -2.3296
 8287SOL     OW36322   4.545   2.327   7.735  0.1087 -0.3509  0.4323
 8287SOL    HW136323   4.635   2.361   7.736  0.7347 -2.0040 -0.3681
 8287SOL    HW236324   4.505   2.404   7.776  0.6522  0.0726  0.1590
 8288SOL     OW36325   2.770   1.516   0.633  0.3851  0.1588 -0.1494
 8288SOL    HW136326   2.704   1.446   0.640  1.8049 -1.2976 -1.2344
 8288SOL    HW236327   2.852   1.473   0.657  0.7946  0.1821 -1.4957
 8289SOL     OW36328   0.070   2.876  10.931  0.3651 -0.2072  0.0941
 8289SOL    HW136329   0.014   2.947  10.962  2.3353  1.5542 -0.3175
 8289SOL    HW236330   0.090   2.820  11.006 -0.5351  0.8913  1.1483
 8290SOL     OW36331   2.405   2.501   7.777  0.1921  0.0940  0.3390
 8290SOL    HW136332   2.396   2.421   7.726  1.0876 -0.3801  0.9256
 8290SOL    HW236333   2.351   2.483   7.854 -1.0837  2.8650  0.0773
 8291SOL     OW36334   3.570   0.379   9.575 -0.0195 -0.2842 -0.1174
 8291SOL    HW136335   3.662   0.369   9.551 -0.1612  1.8314 -1.5468
 8291SOL    HW236336   3.576   0.352   9.666  0.9670 -2.4302 -0.8293
 8292SOL     OW36337   2.294   1.614   4.322 -0.1101 -0.7847  0.3910
 8292SOL    HW136338   2.283   1.569   4.238  1.1605 -1.3795  0.5385
 8292SOL    HW236339   2.390   1.613   4.319 -0.1359  0.7562 -0.7364
 8293SOL     OW36340   1.413   2.312  16.945  0.4009 -0.0969 -0.1586
 8293SOL    HW136341   1.406   2.230  16.993 -0.9048  0.3744  0.4531
 8293SOL    HW236342   1.371   2.298  16.860  0.3407 -1.3668  0.0822
 8294SOL     OW36343   3.973   3.203   5.422  0.7004 -0.1903  0.1604
 8294SOL    HW136344   4.016   3.263   5.483  2.6978  0.0489 -1.5078
 8294SOL    HW236345   4.053   3.157   5.396 -0.3355 -0.7469 -2.0247
 8295SOL     OW36346   4.308   2.543  10.316 -0.1241  0.1927 -0.3232
 8295SOL    HW136347   4.298   2.616  10.377  3.2207  0.4558 -0.0917
 8295SOL    HW236348   4.388   2.495  10.340 -0.0420  0.0456 -0.8892
 8296SOL     OW36349   1.230   4.366  11.898 -0.0956 -0.1562 -0.1766
 8296SOL    HW136350   1.158   4.427  11.910 -0.3061  0.1210 -2.7429
 8296SOL    HW236351   1.307   4.423  11.904 -0.1458 -0.4163  3.0418
 8297SOL     OW36352   1.656   0.495   9.636  0.3048  0.1119  0.5012
 8297SOL    HW136353   1.617   0.530   9.716  2.2780  3.0256  0.1735
 8297SOL    HW236354   1.672   0.404   9.660 -0.0692  0.0971  0.6977
 8298SOL     OW36355   1.960   1.162   0.655 -0.0700  0.0389 -0.2794
 8298SOL    HW136356   1.881   1.108   0.649  0.3452 -0.5434 -0.4966
 8298SOL    HW236357   2.021   1.091   0.673  0.2265  0.2566 -0.4178
 8299SOL     OW36358   4.511   0.195   1.501 -0.1752 -0.1052 -0.0830
 8299SOL    HW136359   4.420   0.175   1.525 -0.6939 -0.4515 -2.3334
 8299SOL    HW236360   4.554   0.109   1.497  0.4564  0.1923  0.3513
 8300SOL     OW36361   2.272   1.695  15.662  0.2048 -0.1979  0.6298
 8300SOL    HW136362   2.338   1.645  15.710 -0.1896 -1.7071 -0.4096
 8300SOL    HW236363   2.210   1.631  15.628 -0.6497  0.5820  0.6978
 8301SOL     OW36364   4.470   1.503  15.487 -0.0749 -0.1645 -0.1672
 8301SOL    HW136365   4.471   1.454  15.569  1.5007 -1.0216 -0.6980
 8301SOL    HW236366   4.375   1.508  15.471 -0.1495  0.7316  0.5951
 8302SOL     OW36367   0.353   3.887  12.867 -0.1881  0.4991  0.4602
 8302SOL    HW136368   0.350   3.803  12.821  2.8914  1.4405 -1.4500
 8302SOL    HW236369   0.362   3.853  12.956  2.5685  1.6873  0.6331
 8303SOL     OW36370   3.234   0.871   6.382 -0.2089  0.3965 -0.3005
 8303SOL    HW136371   3.274   0.863   6.469 -2.5638 -1.5019  0.6138
 8303SOL    HW236372   3.143   0.853   6.405 -0.4340  0.6917 -0.9514
 8304SOL     OW36373   1.789   4.064   4.025 -0.3836 -0.6116 -0.3249
 8304SOL    HW136374   1.789   4.002   3.952  1.2223  0.5042 -1.2564
 8304SOL    HW236375   1.880   4.090   4.023 -1.2097  2.1718 -1.2179
 8305SOL     OW36376   4.633   3.694   8.806  0.5222  0.2847 -0.0962
 8305SOL    HW136377   4.715   3.703   8.758  1.8333 -0.9420  1.9013
 8305SOL    HW236378   4.579   3.738   8.741  0.3499  1.0324  0.5573
 8306SOL     OW36379   0.877   1.875  17.653  0.3041  0.5409 -0.8831
 8306SOL    HW136380   0.838   1.869  17.566 -0.0079  0.9430 -0.7708
 8306SOL    HW236381   0.964   1.838  17.641 -1.3859 -2.9659 -2.3680
 8307SOL     OW36382   1.597   2.069   4.917  0.0074  0.0627  0.3523
 8307SOL    HW136383   1.652   1.991   4.919 -1.4457 -0.9028  2.3643
 8307SOL    HW236384   1.665   2.135   4.930  0.7100 -0.6877  0.5071
 8308SOL     OW36385   0.853   4.536  12.743 -0.3925 -0.3058  0.0861
 8308SOL    HW136386   0.825   4.618  12.702  0.3454 -0.2964 -0.4137
 8308SOL    HW236387   0.911   4.501  12.675  0.1414  0.5428  0.1082
 8309SOL     OW36388   3.927   2.056   5.534  0.2777  0.4704 -0.4693
 8309SOL    HW136389   3.994   1.990   5.515 -0.6341 -1.6148  3.5159
 8309SOL    HW236390   3.980   2.135   5.522  2.1550 -0.1081  4.0686
 8310SOL     OW36391   2.010   2.297   1.729  0.2314  0.0608 -0.0264
 8310SOL    HW136392   2.081   2.270   1.787  0.6825  0.9524 -0.1723
 8310SOL    HW236393   2.059   2.357   1.673 -0.9927 -0.4286 -1.6247
 8311SOL     OW36394   1.755   0.907   8.645 -0.0425  0.1383 -0.3549
 8311SOL    HW136395   1.749   0.937   8.736 -3.9509  3.6730 -1.8016
 8311SOL    HW236396   1.825   0.962   8.610  1.7868 -2.0676 -0.1780
 8312SOL     OW36397   1.633   4.386   7.468  0.0831  0.5577  0.2550
 8312SOL    HW136398   1.631   4.297   7.433  0.4227  0.1166  1.3820
 8312SOL    HW236399   1.578   4.377   7.545  0.8553 -0.3705  0.7039
 8313SOL     OW36400   3.314   1.106   6.846  0.1012  0.5557 -0.2395
 8313SOL    HW136401   3.360   1.189   6.834 -0.7828  1.1355  0.3616
 8313SOL    HW236402   3.240   1.127   6.903  0.2119 -1.3962  0.5891
 8314SOL     OW36403   2.512   1.212   5.244  0.9891 -0.1433 -0.2057
 8314SOL    HW136404   2.551   1.133   5.208 -0.9951 -1.6487  0.9337
 8314SOL    HW236405   2.587   1.231   5.300  1.9729 -1.4482 -1.0966
 8315SOL     OW36406   0.638   1.987   5.323  0.0862 -0.7256 -0.1553
 8315SOL    HW136407   0.724   1.975   5.282 -0.0652  0.8723 -0.9762
 8315SOL    HW236408   0.577   1.985   5.249  2.0287  1.1878 -1.8345
 8316SOL     OW36409   0.530   2.748   5.666  0.3191 -0.9380 -0.3065
 8316SOL    HW136410   0.544   2.842   5.678  3.5417 -1.0533 -3.2318
 8316SOL    HW236411   0.565   2.708   5.746 -0.3645 -1.9878 -0.5266
 8317SOL     OW36412   4.667   3.061   1.042  0.0362 -0.2196  0.4232
 8317SOL    HW136413   4.642   2.970   1.029 -0.7559 -0.0932  1.0337
 8317SOL    HW236414   0.034   3.060   1.015 -0.3095  1.4193 -0.8597
 8318SOL     OW36415   2.371   0.505  11.717 -0.2708  0.0847  0.6844
 8318SOL    HW136416   2.410   0.526  11.802  0.1882  0.7589  0.3140
 8318SOL    HW236417   2.406   0.578  11.665  1.9500 -0.9767  0.6976
 8319SOL     OW36418   0.091   0.093   3.505  0.5804  0.0853  0.0600
 8319SOL    HW136419   0.120   0.002   3.516  0.4186  0.0292  0.0301
 8319SOL    HW236420   0.038   0.109   3.582  1.6503 -0.1253  0.8453
 8320SOL     OW36421   0.460   4.038   5.247 -0.5681 -0.2387 -0.6203
 8320SOL    HW136422   0.384   3.985   5.270  0.3903 -0.8569  1.1571
 8320SOL    HW236423   0.443   4.044   5.154  0.7450  0.3651 -0.8178
 8321SOL     OW36424   1.524   1.527   1.595 -0.2172  0.0662 -0.3428
 8321SOL    HW136425   1.479   1.455   1.552 -0.4809  1.3596 -2.2450
 8321SOL    HW236426   1.455   1.593   1.596  0.8023  1.1519 -2.0584
 8322SOL     OW36427   0.823   2.295   8.690 -0.3087 -0.2685  0.4553
 8322SOL    HW136428   0.767   2.259   8.760  0.0879 -0.0772  0.8730
 8322SOL    HW236429   0.857   2.213   8.654 -2.2178 -0.9788  0.2584
 8323SOL     OW36430   4.532   1.513   8.741 -0.3817  0.0238  0.4061
 8323SOL    HW136431   4.591   1.497   8.667  0.7765  0.9129  1.1372
 8323SOL    HW236432   4.581   1.458   8.802 -0.1115 -1.5440 -1.2329
 8324SOL     OW36433   2.157   3.034   5.964  0.5748 -0.2759 -0.5411
 8324SOL    HW136434   2.173   2.948   5.923 -1.5005 -0.9516  0.0352
 8324SOL    HW236435   2.220   3.024   6.035  1.0954 -1.5544 -1.1795
 8325SOL     OW36436   4.447   3.639   8.234 -0.4404 -1.1510  0.1317
 8325SOL    HW136437   4.355   3.625   8.211 -0.3466 -1.6807  0.0808
 8325SOL    HW236438   4.442   3.598   8.320 -1.6875  1.2007  1.1653
 8326SOL     OW36439   1.510   0.453   0.760 -0.0924  0.2827 -0.4496
 8326SOL    HW136440   1.541   0.471   0.849  1.0739  0.9749 -0.9966
 8326SOL    HW236441   1.583   0.400   0.729  0.7467  1.1671 -0.0100
 8327SOL     OW36442   2.155   3.544   2.329 -0.6024 -0.1466  0.0605
 8327SOL    HW136443   2.124   3.496   2.252 -2.0733  0.3843  0.3255
 8327SOL    HW236444   2.121   3.633   2.316 -1.0705 -0.4745 -0.9646
 8328SOL     OW36445   2.503   3.700   7.627  0.4583 -0.3357 -0.2299
 8328SOL    HW136446   2.533   3.789   7.644 -2.2679  0.2938  1.3392
 8328SOL    HW236447   2.556   3.654   7.692  0.1915 -0.1072  0.1484
 8329SOL     OW36448   2.516   1.915   6.502 -0.0876 -0.2685  0.0657
 8329SOL    HW136449   2.467   1.996   6.513 -0.5667 -0.8248  1.8990
 8329SOL    HW236450   2.534   1.913   6.407  1.7337 -2.6631  0.4668
 8330SOL     OW36451   2.169   2.836   7.910  0.5507  0.4115  0.1116
 8330SOL    HW136452   2.101   2.873   7.967  2.0921  2.1410  0.8368
 8330SOL    HW236453   2.143   2.743   7.912 -2.2402  1.1671 -0.7690
 8331SOL     OW36454   4.607   2.111   8.822 -0.0111  0.2044 -0.6313
 8331SOL    HW136455   4.534   2.173   8.816 -1.0817 -1.0521 -0.6510
 8331SOL    HW236456   4.636   2.097   8.732  2.9370  0.9377  0.1966
 8332SOL     OW36457   2.971   0.843  16.061 -0.0958  0.0974 -0.1842
 8332SOL    HW136458   2.887   0.843  16.107  0.9972  0.9101  1.8355
 8332SOL    HW236459   2.936   0.848  15.972  0.0699 -0.7929 -0.3036
 8333SOL     OW36460   0.090   0.495   2.173  0.5809  0.2456 -0.2471
 8333SOL    HW136461   0.005   0.474   2.213  0.8136 -0.4560 -0.1315
 8333SOL    HW236462   0.153   0.484   2.245  0.2707 -2.9389 -0.4618
 8334SOL     OW36463   2.703   4.006   7.938  0.0554 -0.4176  0.3126
 8334SOL    HW136464   2.647   4.058   7.995  2.6826  1.5225  1.1183
 8334SOL    HW236465   2.788   4.019   7.980  0.2962 -0.2996 -0.2167
 8335SOL     OW36466   2.720   1.477  13.379 -0.1157 -0.6599 -0.5105
 8335SOL    HW136467   2.707   1.436  13.465 -2.7106 -0.3632 -0.7552
 8335SOL    HW236468   2.665   1.416  13.329 -0.0554 -2.0871  1.1461
 8336SOL     OW36469   0.401   4.459   5.057  0.2596  0.4194  0.3064
 8336SOL    HW136470   0.383   4.415   5.140  3.1742 -0.0592  0.6791
 8336SOL    HW236471   0.488   4.496   5.070  0.5897 -0.7458  1.4890
 8337SOL     OW36472   4.570   3.815   0.152  0.2272  0.6011  0.4273
 8337SOL    HW136473   4.622   3.807   0.232  1.1789 -1.5956 -0.3801
 8337SOL    HW236474   4.629   3.867   0.097  2.0192 -1.5946  0.2542
 8338SOL     OW36475   3.352   0.106   7.046 -0.3999 -0.0745  0.2447
 8338SOL    HW136476   3.342   0.159   7.126 -0.4444  1.9307 -1.0782
 8338SOL    HW236477   3.298   0.034   7.078 -2.0378  1.5659  1.1905
 8339SOL     OW36478   3.868   4.473   1.869 -0.6032 -0.1220  0.5340
 8339SOL    HW136479   3.925   4.464   1.793 -1.9349 -1.6387 -0.2815
 8339SOL    HW236480   3.870   4.386   1.907  0.9978  0.2083  1.2075
 8340SOL     OW36481   2.866   0.336   7.995  1.0388 -0.2205 -0.2199
 8340SOL    HW136482   2.777   0.313   7.967  0.4187  1.1845  0.5673
 8340SOL    HW236483   2.911   0.364   7.916 -1.0509  2.4499 -0.4491
 8341SOL     OW36484   4.581   2.109   6.701  0.4933  0.7880 -0.1265
 8341SOL    HW136485   4.601   2.024   6.740  1.9630  1.0072 -0.3850
 8341SOL    HW236486   4.630   2.096   6.619  1.2602 -1.1832  0.6579
 8342SOL     OW36487   3.708   0.939   8.399  0.8752  0.7943  0.0304
 8342SOL    HW136488   3.618   0.927   8.429  0.7811  0.6934 -0.2899
 8342SOL    HW236489   3.729   1.028   8.426 -0.1320  0.9448  0.3199
 8343SOL     OW36490   0.847   1.589   1.646 -0.2826  0.0974  0.1364
 8343SOL    HW136491   0.821   1.570   1.736 -2.7483 -0.8337 -0.7804
 8343SOL    HW236492   0.936   1.554   1.638  0.0968  1.4909 -1.7926
 8344SOL     OW36493   3.724   3.780  13.803  0.0903  0.3587 -0.1008
 8344SOL    HW136494   3.681   3.852  13.850  0.6956 -0.8995  2.4173
 8344SOL    HW236495   3.782   3.750  13.874 -0.2257 -1.0199 -0.4322
 8345SOL     OW36496   1.631   4.288  15.651  0.3366 -0.3111  0.2404
 8345SOL    HW136497   1.725   4.289  15.635  0.3021  0.0620  0.0527
 8345SOL    HW236498   1.586   4.349  15.592  0.6907 -0.7643 -0.4836
 8346SOL     OW36499   1.265   2.774  10.503 -0.3646  0.3292  0.5897
 8346SOL    HW136500   1.247   2.817  10.419  0.9018  0.2655  0.2863
 8346SOL    HW236501   1.175   2.781  10.537  0.6192  1.3864  3.0205
 8347SOL     OW36502   4.188   1.223  10.781 -0.1328  0.5885 -0.3519
 8347SOL    HW136503   4.112   1.178  10.745  0.0604 -0.6293  0.7355
 8347SOL    HW236504   4.197   1.184  10.868  2.1005  1.4953 -0.1679
 8348SOL     OW36505   2.993   1.936   9.645  0.1040  0.5804 -0.3551
 8348SOL    HW136506   3.016   1.892   9.727  4.7507  3.4599 -0.0891
 8348SOL    HW236507   2.929   2.001   9.672  1.0686  1.0404  0.8329
 8349SOL     OW36508   4.148   2.437   5.279 -0.4412 -0.6897  0.0244
 8349SOL    HW136509   4.207   2.377   5.234  0.1568 -0.4156  0.4367
 8349SOL    HW236510   4.105   2.480   5.205  1.0460 -1.1587 -1.1106
 8350SOL     OW36511   1.842   1.872   5.070 -0.6922  0.4868 -0.3604
 8350SOL    HW136512   1.779   1.820   5.120 -1.8174  1.0585 -1.1934
 8350SOL    HW236513   1.921   1.825   5.098 -1.4130  0.4178  1.5527
 8351SOL     OW36514   1.154   2.693  11.551 -0.2274 -0.1242  0.3091
 8351SOL    HW136515   1.121   2.674  11.464 -1.7242 -2.7167  1.4416
 8351SOL    HW236516   1.244   2.719  11.532 -1.1952  1.3536 -2.2343
 8352SOL     OW36517   0.862   2.185  10.272  0.3315  0.0712 -0.1349
 8352SOL    HW136518   0.950   2.171  10.306 -0.3738  1.4532  2.2052
 8352SOL    HW236519   0.812   2.131  10.333  0.3484  3.3729  2.8081
 8353SOL     OW36520   4.093   0.692  16.749  0.0462 -0.0032 -0.0184
 8353SOL    HW136521   4.032   0.618  16.739  0.5129 -0.4630  0.4694
 8353SOL    HW236522   4.109   0.712  16.657 -1.3790 -1.8626 -0.6972
 8354SOL     OW36523   0.421   0.761   1.394 -0.3350  0.1624 -0.0798
 8354SOL    HW136524   0.472   0.821   1.448 -1.0496  1.0225 -0.3649
 8354SOL    HW236525   0.439   0.685   1.450 -0.5926  0.4079  0.3398
 8355SOL     OW36526   1.316   0.367   3.332 -0.5171  0.0034  0.2703
 8355SOL    HW136527   1.386   0.314   3.293 -0.3074  0.0913  0.5311
 8355SOL    HW236528   1.333   0.359   3.426  1.0575 -1.0673 -0.1128
 8356SOL     OW36529   4.050   0.833   8.680  0.0507 -0.0647 -0.1207
 8356SOL    HW136530   3.963   0.795   8.677 -0.8146  1.8898 -0.0960
 8356SOL    HW236531   4.047   0.885   8.600 -0.2235  3.0049  1.8670
 8357SOL     OW36532   2.868   1.050   1.872  0.3167 -0.7011 -0.1901
 8357SOL    HW136533   2.810   1.076   1.801  1.3417  0.9481 -0.4277
 8357SOL    HW236534   2.908   1.133   1.900  1.6268 -0.5634 -2.4424
 8358SOL     OW36535   1.150   2.343   0.761  0.0761  0.4114 -0.7296
 8358SOL    HW136536   1.147   2.435   0.785 -1.5183 -0.4231  2.2828
 8358SOL    HW236537   1.094   2.305   0.828  0.2540 -0.5292 -1.1014
 8359SOL     OW36538   1.769   0.219   9.048 -0.3050  0.2317  0.4977
 8359SOL    HW136539   1.728   0.268   8.977 -0.0596 -0.6131 -0.2254
 8359SOL    HW236540   1.732   0.261   9.126  0.4622 -0.1781  1.0896
 8360SOL     OW36541   3.759   2.567  16.477  0.1337 -0.1871  0.0664
 8360SOL    HW136542   3.816   2.643  16.492 -2.6532  2.3233 -2.1464
 8360SOL    HW236543   3.672   2.591  16.510  0.4469  0.6070  0.3228
 8361SOL     OW36544   3.311   0.543   6.256 -0.1243 -0.1863 -0.7528
 8361SOL    HW136545   3.361   0.623   6.242 -0.3648  0.1163  0.0904
 8361SOL    HW236546   3.370   0.491   6.310  0.2210  2.6054  1.5727
 8362SOL     OW36547   2.652   3.638  15.496 -0.2819 -0.4260 -0.0629
 8362SOL    HW136548   2.636   3.569  15.432  0.4096  0.0554 -0.7587
 8362SOL    HW236549   2.607   3.711  15.454 -0.4151 -0.3878  0.1470
 8363SOL     OW36550   3.985   0.467   7.943  0.0325 -0.1855  0.0794
 8363SOL    HW136551   3.971   0.375   7.923 -0.5500 -0.6336  2.6465
 8363SOL    HW236552   3.898   0.503   7.929 -0.4273 -1.7089 -0.9040
 8364SOL     OW36553   1.506   4.063   4.133  0.0975  0.6423  0.1606
 8364SOL    HW136554   1.597   4.069   4.103  0.1086  0.3599  0.1374
 8364SOL    HW236555   1.463   4.024   4.056  2.5718 -0.9287 -0.4423
 8365SOL     OW36556   3.192   2.188   0.591 -0.3576  0.0292  0.0658
 8365SOL    HW136557   3.275   2.201   0.637  0.6447  0.2279 -1.8035
 8365SOL    HW236558   3.219   2.123   0.526  1.9519  0.6782  0.3783
 8366SOL     OW36559   3.304   1.475   1.430 -0.0552  0.0735 -0.4900
 8366SOL    HW136560   3.388   1.462   1.474 -2.1642  0.1752  3.6181
 8366SOL    HW236561   3.305   1.387   1.393 -0.4248  0.7369 -2.0448
 8367SOL     OW36562   0.283   1.621   1.660  0.4286 -0.6581 -0.3380
 8367SOL    HW136563   0.199   1.612   1.705  0.3693 -1.0572 -0.5240
 8367SOL    HW236564   0.304   1.707   1.695  0.2303 -0.7490  0.0093
 8368SOL     OW36565   0.070   0.923   7.309  0.1968  0.1707 -0.5066
 8368SOL    HW136566   4.702   0.905   7.294  0.0642  0.3229  0.1574
 8368SOL    HW236567   0.078   1.018   7.297  0.4258 -0.0613 -2.2428
 8369SOL     OW36568   1.682   3.129   3.186 -0.1718  0.2436  0.4278
 8369SOL    HW136569   1.738   3.076   3.243  1.3286  0.4503 -0.8499
 8369SOL    HW236570   1.732   3.120   3.105 -0.5438 -0.9409  0.3342
 8370SOL     OW36571   2.254   2.301   8.100  0.1921  0.4930  0.2094
 8370SOL    HW136572   2.240   2.295   8.194 -0.0497 -0.0099  0.1423
 8370SOL    HW236573   2.164   2.295   8.068  0.1400 -1.6373  0.7417
 8371SOL     OW36574   3.507   2.304  11.295 -0.4584 -0.4789  0.2917
 8371SOL    HW136575   3.415   2.308  11.269 -0.1498  1.2829 -0.5645
 8371SOL    HW236576   3.552   2.243  11.237  0.9793  1.5949 -0.8062
 8372SOL     OW36577   0.689   0.433   2.431 -0.9374  0.4759 -0.1264
 8372SOL    HW136578   0.753   0.380   2.478 -0.9850  0.4962 -0.0382
 8372SOL    HW236579   0.738   0.468   2.356 -3.2757 -0.2990 -2.0148
 8373SOL     OW36580   3.508   0.069   2.732  1.0650  0.6210  0.6150
 8373SOL    HW136581   3.467   0.030   2.655 -1.9524  1.1646  1.9369
 8373SOL    HW236582   3.458   0.150   2.741 -0.0878 -0.2372  1.9145
 8374SOL     OW36583   1.574   3.286   6.214 -0.3398  1.1756  0.0986
 8374SOL    HW136584   1.578   3.288   6.118  0.1892  0.1011  0.0976
 8374SOL    HW236585   1.526   3.365   6.237 -0.2569  1.2065  0.1641
 8375SOL     OW36586   0.795   2.883   7.971  0.0810 -0.1310 -0.2964
 8375SOL    HW136587   0.766   2.810   8.027  0.1617 -2.1200 -2.8230
 8375SOL    HW236588   0.885   2.856   7.955 -0.2650 -1.2212 -0.4242
 8376SOL     OW36589   4.680   2.116   8.546 -0.0895 -0.4426 -0.7733
 8376SOL    HW136590   4.703   2.065   8.468  0.7606 -1.7697  0.3482
 8376SOL    HW236591   0.007   2.195   8.544 -2.5336  1.1753 -0.4552
 8377SOL     OW36592   3.395   4.393  10.054  0.3124  0.1954 -0.0224
 8377SOL    HW136593   3.346   4.398  10.136  1.2450  0.5034  0.5154
 8377SOL    HW236594   3.418   4.485  10.040  2.6773 -0.2592  0.9735
 8378SOL     OW36595   3.494   4.236   5.872 -0.3711 -0.5307 -0.3133
 8378SOL    HW136596   3.460   4.171   5.934 -1.2660  0.4124  0.2015
 8378SOL    HW236597   3.559   4.183   5.827  0.0346 -0.6194  0.3727
 8379SOL     OW36598   2.689   4.490  13.397  0.5833  0.6208  0.3098
 8379SOL    HW136599   2.724   4.563  13.448  0.4982  1.8379 -1.3706
 8379SOL    HW236600   2.661   4.427  13.463 -2.7149  1.9505  0.1804
 8380SOL     OW36601   1.756   1.642   4.733 -0.1335  0.1969 -0.4922
 8380SOL    HW136602   1.775   1.612   4.644 -1.9062  0.1569 -0.8467
 8380SOL    HW236603   1.743   1.736   4.721  0.0669  0.0608 -1.7943
 8381SOL     OW36604   0.298   4.322   4.836 -0.4564 -0.0378 -0.0406
 8381SOL    HW136605   0.315   4.364   4.920  0.4362 -1.4054  0.4560
 8381SOL    HW236606   0.387   4.301   4.810 -0.3076 -0.1884  0.5893
 8382SOL     OW36607   4.268   0.437   8.362 -0.3163  0.0372  0.6825
 8382SOL    HW136608   4.249   0.343   8.364 -0.3607  0.0640  1.4910
 8382SOL    HW236609   4.321   0.440   8.442 -1.3991  0.3014  1.3877
 8383SOL     OW36610   2.608   2.861  13.170  0.6377  0.3891 -0.0395
 8383SOL    HW136611   2.524   2.828  13.200  1.4447 -0.3342  1.3855
 8383SOL    HW236612   2.649   2.779  13.143  1.3160 -0.0223  2.3120
 8384SOL     OW36613   2.454   0.173   2.957  0.1445  0.0191 -0.0097
 8384SOL    HW136614   2.386   0.110   2.931  1.1193 -1.0318 -0.0534
 8384SOL    HW236615   2.455   0.230   2.880 -2.8768  2.6666  1.9297
 8385SOL     OW36616   3.452   4.708   4.434  0.1956 -0.3593 -0.8402
 8385SOL    HW136617   3.505   4.657   4.496  0.0985 -0.1946 -0.6244
 8385SOL    HW236618   3.441   4.650   4.358 -1.2256  1.4394 -2.0082
 8386SOL     OW36619   0.150   1.329   5.681  0.4379 -0.1778  0.4781
 8386SOL    HW136620   0.120   1.409   5.637 -0.0801  0.2365  1.5759
 8386SOL    HW236621   0.116   1.348   5.768 -0.9741 -0.1397 -0.0883
 8387SOL     OW36622   3.310   3.345   4.390  0.2949  1.0470 -0.4242
 8387SOL    HW136623   3.318   3.372   4.298 -0.4344 -0.7629 -1.0213
 8387SOL    HW236624   3.216   3.328   4.390  0.2395  1.4221  2.8512
 8388SOL     OW36625   0.780   2.177  14.090 -0.2610 -0.2772  0.2176
 8388SOL    HW136626   0.849   2.117  14.062 -1.4414 -1.1513 -0.8325
 8388SOL    HW236627   0.795   2.249  14.028 -0.6598 -0.8543 -0.5562
 8389SOL     OW36628   3.777   3.490  13.110 -0.1084  0.0560 -0.0360
 8389SOL    HW136629   3.699   3.435  13.102  0.4801 -0.8241  0.2115
 8389SOL    HW236630   3.801   3.496  13.202 -1.3572  3.1456  0.0647
 8390SOL     OW36631   2.217   1.789   8.209 -0.0122 -0.1098 -0.0355
 8390SOL    HW136632   2.159   1.752   8.143 -0.1245  0.5367 -0.2949
 8390SOL    HW236633   2.153   1.844   8.254  2.2064  2.6045 -0.1964
 8391SOL     OW36634   3.588   3.176  16.603  0.0923  0.6464 -0.5304
 8391SOL    HW136635   3.560   3.268  16.597  0.9925  0.8875 -1.1541
 8391SOL    HW236636   3.672   3.185  16.648  0.0988 -0.5889 -0.3072
 8392SOL     OW36637   0.406   4.321   3.496 -0.4531 -0.2522 -0.4057
 8392SOL    HW136638   0.348   4.357   3.428  0.7558  2.5953  0.0668
 8392SOL    HW236639   0.370   4.340   3.583 -0.5860  1.6100 -0.8650
 8393SOL     OW36640   1.440   2.001   6.117 -0.0134 -0.6899 -0.0538
 8393SOL    HW136641   1.398   1.916   6.124 -0.3357 -0.7196 -2.2388
 8393SOL    HW236642   1.534   1.984   6.121  0.3206  1.1639  0.1900
 8394SOL     OW36643   2.203   0.319   1.304  0.2685 -0.1010 -0.2098
 8394SOL    HW136644   2.188   0.247   1.366 -2.6338  1.3057  0.7329
 8394SOL    HW236645   2.297   0.338   1.316  0.2892  0.5504 -1.3738
 8395SOL     OW36646   1.099   3.363  14.626  0.0107  0.1561 -0.4844
 8395SOL    HW136647   1.087   3.439  14.569 -0.9740  1.3944  1.3914
 8395SOL    HW236648   1.168   3.317  14.579  0.3969 -0.8082  1.0214
 8396SOL     OW36649   3.056   2.617   3.914 -0.3136 -0.1695  0.0343
 8396SOL    HW136650   3.138   2.594   3.870  0.5030 -0.1176  1.5133
 8396SOL    HW236651   3.096   2.640   3.998  4.2625 -0.8433 -1.9764
 8397SOL     OW36652   1.309   1.701   5.636  0.6438  0.2451  0.2961
 8397SOL    HW136653   1.376   1.659   5.581  0.5977 -0.2204  0.5908
 8397SOL    HW236654   1.335   1.788   5.608 -0.2868  0.0087 -1.2860
 8398SOL     OW36655   0.071   1.126  11.242 -0.0546 -0.1313 -0.2741
 8398SOL    HW136656   0.136   1.124  11.172  0.3249 -0.0261  0.0765
 8398SOL    HW236657   0.134   1.125  11.314  0.0880  1.0171 -0.3938
 8399SOL     OW36658   3.576   2.287   5.802  0.6703 -0.1604  0.2499
 8399SOL    HW136659   3.499   2.336   5.830 -0.7312 -1.5048 -1.2654
 8399SOL    HW236660   3.650   2.336   5.837 -1.8546  2.6153  1.7358
 8400SOL     OW36661   0.170   4.400   7.110  0.2456  0.0041 -0.3067
 8400SOL    HW136662   0.167   4.371   7.201  2.8013 -0.8117 -0.5099
 8400SOL    HW236663   0.220   4.333   7.064 -1.4827 -0.2958 -1.7864
 8401SOL     OW36664   0.187   2.766  10.715 -0.1745 -0.0845 -0.2468
 8401SOL    HW136665   0.143   2.795  10.795  2.6896  1.9390  0.5981
 8401SOL    HW236666   0.158   2.675  10.713  1.0801 -0.5311  1.7245
 8402SOL     OW36667   3.885   2.759  11.597 -0.3245  0.5565  0.3483
 8402SOL    HW136668   3.840   2.722  11.521 -1.3759  1.0293  0.7426
 8402SOL    HW236669   3.812   2.745  11.657 -0.8598  0.9567 -0.2066
 8403SOL     OW36670   2.588   0.821   0.451 -0.4168  0.5547  0.4139
 8403SOL    HW136671   2.645   0.746   0.434  0.5385  1.1463  0.9290
 8403SOL    HW236672   2.624   0.893   0.399 -1.8498  0.7571 -0.2900
 8404SOL     OW36673   0.435   1.435   7.296  0.0363 -0.1302 -0.2165
 8404SOL    HW136674   0.509   1.437   7.357  0.5757 -0.0494 -0.8749
 8404SOL    HW236675   0.402   1.350   7.323  1.4545 -0.8858 -0.8808
 8405SOL     OW36676   4.669   2.260   4.471  0.4704  0.5892  0.3002
 8405SOL    HW136677   4.672   2.330   4.536  0.7396 -0.1806  1.1153
 8405SOL    HW236678   0.034   2.260   4.441  0.2800  1.2769 -0.2692
 8406SOL     OW36679   3.066   1.704  16.594 -0.4702 -0.1653 -0.1047
 8406SOL    HW136680   3.152   1.742  16.612 -0.2682 -1.7105  2.1557
 8406SOL    HW236681   3.085   1.648  16.519 -1.6589 -1.0561  0.2720
 8407SOL     OW36682   4.719   1.996   6.417 -0.3891 -0.0153 -0.6318
 8407SOL    HW136683   4.689   1.906   6.430 -1.0988  0.6973  2.8629
 8407SOL    HW236684   4.642   2.046   6.392 -0.1904  0.7235  0.2028
 8408SOL     OW36685   2.617   2.552   4.472 -0.1219 -0.3162  0.6296
 8408SOL    HW136686   2.557   2.497   4.522  0.2558 -0.4121  0.9748
 8408SOL    HW236687   2.564   2.615   4.424  0.6393  2.0227  2.9000
 8409SOL     OW36688   3.969   4.163   3.939  0.2046 -0.4219  0.1021
 8409SOL    HW136689   4.017   4.115   4.006  1.7171 -0.3586 -0.9364
 8409SOL    HW236690   3.915   4.090   3.908 -1.0956  0.9766 -0.9450
 8410SOL     OW36691   4.412   4.123   8.353  0.2965  0.2154  0.6160
 8410SOL    HW136692   4.336   4.158   8.306  0.0548 -0.5126  0.4719
 8410SOL    HW236693   4.390   4.134   8.445  0.8804  1.3020  0.6325
 8411SOL     OW36694   2.527   0.870   5.209  0.3471 -0.1759 -0.0250
 8411SOL    HW136695   2.522   0.775   5.197  1.5506 -0.0572 -1.4477
 8411SOL    HW236696   2.464   0.891   5.139  1.1286  1.7569 -0.1340
 8412SOL     OW36697   0.673   0.910   6.443 -0.2901  0.2308 -0.5231
 8412SOL    HW136698   0.638   0.837   6.494 -0.1789 -0.3584 -1.2745
 8412SOL    HW236699   0.609   0.978   6.462  1.3438  1.1332  1.6905
 8413SOL     OW36700   2.018   3.951   0.254  0.4580 -0.3685  0.0339
 8413SOL    HW136701   2.079   3.933   0.182 -0.6748  0.3928 -1.1160
 8413SOL    HW236702   2.054   4.031   0.290  4.0932 -1.4824 -1.1596
 8414SOL     OW36703   0.315   0.819   2.329  0.0233  0.4630 -0.6237
 8414SOL    HW136704   0.290   0.760   2.258 -0.7871 -1.6235  1.3728
 8414SOL    HW236705   0.287   0.903   2.294  2.9417  0.5801 -2.6668
 8415SOL     OW36706   2.837   4.272  17.159  0.5807 -0.5905 -0.2171
 8415SOL    HW136707   2.838   4.367  17.151 -1.9505 -0.5990 -0.5926
 8415SOL    HW236708   2.743   4.255  17.159  0.6206 -0.7243  2.4840
 8416SOL     OW36709   1.802   3.380   5.167 -0.1905  0.1000 -0.1033
 8416SOL    HW136710   1.773   3.418   5.084  0.1443  1.7946  0.5687
 8416SOL    HW236711   1.723   3.327   5.178  1.5007 -2.2469  0.7231
 8417SOL     OW36712   3.503   2.649  10.274  0.0756  0.2197  0.1849
 8417SOL    HW136713   3.551   2.727  10.247 -0.6847  0.7388  0.3709
 8417SOL    HW236714   3.563   2.578  10.249  1.0584  0.6482  1.3286
 8418SOL     OW36715   2.701   2.733   6.672  0.4294 -0.7175 -0.0826
 8418SOL    HW136716   2.763   2.718   6.600  1.9993  1.5836  0.8122
 8418SOL    HW236717   2.681   2.641   6.688  2.4877 -1.0642  0.5948
 8419SOL     OW36718   4.157   4.054  16.356 -1.0365 -0.2761  0.5965
 8419SOL    HW136719   4.233   3.995  16.363 -0.8461 -0.2769 -1.4592
 8419SOL    HW236720   4.145   4.087  16.444  0.5237  0.3580  0.5858
 8420SOL     OW36721   2.068   2.701   4.811  0.8974 -0.1774  0.3328
 8420SOL    HW136722   2.021   2.710   4.894 -2.5627  2.8189 -1.9396
 8420SOL    HW236723   2.031   2.617   4.785  1.3574 -0.4978  0.7009
 8421SOL     OW36724   1.988   1.180   6.711  0.2320  0.1956  0.3157
 8421SOL    HW136725   2.070   1.229   6.722  0.7130 -0.0973 -1.9639
 8421SOL    HW236726   1.966   1.160   6.801 -1.4007 -2.5368 -0.6926
 8422SOL     OW36727   1.122   2.340  13.325  0.5975 -0.3906  0.0699
 8422SOL    HW136728   1.103   2.275  13.257  0.6952  0.4949 -0.8044
 8422SOL    HW236729   1.035   2.369  13.353  0.9898  0.6948  0.1346
 8423SOL     OW36730   0.195   4.012   2.654  0.0865 -0.4219  0.1731
 8423SOL    HW136731   0.151   4.065   2.587 -1.0470 -1.1828  0.3188
 8423SOL    HW236732   0.246   3.956   2.594  1.6254  0.6205  0.5143
 8424SOL     OW36733   4.418   1.523   5.869  0.5704 -0.2412 -0.0740
 8424SOL    HW136734   4.506   1.486   5.870  0.0470 -1.5034 -1.0366
 8424SOL    HW236735   4.366   1.449   5.900  0.0238 -0.1229 -0.7005
 8425SOL     OW36736   1.335   0.554   3.543 -0.3400  0.3902  0.2929
 8425SOL    HW136737   1.294   0.572   3.458  2.1995  0.5673 -0.9232
 8425SOL    HW236738   1.348   0.641   3.582  1.5731 -0.0917  0.7411
 8426SOL     OW36739   0.650   1.432  14.463  0.1222  0.1015 -0.0381
 8426SOL    HW136740   0.700   1.433  14.382 -1.2618 -1.7527 -0.9123
 8426SOL    HW236741   0.556   1.442  14.444  0.5288 -0.4922 -2.3068
 8427SOL     OW36742   2.797   3.940   6.366 -0.1185 -1.0663 -0.1562
 8427SOL    HW136743   2.781   4.029   6.398 -2.1339 -1.5369  0.1709
 8427SOL    HW236744   2.888   3.934   6.394 -0.7617 -1.7482  1.7847
 8428SOL     OW36745   1.651   4.164   8.356 -0.5604 -0.6670  0.2467
 8428SOL    HW136746   1.643   4.257   8.375  1.1784 -0.5328  0.3359
 8428SOL    HW236747   1.601   4.162   8.275 -1.1668 -0.5812  0.6240
 8429SOL     OW36748   3.935   1.050  10.146 -0.6341 -0.1015 -0.0444
 8429SOL    HW136749   3.932   1.026  10.053 -0.6672 -0.7152  0.1172
 8429SOL    HW236750   3.853   1.097  10.158  0.4998  2.1135 -0.7963
 8430SOL     OW36751   1.267   3.603   6.960  0.1551  0.1045 -0.2302
 8430SOL    HW136752   1.183   3.564   6.984 -0.4814  1.0503 -0.9499
 8430SOL    HW236753   1.263   3.606   6.864 -0.9830  0.3157 -0.1796
 8431SOL     OW36754   3.882   0.924  12.204 -0.2624 -0.5094  0.3196
 8431SOL    HW136755   3.966   0.891  12.172 -0.9991 -1.1681 -0.9488
 8431SOL    HW236756   3.884   1.009  12.161 -1.1590  0.5323  2.3439
 8432SOL     OW36757   0.494   4.318   4.069 -0.4135  0.3823 -0.2736
 8432SOL    HW136758   0.414   4.279   4.105 -1.5614  0.9194 -2.2947
 8432SOL    HW236759   0.475   4.411   4.061 -2.1700  0.1547  1.1888
 8433SOL     OW36760   2.215   0.892  12.101 -0.0008  0.4113  0.2367
 8433SOL    HW136761   2.132   0.871  12.058  0.7654  1.8663 -1.9458
 8433SOL    HW236762   2.194   0.860  12.189  1.2957  1.9100  1.0894
 8434SOL     OW36763   1.253   3.259   5.529 -0.5276  0.3283  0.1270
 8434SOL    HW136764   1.219   3.177   5.566 -1.3928  1.3899  1.6589
 8434SOL    HW236765   1.176   3.309   5.555 -0.4573  0.6143 -0.2129
 8435SOL     OW36766   4.100   3.746   3.940 -0.3365 -0.5092  0.0793
 8435SOL    HW136767   4.054   3.672   3.979 -1.3132  0.3222  0.5084
 8435SOL    HW236768   4.098   3.715   3.850 -0.9233 -0.9353  0.2431
 8436SOL     OW36769   3.398   1.383  12.224 -0.0078 -0.4900 -0.4224
 8436SOL    HW136770   3.481   1.338  12.236 -0.0157 -0.2093  0.7343
 8436SOL    HW236771   3.404   1.471  12.263 -1.1716 -0.9122  0.7104
 8437SOL     OW36772   0.729   0.810  17.108 -0.1402 -0.2187  0.4816
 8437SOL    HW136773   0.679   0.867  17.050  2.5434  1.1339 -0.4455
 8437SOL    HW236774   0.704   0.721  17.081  0.1987 -0.3647  0.6560
 8438SOL     OW36775   4.636   0.585   6.222  0.3486 -0.3082  0.0581
 8438SOL    HW136776   4.671   0.674   6.233  0.6904 -0.4053 -0.2609
 8438SOL    HW236777   4.582   0.577   6.301 -0.4111  1.4806 -0.2681
 8439SOL     OW36778   4.261   3.491   5.783  0.2394  0.1812  0.2628
 8439SOL    HW136779   4.294   3.580   5.785 -0.4797  0.5013 -2.8736
 8439SOL    HW236780   4.240   3.489   5.877  4.5987 -1.7871  1.1714
 8440SOL     OW36781   1.462   3.023   8.416  1.0951 -0.1704 -0.0941
 8440SOL    HW136782   1.429   3.112   8.403 -1.4510 -1.2973 -1.2863
 8440SOL    HW236783   1.397   2.994   8.480  0.9493  0.3831  0.0108
 8441SOL     OW36784   1.321   0.163   5.166 -0.6916 -0.0385 -0.1251
 8441SOL    HW136785   1.382   0.167   5.240  1.8876  1.2896 -2.3334
 8441SOL    HW236786   1.312   0.068   5.171  0.9159 -0.1283  0.8928
 8442SOL     OW36787   1.371   2.156  14.875  0.1082 -0.7324 -0.3221
 8442SOL    HW136788   1.442   2.119  14.822  0.1262 -0.2053 -0.6752
 8442SOL    HW236789   1.328   2.211  14.810 -2.2535 -1.6066  0.4965
 8443SOL     OW36790   2.891   3.096  10.464 -0.0988  0.0252 -0.0378
 8443SOL    HW136791   2.982   3.066  10.469 -0.5037 -1.0646  0.7701
 8443SOL    HW236792   2.872   3.101  10.370 -0.1617  0.4747  0.0029
 8444SOL     OW36793   0.965   1.448  16.057  0.5928 -0.0010 -0.4723
 8444SOL    HW136794   1.058   1.444  16.038  0.5856  0.4950 -0.6016
 8444SOL    HW236795   0.944   1.357  16.034 -0.6383 -0.4299  2.3084
 8445SOL     OW36796   1.261   0.966   7.040  0.1943 -0.0775 -0.6889
 8445SOL    HW136797   1.186   0.963   7.099  0.1652  0.2381 -0.7131
 8445SOL    HW236798   1.281   0.876   7.013 -1.0368 -0.8437  1.0212
 8446SOL     OW36799   3.560   2.825   1.715 -0.3630 -0.3954  0.5205
 8446SOL    HW136800   3.636   2.862   1.759  0.7491 -2.8536  0.6446
 8446SOL    HW236801   3.607   2.780   1.645 -0.0912  1.7159 -0.6324
 8447SOL     OW36802   3.509   4.398   8.946  1.0272 -0.3779  0.0302
 8447SOL    HW136803   3.526   4.484   8.908 -1.7538  0.8518  1.6113
 8447SOL    HW236804   3.545   4.344   8.875  0.0381 -0.4136 -0.4560
 8448SOL     OW36805   2.032   0.513   8.332 -0.2977  0.4815 -0.3365
 8448SOL    HW136806   2.002   0.564   8.257  1.7066 -1.1154 -2.2319
 8448SOL    HW236807   1.959   0.522   8.393  1.4163  2.0809  1.4725
 8449SOL     OW36808   4.306   0.930   8.082 -0.8371 -0.3898 -0.6392
 8449SOL    HW136809   4.349   0.868   8.141  1.4093  1.2602 -0.5102
 8449SOL    HW236810   4.222   0.944   8.127  0.3613 -1.1812  1.8587
 8450SOL     OW36811   1.210   4.602   2.849  0.1079  0.5078  0.1968
 8450SOL    HW136812   1.203   4.513   2.814  0.3604  1.1016 -1.3963
 8450SOL    HW236813   1.131   4.612   2.901  0.4248 -2.0136  1.1919
 8451SOL     OW36814   3.133   3.055   3.975  0.7136  0.0724 -0.1811
 8451SOL    HW136815   3.195   3.093   3.913  0.2146 -2.6772 -2.3923
 8451SOL    HW236816   3.102   2.982   3.920  0.0107  0.1010  0.1761
 8452SOL     OW36817   1.417   4.302   2.434 -0.1460  0.2977 -0.0762
 8452SOL    HW136818   1.357   4.242   2.478  1.4141 -0.0105  1.6483
 8452SOL    HW236819   1.416   4.377   2.494  0.7664 -0.3584  0.7754
 8453SOL     OW36820   1.582   3.061   7.591 -0.2170  0.6629 -0.4780
 8453SOL    HW136821   1.563   3.089   7.680  0.5352 -0.3697 -0.0010
 8453SOL    HW236822   1.651   3.127   7.590 -1.1702  1.6737 -0.1040
 8454SOL     OW36823   3.198   3.010   0.205  0.2242  0.3232 -0.1604
 8454SOL    HW136824   3.251   2.938   0.241  4.1714  1.9928 -2.6124
 8454SOL    HW236825   3.201   2.989   0.111 -1.3346 -0.9402  0.0835
 8455SOL     OW36826   4.539   0.073   7.540  0.2578 -0.0386 -0.0658
 8455SOL    HW136827   4.565   0.147   7.485  0.5843 -1.5630 -1.9600
 8455SOL    HW236828   4.562   4.718   7.493 -0.9600  2.2971 -4.7085
 8456SOL     OW36829   4.661   3.512   0.286 -0.4005 -0.5757  0.3996
 8456SOL    HW136830   4.696   3.571   0.219 -0.2558  0.9726  1.8529
 8456SOL    HW236831   4.635   3.565   0.361  1.2727 -0.1784  0.7041
 8457SOL     OW36832   3.585   1.254   7.345 -0.1011  0.0339  0.0173
 8457SOL    HW136833   3.618   1.181   7.398 -0.9063 -0.8579 -0.7297
 8457SOL    HW236834   3.547   1.221   7.264  1.5013  2.5068 -1.7475
 8458SOL     OW36835   3.037   3.949  13.403 -0.0878 -0.2964  0.7043
 8458SOL    HW136836   2.996   3.919  13.322 -1.8148  1.2538  1.0017
 8458SOL    HW236837   3.035   4.043  13.385 -1.5045 -0.2848  0.9274
 8459SOL     OW36838   1.958   1.287  15.538  0.1348 -0.0231  0.0202
 8459SOL    HW136839   1.987   1.242  15.459 -1.6944 -1.2788  0.0606
 8459SOL    HW236840   1.866   1.304  15.518 -0.2962 -2.0324  0.3605
 8460SOL     OW36841   1.078   4.490  13.981 -0.8882 -0.1151 -0.4809
 8460SOL    HW136842   1.135   4.550  14.029 -2.6320 -0.6360  2.2773
 8460SOL    HW236843   1.069   4.537  13.898  1.2489 -0.9038 -1.1429
 8461SOL     OW36844   3.542   2.730   3.153 -0.1830  0.6278  0.5969
 8461SOL    HW136845   3.519   2.670   3.224  0.8755  0.8755  1.1581
 8461SOL    HW236846   3.625   2.762   3.190  0.2900 -0.7547  0.7168
 8462SOL     OW36847   0.795   3.565   5.378 -0.2541 -0.3421 -0.6658
 8462SOL    HW136848   0.784   3.605   5.464  0.7551 -0.0316 -0.6799
 8462SOL    HW236849   0.760   3.634   5.322 -0.3819  0.2079  0.1104
 8463SOL     OW36850   0.605   4.383   5.421 -0.1120  0.5465 -0.1314
 8463SOL    HW136851   0.594   4.402   5.514  0.7927  0.4771 -0.0096
 8463SOL    HW236852   0.518   4.362   5.388  1.2171 -2.6042 -1.6210
 8464SOL     OW36853   1.089   4.130   4.115 -0.0212 -0.2514  0.0227
 8464SOL    HW136854   1.140   4.192   4.062  0.7923  0.3567  1.5237
 8464SOL    HW236855   1.042   4.186   4.176  0.8025 -0.9988  1.3375
 8465SOL     OW36856   2.343   3.597   8.849  0.9296  0.6242 -0.0813
 8465SOL    HW136857   2.285   3.672   8.835 -0.6133 -0.6462 -0.4712
 8465SOL    HW236858   2.423   3.636   8.884  0.4754  1.3527  0.1647
 8466SOL     OW36859   0.835   0.613   7.697 -0.1571 -0.1714  0.1035
 8466SOL    HW136860   0.892   0.671   7.645 -0.5976  0.3930  0.2461
 8466SOL    HW236861   0.783   0.672   7.752 -0.0362 -0.7905  0.8655
 8467SOL     OW36862   1.847   0.978   9.320 -0.1998 -0.0445  0.5294
 8467SOL    HW136863   1.793   1.048   9.357 -0.8798 -0.6835  0.7501
 8467SOL    HW236864   1.925   1.017   9.282  0.0377 -0.0023  1.0590
 8468SOL     OW36865   0.664   0.808   3.393 -0.0400 -0.3769 -0.4238
 8468SOL    HW136866   0.586   0.857   3.420  0.5624 -0.1407  0.8832
 8468SOL    HW236867   0.726   0.870   3.354  1.3725 -1.4812  0.0830
 8469SOL     OW36868   2.930   0.218   3.696  0.0835 -0.0797  0.2971
 8469SOL    HW136869   2.875   0.297   3.688 -0.3797 -0.4749 -0.4354
 8469SOL    HW236870   2.867   0.151   3.670  0.9899 -0.4864 -0.8402
 8470SOL     OW36871   0.794   0.482  14.798 -0.1747  0.1841 -0.1554
 8470SOL    HW136872   0.867   0.510  14.742  1.1409  1.2921  2.1146
 8470SOL    HW236873   0.820   0.395  14.826  2.4487  1.2303  0.6291
 8471SOL     OW36874   2.820   2.320  13.537 -0.8094 -0.1465 -0.5420
 8471SOL    HW136875   2.901   2.272  13.520 -0.2181 -0.1728  2.4032
 8471SOL    HW236876   2.838   2.353  13.625  0.5175  2.1358 -1.6727
 8472SOL     OW36877   2.763   0.397   2.604 -0.4272 -0.2638 -0.1644
 8472SOL    HW136878   2.793   0.331   2.542 -1.2154 -0.0047 -0.8291
 8472SOL    HW236879   2.739   0.340   2.677  0.4094  0.7913  0.9145
 8473SOL     OW36880   1.793   4.100   4.676  0.1272  0.2529  0.1825
 8473SOL    HW136881   1.884   4.073   4.687  0.8110  2.5629  0.3286
 8473SOL    HW236882   1.761   4.046   4.604  2.2919 -1.0220  0.1666
 8474SOL     OW36883   0.184   3.496  11.762 -0.3681 -0.3227  0.2613
 8474SOL    HW136884   0.175   3.453  11.676  0.2714  0.1189 -0.0264
 8474SOL    HW236885   0.244   3.562  11.727 -1.3976 -0.3505 -1.5897
 8475SOL     OW36886   1.545   4.128   7.737 -0.2202  0.2489 -0.5036
 8475SOL    HW136887   1.502   4.061   7.683 -1.2079 -1.2695  2.1892
 8475SOL    HW236888   1.621   4.082   7.774 -1.0675  0.6049  1.6455
 8476SOL     OW36889   1.129   3.749   9.745 -0.1823  0.1207 -0.1095
 8476SOL    HW136890   1.154   3.841   9.736 -1.7909  0.5070 -0.5590
 8476SOL    HW236891   1.051   3.757   9.690  0.9083  0.7329 -1.5718
 8477SOL     OW36892   0.687   3.371   1.671 -0.0707 -0.0655 -0.0458
 8477SOL    HW136893   0.648   3.303   1.615  1.4333 -0.0490 -1.1470
 8477SOL    HW236894   0.704   3.310   1.742 -0.6283  0.1314  0.2533
 8478SOL     OW36895   0.725   4.640   2.832  0.5336  0.3251  0.5065
 8478SOL    HW136896   0.662   4.694   2.784 -2.7393 -1.7536  2.4936
 8478SOL    HW236897   0.696   4.661   2.921 -0.4920  0.9718  0.0227
 8479SOL     OW36898   3.510   4.698  10.564  0.1956  0.3059  0.1862
 8479SOL    HW136899   3.428   4.677  10.520  0.6068 -1.5603  0.3463
 8479SOL    HW236900   3.470   0.006  10.645  0.0408  0.3735  0.0821
 8480SOL     OW36901   2.929   2.996   7.316 -0.3623 -0.4613  0.1072
 8480SOL    HW136902   2.904   2.920   7.369  0.2423 -1.2606 -0.7554
 8480SOL    HW236903   2.842   3.034   7.304 -0.7889 -1.6776 -0.6854
 8481SOL     OW36904   0.345   0.507   0.957 -0.8067 -0.0026  0.4667
 8481SOL    HW136905   0.258   0.497   0.994 -0.9226 -1.5031 -0.2213
 8481SOL    HW236906   0.375   0.576   1.017 -0.6259 -0.3853  0.8142
 8482SOL     OW36907   3.292   2.038   7.643 -0.1963  0.5941 -0.6144
 8482SOL    HW136908   3.265   1.994   7.724  1.5148  0.3273 -0.2070
 8482SOL    HW236909   3.256   1.978   7.578  0.4670 -0.0382 -0.3972
 8483SOL     OW36910   4.260   3.628  10.292  0.4062 -0.5928 -0.0278
 8483SOL    HW136911   4.235   3.609  10.382 -0.1005  0.0855 -0.0241
 8483SOL    HW236912   4.317   3.705  10.302 -1.1245  0.5952 -0.5749
 8484SOL     OW36913   2.570   1.673   1.803  0.0385 -0.1242  0.4827
 8484SOL    HW136914   2.574   1.589   1.848  0.5324  0.5194  1.6781
 8484SOL    HW236915   2.662   1.697   1.816 -0.1644  0.2255  1.3173
 8485SOL     OW36916   0.404   0.337   5.469 -0.1050 -0.3992 -0.3616
 8485SOL    HW136917   0.370   0.322   5.381 -2.9202  0.1061  0.6319
 8485SOL    HW236918   0.326   0.310   5.518 -0.5294 -1.1938 -1.4655
 8486SOL     OW36919   1.648   1.235   0.010  0.8399  0.6807  0.0663
 8486SOL    HW136920   1.641   1.142   0.030  2.4337  0.2752 -1.2540
 8486SOL    HW236921   1.686   1.283   0.084 -0.3522  0.4545  0.8154
 8487SOL     OW36922   1.204   3.098  14.965 -0.6831  0.6452 -0.0016
 8487SOL    HW136923   1.268   3.095  14.894 -1.6935  0.5541 -0.9107
 8487SOL    HW236924   1.239   3.167  15.022 -0.7466 -1.0351  2.0840
 8488SOL     OW36925   3.983   1.342   7.944 -0.0479  0.3724 -0.0862
 8488SOL    HW136926   3.931   1.304   8.015  2.2303 -0.8382  0.9387
 8488SOL    HW236927   4.027   1.266   7.906 -1.8068 -1.0754  0.6960
 8489SOL     OW36928   3.573   1.754   2.053 -0.2336  0.2470  0.2269
 8489SOL    HW136929   3.567   1.765   1.958  1.3285 -0.0510  0.0960
 8489SOL    HW236930   3.656   1.797   2.072  1.9324 -2.4390 -3.1894
 8490SOL     OW36931   0.603   3.136   7.373 -0.0250  0.1502  0.1064
 8490SOL    HW136932   0.593   3.155   7.280 -3.0080 -2.3691 -0.0791
 8490SOL    HW236933   0.592   3.041   7.376  0.3918  0.1066  0.2736
 8491SOL     OW36934   1.947   3.338  12.864  0.5374  1.2094 -0.1432
 8491SOL    HW136935   1.939   3.382  12.779 -2.4278  0.7528 -0.0896
 8491SOL    HW236936   1.919   3.248  12.847  0.6352  1.0169  0.7346
 8492SOL     OW36937   2.293   2.156   5.210 -0.4084  0.0231  0.0403
 8492SOL    HW136938   2.279   2.224   5.144  0.5604  0.1787  0.0012
 8492SOL    HW236939   2.382   2.126   5.192 -0.5473 -0.4279  0.0918
 8493SOL     OW36940   2.738   0.733   3.124 -0.1415 -0.0742 -1.1837
 8493SOL    HW136941   2.643   0.742   3.123 -0.2642 -1.3460 -0.5068
 8493SOL    HW236942   2.766   0.659   3.071  2.1394 -1.8779  2.5557
 8494SOL     OW36943   2.652   0.907  11.793 -0.1305 -0.1976  0.0209
 8494SOL    HW136944   2.606   0.906  11.877  0.6922 -0.0518  0.4799
 8494SOL    HW236945   2.587   0.934  11.728 -0.1436  0.8467  0.4673
 8495SOL     OW36946   4.417   0.420   2.998  0.5809  0.0767 -0.2187
 8495SOL    HW136947   4.460   0.343   3.037 -0.4535 -1.2472 -1.6866
 8495SOL    HW236948   4.479   0.420   2.926  0.7952  1.5453 -0.0326
 8496SOL     OW36949   3.284   4.654   6.657 -0.7200  0.2793 -0.5337
 8496SOL    HW136950   3.250   4.724   6.600 -0.9002  1.8604  1.4835
 8496SOL    HW236951   3.206   4.601   6.674  0.6370 -1.4951  0.1153
 8497SOL     OW36952   2.221   0.598   6.206 -0.5118 -0.2043 -0.2400
 8497SOL    HW136953   2.198   0.557   6.122  0.8292 -0.3907 -0.5145
 8497SOL    HW236954   2.294   0.654   6.181 -1.2762 -0.2115 -2.5074
 8498SOL     OW36955   4.596   4.331   0.564  0.1345  0.2613 -0.1958
 8498SOL    HW136956   4.518   4.369   0.603 -0.4548 -0.6108 -0.5384
 8498SOL    HW236957   4.653   4.324   0.641 -0.4184  0.8608  0.2657
 8499SOL     OW36958   1.344   1.138   2.450 -0.1974 -0.1327  0.2229
 8499SOL    HW136959   1.257   1.177   2.438 -1.1599 -3.3010 -3.1254
 8499SOL    HW236960   1.332   1.064   2.390 -1.0906 -1.8363  2.5138
 8500SOL     OW36961   0.492   1.094   0.051  0.0342  0.0819  0.1835
 8500SOL    HW136962   0.425   1.055  17.697  1.3166 -0.5877 -0.8840
 8500SOL    HW236963   0.452   1.175   0.083 -0.6150  0.2822 -1.1308
 8501SOL     OW36964   4.515   2.396   1.920 -1.0711  0.1779 -0.0494
 8501SOL    HW136965   4.499   2.334   1.849 -0.4556 -1.2224  1.0364
 8501SOL    HW236966   4.473   2.471   1.877  0.8578 -0.0532 -2.3379
 8502SOL     OW36967   3.942   2.576   9.877  0.3730  0.4881  0.4113
 8502SOL    HW136968   3.997   2.579   9.799 -1.0203  1.7767 -0.5280
 8502SOL    HW236969   3.998   2.518   9.928  2.2675 -0.7073 -3.0433
 8503SOL     OW36970   0.138   3.443   2.297  0.2498  0.3519  0.0532
 8503SOL    HW136971   0.234   3.449   2.298  0.3196 -0.4173 -1.3609
 8503SOL    HW236972   0.135   3.362   2.348 -2.2621  0.0814 -0.5399
 8504SOL     OW36973   2.576   0.941   5.465  0.2011 -0.3094  0.2529
 8504SOL    HW136974   2.585   0.892   5.383 -2.8380 -1.2018  0.4618
 8504SOL    HW236975   2.496   0.994   5.463 -0.2934 -1.0853 -0.5762
 8505SOL     OW36976   3.472   0.640   3.590 -0.2810  0.9627 -0.3613
 8505SOL    HW136977   3.448   0.589   3.667  0.2521  1.6348  0.2525
 8505SOL    HW236978   3.415   0.598   3.526 -1.2320 -0.8262  1.6675
 8506SOL     OW36979   0.511   0.237   7.608 -0.1658  0.1676 -0.3657
 8506SOL    HW136980   0.473   0.312   7.653  0.5855 -0.5344  1.4372
 8506SOL    HW236981   0.584   0.210   7.665 -0.8226 -0.3467  0.2300
 8507SOL     OW36982   0.450   2.152  16.025 -0.0139  0.3058 -0.1209
 8507SOL    HW136983   0.484   2.223  15.970  0.6151  1.8283  2.2050
 8507SOL    HW236984   0.492   2.190  16.103 -1.1955 -1.1052  1.1943
 8508SOL     OW36985   1.026   3.519   4.296 -0.0732  0.1692 -0.3132
 8508SOL    HW136986   1.038   3.464   4.373  1.9827  0.8997 -0.1064
 8508SOL    HW236987   0.932   3.530   4.281  0.0685  1.5414 -0.1904
 8509SOL     OW36988   4.283   0.446   4.224 -0.1815 -0.1529  0.2011
 8509SOL    HW136989   4.208   0.471   4.279 -1.3486  0.0604 -1.4699
 8509SOL    HW236990   4.243   0.425   4.140  0.7127 -3.1783  0.5466
 8510SOL     OW36991   2.423   2.412   6.158  0.0430 -0.1724 -0.4364
 8510SOL    HW136992   2.463   2.426   6.072  1.3259  1.2591  0.3938
 8510SOL    HW236993   2.332   2.434   6.137 -0.2270 -1.8936 -1.0272
 8511SOL     OW36994   3.675   1.896   7.942  0.1811  0.1151  0.1300
 8511SOL    HW136995   3.664   1.952   8.019 -0.8151  1.1889 -0.8009
 8511SOL    HW236996   3.743   1.837   7.975 -0.9253 -1.1909  0.0401
 8512SOL     OW36997   0.808   1.982   7.095 -0.4808  0.0250 -0.2114
 8512SOL    HW136998   0.834   1.907   7.042 -0.3980 -0.1776  0.1169
 8512SOL    HW236999   0.750   2.032   7.038  1.3208  0.8457 -1.3248
 8513SOL     OW37000   1.086   1.720   5.882  0.1938  0.0077  0.4704
 8513SOL    HW137001   1.029   1.797   5.879  1.5781  1.0157  0.1212
 8513SOL    HW237002   1.118   1.715   5.792 -2.2139 -0.9971 -0.3272
 8514SOL     OW37003   4.536   2.494  10.793 -0.8306  0.3767 -0.1034
 8514SOL    HW137004   4.491   2.451  10.865 -0.9886  0.8472  0.0769
 8514SOL    HW237005   4.613   2.437  10.797  2.2418  4.5559  0.1533
 8515SOL     OW37006   2.091   4.083   4.034  0.0595 -0.2918  0.0588
 8515SOL    HW137007   2.152   4.139   4.081 -0.8970 -1.5435  2.8230
 8515SOL    HW237008   2.114   3.996   4.065  0.5864  0.4989  1.9337
 8516SOL     OW37009   3.204   1.697   3.627  0.8533  0.6104 -0.5675
 8516SOL    HW137010   3.167   1.709   3.714 -0.2354  1.1962 -1.1097
 8516SOL    HW237011   3.290   1.657   3.640  0.2558 -0.8550 -1.1431
 8517SOL     OW37012   4.244   0.675   2.940 -0.3707 -0.2606 -0.4685
 8517SOL    HW137013   4.332   0.641   2.961 -1.4000 -1.9989  0.9927
 8517SOL    HW237014   4.215   0.596   2.895 -0.4546 -0.7861  0.5121
 8518SOL     OW37015   1.918   1.275   5.336 -0.3294  0.0155 -0.3760
 8518SOL    HW137016   1.969   1.268   5.256  0.0343  1.7538 -0.2898
 8518SOL    HW237017   1.837   1.309   5.297  0.2893  2.7921  0.7582
 8519SOL     OW37018   2.019   3.654  13.279  0.3704  0.3147  0.5031
 8519SOL    HW137019   2.002   3.568  13.318 -0.0431  1.6074  3.1234
 8519SOL    HW237020   2.018   3.626  13.187 -2.6256 -0.5452  0.7821
 8520SOL     OW37021   3.688   4.026  15.705 -0.6082 -0.5413 -0.1705
 8520SOL    HW137022   3.607   3.986  15.675 -0.0773  0.3488 -2.8354
 8520SOL    HW237023   3.754   4.004  15.640 -0.1563 -0.7163  0.3502
 8521SOL     OW37024   4.342   1.945   7.438 -0.2933  0.0328  0.6657
 8521SOL    HW137025   4.409   1.976   7.498 -0.2364 -0.9136  1.0838
 8521SOL    HW237026   4.372   1.983   7.356 -0.2927 -1.0265  0.1785
 8522SOL     OW37027   1.480   3.250   5.690 -0.3062 -0.1135  0.4855
 8522SOL    HW137028   1.556   3.239   5.633 -0.2021  0.3497  0.5417
 8522SOL    HW237029   1.404   3.265   5.633 -0.8757  1.2391  1.6090
 8523SOL     OW37030   0.773   2.070  17.166  0.1865  0.2262  0.5142
 8523SOL    HW137031   0.831   2.008  17.123 -0.6390 -0.1119 -0.1199
 8523SOL    HW237032   0.692   2.023  17.147 -0.9997  1.6872  1.8850
 8524SOL     OW37033   3.447   0.344   4.216 -0.7485  0.0454  0.2973
 8524SOL    HW137034   3.447   0.370   4.308  3.1484  2.5547 -0.4245
 8524SOL    HW237035   3.366   0.386   4.189  0.5726  0.7526 -2.5466
 8525SOL     OW37036   2.045   0.505   7.975  0.2086  0.1329  0.2062
 8525SOL    HW137037   1.996   0.503   7.892 -0.0477  0.1861  0.3568
 8525SOL    HW237038   2.027   0.593   8.007 -1.0989  0.7720 -2.2586
 8526SOL     OW37039   4.723   3.216  13.668  0.1737  0.0603 -0.4636
 8526SOL    HW137040   4.632   3.243  13.656 -0.6102 -2.7846 -0.8237
 8526SOL    HW237041   4.712   3.206  13.763 -3.6816 -3.0186 -1.2489
 8527SOL     OW37042   2.350   2.207  14.758  0.3894  0.2928 -0.3356
 8527SOL    HW137043   2.430   2.246  14.794  1.6404 -3.1011  0.5822
 8527SOL    HW237044   2.389   2.121  14.740 -2.2235 -0.8812 -0.2933
 8528SOL     OW37045   0.698   1.749   7.511  0.2666  0.7310 -0.7403
 8528SOL    HW137046   0.793   1.734   7.516  0.1451 -0.0359 -0.6690
 8528SOL    HW237047   0.703   1.840   7.481  1.0084  0.6889 -0.7505
 8529SOL     OW37048   0.607   0.629   4.894  0.5214  0.3164 -0.3033
 8529SOL    HW137049   0.647   0.643   4.808  0.6525 -1.8121 -0.5744
 8529SOL    HW237050   0.637   0.711   4.932 -1.9403  0.7915  0.6408
 8530SOL     OW37051   0.037   2.264   5.494  0.2002 -0.4179  0.1928
 8530SOL    HW137052   4.680   2.306   5.520  1.2840  1.2805  0.9328
 8530SOL    HW237053   0.026   2.172   5.515  2.1348 -0.7943 -0.4210
 8531SOL     OW37054   0.795   0.035   6.252 -0.2749  0.0763  0.0896
 8531SOL    HW137055   0.811   0.128   6.235  0.0341  0.0202  0.0741
 8531SOL    HW237056   0.710   0.046   6.295  0.0698  0.1559  0.7619
 8532SOL     OW37057   0.312   3.518   6.376 -0.9836 -0.0072  0.4231
 8532SOL    HW137058   0.296   3.573   6.452 -0.6301 -2.2134  2.0695
 8532SOL    HW237059   0.336   3.588   6.314  0.0776 -0.6406  0.1294
 8533SOL     OW37060   1.663   0.715   1.812 -0.3493 -0.1319 -0.2467
 8533SOL    HW137061   1.728   0.651   1.839 -2.2758 -1.6804  0.7467
 8533SOL    HW237062   1.699   0.735   1.726  1.3172 -2.9786 -0.2300
 8534SOL     OW37063   1.039   0.030  15.234  0.3248  1.1218  0.3422
 8534SOL    HW137064   0.982   0.075  15.172  0.6521 -0.1025 -0.8633
 8534SOL    HW237065   1.089   4.691  15.182 -0.4869  0.8892 -0.1518
 8535SOL     OW37066   1.902   3.168   3.757 -0.2210  0.0038 -0.2951
 8535SOL    HW137067   1.903   3.207   3.669 -0.9063  0.1033 -0.2564
 8535SOL    HW237068   1.989   3.180   3.795 -0.6399  0.4588  0.5072
 8536SOL     OW37069   1.263   2.312   8.400 -0.0350  0.3382 -0.3434
 8536SOL    HW137070   1.223   2.261   8.330  0.9871 -0.7045 -0.1612
 8536SOL    HW237071   1.323   2.249   8.440  0.1009  2.4836  2.8604
 8537SOL     OW37072   1.319   2.817  14.318  0.0225 -0.1109 -0.3599
 8537SOL    HW137073   1.280   2.859  14.242  1.1511 -0.4167 -1.1115
 8537SOL    HW237074   1.392   2.877  14.335  0.5971 -1.0798  0.5979
 8538SOL     OW37075   1.103   1.039   5.100 -0.3398  0.3904 -0.0356
 8538SOL    HW137076   1.069   0.995   5.178  0.9506  0.9852  0.8683
 8538SOL    HW237077   1.132   1.115   5.151 -0.1083  0.9075 -0.9474
 8539SOL     OW37078   1.098   2.436   4.445 -0.3513  0.1881 -0.2687
 8539SOL    HW137079   1.056   2.513   4.406  1.1989  1.1128 -0.0632
 8539SOL    HW237080   1.029   2.371   4.430 -1.9758  1.8841 -0.1562
 8540SOL     OW37081   1.070   2.932   4.017  0.0736  0.5272 -0.2048
 8540SOL    HW137082   1.030   2.876   3.950  0.3533  0.5302 -0.3744
 8540SOL    HW237083   1.005   2.927   4.086  1.6178  0.6264  1.2568
 8541SOL     OW37084   4.312   2.635   6.980  0.0566 -0.2748  0.0075
 8541SOL    HW137085   4.404   2.623   7.004 -0.4223  0.1713  2.0372
 8541SOL    HW237086   4.270   2.658   7.063  1.0032  0.8379  0.1788
 8542SOL     OW37087   1.447   3.497  13.121  0.1866 -0.2630  0.5357
 8542SOL    HW137088   1.394   3.429  13.163  2.0265 -0.4367  2.5350
 8542SOL    HW237089   1.536   3.473  13.146  0.5011 -0.5245 -0.7908
 8543SOL     OW37090   0.733   0.351   0.995  0.1124  0.4443 -0.1018
 8543SOL    HW137091   0.773   0.436   0.978  0.0782  0.6681  0.9451
 8543SOL    HW237092   0.696   0.361   1.082 -0.3653  2.8595 -0.5898
 8544SOL     OW37093   0.023   4.039   9.568  0.0425  0.0138 -0.1185
 8544SOL    HW137094   0.073   3.958   9.581  0.0282  0.4184  2.4785
 8544SOL    HW237095   0.081   4.100   9.615 -0.5822  0.1530  0.4571
 8545SOL     OW37096   3.321   2.796  12.229 -0.2915 -0.0988 -0.3737
 8545SOL    HW137097   3.325   2.889  12.253 -0.9072  0.6405 -3.1643
 8545SOL    HW237098   3.400   2.766  12.275  0.4072 -0.2931 -1.7254
 8546SOL     OW37099   4.640   0.136   8.705  0.0314  0.3366 -0.1801
 8546SOL    HW137100   4.712   0.167   8.760  1.5707 -1.3358 -1.2712
 8546SOL    HW237101   4.685   0.147   8.622 -0.7070 -1.0797 -0.7705
 8547SOL     OW37102   3.270   2.436   9.940 -0.6268  0.7476  0.7852
 8547SOL    HW137103   3.251   2.456  10.031  1.0175 -1.3035  1.5814
 8547SOL    HW237104   3.345   2.494   9.923 -0.2683  0.2117  0.5169
 8548SOL     OW37105   1.372   0.354  10.203 -0.2701  0.4476  0.0445
 8548SOL    HW137106   1.375   0.444  10.171 -1.0101  0.2471 -0.5789
 8548SOL    HW237107   1.313   0.369  10.277  0.7931 -0.2704  1.0382
 8549SOL     OW37108   2.424   1.156   1.281 -0.1418 -0.1910  0.0403
 8549SOL    HW137109   2.464   1.133   1.197 -0.4285 -0.3676 -0.0481
 8549SOL    HW237110   2.497   1.206   1.318 -2.0811  3.6765 -1.3110
 8550SOL     OW37111   1.701   1.765   0.180  0.1573 -0.2478 -0.7459
 8550SOL    HW137112   1.631   1.713   0.218 -0.7374 -0.7764 -3.1255
 8550SOL    HW237113   1.745   1.703   0.122  0.9342  1.3369 -1.8360
 8551SOL     OW37114   4.434   2.898  11.795 -0.3592 -0.0714  0.1186
 8551SOL    HW137115   4.447   2.979  11.844 -1.9752  1.9845 -2.8264
 8551SOL    HW237116   4.390   2.845  11.861 -0.6966 -0.1263 -0.1522
 8552SOL     OW37117   1.569   1.288   3.878 -0.4078 -0.2232  0.1763
 8552SOL    HW137118   1.589   1.194   3.875  1.5820  0.1646  0.8820
 8552SOL    HW237119   1.507   1.298   3.949  0.3791  0.1059  0.8159
 8553SOL     OW37120   0.131   4.158  16.394  0.1485  0.3721  0.6246
 8553SOL    HW137121   0.165   4.089  16.452 -0.3598 -0.3859  0.0148
 8553SOL    HW237122   0.142   4.234  16.451 -0.0485  0.7715  0.1220
 8554SOL     OW37123   1.284   1.417   6.816  0.1881  0.4012 -0.0443
 8554SOL    HW137124   1.188   1.420   6.811  0.2875 -1.4124 -3.1533
 8554SOL    HW237125   1.293   1.322   6.825 -1.7283  0.2750  0.5715
 8555SOL     OW37126   2.766   2.986   5.840  0.0364 -0.2608  0.0545
 8555SOL    HW137127   2.824   3.020   5.772  0.1692  0.7797  0.6970
 8555SOL    HW237128   2.830   2.945   5.898 -0.3852 -1.4145 -0.2953
 8556SOL     OW37129   3.478   0.389   6.411 -0.1682  0.5884 -0.4146
 8556SOL    HW137130   3.561   0.434   6.394 -0.6795  0.2985 -3.6461
 8556SOL    HW237131   3.498   0.336   6.488  0.7471  2.2239  0.4872
 8557SOL     OW37132   2.920   3.332   4.809 -0.0280  0.0227 -0.2200
 8557SOL    HW137133   2.861   3.305   4.738 -0.3946  2.5150 -0.8425
 8557SOL    HW237134   2.889   3.422   4.814 -2.0176 -0.6892  0.3884
 8558SOL     OW37135   0.982   1.770  17.295 -0.3044 -0.3804 -0.0395
 8558SOL    HW137136   0.908   1.722  17.259 -1.2737  2.4183 -1.7459
 8558SOL    HW237137   0.939   1.831  17.355  0.3729 -1.5123  1.5862
 8559SOL     OW37138   1.139   2.914   7.553  0.0023  0.5951 -0.1748
 8559SOL    HW137139   1.190   2.978   7.504  1.5865  0.3925  1.2213
 8559SOL    HW237140   1.088   2.869   7.485 -0.6607 -0.2246  0.8618
 8560SOL     OW37141   1.267   4.138   3.659 -0.2184 -0.1113  0.1563
 8560SOL    HW137142   1.201   4.087   3.705  0.2531 -0.4414  0.4736
 8560SOL    HW237143   1.342   4.125   3.717 -1.0201 -0.5853  1.0882
 8561SOL     OW37144   3.860   1.635   3.983  0.2386 -0.1968 -0.0932
 8561SOL    HW137145   3.786   1.590   4.024  1.2771 -1.9340 -0.1321
 8561SOL    HW237146   3.843   1.729   3.984  3.1077  0.3024  1.1650
 8562SOL     OW37147   1.934   4.490   3.257 -0.1633  0.3431  0.1055
 8562SOL    HW137148   1.852   4.505   3.211 -0.4573  0.7844  0.7689
 8562SOL    HW237149   1.912   4.401   3.285  2.0194  0.7461  3.0829
 8563SOL     OW37150   2.096   4.379   8.659  0.4037 -0.0192  0.3300
 8563SOL    HW137151   2.132   4.311   8.715  0.4530 -0.5135 -0.3013
 8563SOL    HW237152   2.012   4.397   8.702 -0.9665 -1.5862 -1.6280
 8564SOL     OW37153   3.022   2.608   5.645  0.2624 -0.3277  0.2399
 8564SOL    HW137154   3.076   2.670   5.693 -0.8756  0.0551  1.0131
 8564SOL    HW237155   3.031   2.629   5.552  0.7839  0.2650  0.4225
 8565SOL     OW37156   0.476   2.831  15.914  0.0989 -0.4330 -0.0186
 8565SOL    HW137157   0.424   2.857  15.990  0.1690  0.7610 -0.3860
 8565SOL    HW237158   0.500   2.917  15.879 -1.2265 -0.8463 -1.9664
 8566SOL     OW37159   2.292   1.291  11.871 -0.7103 -0.0263  0.3330
 8566SOL    HW137160   2.384   1.309  11.893 -0.5646 -1.5214  0.9172
 8566SOL    HW237161   2.293   1.258  11.781  0.0020 -2.9537  1.4191
 8567SOL     OW37162   2.609   4.715  17.248 -0.2639 -0.1459  0.1931
 8567SOL    HW137163   2.627   4.623  17.269  1.8238 -0.2463 -1.9769
 8567SOL    HW237164   2.514   4.703  17.244 -0.0722 -1.3034 -0.8846
 8568SOL     OW37165   2.266   0.294   4.406  0.1596 -0.0288  0.1462
 8568SOL    HW137166   2.303   0.320   4.491 -1.8559  2.1289  0.3462
 8568SOL    HW237167   2.191   0.352   4.398  1.2774  1.5456  1.0120
 8569SOL     OW37168   2.730   0.424   7.005 -0.3567 -0.1435 -0.1660
 8569SOL    HW137169   2.724   0.472   6.923 -1.7828 -0.1220 -0.0434
 8569SOL    HW237170   2.785   0.477   7.062 -0.4035  1.7292 -1.8717
 8570SOL     OW37171   1.176   4.280   4.585  0.0133 -0.1792 -0.3031
 8570SOL    HW137172   1.248   4.334   4.552 -0.8343  0.4080 -1.1798
 8570SOL    HW237173   1.142   4.255   4.500  0.8892  1.1643 -1.0492
 8571SOL     OW37174   0.192   0.126  16.782 -0.1730 -0.4934  0.2498
 8571SOL    HW137175   0.118   0.100  16.837 -0.5081 -0.5700 -0.2377
 8571SOL    HW237176   0.168   0.064  16.714  1.6550 -0.3085 -0.5518
 8572SOL     OW37177   1.244   3.005   8.581  0.3344  0.3697  0.1241
 8572SOL    HW137178   1.176   2.946   8.546  1.1699 -0.5284  0.0161
 8572SOL    HW237179   1.184   3.077   8.601 -0.3380 -0.1012 -0.1826
 8573SOL     OW37180   1.517   3.575  12.089  0.1807  0.1059  0.5668
 8573SOL    HW137181   1.435   3.578  12.137 -0.4932  1.9911 -0.7159
 8573SOL    HW237182   1.495   3.501  12.033 -0.4090  0.5429  0.2294
 8574SOL     OW37183   3.116   0.448   4.878 -0.1487  0.6325  0.2118
 8574SOL    HW137184   3.172   0.370   4.882 -0.0194  0.8094  1.8295
 8574SOL    HW237185   3.173   0.514   4.840  2.3572 -1.3948  0.4421
 8575SOL     OW37186   3.091   0.403   3.391 -0.1546  0.5127  0.0077
 8575SOL    HW137187   3.070   0.344   3.319 -1.0210 -1.1074  1.5603
 8575SOL    HW237188   3.034   0.365   3.459  0.9751 -0.2954  0.4989
 8576SOL     OW37189   1.279   2.133   2.172  1.0835 -0.6679  0.3963
 8576SOL    HW137190   1.265   2.104   2.082  0.4828  1.3162 -0.1522
 8576SOL    HW237191   1.290   2.226   2.151 -0.0570 -0.7061 -0.4334
 8577SOL     OW37192   0.238   2.337   8.181  0.0208 -0.6323  1.0214
 8577SOL    HW137193   0.236   2.433   8.188 -0.4813 -0.4851 -1.1665
 8577SOL    HW237194   0.239   2.310   8.273 -1.3299 -2.7201  0.4126
 8578SOL     OW37195   3.735   4.193   3.154 -0.1949  0.1132 -0.1474
 8578SOL    HW137196   3.743   4.238   3.070  0.4832  0.5346  0.1394
 8578SOL    HW237197   3.687   4.266   3.194  2.4144  1.7512  0.0628
 8579SOL     OW37198   1.517   2.712   6.565 -0.3266  0.3156  0.0302
 8579SOL    HW137199   1.439   2.769   6.561  0.4641  1.3357 -0.9319
 8579SOL    HW237200   1.559   2.734   6.482  0.7249 -2.3250 -0.1189
 8580SOL     OW37201   1.543   4.361   3.888 -0.0277  0.1027  1.0895
 8580SOL    HW137202   1.549   4.312   3.807  3.9952  0.4010  1.2059
 8580SOL    HW237203   1.619   4.333   3.940  0.9385  3.8297  1.6928
 8581SOL     OW37204   2.758   0.723  15.376 -0.2788 -0.5444 -0.0321
 8581SOL    HW137205   2.695   0.711  15.305  1.4697 -0.0485 -1.6547
 8581SOL    HW237206   2.814   0.647  15.367  0.3320 -0.3461  2.1100
 8582SOL     OW37207   0.433   2.597  12.805 -0.7156  0.1288 -0.4612
 8582SOL    HW137208   0.516   2.558  12.833 -1.4598 -1.2710 -0.2037
 8582SOL    HW237209   0.388   2.517  12.778  1.6693 -1.5979  0.6008
 8583SOL     OW37210   3.278   3.072   3.046  0.1017  0.2332 -0.0008
 8583SOL    HW137211   3.231   3.080   2.963  0.6983  0.4313 -0.3150
 8583SOL    HW237212   3.241   3.137   3.106 -2.1115 -1.2203  0.2391
 8584SOL     OW37213   1.040   3.204   3.427  0.1724  0.3466  0.3035
 8584SOL    HW137214   1.061   3.178   3.337  2.6768  0.1252  0.9446
 8584SOL    HW237215   0.979   3.276   3.413  0.0072 -0.0781 -1.1624
 8585SOL     OW37216   3.065   3.027   8.066  0.5547  0.0188 -0.6067
 8585SOL    HW137217   3.130   2.959   8.051  0.5559 -0.9129  3.5786
 8585SOL    HW237218   3.073   3.071   7.982  0.9211 -0.1851 -0.6774
 8586SOL     OW37219   2.331   4.511   6.105  0.3189  0.0882  0.5645
 8586SOL    HW137220   2.292   4.452   6.040 -0.4360  2.4648 -1.1365
 8586SOL    HW237221   2.344   4.457   6.183 -0.2283  1.6574  1.7542
 8587SOL     OW37222   1.103   3.198   9.941 -0.0880  0.0596  0.3789
 8587SOL    HW137223   1.045   3.171   9.870  0.1964  2.3143 -0.6980
 8587SOL    HW237224   1.123   3.280   9.897 -0.4162  1.6027  3.1007
 8588SOL     OW37225   1.674   2.521   8.026 -0.1628  0.5053  0.1831
 8588SOL    HW137226   1.664   2.494   7.935  2.1250  0.6441 -0.1047
 8588SOL    HW237227   1.586   2.533   8.062  0.7446 -1.4435  3.0730
 8589SOL     OW37228   3.672   0.032   3.687 -0.1256  0.3860  0.0404
 8589SOL    HW137229   3.749   0.027   3.744  0.1813 -0.9936 -0.4905
 8589SOL    HW237230   3.712   0.082   3.615  0.5990 -3.0380 -1.9504
 8590SOL     OW37231   2.473   3.312  10.879  0.0320 -0.0579  0.0722
 8590SOL    HW137232   2.503   3.355  10.959 -0.0961  1.3244 -0.6262
 8590SOL    HW237233   2.470   3.220  10.906  1.6505 -0.1460 -0.0638
 8591SOL     OW37234   0.413   4.681  13.661  0.4040  0.5196  0.3341
 8591SOL    HW137235   0.330   4.639  13.637  0.0861  1.7755 -0.7873
 8591SOL    HW237236   0.387   0.048  13.656 -1.0473  0.0740 -0.5268
 8592SOL     OW37237   2.782   1.172  13.449 -0.2362  0.7452  0.2211
 8592SOL    HW137238   2.739   1.197  13.530 -2.3429 -1.0755 -0.3465
 8592SOL    HW237239   2.861   1.226  13.446  0.6669 -0.4347  3.4317
 8593SOL     OW37240   4.438   2.098   8.021 -0.2946 -0.1121 -0.2579
 8593SOL    HW137241   4.424   2.160   8.093 -2.6241 -0.2556 -0.5707
 8593SOL    HW237242   4.530   2.109   8.001 -0.9644  0.7144 -2.8219
 8594SOL     OW37243   1.909   0.068  12.782 -0.0292  0.2543 -0.4086
 8594SOL    HW137244   1.834   0.086  12.839  0.9614  1.2049  0.5941
 8594SOL    HW237245   1.986   0.060  12.838 -0.7837  0.7327  0.7074
 8595SOL     OW37246   0.884   1.362   7.622 -0.0786 -0.2179  0.0500
 8595SOL    HW137247   0.938   1.287   7.648 -0.6667 -0.2438  1.1799
 8595SOL    HW237248   0.804   1.332   7.666 -0.9579 -1.2201 -2.2107
 8596SOL     OW37249   0.392   0.816   3.640 -0.6493 -0.2536 -0.5907
 8596SOL    HW137250   0.424   0.727   3.655 -0.7256 -0.0642  0.7072
 8596SOL    HW237251   0.299   0.814   3.663 -0.7784  0.2865 -1.0647
 8597SOL     OW37252   1.428   1.552  17.655  0.2114  0.5605  0.3908
 8597SOL    HW137253   1.424   1.471   0.005  0.0676 -1.2879 -2.4994
 8597SOL    HW237254   1.451   1.616   0.021  3.7650 -2.0560  1.6323
 8598SOL     OW37255   0.214   4.278  10.960 -0.4699  0.0439 -0.1135
 8598SOL    HW137256   0.144   4.231  11.006  0.3002 -1.1762 -0.2160
 8598SOL    HW237257   0.231   4.347  11.023  0.3660  0.9435 -1.3245
 8599SOL     OW37258   4.528   1.584  11.035  0.2673 -0.1021  0.0436
 8599SOL    HW137259   4.481   1.508  11.001  0.7631  0.9315 -2.9644
 8599SOL    HW237260   4.463   1.651  11.013  1.9773  1.7267  0.5371
 8600SOL     OW37261   0.517   1.489   6.643 -0.5226 -0.0459  0.2228
 8600SOL    HW137262   0.567   1.502   6.562 -0.4540 -0.3986  0.2082
 8600SOL    HW237263   0.458   1.416   6.626 -0.6220  0.0354  0.2123
 8601SOL     OW37264   2.294   0.683   8.103 -0.2930 -0.1164 -0.2673
 8601SOL    HW137265   2.210   0.714   8.137 -1.6079 -2.8616 -0.9984
 8601SOL    HW237266   2.276   0.593   8.074  1.6620 -0.6726  0.2800
 8602SOL     OW37267   3.386   4.473  10.820 -0.0705  0.0094  0.1997
 8602SOL    HW137268   3.357   4.477  10.728  0.7063  2.2914  0.0490
 8602SOL    HW237269   3.426   4.558  10.838  0.0083 -0.1371  0.6960
 8603SOL     OW37270   3.797   3.015   8.572 -0.6520 -0.3619 -0.2379
 8603SOL    HW137271   3.804   3.103   8.536  1.0097 -0.6688 -0.6495
 8603SOL    HW237272   3.881   2.979   8.545 -0.3722  0.2280 -0.1381
 8604SOL     OW37273   0.077   2.547   8.601  0.6990  0.0123  0.5121
 8604SOL    HW137274   0.073   2.506   8.688  1.0625 -0.0796  0.4857
 8604SOL    HW237275   0.170   2.543   8.580  1.0518 -1.8441  2.4475
 8605SOL     OW37276   2.919   4.701   5.177  0.1272 -0.3056  0.3051
 8605SOL    HW137277   2.825   4.699   5.196 -0.4606  0.3009 -2.6113
 8605SOL    HW237278   2.925   0.015   5.090 -1.0129  2.2777  1.3978
 8606SOL     OW37279   3.519   2.091   4.862 -0.6811  0.4153  0.2189
 8606SOL    HW137280   3.584   2.044   4.915 -0.3797 -0.2801 -0.7720
 8606SOL    HW237281   3.556   2.178   4.843 -1.3763  0.2903 -1.7286
 8607SOL     OW37282   2.863   0.585   5.106 -0.3779 -0.0980 -0.5737
 8607SOL    HW137283   2.957   0.585   5.122 -0.6293 -0.3821  0.9619
 8607SOL    HW237284   2.818   0.563   5.188  1.1188  0.5320  0.4091
 8608SOL     OW37285   2.403   3.520   4.560  0.1012 -0.0084 -0.0025
 8608SOL    HW137286   2.489   3.562   4.562  0.3578 -0.5192 -0.5287
 8608SOL    HW237287   2.420   3.430   4.532 -0.6496 -0.5179  1.1789
 8609SOL     OW37288   4.125   4.449  13.500  0.0650  0.4872  0.1502
 8609SOL    HW137289   4.078   4.529  13.474  0.2397  0.5551  0.0426
 8609SOL    HW237290   4.065   4.378  13.477 -0.4278  1.1467 -0.6231
 8610SOL     OW37291   2.318   1.446   1.874  0.8819  0.0305  0.4456
 8610SOL    HW137292   2.268   1.527   1.867  0.9915 -0.1235 -2.0672
 8610SOL    HW237293   2.338   1.442   1.968 -1.5415  3.3789  1.1150
 8611SOL     OW37294   0.700   0.376   5.514  0.1499  0.3050 -0.5692
 8611SOL    HW137295   0.611   0.385   5.482  0.4643 -0.8012 -1.7640
 8611SOL    HW237296   0.757   0.362   5.438  0.0380 -2.2613 -0.1776
 8612SOL     OW37297   2.220   3.941   6.032 -0.2576 -0.4016  0.5174
 8612SOL    HW137298   2.289   3.875   6.025  0.5339  0.4450  0.3435
 8612SOL    HW237299   2.221   3.973   5.942 -0.3490  0.6812  0.9059
 8613SOL     OW37300   2.825   1.809   1.819  0.1813 -0.2496  0.4277
 8613SOL    HW137301   2.811   1.897   1.783  1.1075 -0.7124 -1.0701
 8613SOL    HW237302   2.903   1.793   1.765 -0.1519  0.0765 -0.1519
 8614SOL     OW37303   2.393   4.570  15.654 -0.8121 -0.1093  0.1751
 8614SOL    HW137304   2.455   4.525  15.597 -2.2890  1.1233 -2.3992
 8614SOL    HW237305   2.365   4.496  15.708 -1.6404 -0.2547 -0.4528
 8615SOL     OW37306   0.801   1.686   5.525 -0.5749 -0.1866  0.2304
 8615SOL    HW137307   0.842   1.618   5.472 -2.7099 -1.6375  0.4470
 8615SOL    HW237308   0.875   1.745   5.538 -1.3691  0.8413  0.1751
 8616SOL     OW37309   0.256   1.451  12.860 -0.5034 -0.2204  0.4684
 8616SOL    HW137310   0.174   1.478  12.900 -0.4328  1.6905 -0.6839
 8616SOL    HW237311   0.244   1.485  12.772 -0.8693  1.3156  1.1227
 8617SOL     OW37312   1.242   2.113  17.431  0.3652 -0.1827  0.3798
 8617SOL    HW137313   1.250   2.022  17.400  0.8186  0.2891 -0.8985
 8617SOL    HW237314   1.167   2.148  17.383  1.7535  0.9700 -0.9630
 8618SOL     OW37315   1.979   1.296  16.301  1.0363 -0.3049 -0.2701
 8618SOL    HW137316   1.998   1.389  16.296 -1.4881  0.2671  1.3037
 8618SOL    HW237317   1.919   1.275  16.229  0.9235 -0.6773 -0.0704
 8619SOL     OW37318   4.646   3.769   7.616 -0.3475 -0.0639 -0.1960
 8619SOL    HW137319   4.625   3.676   7.611 -2.2397  0.4134 -1.0890
 8619SOL    HW237320   4.671   3.782   7.707  0.4008  0.5671 -0.4860
 8620SOL     OW37321   3.171   2.410   9.168 -0.0181 -0.0007 -0.4148
 8620SOL    HW137322   3.267   2.415   9.166  0.0247 -0.1277  0.9360
 8620SOL    HW237323   3.164   2.325   9.124 -1.0980 -0.6364  0.9756
 8621SOL     OW37324   1.475   2.399   5.142  0.1177  0.3323  0.3124
 8621SOL    HW137325   1.427   2.481   5.156 -0.7986 -0.2650  0.6660
 8621SOL    HW237326   1.401   2.341   5.161 -0.5367  1.3937  1.0262
 8622SOL     OW37327   1.424   2.837   5.379 -0.3307 -0.4320  0.1193
 8622SOL    HW137328   1.511   2.876   5.384 -0.8076  0.5566  0.7670
 8622SOL    HW237329   1.378   2.909   5.335  2.1377  0.2298 -1.3440
 8623SOL     OW37330   1.845   1.097   5.710 -0.3532  0.1855 -0.5274
 8623SOL    HW137331   1.808   1.033   5.771 -1.8517  1.0317 -0.5562
 8623SOL    HW237332   1.870   1.152   5.785  1.4377  0.2683 -1.1958
 8624SOL     OW37333   1.065   2.184  10.929  0.2074 -0.4479  0.0829
 8624SOL    HW137334   1.087   2.092  10.945 -0.3804 -0.1734  2.4633
 8624SOL    HW237335   1.022   2.181  10.843  1.6979  1.6877 -0.7123
 8625SOL     OW37336   1.328   0.866   3.297 -0.6284  0.7593  0.0159
 8625SOL    HW137337   1.272   0.925   3.347 -0.5849  0.6295  0.2233
 8625SOL    HW237338   1.374   0.938   3.254 -0.9342  0.6001 -0.5675
 8626SOL     OW37339   1.984   0.259   4.164  0.4192 -0.3693  0.0166
 8626SOL    HW137340   2.074   0.228   4.169 -0.0502 -1.5569  1.1633
 8626SOL    HW237341   1.953   0.202   4.093  0.8101  0.5094 -0.8648
 8627SOL     OW37342   2.079   1.090   7.222  0.6469  0.3935  0.1380
 8627SOL    HW137343   2.133   1.019   7.259  1.7376  1.3753  0.4328
 8627SOL    HW237344   2.142   1.162   7.215  0.3903  0.4239 -2.0289
 8628SOL     OW37345   0.986   1.363  16.419  0.3143  0.3322 -0.1060
 8628SOL    HW137346   0.985   1.310  16.498 -0.5258 -0.3873 -0.5913
 8628SOL    HW237347   0.983   1.296  16.350  2.1115  0.5041 -0.3523
 8629SOL     OW37348   0.853   3.770   8.287  0.2896  0.3450 -0.0947
 8629SOL    HW137349   0.857   3.682   8.325  0.3130  0.8934  1.1563
 8629SOL    HW237350   0.798   3.802   8.358  0.3411 -0.2415  0.2129
 8630SOL     OW37351   0.210   1.532   6.072  0.6004 -0.2249  0.2791
 8630SOL    HW137352   0.210   1.559   5.980 -1.1794  0.1353  0.3774
 8630SOL    HW237353   0.165   1.447   6.069  2.8008 -1.4882  3.2848
 8631SOL     OW37354   0.131   1.053   5.561  0.3546  0.4084  0.0402
 8631SOL    HW137355   0.124   1.131   5.616  2.1304  0.6482 -0.0843
 8631SOL    HW237356   0.043   1.020   5.578  0.6845  0.3291  1.6645
 8632SOL     OW37357   4.440   3.166   7.845 -0.6068 -0.0654 -0.1260
 8632SOL    HW137358   4.518   3.148   7.897 -0.6533 -0.8500 -0.3400
 8632SOL    HW237359   4.395   3.084   7.825  0.5293 -1.0829  1.4631
 8633SOL     OW37360   2.746   0.345   3.070 -0.3179  0.7323  0.0099
 8633SOL    HW137361   2.772   0.311   2.984 -0.9414 -3.1214  1.3286
 8633SOL    HW237362   2.831   0.371   3.106  1.4569 -1.7719 -2.2982
 8634SOL     OW37363   2.621   0.909   8.457  0.3712 -0.4531 -0.7377
 8634SOL    HW137364   2.563   0.836   8.477 -1.2899  1.2439  0.7208
 8634SOL    HW237365   2.598   0.934   8.368  1.0374 -0.1150 -0.8184
 8635SOL     OW37366   1.931   2.748  14.595  0.3143  0.0423 -0.0134
 8635SOL    HW137367   2.004   2.784  14.646  0.3029  0.5635 -0.3661
 8635SOL    HW237368   1.897   2.677  14.649 -0.2140  1.1803  1.1458
 8636SOL     OW37369   2.785   2.248   5.623 -0.1912  0.2184  0.0416
 8636SOL    HW137370   2.814   2.236   5.713  0.0153  0.8397  0.0552
 8636SOL    HW237371   2.852   2.194   5.580  0.1560  2.2739 -1.9687
 8637SOL     OW37372   3.273   2.292   5.637  0.4170  0.2702  0.0830
 8637SOL    HW137373   3.337   2.348   5.592  1.4538 -0.1473  1.0418
 8637SOL    HW237374   3.274   2.330   5.725  0.7914 -2.0230  1.0672
 8638SOL     OW37375   2.718   0.230   3.406 -0.0946 -0.6330 -0.5228
 8638SOL    HW137376   2.779   0.158   3.421 -0.9184 -1.5039 -1.3089
 8638SOL    HW237377   2.715   0.212   3.312 -0.2580  0.1619 -0.6738
 8639SOL     OW37378   1.930   3.811  14.533 -0.0107  0.6033 -0.0815
 8639SOL    HW137379   1.842   3.822  14.497 -0.0358  0.2755 -0.1217
 8639SOL    HW237380   1.977   3.874  14.478 -1.2686  0.9427 -0.7715
 8640SOL     OW37381   4.372   1.370   8.094 -0.7322  0.1562 -0.2577
 8640SOL    HW137382   4.337   1.445   8.046  1.1532  1.1355 -0.1064
 8640SOL    HW237383   4.434   1.345   8.025 -1.2089 -1.4665 -0.0977
 8641SOL     OW37384   2.115   0.318   3.552 -0.0269  0.0017  0.6161
 8641SOL    HW137385   2.083   0.399   3.512  0.0154  0.5510  1.7025
 8641SOL    HW237386   2.210   0.329   3.552 -0.0898  0.6593  2.4782
 8642SOL     OW37387   1.550   2.590  16.746 -0.0968 -0.4262 -0.2247
 8642SOL    HW137388   1.601   2.655  16.699 -1.1021  1.1996  0.9180
 8642SOL    HW237389   1.509   2.547  16.671 -0.5757 -1.7378  0.7871
 8643SOL     OW37390   1.182   4.252   6.382  0.0018 -0.0201 -0.2048
 8643SOL    HW137391   1.258   4.303   6.410 -0.4184  0.1484  0.6321
 8643SOL    HW237392   1.183   4.181   6.446  0.1848  1.3814  1.3464
 8644SOL     OW37393   0.210   4.198   9.694  0.3989 -0.3751 -0.1554
 8644SOL    HW137394   0.250   4.267   9.642  0.5926  0.8284  1.6016
 8644SOL    HW237395   0.294   4.154   9.708  0.4032 -0.0412  0.8671
 8645SOL     OW37396   0.608   2.093   6.940  0.0845 -0.4819 -0.5299
 8645SOL    HW137397   0.601   2.099   6.844 -0.9970 -2.8159 -0.6108
 8645SOL    HW237398   0.517   2.087   6.968 -0.9703  3.9181 -3.0203
 8646SOL     OW37399   4.000   2.488   6.559 -0.0596  0.0247 -0.0761
 8646SOL    HW137400   4.071   2.440   6.600  1.8571  0.8852 -2.3875
 8646SOL    HW237401   3.936   2.495   6.630 -0.0496  1.1293 -0.1671
 8647SOL     OW37402   4.193   1.198   6.578 -0.2798 -0.2664 -0.3717
 8647SOL    HW137403   4.120   1.200   6.516 -0.5849 -0.9075 -0.0285
 8647SOL    HW237404   4.151   1.202   6.664 -2.3115 -1.5335 -1.3187
 8648SOL     OW37405   3.141   2.291  12.609 -0.4103 -0.1450 -0.0038
 8648SOL    HW137406   3.063   2.332  12.645  0.4292  2.0808 -0.7488
 8648SOL    HW237407   3.200   2.301  12.683 -0.7346 -0.3644  0.2853
 8649SOL     OW37408   3.289   0.930   8.761 -0.6050 -0.1377  0.2325
 8649SOL    HW137409   3.239   0.937   8.843  0.0332  0.6158  0.5613
 8649SOL    HW237410   3.219   0.946   8.698  1.2429  1.0491 -1.5268
 8650SOL     OW37411   1.338   4.611   3.662 -0.3903 -0.4528 -0.4947
 8650SOL    HW137412   1.249   4.587   3.687 -0.6053  0.3913 -0.4803
 8650SOL    HW237413   1.387   4.618   3.744  0.8418  3.4137 -1.5858
 8651SOL     OW37414   2.338   0.985  17.310  0.5639  0.3316  0.1029
 8651SOL    HW137415   2.395   0.920  17.350  0.1842  0.9104  1.6287
 8651SOL    HW237416   2.279   1.011  17.381  1.4765 -0.5932  1.2018
 8652SOL     OW37417   0.552   1.652   3.592 -0.2265 -0.3732  0.2124
 8652SOL    HW137418   0.604   1.582   3.554 -0.0741 -1.7747  2.9610
 8652SOL    HW237419   0.520   1.684   3.508 -0.1869 -2.7355 -0.6875
 8653SOL     OW37420   1.931   4.372   3.676  0.3456  0.1077  0.2833
 8653SOL    HW137421   1.934   4.462   3.644 -0.6443 -0.3396 -1.0487
 8653SOL    HW237422   1.840   4.349   3.660  0.5699  0.7339 -1.8493
 8654SOL     OW37423   0.739   2.356   5.370  0.1743  0.1635 -0.2746
 8654SOL    HW137424   0.738   2.336   5.464 -2.7916  0.1419 -0.3077
 8654SOL    HW237425   0.735   2.451   5.376  4.2653  0.3903 -1.2219
 8655SOL     OW37426   4.277   2.391   6.604 -0.1698  0.1560 -0.1364
 8655SOL    HW137427   4.351   2.449   6.624  1.6768 -1.3432 -2.6328
 8655SOL    HW237428   4.264   2.336   6.681 -0.5948  1.8366  0.9868
 8656SOL     OW37429   3.548   1.705  16.524 -0.1924  0.1030 -0.3028
 8656SOL    HW137430   3.557   1.800  16.525  1.7542 -0.0733  0.3319
 8656SOL    HW237431   3.455   1.704  16.546  0.0953  0.1102  0.9320
 8657SOL     OW37432   3.804   3.909   7.757  0.2733 -0.4226 -0.0481
 8657SOL    HW137433   3.877   3.913   7.695 -0.8706 -0.3335 -1.3898
 8657SOL    HW237434   3.755   3.985   7.727 -0.2015  0.8358  3.9263
 8658SOL     OW37435   2.913   3.987   2.021 -0.0063 -0.1751 -0.2621
 8658SOL    HW137436   2.821   3.974   1.997  0.3481 -0.8648 -1.2672
 8658SOL    HW237437   2.912   3.932   2.099  0.1236  1.8267  1.1323
 8659SOL     OW37438   1.014   4.008  13.496 -0.1505 -0.5734  0.3038
 8659SOL    HW137439   1.105   3.990  13.520  0.7241 -0.2909 -2.7910
 8659SOL    HW237440   1.013   3.961  13.413 -0.6739  0.4040 -0.2431
 8660SOL     OW37441   3.111   0.953   4.785 -0.1629  0.1877 -0.7546
 8660SOL    HW137442   3.098   0.994   4.871  2.6686  2.1310 -1.2802
 8660SOL    HW237443   3.154   1.028   4.745 -0.0254 -1.0603 -2.9156
 8661SOL     OW37444   4.721   4.701   2.412  0.1926 -0.0331  0.2967
 8661SOL    HW137445   0.029   0.065   2.399  0.0161  0.0226  0.2350
 8661SOL    HW237446   4.651   0.002   2.471 -1.2972 -0.0340 -1.4816
 8662SOL     OW37447   3.716   4.453  14.923 -0.1550  0.0929  0.0721
 8662SOL    HW137448   3.808   4.442  14.944  0.0274 -2.8159 -2.1779
 8662SOL    HW237449   3.702   4.543  14.953  1.6043  1.1714 -2.3185
 8663SOL     OW37450   1.084   0.888   0.261 -0.3654  0.0081 -0.3466
 8663SOL    HW137451   1.174   0.901   0.291 -0.3027 -0.7666 -0.1984
 8663SOL    HW237452   1.043   0.822   0.317 -0.2981  0.1874 -0.0882
 8664SOL     OW37453   1.646   2.789   6.337 -0.4609  0.1765  0.0898
 8664SOL    HW137454   1.734   2.756   6.316 -0.7475 -0.1959 -0.5099
 8664SOL    HW237455   1.651   2.884   6.340 -1.4314  0.2270 -0.2325
 8665SOL     OW37456   4.594   1.340   4.745  0.6112 -0.7270  0.4894
 8665SOL    HW137457   4.652   1.269   4.772  0.3962 -1.2407 -0.3815
 8665SOL    HW237458   4.619   1.401   4.814  4.2883 -1.1423 -0.5121
 8666SOL     OW37459   4.260   0.576   3.245 -0.1295  0.5389  0.1922
 8666SOL    HW137460   4.339   0.604   3.291  0.5429 -2.8327  1.0876
 8666SOL    HW237461   4.283   0.589   3.153 -0.6507 -1.5924 -0.2525
 8667SOL     OW37462   0.474   4.320   5.682  0.3375  0.1647  0.1469
 8667SOL    HW137463   0.442   4.409   5.667  0.9857  0.3704 -0.0123
 8667SOL    HW237464   0.466   4.312   5.777 -0.7564 -0.8669 -0.0326
 8668SOL     OW37465   1.718   4.339   4.450  0.2790 -0.2478  0.2178
 8668SOL    HW137466   1.715   4.248   4.419 -2.6106 -0.7659  2.0018
 8668SOL    HW237467   1.807   4.363   4.424  1.4058 -1.3477  3.1433
 8669SOL     OW37468   2.125   2.861   4.311  0.5873 -0.0647  0.2070
 8669SOL    HW137469   2.113   2.822   4.225 -2.9799  0.5894  0.4063
 8669SOL    HW237470   2.144   2.780   4.358 -0.6441  0.1434  1.0632
 8670SOL     OW37471   3.989   3.273  12.272 -0.1947  0.1411 -0.3873
 8670SOL    HW137472   3.898   3.282  12.301  0.7462 -1.5130  3.0362
 8670SOL    HW237473   4.002   3.340  12.205 -1.4979  1.5978  0.8416
 8671SOL     OW37474   0.492   3.860   3.020  0.3322 -0.2736 -0.1640
 8671SOL    HW137475   0.422   3.891   2.963  0.2528  0.0224  0.0931
 8671SOL    HW237476   0.557   3.929   3.010  0.7470 -0.5757  0.4830
 8672SOL     OW37477   0.588   3.179   7.093 -0.2255  0.3137 -0.3614
 8672SOL    HW137478   0.573   3.097   7.045 -0.7386 -0.2006  0.6823
 8672SOL    HW237479   0.519   3.238   7.063 -1.5348 -1.0156  0.0078
 8673SOL     OW37480   4.646   2.190  10.641 -0.3159 -0.4387 -0.3863
 8673SOL    HW137481   4.694   2.112  10.669 -1.5894 -1.1592 -0.2216
 8673SOL    HW237482   4.676   2.250  10.709 -1.2917 -0.6626  0.2447
 8674SOL     OW37483   2.238   1.127   3.189 -0.4865  0.0194  0.4247
 8674SOL    HW137484   2.191   1.205   3.218  0.0425  0.4042  0.2498
 8674SOL    HW237485   2.304   1.158   3.127 -0.5314  1.3930  1.0645
 8675SOL     OW37486   4.413   3.434   5.108  0.5318  0.2938 -0.2485
 8675SOL    HW137487   4.433   3.423   5.201  2.5774  2.5213 -0.4295
 8675SOL    HW237488   4.320   3.457   5.101  0.0552 -1.1474  1.2196
 8676SOL     OW37489   0.168   3.099   1.839 -0.1237 -0.1047  0.2946
 8676SOL    HW137490   0.199   3.183   1.873 -0.9417 -0.1534  1.1535
 8676SOL    HW237491   0.124   3.074   1.920 -1.4045 -0.5860 -0.5471
 8677SOL     OW37492   2.281   3.393   7.212  0.5777  0.2813  0.4176
 8677SOL    HW137493   2.295   3.488   7.218  1.2233  0.4485 -3.6874
 8677SOL    HW237494   2.214   3.388   7.281  0.7264 -0.7176  0.4819
 8678SOL     OW37495   2.736   2.394   3.860  0.3899 -0.1977  0.5007
 8678SOL    HW137496   2.688   2.450   3.921  2.7221 -0.5395  2.6366
 8678SOL    HW237497   2.790   2.465   3.825  1.1338 -0.9440  0.1231
 8679SOL     OW37498   1.049   2.771  14.773 -0.0113 -0.3063 -0.1015
 8679SOL    HW137499   1.100   2.829  14.716  0.7768 -0.0611  0.8432
 8679SOL    HW237500   0.959   2.797  14.752  1.2761  3.2517 -1.2399
 8680SOL     OW37501   0.459   1.842   4.045  0.3761  0.1568 -0.4690
 8680SOL    HW137502   0.448   1.807   4.134  2.6790 -1.7332 -0.9352
 8680SOL    HW237503   0.551   1.818   4.041  1.3693  3.7436  0.8791
 8681SOL     OW37504   1.296   2.783   5.613  0.6886  0.2898 -0.2816
 8681SOL    HW137505   1.333   2.821   5.533 -0.6142 -1.8188 -1.8971
 8681SOL    HW237506   1.372   2.751   5.661  0.2376 -2.0378 -1.1119
 8682SOL     OW37507   2.629   2.967   4.163  0.0710  0.4407  0.6630
 8682SOL    HW137508   2.539   2.942   4.142  0.7225  0.9893 -2.7426
 8682SOL    HW237509   2.620   3.062   4.167 -1.7090  0.3806 -1.9409
 8683SOL     OW37510   1.005   3.150  11.027  0.4804 -0.0089 -0.0803
 8683SOL    HW137511   0.945   3.220  10.998 -0.0484 -2.1065 -4.0816
 8683SOL    HW237512   1.075   3.154  10.962  0.5687  1.0993  0.0837
 8684SOL     OW37513   4.561   0.915   6.985 -0.0228  0.0782 -0.5014
 8684SOL    HW137514   4.520   0.983   6.931  0.7212  1.5710  0.8244
 8684SOL    HW237515   4.571   0.836   6.931  0.1903 -1.0836  1.2539
 8685SOL     OW37516   1.570   3.602   2.297 -0.5871  0.1001 -0.2472
 8685SOL    HW137517   1.498   3.541   2.315 -1.0895  1.0933  1.1396
 8685SOL    HW237518   1.530   3.622   2.213  1.2466 -1.0402 -1.3700
 8686SOL     OW37519   1.766   2.703  16.473 -0.1628  0.2757 -0.3980
 8686SOL    HW137520   1.680   2.734  16.499 -0.0942  0.0415  0.1112
 8686SOL    HW237521   1.773   2.755  16.393 -0.4076 -3.4036 -2.8055
 8687SOL     OW37522   0.391   0.101   7.104 -0.2270  0.6094  0.0899
 8687SOL    HW137523   0.445   0.180   7.096  1.2371 -0.2594  1.3365
 8687SOL    HW237524   0.418   0.069   7.190 -2.3194 -1.0137  0.1425
 8688SOL     OW37525   2.477   3.195   5.520  0.0727  0.4521  0.0419
 8688SOL    HW137526   2.466   3.126   5.456  1.5521  0.6614 -0.4255
 8688SOL    HW237527   2.396   3.246   5.511 -0.9579 -1.7176 -2.7727
 8689SOL     OW37528   1.423   0.989   8.768 -0.6104  0.2633 -0.1709
 8689SOL    HW137529   1.371   1.067   8.783 -1.5808  0.1454 -3.1590
 8689SOL    HW237530   1.508   1.026   8.792  0.1266 -0.2134 -2.0435
 8690SOL     OW37531   3.988   3.480  12.049  0.0185  0.0463  0.3370
 8690SOL    HW137532   3.998   3.574  12.061  0.2439  0.4116 -2.6609
 8690SOL    HW237533   4.012   3.477  11.956 -0.5710 -0.3360  0.1962
 8691SOL     OW37534   2.509   0.506   7.366  0.2274 -0.1714 -0.0472
 8691SOL    HW137535   2.565   0.429   7.359 -0.0752 -0.0055 -4.7165
 8691SOL    HW237536   2.507   0.528   7.273 -0.0411 -1.3957 -0.3340
 8692SOL     OW37537   3.093   1.029   3.060 -0.5999  0.2183  0.4660
 8692SOL    HW137538   3.122   1.057   3.146 -0.5276 -0.5380  0.6896
 8692SOL    HW237539   3.121   0.938   3.053  0.0136  0.4044  0.5358
 8693SOL     OW37540   1.529   1.582  12.157  0.2852 -0.1144  0.1659
 8693SOL    HW137541   1.585   1.546  12.226 -0.3683 -1.5031 -0.0198
 8693SOL    HW237542   1.448   1.597  12.205  0.6447  0.2686  0.6493
 8694SOL     OW37543   0.435   4.077   4.981 -0.0909  0.0395  0.2146
 8694SOL    HW137544   0.374   4.030   4.924 -0.5513 -0.3559  1.0172
 8694SOL    HW237545   0.479   4.122   4.909 -1.2027  0.4401 -0.2129
 8695SOL     OW37546   1.587   2.782   8.210 -0.1653  0.6067  0.3977
 8695SOL    HW137547   1.511   2.769   8.268 -0.4290  0.8196  0.1016
 8695SOL    HW237548   1.546   2.806   8.127  1.3174  0.1304 -0.4763
 8696SOL     OW37549   2.183   0.476  16.721  0.1461  0.0421 -0.3106
 8696SOL    HW137550   2.211   0.525  16.798  0.0997 -0.6853  0.1667
 8696SOL    HW237551   2.095   0.511  16.732  0.0381 -0.4798  0.4737
 8697SOL     OW37552   4.513   0.235  17.592 -0.0360 -0.3990 -0.2324
 8697SOL    HW137553   4.518   0.209  17.501  1.1613  1.9081 -0.8289
 8697SOL    HW237554   4.420   0.258  17.592 -0.3944 -1.8567 -0.7943
 8698SOL     OW37555   1.857   2.096  14.049 -0.0289 -0.0698 -0.4873
 8698SOL    HW137556   1.929   2.093  13.986 -0.1186 -1.0992 -0.5416
 8698SOL    HW237557   1.799   2.033  14.007 -2.9768  1.7166  0.9246
 8699SOL     OW37558   0.098   0.847   5.265  0.2375 -0.2017  0.2039
 8699SOL    HW137559   0.022   0.817   5.213  1.8648  0.7885 -2.7210
 8699SOL    HW237560   0.085   0.828   5.358 -3.7985  1.1884 -0.0746
 8700SOL     OW37561   2.093   3.483  17.322 -0.6301  0.7255  0.3410
 8700SOL    HW137562   2.173   3.473  17.373 -0.6966  0.1078  0.3219
 8700SOL    HW237563   2.037   3.438  17.386 -0.5519  2.1936  1.4346
 8701SOL     OW37564   3.672   0.475   7.819  0.3246  0.1809  0.4518
 8701SOL    HW137565   3.586   0.445   7.849  0.1593  0.7254  0.5253
 8701SOL    HW237566   3.729   0.399   7.810  0.4646  0.4055 -0.5487
 8702SOL     OW37567   4.118   0.432  15.594  0.1148 -0.2133  0.0725
 8702SOL    HW137568   4.184   0.486  15.551  2.7194 -3.0891  0.5182
 8702SOL    HW237569   4.163   0.411  15.676 -2.9775 -1.3513  1.4770
 8703SOL     OW37570   2.201   0.297  15.996  0.5594  0.3275  0.2070
 8703SOL    HW137571   2.173   0.304  16.087  2.6671  1.2615  0.7733
 8703SOL    HW237572   2.116   0.313  15.955  1.2968  0.2355 -1.3578
 8704SOL     OW37573   4.652   2.217  11.036 -0.4788 -0.1185 -0.5469
 8704SOL    HW137574   4.703   2.249  10.962  0.5619 -1.0942 -0.2403
 8704SOL    HW237575   4.585   2.285  11.030 -0.6789 -0.4180 -1.7000
 8705SOL     OW37576   0.210   3.144   6.203 -0.4894  0.0969 -0.6827
 8705SOL    HW137577   0.291   3.194   6.198 -0.8501  0.8332  0.9810
 8705SOL    HW237578   0.233   3.084   6.274  0.5650  1.7206  0.3650
 8706SOL     OW37579   1.078   1.998   7.525  0.2111 -0.2274  0.4496
 8706SOL    HW137580   1.152   2.053   7.552  0.6487 -0.4719 -0.2592
 8706SOL    HW237581   1.061   2.054   7.450  0.9079  0.7901  1.0446
 8707SOL     OW37582   0.202   3.772  11.302 -0.8719 -0.5050 -0.0199
 8707SOL    HW137583   0.165   3.694  11.343 -1.6737 -0.5711 -0.8736
 8707SOL    HW237584   0.179   3.771  11.209 -1.9338  0.0150  0.2463
 8708SOL     OW37585   3.361   3.637   6.851 -0.4581 -0.0278  0.6562
 8708SOL    HW137586   3.391   3.683   6.930  0.2491 -0.6965  0.7730
 8708SOL    HW237587   3.435   3.588   6.815 -0.0333  0.7335  0.4973
 8709SOL     OW37588   0.284   3.872  10.937 -0.0198  0.0478  0.6528
 8709SOL    HW137589   0.321   3.925  11.007 -1.2648 -1.1206  2.2043
 8709SOL    HW237590   0.197   3.846  10.969  0.0042 -0.7694  0.0539
 8710SOL     OW37591   1.097   2.498   3.864  0.0132  0.1829  0.3202
 8710SOL    HW137592   1.106   2.589   3.833 -0.1657 -0.8499 -2.8055
 8710SOL    HW237593   1.189   2.476   3.878  0.0967 -0.3045 -1.0134
 8711SOL     OW37594   3.028   2.167   4.235  0.3772  0.4155  0.6190
 8711SOL    HW137595   2.980   2.220   4.298 -0.8231 -1.5907  1.3973
 8711SOL    HW237596   3.048   2.239   4.175  0.1901  0.6773  0.8721
 8712SOL     OW37597   4.440   4.238  10.373 -0.0689  0.7048 -0.6359
 8712SOL    HW137598   4.462   4.145  10.370  1.3204  1.1316 -3.3223
 8712SOL    HW237599   4.482   4.275  10.295 -1.8066  2.7556 -0.5931
 8713SOL     OW37600   0.021   3.786   4.887  0.2962  0.3998 -0.0080
 8713SOL    HW137601   4.676   3.721   4.898  1.0392 -0.6509 -1.4202
 8713SOL    HW237602   0.091   3.731   4.853  0.1504 -0.2548  0.7407
 8714SOL     OW37603   1.991   0.163  13.257 -0.4035  0.1332 -0.0699
 8714SOL    HW137604   1.938   0.203  13.187 -0.1508 -0.2802 -0.4979
 8714SOL    HW237605   1.945   0.203  13.330 -1.0446  0.2583 -0.5392
 8715SOL     OW37606   3.841   4.044   4.917 -0.1131  0.0795  0.2583
 8715SOL    HW137607   3.905   3.996   4.969 -0.6136 -2.1802 -1.2525
 8715SOL    HW237608   3.866   4.135   4.935  1.0012 -0.0450 -0.6354
 8716SOL     OW37609   2.368   0.246  10.549 -0.5604 -0.6566 -0.1665
 8716SOL    HW137610   2.432   0.313  10.570 -0.4593 -0.8302  0.0720
 8716SOL    HW237611   2.424   0.170  10.566 -1.6460 -0.7966  2.7498
 8717SOL     OW37612   2.338   1.631   7.043 -0.2238 -0.2638  0.0983
 8717SOL    HW137613   2.422   1.669   7.069 -0.2676  0.7118 -1.1546
 8717SOL    HW237614   2.287   1.707   7.015 -1.4784 -0.9764  0.4807
 8718SOL     OW37615   1.912   3.219  13.526  0.7077 -0.0459 -0.0400
 8718SOL    HW137616   1.989   3.234  13.580  0.8684  0.8194 -0.5251
 8718SOL    HW237617   1.898   3.302  13.481 -1.4129 -0.2951  0.1428
 8719SOL     OW37618   1.625   0.907  14.767 -0.3684 -0.1666 -0.3154
 8719SOL    HW137619   1.595   0.997  14.748  1.8353  0.6183 -0.0614
 8719SOL    HW237620   1.547   0.852  14.763 -0.2204 -0.6009  3.7480
 8720SOL     OW37621   3.569   2.004   4.328 -0.4337  0.7259  0.1271
 8720SOL    HW137622   3.653   1.993   4.282 -0.8182 -0.6077 -0.2319
 8720SOL    HW237623   3.529   1.917   4.323 -0.8930  1.0748 -2.5789
 8721SOL     OW37624   4.716   3.049   0.582  0.0245 -0.1728  0.2160
 8721SOL    HW137625   4.709   3.143   0.565 -0.9435 -0.4298 -0.8437
 8721SOL    HW237626   4.631   3.016   0.612  1.8462 -3.0354  2.1633
 8722SOL     OW37627   2.741   0.510   5.343  0.3617  0.3178 -0.0723
 8722SOL    HW137628   2.660   0.558   5.327  0.6594  0.2574 -1.7604
 8722SOL    HW237629   2.702   0.423   5.356  0.3270  0.3389 -0.0360
 8723SOL     OW37630   1.822   3.887   2.043 -0.2147 -0.6039 -0.3200
 8723SOL    HW137631   1.839   3.980   2.058  2.5076 -0.7097 -2.8698
 8723SOL    HW237632   1.727   3.885   2.055 -0.3692  1.9450 -1.2828
 8724SOL     OW37633   2.647   0.837   6.205 -0.0511  0.2279  0.4236
 8724SOL    HW137634   2.687   0.785   6.136 -1.2867  1.0854 -0.9376
 8724SOL    HW237635   2.711   0.908   6.214  1.2789 -1.1471  1.8962
 8725SOL     OW37636   0.179   1.521  17.407  0.8483 -0.2204  0.6741
 8725SOL    HW137637   0.124   1.480  17.473  2.5209 -2.3878  0.7313
 8725SOL    HW237638   0.122   1.561  17.342  0.2711 -0.9061  0.7629
 8726SOL     OW37639   0.674   3.337  11.592  0.0148  0.2950 -0.2372
 8726SOL    HW137640   0.629   3.328  11.509 -0.4720 -0.3157  0.0966
 8726SOL    HW237641   0.704   3.247  11.609 -0.2323  0.7000  2.4160
 8727SOL     OW37642   0.548   0.920  16.933 -0.4416 -0.2957  0.2980
 8727SOL    HW137643   0.496   0.973  16.994  2.6699  2.9301  0.0981
 8727SOL    HW237644   0.509   0.918  16.845  0.4424  0.3367 -0.1054
 8728SOL     OW37645   1.468   0.984  11.872 -0.1485 -0.2237  0.2776
 8728SOL    HW137646   1.528   0.928  11.822 -2.0922 -2.4766  0.4681
 8728SOL    HW237647   1.381   0.956  11.845 -0.5097 -0.3282  1.5715
 8729SOL     OW37648   1.076   1.443   2.674 -0.0030  0.2287 -0.4707
 8729SOL    HW137649   1.017   1.480   2.608  1.4544  1.1142 -1.2859
 8729SOL    HW237650   1.077   1.353   2.642  0.9657 -0.7102  2.1986
 8730SOL     OW37651   1.822   4.410  11.394 -0.0628 -0.0450 -0.2735
 8730SOL    HW137652   1.771   4.433  11.317 -0.4216 -0.5625 -0.1904
 8730SOL    HW237653   1.774   4.462  11.459 -2.0414  1.4302 -2.9325
 8731SOL     OW37654   0.227   3.568  15.038  0.0436 -0.2711 -0.6113
 8731SOL    HW137655   0.174   3.551  14.960 -0.3322 -2.2720  0.0607
 8731SOL    HW237656   0.297   3.503  15.032  1.1835  1.1085 -2.2024
 8732SOL     OW37657   1.018   4.116  13.874 -0.0644 -0.4409  0.3241
 8732SOL    HW137658   0.995   4.152  13.960  0.9113 -1.3471  0.9671
 8732SOL    HW237659   1.094   4.062  13.896  0.0269 -0.7220 -0.6883
 8733SOL     OW37660   4.019   0.257   9.162 -0.4294  0.5018  0.3320
 8733SOL    HW137661   3.939   0.208   9.140 -0.9363  0.5480  2.0841
 8733SOL    HW237662   4.090   0.198   9.189 -1.4020 -1.0607 -0.5061
 8734SOL     OW37663   3.831   3.190   1.699 -0.4127  0.3285 -0.7685
 8734SOL    HW137664   3.843   3.223   1.610  1.8545  0.9025 -0.2659
 8734SOL    HW237665   3.816   3.096   1.685 -1.1227 -0.2307  3.6698
 8735SOL     OW37666   1.500   4.677   4.439  0.4506 -0.4059 -0.0363
 8735SOL    HW137667   1.521   0.031   4.489  0.0285 -1.2708  1.5175
 8735SOL    HW237668   1.436   4.637   4.498  0.3478  1.0052  0.8110
 8736SOL     OW37669   3.080   0.768   4.223  0.0402 -0.1542 -0.1114
 8736SOL    HW137670   3.042   0.842   4.174 -0.9914 -0.8686 -0.4111
 8736SOL    HW237671   3.173   0.781   4.207  0.1570 -0.2070  0.5533
 8737SOL     OW37672   4.242   4.126   5.040 -0.3881  0.0431  0.1782
 8737SOL    HW137673   4.325   4.112   4.994  0.7368 -0.0090  2.1772
 8737SOL    HW237674   4.192   4.054   5.005 -0.8403  0.6611 -0.4397
 8738SOL     OW37675   3.999   0.808   7.705 -0.0884  0.3824 -0.3034
 8738SOL    HW137676   4.090   0.783   7.718 -0.1382  1.0687  1.4139
 8738SOL    HW237677   3.961   0.781   7.789 -0.8538  0.8341 -0.5026
 8739SOL     OW37678   3.580   3.302   4.158  0.0757  0.4035  0.5803
 8739SOL    HW137679   3.486   3.288   4.167  0.0921  0.8945  1.5458
 8739SOL    HW237680   3.570   3.374   4.096  0.8702 -0.9558 -1.1089
 8740SOL     OW37681   3.294   0.650   8.772 -0.0484  0.3311 -0.3577
 8740SOL    HW137682   3.280   0.741   8.746  0.7105  1.1528  2.0864
 8740SOL    HW237683   3.245   0.639   8.854  0.4886 -0.2958 -0.1189
 8741SOL     OW37684   3.827   4.696  10.353  0.3078  0.4709 -0.0349
 8741SOL    HW137685   3.846   0.050  10.404  2.0258 -0.1920  0.3357
 8741SOL    HW237686   3.783   4.644  10.421 -0.1287  1.9256  0.7968
 8742SOL     OW37687   2.971   0.308   9.001 -0.7216  0.1315 -0.1177
 8742SOL    HW137688   2.963   0.400   8.978  1.2844 -0.2922 -2.4348
 8742SOL    HW237689   3.061   0.291   8.974  0.3208  3.6824  1.1743
 8743SOL     OW37690   3.844   0.351   9.635 -0.5718  0.4620 -0.2209
 8743SOL    HW137691   3.936   0.338   9.657 -0.9852  3.7269  3.4583
 8743SOL    HW237692   3.802   0.293   9.699  0.1367  0.3058  0.1047
 8744SOL     OW37693   0.742   2.178   3.739 -0.0806  0.2086 -0.1114
 8744SOL    HW137694   0.809   2.141   3.796 -0.0928  0.1924 -0.1077
 8744SOL    HW237695   0.754   2.273   3.751  2.2065 -0.0864 -0.0553
 8745SOL     OW37696   2.968   4.378   7.624  0.0759 -0.8838 -0.5097
 8745SOL    HW137697   3.037   4.416   7.680 -1.2486 -0.6599  0.9797
 8745SOL    HW237698   2.897   4.442   7.627 -0.2911 -1.3603  1.1062
 8746SOL     OW37699   4.401   0.836  15.735  0.4984 -0.4721 -0.3258
 8746SOL    HW137700   4.341   0.784  15.788  0.3888  1.2112  1.2061
 8746SOL    HW237701   4.481   0.807  15.779 -1.2824 -1.2505  2.3925
 8747SOL     OW37702   1.638   3.924   2.387  0.5006  0.0658  0.0099
 8747SOL    HW137703   1.602   3.906   2.301  0.3838 -0.9704  0.2722
 8747SOL    HW237704   1.661   4.017   2.388  1.0003 -0.0675  1.7505
 8748SOL     OW37705   1.843   1.005   0.339  0.5013 -0.5197  0.5357
 8748SOL    HW137706   1.823   0.917   0.306 -0.9637 -0.0390  0.1231
 8748SOL    HW237707   1.804   1.001   0.426 -0.8310 -2.8417 -0.1656
 8749SOL     OW37708   2.027   2.190  10.944  0.2241  0.2389 -0.3345
 8749SOL    HW137709   2.019   2.189  11.039  2.1370  0.4446 -0.1720
 8749SOL    HW237710   2.032   2.284  10.928 -3.2666  0.2280 -1.4943
 8750SOL     OW37711   2.803   2.045   6.528 -0.2178 -0.6008 -0.1841
 8750SOL    HW137712   2.802   2.030   6.433 -0.4156  1.2865 -0.4857
 8750SOL    HW237713   2.760   1.966   6.559 -0.7848 -0.8600 -1.6279
 8751SOL     OW37714   1.884   2.444   4.839 -0.3930  0.4673 -0.1038
 8751SOL    HW137715   1.916   2.488   4.918  0.3838  0.5519 -0.4658
 8751SOL    HW237716   1.791   2.444   4.862 -0.0291  0.7945  1.3836
 8752SOL     OW37717   1.107   3.597   1.943 -0.4205 -0.2422  0.2860
 8752SOL    HW137718   1.046   3.577   1.872 -1.8216  0.1714  1.3569
 8752SOL    HW237719   1.184   3.554   1.906 -0.2975  0.9683 -0.8407
 8753SOL     OW37720   2.051   1.866   5.903  0.2707 -0.1015 -0.3585
 8753SOL    HW137721   2.139   1.830   5.897 -0.4294 -1.6282 -1.3578
 8753SOL    HW237722   2.077   1.957   5.887  1.4846 -0.1955  1.0243
 8754SOL     OW37723   3.560   4.671  16.567 -0.3340  0.7857  0.1419
 8754SOL    HW137724   3.543   4.590  16.616 -2.0472  0.2788 -1.2580
 8754SOL    HW237725   3.559   0.015  16.633  2.3856 -0.7993  1.8515
 8755SOL     OW37726   3.881   3.420   6.687 -0.2813 -0.5201 -0.3814
 8755SOL    HW137727   3.868   3.410   6.592 -2.1337  0.2478 -0.2063
 8755SOL    HW237728   3.827   3.350   6.723 -0.5725 -0.1070 -0.0162
 8756SOL     OW37729   2.098   3.301   2.545 -0.6681  0.4792 -0.4898
 8756SOL    HW137730   2.053   3.384   2.559 -1.0666  0.6748 -2.8042
 8756SOL    HW237731   2.023   3.253   2.509  0.1880  0.6497 -2.5016
 8757SOL     OW37732   3.801   1.582   6.927  0.6237  0.4409 -0.3598
 8757SOL    HW137733   3.747   1.507   6.952  1.2352  0.6471  1.5921
 8757SOL    HW237734   3.763   1.610   6.844 -0.0554  1.7115  0.3795
 8758SOL     OW37735   3.168   1.952   5.086 -0.2299 -0.1969 -0.0199
 8758SOL    HW137736   3.082   1.910   5.082 -0.1307 -0.5748  1.7816
 8758SOL    HW237737   3.200   1.937   4.998 -0.8191 -2.9364  0.2419
 8759SOL     OW37738   1.075   4.092   7.085  0.7769  0.0775 -0.2737
 8759SOL    HW137739   0.994   4.069   7.041  1.6265 -2.1796 -0.6760
 8759SOL    HW237740   1.048   4.104   7.176  0.6509 -0.3952 -0.2459
 8760SOL     OW37741   1.758   1.992  13.645 -0.5916 -0.2347 -0.2960
 8760SOL    HW137742   1.672   2.020  13.677 -0.2608  1.2929 -0.7485
 8760SOL    HW237743   1.808   2.071  13.667 -0.0446 -0.4863 -0.6409
 8761SOL     OW37744   3.950   1.927  11.818 -0.1928 -0.2601  0.1924
 8761SOL    HW137745   3.960   1.952  11.726 -1.0549 -1.1907 -0.1501
 8761SOL    HW237746   3.939   1.832  11.817  1.0316 -0.4221  1.7266
 8762SOL     OW37747   0.835   3.928   4.407  0.0940 -0.4200  0.2476
 8762SOL    HW137748   0.806   3.985   4.478 -0.0751  1.8339 -1.6471
 8762SOL    HW237749   0.809   3.976   4.328  1.9086 -1.2043 -0.8218
 8763SOL     OW37750   1.587   2.641   8.686  0.2032 -0.0556 -0.4123
 8763SOL    HW137751   1.581   2.594   8.769  0.2414  0.9810  0.1821
 8763SOL    HW237752   1.529   2.716   8.698  0.9273  0.7811 -2.1464
 8764SOL     OW37753   3.828   1.446   5.012 -0.0880  0.7091 -0.3575
 8764SOL    HW137754   3.821   1.353   4.991  0.0832  0.5081  0.4958
 8764SOL    HW237755   3.905   1.452   5.068  1.3277 -1.3159 -2.0711
 8765SOL     OW37756   3.382   2.783  15.364  0.2059  0.2821 -0.3695
 8765SOL    HW137757   3.450   2.748  15.307 -0.2773 -1.0899 -0.1020
 8765SOL    HW237758   3.396   2.750  15.453  0.8911 -0.0682 -0.6029
 8766SOL     OW37759   2.226   2.678   9.210  0.2599  0.3658  0.4467
 8766SOL    HW137760   2.290   2.627   9.161 -2.3678 -1.0766 -1.4716
 8766SOL    HW237761   2.147   2.628   9.227  0.0293  0.3355 -0.7246
 8767SOL     OW37762   4.715   3.469   7.618  0.0764 -0.6085  0.0731
 8767SOL    HW137763   4.724   3.470   7.713  1.0916  2.4339 -0.0480
 8767SOL    HW237764   0.079   3.455   7.587  0.8962  1.7948  1.3420
 8768SOL     OW37765   2.842   2.277  13.086  0.0605  0.0767 -0.1089
 8768SOL    HW137766   2.826   2.369  13.106 -0.3308 -0.6199  2.9234
 8768SOL    HW237767   2.858   2.263  12.993 -0.8024 -1.0696 -0.0976
 8769SOL     OW37768   1.872   0.144   7.892  0.4233  0.1999 -0.0841
 8769SOL    HW137769   1.872   0.202   7.968  1.0787  0.6304 -0.4175
 8769SOL    HW237770   1.895   0.060   7.933 -0.8614 -0.6963 -1.1786
 8770SOL     OW37771   3.685   4.707  12.740 -0.1993 -0.1633 -0.0410
 8770SOL    HW137772   3.750   4.675  12.803 -0.3802  2.8349  1.6633
 8770SOL    HW237773   3.604   4.701  12.791 -0.9579 -0.8076 -1.3194
 8771SOL     OW37774   2.064   1.913   1.779 -0.3956  0.1964 -0.0628
 8771SOL    HW137775   2.025   1.872   1.702  0.3454  0.3021 -0.4925
 8771SOL    HW237776   2.105   1.988   1.736 -0.4549  0.4250  0.2816
 8772SOL     OW37777   1.408   1.964   5.645  0.1471  1.2041 -0.4228
 8772SOL    HW137778   1.315   1.985   5.659 -0.0194  0.2671 -0.1487
 8772SOL    HW237779   1.453   2.025   5.703  0.5988 -1.6243  2.1521
 8773SOL     OW37780   4.601   1.516   1.575 -0.2113 -0.3327  0.0237
 8773SOL    HW137781   4.641   1.433   1.548  1.1712 -0.6153  2.9177
 8773SOL    HW237782   4.650   1.537   1.654 -0.4807  0.1366  0.0675
 8774SOL     OW37783   2.415   3.134   0.510  0.2251 -0.2095 -0.2167
 8774SOL    HW137784   2.402   3.148   0.604  1.0838 -0.5966 -0.0495
 8774SOL    HW237785   2.412   3.039   0.516 -1.6997 -0.1856 -0.7102
 8775SOL     OW37786   4.418   3.907   2.548 -0.2226  0.4048 -0.3849
 8775SOL    HW137787   4.440   3.974   2.482 -2.0622 -0.0011 -1.4133
 8775SOL    HW237788   4.438   3.959   2.625  2.8996 -0.6531 -0.4611
 8776SOL     OW37789   2.461   0.522   4.843  0.3724 -0.9342  0.4416
 8776SOL    HW137790   2.421   0.544   4.927  1.0493 -0.1493  0.5594
 8776SOL    HW237791   2.555   0.540   4.850  0.3880 -0.5842 -0.6796
 8777SOL     OW37792   0.638   0.649   6.574 -0.6159  0.3007  0.6138
 8777SOL    HW137793   0.624   0.572   6.628  1.4161 -0.9773 -0.6812
 8777SOL    HW237794   0.567   0.639   6.510 -0.9541  0.7565  0.9187
 8778SOL     OW37795   0.336   0.785   8.664  0.2968  0.0012 -0.0731
 8778SOL    HW137796   0.412   0.759   8.612 -0.0640 -0.7028 -0.2531
 8778SOL    HW237797   0.257   0.751   8.621 -0.0641  1.0686 -0.2531
 8779SOL     OW37798   1.076   3.685   1.558  0.2004  0.6809 -0.0596
 8779SOL    HW137799   1.150   3.707   1.614  0.1667 -4.0619  1.8075
 8779SOL    HW237800   1.046   3.774   1.538 -1.1947  0.4819  1.1918
 8780SOL     OW37801   3.485   3.405   2.158 -0.0821  0.2482 -0.0817
 8780SOL    HW137802   3.535   3.486   2.159  3.0154 -1.6771 -0.3889
 8780SOL    HW237803   3.423   3.422   2.229 -0.2838  1.8082 -0.6319
 8781SOL     OW37804   2.487   1.328  16.327  0.7228  0.2126 -0.2326
 8781SOL    HW137805   2.408   1.379  16.312  1.4121  1.4742  0.3722
 8781SOL    HW237806   2.545   1.398  16.356  0.8844 -1.6624  4.0178
 8782SOL     OW37807   0.420   2.729   9.024  0.1849 -0.3226  0.3566
 8782SOL    HW137808   0.413   2.662   8.956  4.3132 -3.7029  3.2828
 8782SOL    HW237809   0.451   2.798   8.965 -0.1138 -0.4650  0.0386
 8783SOL     OW37810   0.042   1.530   5.526  0.2196 -0.0486  0.0283
 8783SOL    HW137811   0.100   1.534   5.450  0.3677  0.4944  0.1751
 8783SOL    HW237812   0.041   1.619   5.561  0.9374 -0.3563  0.8510
 8784SOL     OW37813   0.681   2.440   3.827 -0.1533  0.1620 -0.9294
 8784SOL    HW137814   0.600   2.405   3.865  0.3609 -1.8636 -1.7008
 8784SOL    HW237815   0.742   2.448   3.900 -1.4282  1.0515  0.0359
 8785SOL     OW37816   2.211   3.332   4.700  0.0890  0.2069  0.0077
 8785SOL    HW137817   2.275   3.363   4.635  2.3133 -1.7437  1.2678
 8785SOL    HW237818   2.154   3.302   4.629  0.5382 -0.8733  0.0947
 8786SOL     OW37819   0.491   3.990   1.808 -0.1521 -0.1895  0.1380
 8786SOL    HW137820   0.438   3.911   1.812 -1.1807  0.5688  1.7149
 8786SOL    HW237821   0.497   4.021   1.899 -0.9966  1.8691 -0.4885
 8787SOL     OW37822   2.704   3.049  10.669 -0.2473 -0.5440  0.0960
 8787SOL    HW137823   2.750   3.060  10.753  1.2745  1.7936 -1.0140
 8787SOL    HW237824   2.762   3.076  10.598 -2.2022  2.3179 -0.4064
 8788SOL     OW37825   2.229   1.083   6.869 -0.2412 -0.3267 -0.5765
 8788SOL    HW137826   2.140   1.098   6.901  0.2071  0.2815  0.3694
 8788SOL    HW237827   2.247   1.172   6.838 -0.0175 -0.3264 -0.4439
 8789SOL     OW37828   2.435   1.350   5.023  0.0595  0.0484  0.2192
 8789SOL    HW137829   2.451   1.287   5.093  0.9507 -0.5672 -0.5452
 8789SOL    HW237830   2.467   1.428   5.069  1.4821  1.6361 -3.4541
 8790SOL     OW37831   0.036   0.115   8.429 -0.0560  0.5076  0.5864
 8790SOL    HW137832   0.079   0.135   8.347 -0.0734 -0.3217  0.3744
 8790SOL    HW237833   0.113   0.090   8.481 -0.6230 -1.9162  0.2832
 8791SOL     OW37834   1.246   1.208   5.299 -0.6863 -0.8081  0.1029
 8791SOL    HW137835   1.322   1.265   5.306 -0.1715 -1.4648 -0.0893
 8791SOL    HW237836   1.182   1.264   5.341 -0.1481 -0.8967  1.0366
 8792SOL     OW37837   1.904   2.825   0.554 -0.1667 -0.1622  0.1174
 8792SOL    HW137838   1.866   2.752   0.504 -0.3496  1.0754 -1.5485
 8792SOL    HW237839   1.891   2.801   0.646  2.6337 -1.6969  0.1210
 8793SOL     OW37840   3.356   1.925   6.438 -0.0254  0.1463 -0.0074
 8793SOL    HW137841   3.356   1.996   6.374 -1.1960 -1.1520 -1.4297
 8793SOL    HW237842   3.339   1.975   6.518 -1.5713 -0.6502  0.1523
 8794SOL     OW37843   0.175   4.464  13.699 -0.0880 -0.1030 -0.0021
 8794SOL    HW137844   0.249   4.404  13.690 -1.6366 -1.8109 -1.4884
 8794SOL    HW237845   0.113   4.420  13.639 -0.2881  0.7661 -0.4273
 8795SOL     OW37846   0.315   0.932   7.465 -0.0939  0.2378  0.2782
 8795SOL    HW137847   0.384   0.900   7.406 -0.9720 -0.6946 -0.2532
 8795SOL    HW237848   0.233   0.924   7.417  0.8261 -0.7735 -1.1336
 8796SOL     OW37849   4.057   0.999   8.283  0.6527 -0.4689  0.7165
 8796SOL    HW137850   3.983   0.990   8.224  0.5554  1.5049  0.5385
 8796SOL    HW237851   4.064   0.912   8.323 -1.1203 -1.3519 -0.9145
 8797SOL     OW37852   1.608   4.268  16.704  0.4856  0.2299  0.7596
 8797SOL    HW137853   1.557   4.296  16.780  1.0787 -0.9591  1.5915
 8797SOL    HW237854   1.662   4.201  16.745  1.5525  1.6084  1.6533
 8798SOL     OW37855   1.690   3.084  13.548 -0.4154  0.4179 -0.0865
 8798SOL    HW137856   1.680   3.079  13.453  1.0501  1.1402 -0.2905
 8798SOL    HW237857   1.768   3.140  13.546  0.2457 -0.5525 -1.1131
 8799SOL     OW37858   3.428   2.403   7.954  0.0379 -0.8803 -0.2360
 8799SOL    HW137859   3.386   2.322   7.982  1.5202 -1.3266  0.6876
 8799SOL    HW237860   3.444   2.374   7.864  2.6123  1.4286 -0.5260
 8800SOL     OW37861   1.229   2.505  13.920  0.1172  0.2660 -0.6050
 8800SOL    HW137862   1.251   2.566  13.849 -2.0411 -0.0387 -1.5384
 8800SOL    HW237863   1.309   2.469  13.958 -0.3280 -1.5539 -1.3918
 8801SOL     OW37864   0.718   4.411  16.180 -0.0974  0.1088  0.3823
 8801SOL    HW137865   0.633   4.436  16.144 -0.0765 -0.9933 -0.4422
 8801SOL    HW237866   0.698   4.319  16.198 -1.8297 -0.0484 -2.3204
 8802SOL     OW37867   2.619   0.196  17.062  0.2011  0.0301 -0.6344
 8802SOL    HW137868   2.567   0.274  17.083  0.0261 -0.6579  1.5329
 8802SOL    HW237869   2.595   0.140  17.136 -0.7511  0.4417 -0.6363
 8803SOL     OW37870   3.489   0.031   8.354 -0.0540  0.3472  0.6194
 8803SOL    HW137871   3.458   0.031   8.445 -0.1051  1.9572  0.6048
 8803SOL    HW237872   3.579   0.002   8.372 -0.3738 -1.6680 -1.0010
 8804SOL     OW37873   1.485   0.854  17.212 -0.4923  0.2540  0.4717
 8804SOL    HW137874   1.459   0.941  17.244  1.5409  0.1235  2.5575
 8804SOL    HW237875   1.404   0.816  17.179  2.2881 -3.2018 -2.4459
 8805SOL     OW37876   2.506   4.052   2.858 -0.9255 -0.1965 -0.1931
 8805SOL    HW137877   2.569   4.113   2.897 -0.5674  0.9183 -2.5134
 8805SOL    HW237878   2.523   4.074   2.767  0.8540  1.8269  0.6252
 8806SOL     OW37879   1.263   4.086   2.531  0.0958  0.3352  0.0363
 8806SOL    HW137880   1.268   4.046   2.444  1.3626  1.0061 -0.1953
 8806SOL    HW237881   1.185   4.043   2.567  0.1122 -0.0729 -0.4142
 8807SOL     OW37882   0.166   2.719   3.933  0.2006 -0.0967  0.5501
 8807SOL    HW137883   0.071   2.717   3.925  0.3219  0.6840 -1.3205
 8807SOL    HW237884   0.172   2.635   3.888  2.7917  0.0884  0.5774
 8808SOL     OW37885   2.976   2.156   1.993 -0.2407  0.2137 -0.8479
 8808SOL    HW137886   3.034   2.121   1.925  2.8461  0.7000  1.4949
 8808SOL    HW237887   2.927   2.227   1.952  1.3792 -0.3596 -3.8033
 8809SOL     OW37888   3.620   4.111  13.188  0.0516 -0.5753 -0.4616
 8809SOL    HW137889   3.593   4.141  13.274  0.6698 -0.4222 -0.3195
 8809SOL    HW237890   3.698   4.166  13.183 -3.0857  3.9654  0.2894
 8810SOL     OW37891   0.228   4.434   8.774 -0.0864 -0.1594  0.3314
 8810SOL    HW137892   0.229   4.458   8.867 -0.8970 -1.1682  0.6075
 8810SOL    HW237893   0.186   4.349   8.759 -2.9181  1.3664 -0.3169
 8811SOL     OW37894   3.367   3.462   8.988  0.0669 -0.0048  0.1613
 8811SOL    HW137895   3.383   3.552   8.960  2.2622 -0.6638 -0.6545
 8811SOL    HW237896   3.438   3.422   8.939  1.5775  1.5895  1.0403
 8812SOL     OW37897   2.713   3.121   9.756 -0.3360 -0.3414  0.2238
 8812SOL    HW137898   2.780   3.116   9.688 -0.4550  0.7110  0.0295
 8812SOL    HW237899   2.643   3.170   9.713  2.1740 -0.3420 -3.7963
 8813SOL     OW37900   4.131   2.589   4.101 -0.1173  0.0188 -0.9501
 8813SOL    HW137901   4.091   2.502   4.101  1.2010 -0.6021  0.4676
 8813SOL    HW237902   4.065   2.638   4.150 -1.1746  0.8441 -3.2510
 8814SOL     OW37903   2.373   4.488   6.609 -0.8212 -0.0676 -0.2796
 8814SOL    HW137904   2.436   4.560   6.612  0.8125 -1.4335 -1.7038
 8814SOL    HW237905   2.416   4.424   6.665 -0.4234 -1.0777 -1.7290
 8815SOL     OW37906   0.309   0.709   8.093 -0.0075  0.3949 -0.2813
 8815SOL    HW137907   0.214   0.716   8.086  0.1555  1.1182 -1.7848
 8815SOL    HW237908   0.337   0.640   8.033 -2.3431  0.3343 -1.2784
 8816SOL     OW37909   1.201   2.622   2.190 -0.2362 -0.0847 -0.1048
 8816SOL    HW137910   1.140   2.697   2.191  1.6095  1.3668  1.6555
 8816SOL    HW237911   1.268   2.647   2.253 -1.2371 -1.4781  1.5033
 8817SOL     OW37912   3.214   3.467   4.718  0.6391  1.0191 -0.6175
 8817SOL    HW137913   3.159   3.390   4.701  0.3969  1.3686 -1.4165
 8817SOL    HW237914   3.298   3.425   4.702  1.4670  1.8867  1.5664
 8818SOL     OW37915   4.268   4.565   2.173  0.1821 -0.1353  0.4550
 8818SOL    HW137916   4.352   4.601   2.203  0.5797  0.1492 -0.9980
 8818SOL    HW237917   4.254   4.584   2.080  1.0989 -1.6973 -0.0089
 8819SOL     OW37918   0.647   2.609   3.235 -0.0668  0.0333  0.6906
 8819SOL    HW137919   0.561   2.583   3.270 -0.6230 -0.1256 -0.7926
 8819SOL    HW237920   0.611   2.679   3.181 -0.4585  0.5752  1.6619
 8820SOL     OW37921   1.239   1.537  17.414  0.3684 -0.3824  0.3601
 8820SOL    HW137922   1.296   1.576  17.481  1.6293 -2.5421  0.5508
 8820SOL    HW237923   1.190   1.479  17.473 -3.3765  0.9586 -1.4469
 8821SOL     OW37924   2.037   3.666   5.833 -0.0773  0.7971  0.6446
 8821SOL    HW137925   2.058   3.572   5.839 -0.4826  0.5381 -1.8790
 8821SOL    HW237926   2.120   3.702   5.800 -0.1457  0.2657 -0.1113
 8822SOL     OW37927   0.702   4.294   6.084  0.3614  0.0778  0.6155
 8822SOL    HW137928   0.791   4.271   6.110 -0.2881  1.2563  3.8663
 8822SOL    HW237929   0.730   4.378   6.048  1.2341 -0.4523  0.0704
 8823SOL     OW37930   3.045   1.141   8.314 -0.0808 -0.3423 -0.4994
 8823SOL    HW137931   3.008   1.207   8.373 -0.1824 -0.0546 -0.8865
 8823SOL    HW237932   3.135   1.125   8.343 -0.3796 -0.8486  0.1588
 8824SOL     OW37933   2.449   1.090   7.953 -0.4904  0.0488 -0.2465
 8824SOL    HW137934   2.490   1.023   7.898  1.3972  1.4254 -0.5305
 8824SOL    HW237935   2.522   1.109   8.011 -2.0995  4.5981  0.3145
 8825SOL     OW37936   0.460   3.629  17.650  0.5227 -0.4492  0.3016
 8825SOL    HW137937   0.525   3.559  17.658 -0.6516 -1.8490 -2.2413
 8825SOL    HW237938   0.450   3.627  17.555  1.1041 -0.0268  0.2328
 8826SOL     OW37939   4.696   2.580   5.179 -0.5454 -0.2804  0.0073
 8826SOL    HW137940   4.652   2.606   5.260  1.1460  1.4831  0.3596
 8826SOL    HW237941   4.654   2.641   5.118  0.2272  0.2863  0.0374
 8827SOL     OW37942   0.927   0.227   8.448  0.1957 -0.7377  0.4602
 8827SOL    HW137943   0.859   0.216   8.515 -0.2084  0.3933  0.2462
 8827SOL    HW237944   0.979   0.148   8.457  1.1444 -0.2800 -0.9440
 8828SOL     OW37945   3.427   1.237  15.666 -0.7996  0.6636 -0.4251
 8828SOL    HW137946   3.486   1.183  15.615 -0.6371  1.5499 -1.1812
 8828SOL    HW237947   3.458   1.326  15.651 -0.8460  0.2851 -2.7782
 8829SOL     OW37948   0.053   3.223  12.263  0.3278  0.2070  0.0204
 8829SOL    HW137949   0.055   3.208  12.357  2.6797 -1.1822 -0.2451
 8829SOL    HW237950   4.697   3.275  12.262  0.2360 -0.0415 -4.6466
 8830SOL     OW37951   3.887   1.990   1.305 -0.3324  0.0857 -0.2862
 8830SOL    HW137952   3.926   2.053   1.245  1.1463  0.4955  1.1031
 8830SOL    HW237953   3.945   2.008   1.379 -0.4154 -2.0802  0.3142
 8831SOL     OW37954   3.312   3.533   5.268 -0.2417 -0.0826 -0.3603
 8831SOL    HW137955   3.398   3.557   5.235 -1.1045  0.4334 -2.2249
 8831SOL    HW237956   3.298   3.453   5.216  1.1368 -1.1480  0.9156
 8832SOL     OW37957   2.647   2.917  13.619 -0.2899 -0.5366  0.0425
 8832SOL    HW137958   2.569   2.971  13.615 -0.2389 -0.5929 -1.8244
 8832SOL    HW237959   2.638   2.869  13.701  1.8251  0.6105  0.9554
 8833SOL     OW37960   3.841   4.633  17.637  0.4373  0.2681  0.4035
 8833SOL    HW137961   3.849   4.539  17.621  0.7049  0.2349  0.7390
 8833SOL    HW237962   3.845   4.632   0.032 -0.9463  0.0553  0.4597
 8834SOL     OW37963   4.221   2.339  12.990  0.3559  0.0060  0.2393
 8834SOL    HW137964   4.314   2.318  12.991  0.2167 -0.6190  0.4204
 8834SOL    HW237965   4.180   2.272  12.935  2.3890 -2.0962  1.2795
 8835SOL     OW37966   2.033   3.483   3.869 -0.2279  0.0394 -0.5112
 8835SOL    HW137967   2.039   3.578   3.876  0.4380  0.0266 -0.8825
 8835SOL    HW237968   2.118   3.456   3.834  0.0970  3.2183 -2.1992
 8836SOL     OW37969   0.507   2.758   2.642 -0.1405 -0.3835  0.1877
 8836SOL    HW137970   0.529   2.677   2.689 -0.2325 -0.8248 -0.5344
 8836SOL    HW237971   0.412   2.757   2.652 -0.0842 -2.9053  0.3884
 8837SOL     OW37972   0.341   0.122   7.388 -0.4255 -0.1819  0.5803
 8837SOL    HW137973   0.396   0.155   7.460 -0.6805 -1.2760  1.2775
 8837SOL    HW237974   0.303   0.203   7.354  1.9303  0.4455 -0.5846
 8838SOL     OW37975   4.687   0.132  11.243  0.5633 -0.2167  0.0285
 8838SOL    HW137976   4.685   0.226  11.261  0.9478 -0.1751 -0.1550
 8838SOL    HW237977   4.648   0.104  11.326  2.5234  0.0687  1.0472
 8839SOL     OW37978   0.455   4.046  10.303 -0.5353  0.6592 -0.1445
 8839SOL    HW137979   0.499   4.131  10.297 -3.3501  1.9984 -1.9983
 8839SOL    HW237980   0.476   4.012  10.216  0.3158  0.3463  0.1796
 8840SOL     OW37981   4.724   4.259   3.308  0.1632 -0.3847 -0.5054
 8840SOL    HW137982   4.656   4.321   3.279 -0.4362  0.1387  2.0133
 8840SOL    HW237983   0.078   4.284   3.261 -0.3758 -0.2506 -1.3408
 8841SOL     OW37984   1.048   1.127   6.098  0.1003  0.3727  0.2157
 8841SOL    HW137985   1.022   1.067   6.168  0.4357 -1.3517 -1.1196
 8841SOL    HW237986   1.021   1.074   6.023  1.7912 -0.2578  0.0647
 8842SOL     OW37987   2.040   2.187   3.453 -0.6544 -0.2302  0.6355
 8842SOL    HW137988   2.092   2.203   3.532  1.6660  3.2274 -1.5706
 8842SOL    HW237989   2.098   2.221   3.385 -2.5396  1.2374 -0.2239
 8843SOL     OW37990   3.086   2.837   9.424 -0.0289  0.2296 -0.5002
 8843SOL    HW137991   3.035   2.845   9.344 -1.7695 -0.5364  0.5232
 8843SOL    HW237992   3.040   2.767   9.469 -0.9212  1.1324  0.0012
 8844SOL     OW37993   1.465   0.506   9.834 -0.2811 -0.3345  0.3966
 8844SOL    HW137994   1.432   0.552   9.911  2.5254 -0.1234  1.4747
 8844SOL    HW237995   1.478   0.419   9.870  0.0359 -0.9013 -1.0722
 8845SOL     OW37996   0.312   2.788   2.197  0.4032  0.2543  0.1486
 8845SOL    HW137997   0.306   2.882   2.215 -2.8385  0.5548 -2.5477
 8845SOL    HW237998   0.251   2.785   2.124 -0.2081 -1.7618  0.7355
 8846SOL     OW37999   0.858   3.182   8.262 -0.0730  0.6131 -0.2520
 8846SOL    HW138000   0.774   3.150   8.296  0.9124  0.3153  1.8587
 8846SOL    HW238001   0.836   3.171   8.169  0.4015 -1.9374 -0.0687
 8847SOL     OW38002   0.270   0.888  10.034 -0.1387 -0.1649  0.0257
 8847SOL    HW138003   0.255   0.982  10.045 -1.2245 -0.5922  2.1066
 8847SOL    HW238004   0.330   0.885   9.959  1.2130 -2.1681  1.2181
 8848SOL     OW38005   1.445   3.733  15.117  0.1103 -0.1779 -0.8599
 8848SOL    HW138006   1.376   3.674  15.086 -2.8796  1.2104  3.1605
 8848SOL    HW238007   1.512   3.736  15.049  1.0267 -2.9782 -0.1003
 8849SOL     OW38008   0.746   2.879   6.683  0.2281  0.1313 -0.3780
 8849SOL    HW138009   0.710   2.961   6.651  0.5613 -0.3938 -2.1137
 8849SOL    HW238010   0.837   2.875   6.652  0.2690  2.0188 -0.5178
 8850SOL     OW38011   0.570   3.127  13.248 -0.9168 -0.3550 -0.0303
 8850SOL    HW138012   0.475   3.119  13.241 -0.9076  0.5639 -1.2038
 8850SOL    HW238013   0.571   3.098  13.339  0.1966  1.0433  0.3932
 8851SOL     OW38014   4.459   3.016   6.531 -0.6206  0.3750  0.0579
 8851SOL    HW138015   4.515   3.089   6.505  2.3750 -0.8322  3.1397
 8851SOL    HW238016   4.488   2.943   6.477 -0.6873  1.1133 -0.9729
 8852SOL     OW38017   2.671   3.582   4.586  0.1427  0.5708  0.1708
 8852SOL    HW138018   2.732   3.586   4.660 -1.9948  0.0790  1.9439
 8852SOL    HW238019   2.700   3.657   4.534  0.4244  1.3309  1.4158
 8853SOL     OW38020   2.976   0.208   6.173 -0.1020 -0.8065  0.9182
 8853SOL    HW138021   2.916   0.182   6.243 -0.7431  0.4271  0.8215
 8853SOL    HW238022   2.951   0.149   6.102  1.7596  1.9430 -2.0150
 8854SOL     OW38023   1.656   3.639  13.382 -0.3122 -0.0844 -0.5303
 8854SOL    HW138024   1.568   3.661  13.350 -0.7051  0.4580  0.9011
 8854SOL    HW238025   1.666   3.702  13.454 -0.8466  0.4281 -0.9086
 8855SOL     OW38026   0.433   3.089   8.018  0.0912 -0.7910  0.0584
 8855SOL    HW138027   0.354   3.122   7.975 -0.4473  0.1483  1.7411
 8855SOL    HW238028   0.398   3.005   8.046 -0.9761 -0.9024 -1.5968
 8856SOL     OW38029   1.992   3.086   4.118  0.4546  1.0033 -0.0366
 8856SOL    HW138030   2.021   3.039   4.195  0.8532  1.1730 -0.0833
 8856SOL    HW238031   1.907   3.127   4.135 -0.2879  1.2732 -4.1808
 8857SOL     OW38032   2.740   2.167   3.451  0.5107  0.1546 -0.2839
 8857SOL    HW138033   2.696   2.231   3.507 -0.9144 -0.5358 -0.6174
 8857SOL    HW238034   2.662   2.117   3.430  2.2439 -3.3209  1.5511
 8858SOL     OW38035   4.458   3.895   8.737 -0.0477  0.1974 -0.3684
 8858SOL    HW138036   4.411   3.954   8.678  1.1514  2.1082  0.5991
 8858SOL    HW238037   4.434   3.931   8.823  0.2349 -0.4542 -0.0170
 8859SOL     OW38038   1.963   2.832   5.329  0.6286  0.4167  0.2559
 8859SOL    HW138039   1.978   2.919   5.292  0.1039  1.1023  1.6699
 8859SOL    HW238040   2.022   2.822   5.403  2.4522  1.8960 -1.0007
 8860SOL     OW38041   2.817   4.454   8.546 -0.4468  0.7666 -0.4587
 8860SOL    HW138042   2.804   4.531   8.600  2.5685  1.6392 -0.9318
 8860SOL    HW238043   2.913   4.455   8.543 -0.4115  1.4053  0.8434
 8861SOL     OW38044   1.860   0.888  13.525  0.1570 -0.5809 -0.4024
 8861SOL    HW138045   1.851   0.943  13.602 -1.7280 -1.3270 -0.0978
 8861SOL    HW238046   1.841   0.804  13.566 -1.4823 -0.1635 -0.3104
 8862SOL     OW38047   0.091   1.003   2.700 -0.3389  0.2662 -0.1809
 8862SOL    HW138048   0.187   1.003   2.695 -0.3668 -0.9487 -0.7361
 8862SOL    HW238049   0.089   1.072   2.767 -1.6638 -3.4527  3.5519
 8863SOL     OW38050   2.563   4.049   0.317 -0.3752  0.4352  0.0227
 8863SOL    HW138051   2.594   4.113   0.381  2.7157 -1.4798  0.4340
 8863SOL    HW238052   2.607   4.076   0.237  1.1676 -0.4383  0.5941
 8864SOL     OW38053   3.291   2.939   4.176  0.0143  0.3033  0.0179
 8864SOL    HW138054   3.234   2.986   4.114 -0.2317 -1.4583 -1.0968
 8864SOL    HW238055   3.225   2.916   4.241 -0.3560 -1.7489 -1.0858
 8865SOL     OW38056   0.248   4.067   6.231  0.6208  0.3538 -0.3667
 8865SOL    HW138057   0.289   4.061   6.145 -0.1694  1.0746 -0.7815
 8865SOL    HW238058   0.163   4.030   6.210  1.0764 -1.6714  1.3323
 8866SOL     OW38059   1.239   4.164  11.702 -0.1251 -1.1015 -0.2842
 8866SOL    HW138060   1.238   4.234  11.768  1.5444 -0.3871 -0.9965
 8866SOL    HW238061   1.145   4.146  11.703  0.2081 -2.7929  0.5223
 8867SOL     OW38062   0.356   3.543  13.025 -0.1938 -0.3155 -0.5294
 8867SOL    HW138063   0.358   3.578  12.936 -1.4031 -1.2111 -0.9087
 8867SOL    HW238064   0.446   3.558  13.055  0.1322 -1.3711 -0.9732
 8868SOL     OW38065   2.428   0.011   1.064 -0.3157 -0.2513  0.0253
 8868SOL    HW138066   2.452   4.686   1.142  1.8045  0.2681 -0.2811
 8868SOL    HW238067   2.461   4.677   0.996  1.0325  0.0287  0.4340
 8869SOL     OW38068   1.846   0.217  11.597  0.0552 -0.4215  0.0909
 8869SOL    HW138069   1.794   0.294  11.619  0.5935  0.2734 -1.1043
 8869SOL    HW238070   1.918   0.252  11.545 -1.1223  1.5219 -0.2315
 8870SOL     OW38071   2.228   1.114   4.180  0.7591 -0.0849 -0.8014
 8870SOL    HW138072   2.177   1.097   4.101  0.7040  1.1596 -1.0318
 8870SOL    HW238073   2.262   1.027   4.203 -3.2978 -1.6021 -0.4805
 8871SOL     OW38074   0.128   1.790   5.403 -0.0351 -0.0409 -0.4145
 8871SOL    HW138075   0.162   1.778   5.315 -1.4201 -0.2657 -0.9173
 8871SOL    HW238076   0.034   1.786   5.386  0.0391  3.1122 -1.5089
 8872SOL     OW38077   2.944   2.859   2.156  0.0420 -0.5002  0.1441
 8872SOL    HW138078   2.851   2.880   2.153  0.1005 -0.1769  0.6553
 8872SOL    HW238079   2.962   2.838   2.248 -0.8429 -0.1072  0.3981
 8873SOL     OW38080   1.628   2.033   1.225 -0.4177  0.1652  0.3074
 8873SOL    HW138081   1.668   2.045   1.139 -0.1845  0.0431  0.4001
 8873SOL    HW238082   1.654   1.950   1.265 -0.2396  1.3105  2.5541
 8874SOL     OW38083   1.817   3.727  10.425 -0.1742 -0.0620  0.2870
 8874SOL    HW138084   1.840   3.820  10.431 -0.0020 -0.0329 -0.9198
 8874SOL    HW238085   1.736   3.732  10.475 -0.8355 -1.8345 -0.6100
 8875SOL     OW38086   3.737   3.580   7.824  0.3258  0.0563  0.2377
 8875SOL    HW138087   3.651   3.615   7.801 -0.2416 -1.0077  0.7453
 8875SOL    HW238088   3.782   3.665   7.823 -2.5663  1.5693 -2.6683
 8876SOL     OW38089   1.243   2.660   7.521 -0.1458  0.4054 -0.3117
 8876SOL    HW138090   1.190   2.681   7.598 -0.8364  2.1638 -1.2823
 8876SOL    HW238091   1.171   2.630   7.465 -1.5092 -1.8438  2.6169
 8877SOL     OW38092   0.070   0.499   5.206 -0.2561 -0.2682  0.3141
 8877SOL    HW138093   0.098   0.574   5.259  1.4568  0.2103 -1.2867
 8877SOL    HW238094   0.064   0.539   5.119 -1.0120 -0.5263  0.2469
 8878SOL     OW38095   4.077   4.493   6.063 -0.3771 -0.1684 -0.1763
 8878SOL    HW138096   4.016   4.567   6.064  0.8789  0.8324  2.4386
 8878SOL    HW238097   4.127   4.523   6.139 -1.4994  0.7229  0.2096
 8879SOL     OW38098   3.119   4.180   2.375  0.3798 -0.1116  0.1303
 8879SOL    HW138099   3.087   4.227   2.298 -1.4760  0.1160  1.0520
 8879SOL    HW238100   3.212   4.161   2.360  0.7552  1.7423  0.1263
 8880SOL     OW38101   0.876   2.038   6.352  0.7309 -0.3463  0.2460
 8880SOL    HW138102   0.881   2.131   6.373 -0.6202  0.5432 -3.4566
 8880SOL    HW238103   0.926   2.024   6.271 -1.7356  0.5285 -1.4162
 8881SOL     OW38104   2.427   0.761   8.794  0.0333 -0.2261  0.3510
 8881SOL    HW138105   2.511   0.738   8.832  0.4602  1.4796  0.4498
 8881SOL    HW238106   2.426   0.852   8.824  2.5155  0.0348 -0.3420
 8882SOL     OW38107   2.727   2.090   0.953  0.4007  0.6593  0.2262
 8882SOL    HW138108   2.766   2.007   0.926 -0.6137 -0.3213  1.7213
 8882SOL    HW238109   2.648   2.096   0.899  0.5925 -0.6448 -0.1927
 8883SOL     OW38110   4.085   4.685   8.174 -0.0003  0.0965  0.0597
 8883SOL    HW138111   4.059   4.669   8.083 -0.2305 -1.5853  0.4250
 8883SOL    HW238112   4.122   0.048   8.176  0.6521 -0.1916  0.5775
 8884SOL     OW38113   3.425   4.310  10.437  0.3225 -0.2064  0.0347
 8884SOL    HW138114   3.491   4.357  10.385  2.3976 -1.5288  1.4697
 8884SOL    HW238115   3.477   4.247  10.487  0.9869  0.1315 -0.2226
 8885SOL     OW38116   0.927   4.708   5.226 -0.3624  0.3711  0.4090
 8885SOL    HW138117   0.898   4.624   5.192  0.0459  0.5572 -0.4011
 8885SOL    HW238118   0.891   0.035   5.154  0.1329  1.8531  1.2114
 8886SOL     OW38119   2.559   3.499   2.703 -0.2718 -0.0133  0.0816
 8886SOL    HW138120   2.485   3.475   2.649 -2.3653  0.8865  2.5545
 8886SOL    HW238121   2.547   3.590   2.731  1.6067  0.1633  0.3157
 8887SOL     OW38122   1.071   4.429   1.474 -0.0217 -0.0754 -0.3601
 8887SOL    HW138123   1.048   4.512   1.515  2.2605  0.8298 -0.9459
 8887SOL    HW238124   1.160   4.406   1.498  0.6186  4.8646  1.9489
 8888SOL     OW38125   1.752   4.624   7.700 -0.2402  0.1062 -0.5175
 8888SOL    HW138126   1.797   4.590   7.623  0.6820  0.9225 -0.3281
 8888SOL    HW238127   1.768   4.555   7.765  0.0551 -0.4815 -1.2133
 8889SOL     OW38128   2.917   0.778   5.363 -0.2942  0.4479  0.4336
 8889SOL    HW138129   2.939   0.693   5.400  0.6951  0.0222 -1.1422
 8889SOL    HW238130   3.005   0.817   5.356  1.0010 -2.4657  0.8132
 8890SOL     OW38131   3.328   0.669  12.526 -0.0286  0.1430 -0.0012
 8890SOL    HW138132   3.410   0.632  12.493 -1.2329 -1.1710 -1.5528
 8890SOL    HW238133   3.301   0.711  12.444 -0.7832 -0.8945 -0.2895
 8891SOL     OW38134   1.573   3.561  16.031  0.1618 -0.4436  0.4648
 8891SOL    HW138135   1.545   3.606  15.951  2.4929 -0.9991 -0.6769
 8891SOL    HW238136   1.602   3.631  16.089  0.3944  0.3363 -0.5866
 8892SOL     OW38137   0.066   2.965   4.322 -0.0531 -0.0222 -0.3580
 8892SOL    HW138138   4.700   2.984   4.300 -0.0618  0.4915  0.1186
 8892SOL    HW238139   0.097   3.048   4.360 -1.5808  0.2763  0.2486
 8893SOL     OW38140   2.402   1.855   1.566 -0.5998  0.5316 -0.0341
 8893SOL    HW138141   2.425   1.826   1.654 -0.2508  1.6357  0.2386
 8893SOL    HW238142   2.487   1.890   1.540 -0.6340  1.2432  0.8234
 8894SOL     OW38143   3.553   3.340   7.123 -0.0040  0.8252 -0.3057
 8894SOL    HW138144   3.625   3.287   7.090  0.2901  0.8792  0.2501
 8894SOL    HW238145   3.474   3.287   7.109  1.0648 -0.3370 -1.9199
 8895SOL     OW38146   0.513   0.491   2.041  0.2231  0.5843 -0.2122
 8895SOL    HW138147   0.476   0.577   2.059  1.2713  1.1552 -0.7919
 8895SOL    HW238148   0.439   0.441   2.076  2.2610 -1.2265  1.4992
 8896SOL     OW38149   3.073   1.073   5.043 -0.4185  0.3232  0.1277
 8896SOL    HW138150   3.007   1.142   5.044  0.1678  0.9056 -1.0206
 8896SOL    HW238151   3.029   0.996   5.079  1.2491  0.5794  2.6887
 8897SOL     OW38152   3.343   1.032   7.950  0.1919  0.1095 -0.0635
 8897SOL    HW138153   3.376   1.023   8.040 -0.8843 -0.4614  0.2711
 8897SOL    HW238154   3.249   1.022   7.964  0.4235 -2.0038 -0.0657
 8898SOL     OW38155   4.647   0.976  10.496 -0.2026 -0.3330  0.3423
 8898SOL    HW138156   4.597   0.918  10.438 -0.1289  0.4932 -0.5560
 8898SOL    HW238157   4.716   0.999  10.434 -0.9330 -1.0255 -0.7457
 8899SOL     OW38158   1.497   2.728  13.269  0.7589  0.4332 -0.6629
 8899SOL    HW138159   1.547   2.753  13.191 -0.4108 -1.1511 -1.9178
 8899SOL    HW238160   1.472   2.638  13.250  2.1091 -0.2015  0.4990
 8900SOL     OW38161   0.672   0.919   2.676  0.0001  0.0725 -0.2806
 8900SOL    HW138162   0.612   0.845   2.668  0.5562 -0.5148  1.0710
 8900SOL    HW238163   0.697   0.911   2.768  0.4890 -2.3729 -0.6217
 8901SOL     OW38164   4.091   1.168   6.833  0.0744 -0.3111  0.1363
 8901SOL    HW138165   4.164   1.179   6.894  0.1509  1.1900 -0.2161
 8901SOL    HW238166   4.036   1.243   6.857  0.4236  0.0129 -0.0675
 8902SOL     OW38167   3.580   1.086   4.694  0.4482 -0.2278 -0.2376
 8902SOL    HW138168   3.613   1.158   4.748 -1.4523  1.3365 -1.1451
 8902SOL    HW238169   3.485   1.097   4.704  0.5975 -0.2720  1.2251
 8903SOL     OW38170   2.815   3.598   6.843  0.2914  0.2766  0.2917
 8903SOL    HW138171   2.845   3.688   6.859  0.5584  0.1499  0.5041
 8903SOL    HW238172   2.856   3.562   6.921  1.4668  0.2663 -0.3311
 8904SOL     OW38173   0.637   0.986   2.417  0.0879  0.3164 -0.3091
 8904SOL    HW138174   0.639   0.968   2.511 -0.0700 -1.7742 -0.7057
 8904SOL    HW238175   0.596   1.072   2.423 -1.6838 -0.7231  2.8814
 8905SOL     OW38176   2.732   3.384   9.326 -0.1481  0.6601  0.4415
 8905SOL    HW138177   2.745   3.421   9.413 -1.9044  1.0260  0.5459
 8905SOL    HW238178   2.810   3.330   9.317 -0.5201  0.7209 -3.3889
 8906SOL     OW38179   3.241   0.447   7.599 -0.0973 -0.6385 -0.5560
 8906SOL    HW138180   3.256   0.357   7.628 -0.5661 -0.9134 -1.1826
 8906SOL    HW238181   3.238   0.495   7.682  0.4966 -2.4808  0.5465
 8907SOL     OW38182   2.872   2.562   1.625  0.2272  0.7213 -0.4879
 8907SOL    HW138183   2.911   2.570   1.712 -1.4599  2.6071  0.0933
 8907SOL    HW238184   2.902   2.634   1.569 -2.4264  1.3793 -1.0723
 8908SOL     OW38185   0.575   1.106   7.942 -0.3525 -0.1798 -0.1034
 8908SOL    HW138186   0.596   1.149   8.025  1.1010 -1.9721  0.4479
 8908SOL    HW238187   0.525   1.032   7.977 -0.3076 -0.6394 -1.0228
 8909SOL     OW38188   1.053   3.046   7.849 -0.3146 -0.2456  0.4333
 8909SOL    HW138189   1.117   3.117   7.846  1.3209 -1.7029  0.4118
 8909SOL    HW238190   1.054   3.011   7.760  1.9602  0.8313  0.0305
 8910SOL     OW38191   0.066   2.190   6.074 -0.1702  0.2404 -0.0526
 8910SOL    HW138192   0.116   2.126   6.125  1.4675  1.4152 -0.1995
 8910SOL    HW238193   0.096   2.163   5.988 -0.7381 -2.0065  0.4552
 8911SOL     OW38194   2.283   1.521   3.212  0.5246  0.1389  0.4771
 8911SOL    HW138195   2.201   1.476   3.190  0.9965 -0.6985  0.4019
 8911SOL    HW238196   2.250   1.608   3.233 -0.4123 -0.2751  0.7777
 8912SOL     OW38197   3.520   0.551   9.348 -0.1907  0.2018  0.3212
 8912SOL    HW138198   3.569   0.490   9.403  0.7675 -1.0321 -1.8784
 8912SOL    HW238199   3.508   0.617   9.416  0.9286  1.2494 -0.4979
 8913SOL     OW38200   1.471   1.067   8.350 -0.1395 -0.0371  0.3008
 8913SOL    HW138201   1.554   1.047   8.306  0.1893 -1.7198  1.6885
 8913SOL    HW238202   1.452   1.157   8.325  1.1142 -0.1361 -1.0178
 8914SOL     OW38203   0.592   3.264  12.918 -0.1209  0.6158  0.0172
 8914SOL    HW138204   0.583   3.354  12.950  0.6809  0.7545 -0.1591
 8914SOL    HW238205   0.664   3.234  12.973  1.6041  4.5946 -0.0660
 8915SOL     OW38206   2.596   1.337   9.294  0.3631 -0.2090 -0.0580
 8915SOL    HW138207   2.552   1.329   9.379 -0.7303  1.9204 -0.4340
 8915SOL    HW238208   2.601   1.245   9.268 -1.5141 -0.9567  2.2007
 8916SOL     OW38209   1.311   3.379   3.526 -0.3973 -0.3372 -0.1405
 8916SOL    HW138210   1.380   3.407   3.586 -0.3195 -0.5934 -0.1107
 8916SOL    HW238211   1.339   3.426   3.447 -0.0628  0.8380  0.6787
 8917SOL     OW38212   3.456   2.033   2.035 -0.2262  0.6135  0.0177
 8917SOL    HW138213   3.376   2.035   2.087  0.0771 -2.3890  0.5563
 8917SOL    HW238214   3.466   1.938   2.028  1.1759  0.7486  0.2377
 8918SOL     OW38215   0.229   2.120   5.238  0.6647 -0.2179  0.3095
 8918SOL    HW138216   0.270   2.141   5.153 -1.1987 -1.2290 -0.8258
 8918SOL    HW238217   0.145   2.163   5.225  1.6399  2.6225  3.4036
 8919SOL     OW38218   2.217   0.329   9.857 -0.0946 -0.6606  0.1185
 8919SOL    HW138219   2.222   0.353   9.764 -1.0713  1.8938  0.7074
 8919SOL    HW238220   2.280   0.381   9.907 -0.6062 -0.2592  0.3502
 8920SOL     OW38221   0.106   0.880   4.344 -0.0001 -0.1389  0.3989
 8920SOL    HW138222   0.165   0.828   4.400  0.6297  0.3354  0.1747
 8920SOL    HW238223   0.162   0.957   4.346 -0.1336 -0.1009  2.5691
 8921SOL     OW38224   0.724   3.262  10.810  0.2000  0.5834 -0.0277
 8921SOL    HW138225   0.696   3.266  10.718 -2.3760 -1.0270  0.6882
 8921SOL    HW238226   0.670   3.338  10.834  0.5703  0.5613  0.8553
 8922SOL     OW38227   4.653   2.573  10.580 -0.3922 -0.1986 -0.6728
 8922SOL    HW138228   4.610   2.548  10.662 -1.4633  0.7430 -0.9452
 8922SOL    HW238229   0.009   2.526  10.598  0.0987  0.9225  0.0483
 8923SOL     OW38230   3.341   2.444   5.855  0.4703 -0.3379 -0.0677
 8923SOL    HW138231   3.336   2.533   5.819  0.4229  0.2672  1.4482
 8923SOL    HW238232   3.309   2.459   5.943  0.3756 -1.2284  0.0470
 8924SOL     OW38233   3.513   3.144   4.482  0.1901 -0.0300  0.0452
 8924SOL    HW138234   3.434   3.171   4.435  0.8203 -1.0444 -1.6062
 8924SOL    HW238235   3.560   3.227   4.492  0.0783  0.1340 -0.7561
 8925SOL     OW38236   3.336   2.000   3.754  1.6656  0.0183 -0.7113
 8925SOL    HW138237   3.282   2.077   3.775  1.3406 -0.0260 -1.3936
 8925SOL    HW238238   3.318   1.954   3.836 -1.2600  1.5587 -0.4651
 8926SOL     OW38239   3.170   2.176   2.934 -0.3305 -0.3423  0.2379
 8926SOL    HW138240   3.261   2.150   2.941 -0.5890 -1.2896 -0.0201
 8926SOL    HW238241   3.127   2.096   2.965 -1.4628 -0.8122 -2.5856
 8927SOL     OW38242   0.373   1.365   3.123  0.1567  0.0092 -0.0114
 8927SOL    HW138243   0.427   1.286   3.115 -0.1735 -0.1459 -0.7052
 8927SOL    HW238244   0.357   1.359   3.217 -1.3422  0.1692 -0.2540
 8928SOL     OW38245   4.210   3.481   6.566  0.0951  0.0204  0.1705
 8928SOL    HW138246   4.239   3.533   6.492 -1.4188  0.2531 -0.2578
 8928SOL    HW238247   4.176   3.407   6.516 -0.8947 -0.0172  0.8911
 8929SOL     OW38248   4.598   1.977   2.280 -0.2104 -0.3720 -0.1335
 8929SOL    HW138249   4.643   1.894   2.292 -3.5218 -2.1108  0.4350
 8929SOL    HW238250   4.510   1.952   2.310 -0.1991  0.6958  0.8265
 8930SOL     OW38251   2.611   3.952  13.202 -0.3746 -0.2810  0.7286
 8930SOL    HW138252   2.673   3.953  13.129 -2.0830 -0.0617 -0.7469
 8930SOL    HW238253   2.643   4.027  13.252  0.8567  0.4177 -1.1044
 8931SOL     OW38254   4.191   3.222   8.422 -0.2845  0.0414 -0.4861
 8931SOL    HW138255   4.160   3.133   8.436 -1.9197  0.4362 -1.5105
 8931SOL    HW238256   4.284   3.201   8.424  0.2349  2.5481  1.1722
 8932SOL     OW38257   3.873   3.837   3.026  0.2299  0.1929  0.3525
 8932SOL    HW138258   3.869   3.863   2.934  1.6446  0.6277  0.4199
 8932SOL    HW238259   3.968   3.836   3.032  0.4208  1.4017 -2.6444
 8933SOL     OW38260   4.245   3.299   1.524 -0.3943 -0.4086 -0.2815
 8933SOL    HW138261   4.245   3.388   1.558  0.1843  0.1568 -1.7554
 8933SOL    HW238262   4.231   3.309   1.430 -0.2552 -1.8086 -0.4485
 8934SOL     OW38263   4.543   0.297   0.159  0.0607  0.5766 -0.0033
 8934SOL    HW138264   4.614   0.361   0.150 -0.3095  1.0553  0.4709
 8934SOL    HW238265   4.534   0.259   0.072 -0.6996 -1.5484  1.0000
 8935SOL     OW38266   1.042   4.391  11.493 -0.0898  0.3737 -0.2698
 8935SOL    HW138267   1.076   4.411  11.580 -1.2331  0.4479  0.1514
 8935SOL    HW238268   1.117   4.386  11.433  0.1707  0.4712  0.0451
 8936SOL     OW38269   1.804   0.006   4.825 -0.4617  0.3505  0.0727
 8936SOL    HW138270   1.852   4.648   4.824  0.7312  1.0407 -1.0976
 8936SOL    HW238271   1.857   0.058   4.885  1.5132 -0.3389 -1.0712
 8937SOL     OW38272   3.016   0.141  16.933  0.1786 -0.5160  0.1352
 8937SOL    HW138273   3.068   0.179  17.003 -0.1995 -0.4541  0.3799
 8937SOL    HW238274   3.088   0.096  16.888  0.8874 -0.1688  0.9361
 8938SOL     OW38275   3.921   2.285   5.999 -0.3614 -0.1420  0.2038
 8938SOL    HW138276   3.926   2.297   6.094  2.0023  0.5839 -0.0108
 8938SOL    HW238277   3.858   2.356   5.987 -0.2513 -0.1533 -0.4326
 8939SOL     OW38278   2.867   2.335   4.368 -0.3315 -0.4202  0.1214
 8939SOL    HW138279   2.786   2.290   4.345 -0.8622  1.1509 -1.0684
 8939SOL    HW238280   2.841   2.373   4.452  0.1195  2.6842 -1.1178
 8940SOL     OW38281   1.736   1.146  16.120 -0.2161 -0.4056 -0.4311
 8940SOL    HW138282   1.725   1.059  16.083  0.0148 -0.0173 -1.4169
 8940SOL    HW238283   1.677   1.196  16.063 -1.4401 -1.0457  0.2676
 8941SOL     OW38284   4.251   0.784   7.832 -0.5360  0.0331  0.0045
 8941SOL    HW138285   4.265   0.855   7.769 -1.6927 -0.9219 -1.3580
 8941SOL    HW238286   4.265   0.829   7.915 -1.6401  3.4795 -1.6656
 8942SOL     OW38287   4.368   0.216   8.824  0.2630 -0.6560  0.4317
 8942SOL    HW138288   4.362   0.207   8.919 -0.4019 -1.3209  0.3299
 8942SOL    HW238289   4.453   0.176   8.808  1.0131  0.6583  1.2476
 8943SOL     OW38290   0.715   1.476   3.254 -0.1463 -0.3105  0.5053
 8943SOL    HW138291   0.774   1.536   3.209 -1.4481 -0.6819 -1.6508
 8943SOL    HW238292   0.727   1.397   3.201  0.8586  0.6395 -0.6747
 8944SOL     OW38293   1.466   3.640   1.413 -0.5247  0.2839 -0.3838
 8944SOL    HW138294   1.380   3.630   1.373 -0.7686 -2.7537  0.8666
 8944SOL    HW238295   1.431   3.700   1.479  1.3036  0.3187  0.5541
 8945SOL     OW38296   2.941   3.599   8.863  0.1451 -0.1308 -0.3449
 8945SOL    HW138297   2.877   3.561   8.803  0.4197 -0.2376 -0.5732
 8945SOL    HW238298   3.022   3.593   8.812 -0.9716  2.2634 -2.4027
 8946SOL     OW38299   2.973   0.077   2.608 -0.7212 -0.1783  0.4589
 8946SOL    HW138300   2.974   4.723   2.663  0.6286  2.6998  4.5846
 8946SOL    HW238301   2.893   0.124   2.633 -0.8462 -1.4429  2.4781
 8947SOL     OW38302   3.911   4.014   4.437 -0.2682 -0.0257 -0.1763
 8947SOL    HW138303   3.924   3.986   4.528  0.1435  2.4888  0.5453
 8947SOL    HW238304   3.944   4.103   4.451  1.8378 -0.9544  0.7319
 8948SOL     OW38305   0.735   0.674   4.657 -0.1673  0.3311  0.3664
 8948SOL    HW138306   0.755   0.615   4.585  0.0628  1.1813 -0.2620
 8948SOL    HW238307   0.820   0.691   4.697  0.5268  1.1118 -1.4625
 8949SOL     OW38308   4.448   1.569   7.844  0.4279 -0.7089 -0.3627
 8949SOL    HW138309   4.533   1.584   7.802  1.6138  2.0064  2.9772
 8949SOL    HW238310   4.427   1.655   7.881  2.5174  0.4952 -1.9318
 8950SOL     OW38311   2.080   3.307   7.031  0.0504 -0.3990 -0.6089
 8950SOL    HW138312   2.139   3.366   7.078  1.1156 -0.6605 -1.5922
 8950SOL    HW238313   1.999   3.355   7.047  1.0823  2.1259 -2.8171
 8951SOL     OW38314   2.310   2.581   4.847 -0.0620  0.1691  0.4423
 8951SOL    HW138315   2.363   2.657   4.872 -1.1485  1.0285  0.1316
 8951SOL    HW238316   2.231   2.614   4.805 -0.1115  0.9202  1.1263
 8952SOL     OW38317   2.724   3.244  13.710  0.0562  0.7662  0.2691
 8952SOL    HW138318   2.778   3.234  13.632 -1.0560  0.0458 -0.3967
 8952SOL    HW238319   2.642   3.204  13.681 -0.2912  0.9185  1.0522
 8953SOL     OW38320   0.383   2.536   4.911  0.5019  0.0653 -0.4014
 8953SOL    HW138321   0.292   2.514   4.931  0.7878 -1.2786 -0.5773
 8953SOL    HW238322   0.396   2.459   4.857  1.6715 -1.1035  1.5291
 8954SOL     OW38323   1.765   1.926  17.601 -0.0937  0.2198 -0.5015
 8954SOL    HW138324   1.741   1.836  17.579 -1.6433  0.1582  1.4528
 8954SOL    HW238325   1.685   1.966  17.635  0.7525  0.4010  1.2818
 8955SOL     OW38326   3.192   2.684   3.365 -0.1202  0.2193  0.4497
 8955SOL    HW138327   3.267   2.629   3.346 -0.2449  0.6742 -1.3147
 8955SOL    HW238328   3.231   2.771   3.363  1.9608 -0.7675 -1.1661
 8956SOL     OW38329   1.641   2.308   1.265 -0.1785  0.5663 -0.1023
 8956SOL    HW138330   1.732   2.309   1.235  0.0324  1.6594  0.5896
 8956SOL    HW238331   1.624   2.213   1.270 -2.0138  0.6594 -3.9300
 8957SOL     OW38332   3.721   3.492   5.097 -0.2451 -0.0156 -0.0280
 8957SOL    HW138333   3.654   3.534   5.152  2.9143  4.2189  0.6111
 8957SOL    HW238334   3.788   3.508   5.163  2.0713  0.0879 -2.4426
 8958SOL     OW38335   0.599   2.076   6.663  0.0108  0.1683 -0.5329
 8958SOL    HW138336   0.624   1.984   6.657  0.4841  0.1629  1.6871
 8958SOL    HW238337   0.667   2.126   6.616  1.6282 -2.1365 -0.6548
 8959SOL     OW38338   0.648   3.611   3.430 -0.3182  0.9599  0.4892
 8959SOL    HW138339   0.599   3.530   3.421  2.2553 -0.2852 -2.2468
 8959SOL    HW238340   0.592   3.680   3.395 -1.5143 -0.4504 -0.3480
 8960SOL     OW38341   0.252   4.126  10.757 -0.0445  0.0470  0.2587
 8960SOL    HW138342   0.237   4.047  10.810 -0.8162  0.0479  0.0414
 8960SOL    HW238343   0.240   4.191  10.826  1.2723 -0.4748  0.9823
 8961SOL     OW38344   2.393   2.252  15.801  0.3074  0.1499 -0.0493
 8961SOL    HW138345   2.471   2.222  15.849 -0.5906 -1.1265  0.6087
 8961SOL    HW238346   2.361   2.168  15.767  0.0476 -0.6725  2.2583
 8962SOL     OW38347   4.278   4.175  16.843 -0.5500  0.0273  0.0103
 8962SOL    HW138348   4.240   4.252  16.885 -0.5920 -0.5831  1.1060
 8962SOL    HW238349   4.218   4.107  16.873 -1.3113  0.2537 -1.0101
 8963SOL     OW38350   2.585   2.118   9.470 -0.5940 -0.2821 -0.1812
 8963SOL    HW138351   2.679   2.131   9.461 -0.3245 -1.7344  0.5336
 8963SOL    HW238352   2.562   2.151   9.383  1.1281  0.0337 -0.5046
 8964SOL     OW38353   1.393   4.461   8.777 -0.2701  0.0454  0.0878
 8964SOL    HW138354   1.323   4.497   8.832 -0.2444 -2.3386  1.6847
 8964SOL    HW238355   1.457   4.442   8.846 -0.0534  1.9413  0.4098
 8965SOL     OW38356   2.433   4.148   1.775 -0.2904  0.5306 -0.6372
 8965SOL    HW138357   2.474   4.135   1.690 -0.3026  1.4988 -0.7849
 8965SOL    HW238358   2.364   4.082   1.773  0.5135 -0.2238 -3.8824
 8966SOL     OW38359   3.394   0.874  10.728  0.4451  0.1831 -0.3360
 8966SOL    HW138360   3.442   0.883  10.645  2.6407  0.3870  0.9658
 8966SOL    HW238361   3.434   0.799  10.772  1.5360  2.1239  1.9548
 8967SOL     OW38362   2.100   1.516   3.451 -0.2607  0.0034  0.0480
 8967SOL    HW138363   2.038   1.552   3.516 -1.3636 -0.0607 -0.9653
 8967SOL    HW238364   2.046   1.463   3.394  2.0670 -1.9049 -0.3498
 8968SOL     OW38365   1.985   0.749   4.649 -0.2801  0.1076  0.1853
 8968SOL    HW138366   1.975   0.664   4.692  2.6452 -0.2040  0.2966
 8968SOL    HW238367   1.923   0.802   4.698 -2.5318 -0.6750 -1.8158
 8969SOL     OW38368   2.929   3.990   8.137 -0.2908  0.1351  0.7229
 8969SOL    HW138369   2.896   3.961   8.223 -2.2588 -1.2841 -0.5152
 8969SOL    HW238370   3.022   3.987   8.161 -0.3185  0.8850  0.9152
 8970SOL     OW38371   1.860   3.712  10.757  0.2447  0.0225  0.1639
 8970SOL    HW138372   1.866   3.792  10.810  1.3632 -0.0580  0.1672
 8970SOL    HW238373   1.938   3.663  10.784 -0.6717 -0.4737  1.9158
 8971SOL     OW38374   4.500   2.548   5.999  0.2361 -0.1297  0.6073
 8971SOL    HW138375   4.528   2.458   6.010 -1.5942 -0.9099 -1.0482
 8971SOL    HW238376   4.579   2.599   6.016  0.1458 -0.8975  3.2550
 8972SOL     OW38377   1.215   2.903  16.281 -0.1817 -0.1806 -0.1419
 8972SOL    HW138378   1.156   2.978  16.271 -0.6644 -0.8217 -2.0566
 8972SOL    HW238379   1.272   2.941  16.348 -0.8739  0.6775 -0.0460
 8973SOL     OW38380   0.231   4.581   3.575 -0.2763 -0.2059  0.1616
 8973SOL    HW138381   0.274   4.581   3.660 -1.4014  0.4031  0.7374
 8973SOL    HW238382   0.158   4.523   3.598  2.1860 -3.0010  0.9484
 8974SOL     OW38383   2.652   0.753  15.139 -0.4755 -0.0040 -0.2985
 8974SOL    HW138384   2.659   0.734  15.045 -1.7098  0.0363 -0.4033
 8974SOL    HW238385   2.565   0.792  15.129  0.4955  2.3694  0.3865
 8975SOL     OW38386   3.750   4.140   6.411  1.0620  0.3996  0.0646
 8975SOL    HW138387   3.719   4.060   6.453 -2.2168  1.9158  0.5294
 8975SOL    HW238388   3.736   4.208   6.476 -0.7839 -0.1984  0.3017
 8976SOL     OW38389   1.845   1.161  16.984  0.6268  0.5060 -0.1763
 8976SOL    HW138390   1.814   1.182  16.896 -0.2048  1.1979  0.2816
 8976SOL    HW238391   1.788   1.086  16.999 -0.2972  1.4206  0.8680
 8977SOL     OW38392   0.730   0.392  13.908  0.2718 -0.0346  0.3350
 8977SOL    HW138393   0.769   0.476  13.886  0.7421 -1.1883 -3.1394
 8977SOL    HW238394   0.638   0.419  13.909  1.5701  4.4627  0.8920
 8978SOL     OW38395   4.667   4.368   8.589 -0.3522  0.4674 -0.1258
 8978SOL    HW138396   4.636   4.368   8.679 -0.2476 -0.2577 -0.0865
 8978SOL    HW238397   4.645   4.456   8.560 -3.9051 -0.3451  0.0697
 8979SOL     OW38398   3.305   2.893   1.712  0.6388 -0.2037  0.1574
 8979SOL    HW138399   3.326   2.985   1.727 -0.0872 -0.4149  2.5070
 8979SOL    HW238400   3.396   2.863   1.713 -0.2771 -2.9986  0.7079
 8980SOL     OW38401   4.223   0.221  17.487 -0.2307 -0.3217 -0.2341
 8980SOL    HW138402   4.215   0.235  17.581 -1.5618 -1.0183 -0.2407
 8980SOL    HW238403   4.155   0.154  17.475 -1.1219  0.6154 -0.3347
 8981SOL     OW38404   3.072   2.816  12.015 -0.1903 -0.4534  0.5401
 8981SOL    HW138405   3.083   2.796  12.108  0.8194  0.0663  0.5278
 8981SOL    HW238406   3.153   2.861  11.989 -0.5031 -0.1503  0.0765
 8982SOL     OW38407   1.291   1.896   8.659  0.8337 -0.1900 -0.3656
 8982SOL    HW138408   1.302   1.830   8.590 -0.0824 -0.4278 -0.2830
 8982SOL    HW238409   1.324   1.973   8.612  0.0284 -0.7165 -1.8077
 8983SOL     OW38410   2.137   4.005   2.909  0.2445  0.9979  0.1157
 8983SOL    HW138411   2.052   4.042   2.932 -1.0808 -1.4993 -0.7508
 8983SOL    HW238412   2.195   4.066   2.954  1.0018  0.6095 -0.3406
 8984SOL     OW38413   3.392   0.485   3.800  0.3010 -0.3452 -0.5718
 8984SOL    HW138414   3.414   0.408   3.852  1.6783  0.8675  0.6594
 8984SOL    HW238415   3.326   0.447   3.742  2.4385  0.5165 -3.5643
 8985SOL     OW38416   1.636   3.493  14.485 -0.4671 -0.1104 -0.0588
 8985SOL    HW138417   1.591   3.437  14.422 -0.0989 -0.1980 -0.2459
 8985SOL    HW238418   1.729   3.483  14.463 -0.7825  0.0340 -1.4957
 8986SOL     OW38419   1.243   0.652  11.576  0.1878  0.5593  0.4886
 8986SOL    HW138420   1.167   0.595  11.589  0.3834  1.0053  3.4302
 8986SOL    HW238421   1.305   0.599  11.627 -0.3159  0.2766  0.8084
 8987SOL     OW38422   1.254   3.354   4.912 -1.3208 -0.1760 -0.1376
 8987SOL    HW138423   1.344   3.380   4.894 -0.7991 -1.7847  0.1693
 8987SOL    HW238424   1.218   3.324   4.828 -1.9083  1.0972 -0.3454
 8988SOL     OW38425   2.787   3.332   4.544  0.5438 -0.1472  0.3641
 8988SOL    HW138426   2.764   3.425   4.547  1.2904  0.0442  0.2368
 8988SOL    HW238427   2.708   3.296   4.584 -0.2334  0.3941 -0.6722
 8989SOL     OW38428   2.929   1.382   8.438  0.2423  0.1081  0.0950
 8989SOL    HW138429   2.988   1.425   8.375  1.1465 -0.5600  0.4988
 8989SOL    HW238430   2.846   1.429   8.437  0.4343  0.4501  0.5326
 8990SOL     OW38431   2.430   0.538  13.649  0.1535  0.1526 -0.0161
 8990SOL    HW138432   2.352   0.503  13.691 -0.2103  2.6240  1.3712
 8990SOL    HW238433   2.487   0.498  13.715  0.7664  0.7044 -0.2036
 8991SOL     OW38434   4.679   4.574   9.118 -0.5806  0.2110 -0.1489
 8991SOL    HW138435   0.012   4.500   9.140  0.1796  0.5664 -0.9678
 8991SOL    HW238436   4.609   4.571   9.184 -1.3987 -0.7650 -1.0727
 8992SOL     OW38437   0.646   3.576   6.309 -0.2136  0.0119 -0.6598
 8992SOL    HW138438   0.642   3.556   6.215  0.3294 -2.9915 -0.0291
 8992SOL    HW238439   0.740   3.576   6.326 -0.7475  2.3458  2.3590
 8993SOL     OW38440   3.292   2.960   4.927 -0.5812 -0.0570 -0.0119
 8993SOL    HW138441   3.292   2.997   5.015 -0.0481 -2.2063  0.8892
 8993SOL    HW238442   3.358   3.015   4.883 -0.5191  0.5686  0.8681
 8994SOL     OW38443   0.427   1.794  12.203 -0.2094 -0.0791 -0.1930
 8994SOL    HW138444   0.450   1.885  12.223 -0.7862 -0.3065  1.5007
 8994SOL    HW238445   0.516   1.762  12.191  0.9264  3.7556 -2.0897
 8995SOL     OW38446   2.157   1.009   7.952 -0.4549 -0.7837 -0.5990
 8995SOL    HW138447   2.245   1.043   7.933 -0.6710 -0.7763 -1.5429
 8995SOL    HW238448   2.130   1.070   8.021  0.5456  2.1780 -2.8474
 8996SOL     OW38449   1.707   3.487   4.377  0.8035 -0.0677  0.3622
 8996SOL    HW138450   1.680   3.472   4.468 -2.3480  1.5371 -0.3052
 8996SOL    HW238451   1.621   3.479   4.335 -1.0080 -1.1070  4.2670
 8997SOL     OW38452   0.324   1.820   7.987  0.6221 -0.2324  0.2771
 8997SOL    HW138453   0.378   1.745   7.962  2.2821  0.8840  0.5235
 8997SOL    HW238454   0.311   1.792   8.078  0.8707 -2.0118 -0.2428
 8998SOL     OW38455   2.034   1.754  14.656 -0.3365 -0.1128 -0.0602
 8998SOL    HW138456   1.988   1.690  14.601 -1.3516  1.5801 -1.1979
 8998SOL    HW238457   2.104   1.701  14.696  0.1796 -0.4034 -1.3413
 8999SOL     OW38458   1.685   3.471  17.357 -0.3177 -0.4136  0.5579
 8999SOL    HW138459   1.633   3.402  17.317 -0.5752 -0.5675  1.1678
 8999SOL    HW238460   1.685   3.537  17.287  1.4967 -0.7208  0.2582
 9000SOL     OW38461   4.719   3.518   5.285  0.3883  0.2364 -0.3321
 9000SOL    HW138462   0.038   3.584   5.232 -0.4215 -0.7986 -2.2974
 9000SOL    HW238463   0.012   3.438   5.235 -0.9881 -0.2943  0.0117
 9001SOL     OW38464   4.624   0.283   5.186  0.1098 -0.5247 -0.4232
 9001SOL    HW138465   4.694   0.217   5.180 -1.2064 -1.9044 -0.7649
 9001SOL    HW238466   4.676   0.358   5.214 -0.9472 -0.1284  0.4581
 9002SOL     OW38467   1.606   3.583   5.884  1.0420  0.5672 -0.4586
 9002SOL    HW138468   1.616   3.646   5.812  3.4031  1.9310  1.0673
 9002SOL    HW238469   1.671   3.611   5.948 -0.1879 -0.7028  1.3478
 9003SOL     OW38470   3.816   4.524   4.184 -0.1626 -0.2101  0.6278
 9003SOL    HW138471   3.793   4.454   4.122 -2.7019 -2.2737  3.8750
 9003SOL    HW238472   3.895   4.493   4.228  0.8970 -0.2083 -1.2523
 9004SOL     OW38473   1.683   3.168   7.317 -0.8887 -0.6077 -0.1311
 9004SOL    HW138474   1.721   3.176   7.404  1.0420  0.1921 -1.0658
 9004SOL    HW238475   1.717   3.082   7.293 -1.3445 -0.7782 -0.1715
 9005SOL     OW38476   3.473   2.569   3.355  0.0168  0.2327 -0.1682
 9005SOL    HW138477   3.512   2.538   3.436 -1.4858  0.4027  0.6339
 9005SOL    HW238478   3.419   2.490   3.349 -1.2445  0.9529  1.9346
 9006SOL     OW38479   1.958   0.270   2.280 -0.1701  0.0997 -0.2453
 9006SOL    HW138480   1.866   0.294   2.291 -0.2550 -0.9703  1.3222
 9006SOL    HW238481   1.986   0.253   2.370 -0.5520 -0.0815 -0.1621
 9007SOL     OW38482   4.519   2.095   7.564 -0.0231  0.6546  0.9862
 9007SOL    HW138483   4.527   2.158   7.635  0.2558  1.7748 -0.0544
 9007SOL    HW238484   4.556   2.150   7.496  1.8919 -1.8305  0.0177
 9008SOL     OW38485   2.518   3.856  15.373  0.1297  0.0152  0.1915
 9008SOL    HW138486   2.501   3.951  15.367 -1.7232 -0.3601 -0.5028
 9008SOL    HW238487   2.528   3.841  15.279 -0.1340 -0.1205  0.1871
 9009SOL     OW38488   0.188   3.756   7.500  0.8433 -0.6153 -0.1732
 9009SOL    HW138489   0.125   3.793   7.561 -0.4715  0.8264 -2.4352
 9009SOL    HW238490   0.210   3.670   7.538  0.3028 -0.8021 -0.2861
 9010SOL     OW38491   2.272   1.759   5.761 -0.0421 -0.1169  0.4866
 9010SOL    HW138492   2.236   1.720   5.681  0.1370  0.8341 -0.0572
 9010SOL    HW238493   2.306   1.843   5.730  1.7791 -0.6061  1.1165
 9011SOL     OW38494   0.348   0.876   7.859  0.2297 -0.4548  0.5654
 9011SOL    HW138495   0.436   0.837   7.858 -0.3618 -1.7370 -2.3269
 9011SOL    HW238496   0.309   0.846   7.940  2.4852  0.1510  1.8829
 9012SOL     OW38497   0.809   0.485  11.366 -0.5342  0.2728 -0.0670
 9012SOL    HW138498   0.779   0.575  11.352 -1.5652  0.2334  1.9551
 9012SOL    HW238499   0.857   0.467  11.285  1.6043  0.6313  1.1060
 9013SOL     OW38500   1.364   0.793   1.564 -0.0652  0.5914 -0.1199
 9013SOL    HW138501   1.275   0.824   1.577 -0.6336 -1.1703  0.2071
 9013SOL    HW238502   1.415   0.867   1.597 -0.4206  1.4265 -1.4332
 9014SOL     OW38503   1.115   3.453   7.312 -0.3582 -0.2869  0.5157
 9014SOL    HW138504   1.041   3.513   7.307 -0.9753 -1.2453 -1.9482
 9014SOL    HW238505   1.125   3.435   7.405  1.7654  0.8925  0.5197
 9015SOL     OW38506   2.414   3.097  13.665 -0.2795  0.2798  0.3501
 9015SOL    HW138507   2.391   3.007  13.690  0.1995 -0.0669 -0.4472
 9015SOL    HW238508   2.327   3.132  13.652  0.0987  0.9162 -0.4594
 9016SOL     OW38509   0.908   2.783   3.828  0.2587  0.2589  0.1748
 9016SOL    HW138510   0.919   2.701   3.780  0.1714  1.2479 -1.5419
 9016SOL    HW238511   0.817   2.802   3.807  0.5002  1.5016  0.2564
 9017SOL     OW38512   4.186   4.024   6.592  0.0015 -0.0964  0.1337
 9017SOL    HW138513   4.125   4.005   6.663 -1.6386  0.0968 -1.2159
 9017SOL    HW238514   4.153   4.111   6.569 -2.2668 -0.8707  0.4817
 9018SOL     OW38515   2.707   3.414   3.085 -0.1276 -0.3613  0.3912
 9018SOL    HW138516   2.761   3.428   3.007  1.2936 -0.9125  1.2731
 9018SOL    HW238517   2.769   3.372   3.145 -1.5362  0.2238  2.2814
 9019SOL     OW38518   3.901   1.031   5.290 -0.2254 -0.4608  0.7311
 9019SOL    HW138519   3.879   1.122   5.312  1.3376 -0.3108  1.7427
 9019SOL    HW238520   3.815   0.999   5.264  0.0061 -0.5987  0.1335
 9020SOL     OW38521   2.168   3.915   0.041  0.1898  0.2263  0.6662
 9020SOL    HW138522   2.223   3.983   0.004  1.2990 -1.3860 -0.6861
 9020SOL    HW238523   2.164   3.868  17.658 -0.2784  0.9211  0.3072
 9021SOL     OW38524   3.515   0.441   7.236 -0.9319 -0.1008 -0.4397
 9021SOL    HW138525   3.557   0.445   7.150  2.8328 -1.1996  1.3528
 9021SOL    HW238526   3.532   0.349   7.254  1.6802  0.4502 -0.0224
 9022SOL     OW38527   4.529   1.569  12.181  0.1344  0.1011  1.0665
 9022SOL    HW138528   4.574   1.654  12.187 -1.9777  1.2015  1.1334
 9022SOL    HW238529   4.580   1.523  12.114 -2.4127 -3.2991  1.4949
 9023SOL     OW38530   2.200   2.381   2.738 -0.0719  0.5592  0.3715
 9023SOL    HW138531   2.256   2.451   2.707  0.0550  1.4953  2.7018
 9023SOL    HW238532   2.203   2.329   2.657  1.8513 -1.9610  2.0579
 9024SOL     OW38533   2.372   1.695   8.612  0.2973  0.3483  0.0284
 9024SOL    HW138534   2.390   1.663   8.700 -1.9245 -1.9689 -0.3768
 9024SOL    HW238535   2.325   1.627   8.564 -0.7524  0.2919  1.1239
 9025SOL     OW38536   3.899   2.078  14.659 -0.0540 -0.2328  0.5570
 9025SOL    HW138537   3.986   2.096  14.623 -0.5181 -0.6436 -0.7627
 9025SOL    HW238538   3.906   2.153  14.719 -1.4136 -0.0011  0.4233
 9026SOL     OW38539   2.437   3.971   5.230 -0.2407  0.2431  0.4059
 9026SOL    HW138540   2.387   4.052   5.221  2.0202  1.6821  0.5975
 9026SOL    HW238541   2.505   3.984   5.163  0.0066 -1.3886  0.3374
 9027SOL     OW38542   4.063   0.469   6.143  0.6685  0.5264 -0.6494
 9027SOL    HW138543   3.975   0.433   6.157  0.2806  1.3012 -1.0955
 9027SOL    HW238544   4.097   0.411   6.075  1.7394  0.6506 -0.2228
 9028SOL     OW38545   1.016   4.290   4.337 -0.3234 -0.2747 -0.0474
 9028SOL    HW138546   0.960   4.368   4.332 -0.0592 -0.0226  0.9690
 9028SOL    HW238547   0.953   4.218   4.326 -0.7103 -0.0745  0.8020
 9029SOL     OW38548   4.438   1.942  15.507 -0.3541  0.0443 -0.0742
 9029SOL    HW138549   4.382   1.966  15.433 -0.5502  1.0510  0.3962
 9029SOL    HW238550   4.480   2.023  15.534 -0.6135  0.0956  0.1777
 9030SOL     OW38551   2.310   1.259   7.798 -0.0360 -0.3800 -0.0950
 9030SOL    HW138552   2.367   1.205   7.852 -0.6414  0.1380  1.0681
 9030SOL    HW238553   2.369   1.306   7.738  1.2194 -0.5578  0.9909
 9031SOL     OW38554   1.178   1.804   4.806 -0.1784 -0.1359 -0.9401
 9031SOL    HW138555   1.134   1.888   4.794  1.1776  0.7730  0.3681
 9031SOL    HW238556   1.246   1.811   4.739 -0.2864  0.3562 -0.9959
 9032SOL     OW38557   2.034   1.667  15.841 -0.6150  0.4120 -0.4549
 9032SOL    HW138558   2.039   1.626  15.755 -0.2775 -0.8513  0.1773
 9032SOL    HW238559   2.018   1.758  15.817 -3.6288  0.2083  0.8246
 9033SOL     OW38560   0.038   1.001   9.206 -0.8585  0.1787  0.3731
 9033SOL    HW138561   0.013   0.923   9.156 -0.5579 -0.2427  0.8792
 9033SOL    HW238562   0.118   1.028   9.161 -1.3454  0.9266 -0.0395
 9034SOL     OW38563   1.244   0.246  15.634  0.0794 -0.0675 -0.6156
 9034SOL    HW138564   1.270   0.206  15.716  1.7420  0.6923 -0.7774
 9034SOL    HW238565   1.206   0.180  15.576  2.6042 -0.7200 -1.5139
 9035SOL     OW38566   1.161   2.577   2.519  0.1089 -0.4136  0.1313
 9035SOL    HW138567   1.223   2.525   2.569 -0.1636  2.0721  3.0367
 9035SOL    HW238568   1.140   2.512   2.451 -2.6135 -0.0957  0.6521
 9036SOL     OW38569   1.408   3.760   8.081  0.5886 -0.0656  0.4755
 9036SOL    HW138570   1.363   3.844   8.075 -0.7360 -0.7227  0.9968
 9036SOL    HW238571   1.496   3.784   8.108  0.9083  0.8023 -1.3431
 9037SOL     OW38572   2.036   3.182   6.183  0.7351  0.2767  0.2619
 9037SOL    HW138573   1.983   3.109   6.151 -0.4744  0.7386  1.1974
 9037SOL    HW238574   1.975   3.222   6.246  1.5106  0.9222  0.6113
 9038SOL     OW38575   2.898   1.688   3.985  0.3707  0.2737 -0.1665
 9038SOL    HW138576   2.832   1.626   4.015  0.5406  0.0412 -0.2778
 9038SOL    HW238577   2.920   1.748   4.057  0.7144  2.2722 -1.9277
 9039SOL     OW38578   3.172   2.967   7.188  0.1856 -0.0017  0.2954
 9039SOL    HW138579   3.137   2.938   7.103  1.8968 -0.7606 -0.1574
 9039SOL    HW238580   3.092   2.968   7.241  0.9327  1.4414  1.3993
 9040SOL     OW38581   0.500   3.566   2.028 -0.7037  0.0856  0.4554
 9040SOL    HW138582   0.549   3.649   2.029 -1.9842  0.8122  2.3120
 9040SOL    HW238583   0.425   3.600   2.076 -1.7319 -0.5542 -0.6962
 9041SOL     OW38584   0.404   1.305   7.840 -0.1434  0.5191  0.1601
 9041SOL    HW138585   0.472   1.254   7.884  1.0357  0.1245 -2.1130
 9041SOL    HW238586   0.332   1.309   7.902 -0.8285  0.3861 -0.6303
 9042SOL     OW38587   1.954   3.743   4.020  0.3578 -0.3239 -0.5342
 9042SOL    HW138588   1.914   3.820   3.980  0.2159 -0.6565 -1.0238
 9042SOL    HW238589   2.038   3.775   4.055 -0.7076  1.9777 -0.0908
 9043SOL     OW38590   1.479   2.663   5.819 -0.1787  0.2071  0.7219
 9043SOL    HW138591   1.439   2.577   5.825  0.3669 -0.1728 -1.2554
 9043SOL    HW238592   1.508   2.686   5.907 -0.9788 -0.8082  1.2536
 9044SOL     OW38593   1.893   1.988   4.085  0.2634  0.0677  0.0583
 9044SOL    HW138594   1.900   2.048   4.011  2.9240 -1.1188 -0.6339
 9044SOL    HW238595   1.931   1.907   4.052 -0.5311  0.5007 -1.8887
 9045SOL     OW38596   0.634   3.263   5.030 -0.1415 -0.0093  0.1391
 9045SOL    HW138597   0.559   3.227   5.079 -0.3034  0.7129  0.4337
 9045SOL    HW238598   0.673   3.188   4.986  0.2145  0.9639 -1.1848
 9046SOL     OW38599   0.558   2.352   4.394  0.3424 -0.0857  0.2921
 9046SOL    HW138600   0.468   2.326   4.413  0.5509 -1.4681 -0.6439
 9046SOL    HW238601   0.604   2.270   4.380  0.3541 -0.1985  0.9936
 9047SOL     OW38602   3.484   4.697   7.519  0.1988  0.0758  0.2519
 9047SOL    HW138603   3.494   4.606   7.490  2.7882 -0.5216  3.0712
 9047SOL    HW238604   3.432   4.683   7.598 -0.3068  3.8360  0.5522
 9048SOL     OW38605   3.265   0.652   7.811 -0.4780  0.4864  0.2680
 9048SOL    HW138606   3.188   0.633   7.864 -0.5424  0.3473  0.1255
 9048SOL    HW238607   3.320   0.686   7.882 -0.8595  1.5890  0.0377
 9049SOL     OW38608   2.310   0.101   7.850  0.7767  0.1819 -0.1821
 9049SOL    HW138609   2.381   0.037   7.844  2.5006  2.2272 -1.5917
 9049SOL    HW238610   2.262   0.047   7.912 -0.6609 -1.0068 -2.3316
 9050SOL     OW38611   3.549   3.415   5.995  0.2198 -0.3264  0.3096
 9050SOL    HW138612   3.615   3.347   5.980  1.4462  1.3248 -1.6605
 9050SOL    HW238613   3.475   3.374   5.950 -0.0556  2.3437 -1.6221
 9051SOL     OW38614   1.633   3.433   4.636  0.0975  0.2854  0.1419
 9051SOL    HW138615   1.551   3.482   4.635  0.2565  0.4803 -3.2839
 9051SOL    HW238616   1.609   3.341   4.623 -0.1969  0.2543  0.9595
 9052SOL     OW38617   0.085   0.758   4.879 -0.0997 -0.2378  0.3477
 9052SOL    HW138618   0.076   0.727   4.789  1.7882  0.3014 -0.0260
 9052SOL    HW238619   0.180   0.751   4.892  0.2987 -1.0462 -2.9049
 9053SOL     OW38620   0.275   1.090   9.141  0.3132  0.3796 -0.0376
 9053SOL    HW138621   0.338   1.106   9.070  0.5933 -0.6685 -0.0196
 9053SOL    HW238622   0.318   1.016   9.184  0.3882  0.4599  0.0270
 9054SOL     OW38623   0.165   0.068   5.743  0.2070 -0.0067 -0.3322
 9054SOL    HW138624   0.111   0.041   5.818  1.3466 -0.8458  0.1891
 9054SOL    HW238625   0.218   4.714   5.737 -1.2846 -1.0482  0.1832
 9055SOL     OW38626   2.892   2.138   3.210 -0.2770 -0.2564 -1.0892
 9055SOL    HW138627   2.843   2.147   3.291  1.7852  0.0340  0.1217
 9055SOL    HW238628   2.978   2.139   3.251 -1.0721  3.0125  0.4835
 9056SOL     OW38629   4.448   2.489   8.768  0.1264  0.0463 -0.4306
 9056SOL    HW138630   4.416   2.562   8.820 -3.0705 -1.0547 -0.8721
 9056SOL    HW238631   4.540   2.494   8.794  0.0447 -1.0835  0.0442
 9057SOL     OW38632   3.521   3.094   8.989 -0.1852 -0.3615 -0.1419
 9057SOL    HW138633   3.427   3.101   9.007  0.0830  0.6631  0.9359
 9057SOL    HW238634   3.551   3.181   8.960 -0.4665 -0.0057  0.6343
 9058SOL     OW38635   1.887   4.564  14.310 -0.2158 -0.2220  0.2134
 9058SOL    HW138636   1.898   4.577  14.404 -1.5082 -1.6306  0.5564
 9058SOL    HW238637   1.833   4.639  14.286  0.7345  0.8301  1.3578
 9059SOL     OW38638   2.674   3.714  11.963  0.4150  0.1409  0.2208
 9059SOL    HW138639   2.715   3.690  11.881 -0.9406  1.9752 -1.0105
 9059SOL    HW238640   2.659   3.627  11.999 -1.1911  0.1600 -0.3739
 9060SOL     OW38641   2.519   2.992   1.673 -0.7697  0.1162  0.0477
 9060SOL    HW138642   2.528   2.994   1.768 -0.0915 -1.1383  0.0134
 9060SOL    HW238643   2.430   3.023   1.655 -1.6153 -2.2982  0.1775
 9061SOL     OW38644   2.832   3.608   5.987 -0.1593  0.5430  0.4447
 9061SOL    HW138645   2.921   3.599   5.954 -0.1247 -0.9442  0.9617
 9061SOL    HW238646   2.851   3.610   6.081 -0.9692  1.1259  0.6037
 9062SOL     OW38647   1.912   4.150   8.006  0.1329  0.7080  0.2858
 9062SOL    HW138648   1.963   4.153   8.087 -0.4984  1.0196  0.6823
 9062SOL    HW238649   1.966   4.092   7.954 -2.4339  1.1958 -2.8802
 9063SOL     OW38650   4.316   0.212   7.246 -0.1510  0.6383 -0.1017
 9063SOL    HW138651   4.408   0.185   7.244 -0.8793 -1.8735  0.1525
 9063SOL    HW238652   4.284   0.197   7.157  0.3172  0.2138 -0.1965
 9064SOL     OW38653   3.999   0.152   2.841 -0.0693  0.3929  0.5037
 9064SOL    HW138654   3.948   0.182   2.916 -1.0309  1.6199 -0.6348
 9064SOL    HW238655   3.924   0.146   2.782  1.1442  0.7709 -1.0650
 9065SOL     OW38656   1.243   2.039  15.162 -0.1330  0.0073 -0.0071
 9065SOL    HW138657   1.207   2.013  15.247 -2.2602  0.0310 -0.8769
 9065SOL    HW238658   1.163   2.054  15.110  0.4606  0.6551 -0.7322
 9066SOL     OW38659   3.852   3.599   6.368  0.0640  0.0904  0.6423
 9066SOL    HW138660   3.786   3.613   6.300  0.3736 -2.4610 -0.1802
 9066SOL    HW238661   3.883   3.508   6.365 -0.0763  0.1145 -1.4464
 9067SOL     OW38662   1.654   1.431   6.917 -0.2383 -0.3166  0.0766
 9067SOL    HW138663   1.601   1.481   6.979  1.3545  0.7188  0.6031
 9067SOL    HW238664   1.653   1.348   6.965  2.2039 -0.9419 -0.9058
 9068SOL     OW38665   4.254   4.619  10.653 -0.5002 -0.0152 -0.3770
 9068SOL    HW138666   4.321   4.677  10.689 -0.1013  0.1918 -1.4572
 9068SOL    HW238667   4.196   4.688  10.623 -2.0993 -0.2775  2.1485
 9069SOL     OW38668   0.178   1.290   5.214  0.5508 -0.1491  0.0287
 9069SOL    HW138669   0.207   1.201   5.233  0.3104  0.5008  3.3181
 9069SOL    HW238670   0.094   1.279   5.259  1.0833 -3.1250  0.3258
 9070SOL     OW38671   0.722   1.258  11.546  0.0978 -0.1132 -0.2319
 9070SOL    HW138672   0.727   1.208  11.628 -2.7423 -0.5515 -0.3323
 9070SOL    HW238673   0.811   1.287  11.527  0.7037 -1.6644  0.2679
 9071SOL     OW38674   2.835   2.395   7.056 -0.2822  0.6747  0.4292
 9071SOL    HW138675   2.752   2.382   7.101 -0.1907 -2.1194 -0.2329
 9071SOL    HW238676   2.895   2.326   7.083 -1.9539 -1.4485 -1.3029
 9072SOL     OW38677   2.261   2.637  10.175 -0.3539 -0.3795  0.1141
 9072SOL    HW138678   2.200   2.709  10.160 -0.8106 -0.6957  0.4480
 9072SOL    HW238679   2.341   2.674  10.139  1.5485 -3.0669  1.5587
 9073SOL     OW38680   1.586   0.584   1.380  0.4666  0.2936 -0.4452
 9073SOL    HW138681   1.590   0.489   1.365 -1.2158  0.0225  0.7669
 9073SOL    HW238682   1.490   0.588   1.374  0.4151 -0.5935 -0.3002
 9074SOL     OW38683   0.814   0.960   8.388  0.3413 -0.7771 -0.0463
 9074SOL    HW138684   0.722   0.982   8.403 -0.4598 -2.5404 -2.3992
 9074SOL    HW238685   0.837   0.913   8.469  0.0666  0.8012  0.9449
 9075SOL     OW38686   0.332   4.561   5.775  0.3166  0.2408  0.4457
 9075SOL    HW138687   0.271   4.515   5.832  0.4505  0.1952  0.5528
 9075SOL    HW238688   0.416   4.546   5.819 -0.1190 -0.0480  1.1645
 9076SOL     OW38689   3.538   2.449   0.921 -0.1549  0.0592  0.1278
 9076SOL    HW138690   3.473   2.517   0.941  0.6879  0.8820  0.0733
 9076SOL    HW238691   3.476   2.382   0.891 -1.6082  2.9903 -3.4768
 9077SOL     OW38692   3.371   0.964   0.107  0.4185 -0.3500  0.0127
 9077SOL    HW138693   3.341   1.022   0.037  0.9365  0.6089  0.5820
 9077SOL    HW238694   3.466   0.970   0.094  0.4186  2.0698  1.0872
 9078SOL     OW38695   4.035   3.836   7.339  0.4963  0.0390  0.1184
 9078SOL    HW138696   4.012   3.746   7.363  3.2497 -0.9696 -0.8847
 9078SOL    HW238697   4.022   3.837   7.244  0.2269 -2.0166  0.1293
 9079SOL     OW38698   0.863   3.346  14.265 -0.0577 -0.6308  0.1656
 9079SOL    HW138699   0.772   3.368  14.286  1.0426  1.4108  2.6671
 9079SOL    HW238700   0.905   3.405  14.327 -0.0963 -1.3664  0.8936
 9080SOL     OW38701   1.955   0.883  11.969  0.0319 -0.2601  0.2794
 9080SOL    HW138702   1.869   0.872  12.010  0.2033 -0.0452  0.6993
 9080SOL    HW238703   1.943   0.850  11.881 -0.4914  0.2052  0.1752
 9081SOL     OW38704   0.345   1.892  14.130  0.0944 -0.1499  0.3339
 9081SOL    HW138705   0.327   1.885  14.036  1.4977  1.3403 -0.0617
 9081SOL    HW238706   0.336   1.987  14.137  0.6264  0.1542 -3.1515
 9082SOL     OW38707   0.501   1.674  17.326  0.3305  0.4844  1.2240
 9082SOL    HW138708   0.451   1.597  17.300 -0.4497  1.2894  0.2885
 9082SOL    HW238709   0.492   1.689  17.420 -0.4529 -0.4486  1.2965
 9083SOL     OW38710   3.080   3.234  17.560 -0.6759  0.3181  0.2713
 9083SOL    HW138711   3.000   3.186  17.542  0.3674 -0.9650 -0.9143
 9083SOL    HW238712   3.076   3.236  17.656  3.9536  0.2796  0.4885
 9084SOL     OW38713   2.624   3.725   0.279  0.2629  0.6929 -0.3205
 9084SOL    HW138714   2.530   3.728   0.259  0.0563  1.9777  0.8473
 9084SOL    HW238715   2.624   3.652   0.341  1.8553  0.2559 -0.8380
 9085SOL     OW38716   3.329   4.480   7.926 -0.0391 -0.2816  0.1101
 9085SOL    HW138717   3.376   4.470   8.009  0.3948  1.7664  0.1180
 9085SOL    HW238718   3.240   4.473   7.960  0.8057  0.1871  2.4601
 9086SOL     OW38719   0.900   4.051  15.100 -0.3722 -0.0321  0.4751
 9086SOL    HW138720   0.853   4.044  15.183  0.1576  0.8367  0.8530
 9086SOL    HW238721   0.923   3.961  15.079  1.3686  0.2982  0.8898
 9087SOL     OW38722   1.160   1.559   7.353 -0.6331 -0.0231 -0.4043
 9087SOL    HW138723   1.172   1.517   7.268  0.5971 -3.3990  1.4523
 9087SOL    HW238724   1.187   1.495   7.419 -1.0091 -1.2688 -1.4772
 9088SOL     OW38725   2.697   2.110   8.696 -0.2158  0.1403 -0.3374
 9088SOL    HW138726   2.644   2.032   8.708 -0.6519  0.8891  2.5528
 9088SOL    HW238727   2.776   2.070   8.658  2.0348  2.9635  1.3107
 9089SOL     OW38728   0.402   1.282   1.398  0.3942 -0.1953 -0.1115
 9089SOL    HW138729   0.324   1.227   1.387  0.1003  0.4627 -1.2822
 9089SOL    HW238730   0.374   1.367   1.364  2.1207  1.1963  1.9729
 9090SOL     OW38731   0.873   3.384   5.205  0.0907  0.3104  0.9625
 9090SOL    HW138732   0.859   3.444   5.277  2.7549  0.5019  1.3233
 9090SOL    HW238733   0.781   3.359   5.196  0.4593  0.0673 -2.2679
 9091SOL     OW38734   1.899   4.402   7.088 -0.7971 -0.3845 -0.1495
 9091SOL    HW138735   1.961   4.330   7.100  1.0342  1.5828  2.1316
 9091SOL    HW238736   1.822   4.348   7.066  0.4197 -1.6748 -1.2358
 9092SOL     OW38737   3.057   3.470   2.528  0.2982 -0.6977  0.4014
 9092SOL    HW138738   3.078   3.490   2.619  4.4706 -0.9596 -0.4870
 9092SOL    HW238739   2.965   3.496   2.528  0.5701  0.2924  1.9338
 9093SOL     OW38740   3.946   4.606   2.600  0.5060 -0.1617  0.6139
 9093SOL    HW138741   3.901   4.682   2.635 -0.1709 -0.2573 -0.0608
 9093SOL    HW238742   4.030   4.613   2.647 -0.6681 -0.2504  2.7152
 9094SOL     OW38743   1.902   3.582  14.726  0.3806  0.2811  0.0072
 9094SOL    HW138744   1.935   3.654  14.673 -1.8044  0.8992 -0.5037
 9094SOL    HW238745   1.807   3.593  14.728  0.1959 -0.6736 -2.9849
 9095SOL     OW38746   2.399   1.958   8.391  0.1132  0.0878  0.9888
 9095SOL    HW138747   2.322   1.912   8.358  1.6682 -2.0393  0.3444
 9095SOL    HW238748   2.401   1.924   8.481 -2.2824 -2.9643 -0.1299
 9096SOL     OW38749   3.506   2.721   6.620 -0.2711  0.8168  0.1976
 9096SOL    HW138750   3.516   2.780   6.545  1.5793  1.4114  0.9113
 9096SOL    HW238751   3.411   2.723   6.625 -0.2926 -0.3137  0.1558
 9097SOL     OW38752   3.083   1.898   5.774  0.0278  0.0904  0.2297
 9097SOL    HW138753   3.152   1.848   5.817 -1.0692 -2.5432 -1.1156
 9097SOL    HW238754   3.132   1.963   5.724  0.5963 -1.6903 -1.5038
 9098SOL     OW38755   4.495   0.084   0.672  0.2039 -0.6139  0.0490
 9098SOL    HW138756   4.501   0.156   0.609  0.8095 -1.7895 -1.2148
 9098SOL    HW238757   4.586   0.056   0.676 -0.1210 -1.7880 -0.8161
 9099SOL     OW38758   3.109   0.943  10.728 -0.0962 -0.0804  0.0306
 9099SOL    HW138759   3.200   0.923  10.750  0.5849  1.2935 -1.5279
 9099SOL    HW238760   3.109   0.897  10.644  1.8881 -0.4647  0.2317
 9100SOL     OW38761   1.074   2.994  14.320  0.1106 -0.1745 -0.6937
 9100SOL    HW138762   1.014   3.053  14.274  0.2732  2.7002  2.7537
 9100SOL    HW238763   1.122   2.966  14.242 -0.4370 -0.1023 -1.0558
 9101SOL     OW38764   0.882   2.199   9.680  0.2104  0.2592 -0.6177
 9101SOL    HW138765   0.939   2.219   9.606 -1.0923  0.3399 -1.6168
 9101SOL    HW238766   0.848   2.286   9.702 -2.5147 -0.4265 -2.0815
 9102SOL     OW38767   4.618   0.438   3.373 -0.1383 -0.0671  0.4441
 9102SOL    HW138768   4.590   0.425   3.464  0.1614 -1.1827  0.3776
 9102SOL    HW238769   4.592   0.529   3.363  1.3188  0.1826 -1.0714
 9103SOL     OW38770   1.462   2.796  14.675  0.7281 -0.1000  0.4701
 9103SOL    HW138771   1.409   2.858  14.725  0.3732  0.4672 -0.5924
 9103SOL    HW238772   1.543   2.847  14.673  2.1584 -2.3676  2.2889
 9104SOL     OW38773   1.747   0.678   6.888 -0.3718 -0.1766 -0.3538
 9104SOL    HW138774   1.685   0.707   6.954  0.1188  0.4747 -0.1839
 9104SOL    HW238775   1.746   0.755   6.831 -1.3793  1.0844  1.3932
 9105SOL     OW38776   3.067   2.423  12.067 -0.0188  0.4840  0.4534
 9105SOL    HW138777   3.154   2.451  12.096  0.9722  0.1009 -2.1529
 9105SOL    HW238778   3.057   2.340  12.113  3.0627 -1.1516 -1.8987
 9106SOL     OW38779   3.408   1.504   4.013  0.5127 -0.1495  0.5326
 9106SOL    HW138780   3.392   1.553   3.932  1.4855  0.4764  0.7099
 9106SOL    HW238781   3.325   1.500   4.060 -0.0612  1.4686 -0.3190
 9107SOL     OW38782   1.027   0.455   3.441 -0.3572 -0.1801  0.1415
 9107SOL    HW138783   1.083   0.517   3.395 -0.6091  0.0638  0.1648
 9107SOL    HW238784   1.064   0.468   3.528 -0.2295 -0.4453  0.1279
 9108SOL     OW38785   3.467   3.040   3.696 -0.4818  0.2229 -0.2665
 9108SOL    HW138786   3.492   3.081   3.614 -0.4661  2.0133  0.6285
 9108SOL    HW238787   3.552   3.002   3.721 -1.1166 -0.5421  0.7533
 9109SOL     OW38788   2.237   2.323   0.689  0.2227  0.1613  0.5154
 9109SOL    HW138789   2.199   2.411   0.682 -1.3648 -0.4748  1.2228
 9109SOL    HW238790   2.167   2.272   0.729 -0.6168 -0.1254 -1.2928
 9110SOL     OW38791   0.180   4.557   7.429  0.8174  0.5126  0.0560
 9110SOL    HW138792   0.215   4.619   7.365  0.0927  2.0976  1.2146
 9110SOL    HW238793   0.265   4.519   7.449  0.0198 -0.3589  1.7703
 9111SOL     OW38794   0.449   3.072  17.418  0.1098  0.1816 -0.1924
 9111SOL    HW138795   0.373   3.033  17.374  1.6223 -1.5473 -1.3375
 9111SOL    HW238796   0.419   3.057  17.507 -0.3748  0.6047 -0.2856
 9112SOL     OW38797   2.604   0.591   2.483 -0.2324 -0.2753  0.1790
 9112SOL    HW138798   2.663   0.517   2.501 -1.3723 -1.0844  0.5882
 9112SOL    HW238799   2.663   0.635   2.422 -2.0055  1.1082 -0.5141
 9113SOL     OW38800   3.166   2.410   7.035 -0.6366 -0.4201 -0.0932
 9113SOL    HW138801   3.180   2.351   7.109  0.5230 -0.5431 -0.4026
 9113SOL    HW238802   3.140   2.491   7.079  1.0366 -0.6535  1.3494
 9114SOL     OW38803   2.511   2.931   6.616 -0.3839  1.2229  0.3650
 9114SOL    HW138804   2.472   2.939   6.703  1.7383 -0.8188  1.5085
 9114SOL    HW238805   2.587   2.879   6.642 -0.8289  0.3433 -0.0728
 9115SOL     OW38806   0.688   0.621   0.496  0.1149  0.5405  0.2184
 9115SOL    HW138807   0.593   0.612   0.499  0.1795  0.3674  1.7202
 9115SOL    HW238808   0.702   0.598   0.588  0.7777 -1.2464 -0.3337
 9116SOL     OW38809   0.606   0.375  10.906 -0.3909  0.2306 -0.3820
 9116SOL    HW138810   0.586   0.367  11.000  0.4110 -0.8898 -0.3189
 9116SOL    HW238811   0.521   0.408  10.875  0.2804 -1.5161 -4.0097
 9117SOL     OW38812   1.921   0.426   7.025  0.1373 -0.1150  0.1272
 9117SOL    HW138813   1.877   0.343   7.005 -1.4203  0.4903  1.0420
 9117SOL    HW238814   1.877   0.493   6.973 -2.6655 -1.1855  1.0877
 9118SOL     OW38815   1.583   4.002   3.468  0.0628  0.6168 -0.1485
 9118SOL    HW138816   1.569   3.984   3.375  2.0217  0.5688 -0.4497
 9118SOL    HW238817   1.677   3.992   3.486 -0.0162 -0.8954 -0.5543
 9119SOL     OW38818   4.290   2.964   8.794 -0.1831  0.3117 -1.0948
 9119SOL    HW138819   4.284   3.059   8.791 -0.6822  0.3589  1.7982
 9119SOL    HW238820   4.381   2.962   8.765  0.2474 -0.0513  0.2892
 9120SOL     OW38821   4.291   1.948   6.426  0.1587 -0.2500  0.2237
 9120SOL    HW138822   4.224   1.888   6.458  1.2455 -1.5621  0.0359
 9120SOL    HW238823   4.259   2.025   6.474  0.7690  0.0466  0.1555
 9121SOL     OW38824   1.301   3.196  10.484 -0.2329  0.2148 -0.5709
 9121SOL    HW138825   1.292   3.227  10.393 -0.9567  0.5456 -0.3798
 9121SOL    HW238826   1.235   3.252  10.523 -0.0870  0.2186 -0.3268
 9122SOL     OW38827   3.689   1.888   3.792  0.0776  0.0509 -0.1495
 9122SOL    HW138828   3.751   1.845   3.733  0.8324  0.8430  0.0696
 9122SOL    HW238829   3.730   1.912   3.875  0.6660 -3.2819  0.5039
 9123SOL     OW38830   4.242   0.132   3.113  0.4844  0.6737 -0.0447
 9123SOL    HW138831   4.146   0.131   3.114  0.5045 -0.6010  0.4081
 9123SOL    HW238832   4.243   0.169   3.202 -1.0704  0.8695 -0.1127
 9124SOL     OW38833   4.201   2.745   8.092 -0.3948 -0.5215  0.5602
 9124SOL    HW138834   4.163   2.695   8.021 -2.2591 -1.6810  2.3643
 9124SOL    HW238835   4.261   2.680   8.130  1.3875 -1.4746 -3.9411
 9125SOL     OW38836   0.657   2.330   7.074 -0.2292  0.4879  0.7287
 9125SOL    HW138837   0.739   2.332   7.024  1.3719  0.1590  3.3601
 9125SOL    HW238838   0.617   2.248   7.044 -1.8306  1.1632  0.9997
 9126SOL     OW38839   1.563   0.289   6.420  0.1406  0.4552  0.3691
 9126SOL    HW138840   1.500   0.247   6.479 -0.5158 -0.8925 -1.3103
 9126SOL    HW238841   1.503   0.310   6.349  0.4879 -3.2517 -1.0394
 9127SOL     OW38842   3.046   2.861   6.982 -0.3391 -0.0446  0.2032
 9127SOL    HW138843   2.960   2.898   6.963 -1.0365 -1.6001  0.3936
 9127SOL    HW238844   3.027   2.768   6.987 -0.8863  0.1676  2.0417
 9128SOL     OW38845   1.796   0.309   1.119  0.5009 -0.0678 -0.1578
 9128SOL    HW138846   1.791   0.243   1.189  1.2003  0.3975  0.3271
 9128SOL    HW238847   1.886   0.314   1.085  1.1453 -0.6116  1.4643
 9129SOL     OW38848   4.116   3.942   7.957 -0.5550 -0.6546  0.0973
 9129SOL    HW138849   4.113   3.932   8.052 -0.0941  0.0223  0.1827
 9129SOL    HW238850   4.203   3.916   7.927  0.0705  0.0800  1.2771
 9130SOL     OW38851   3.366   1.695   5.254  0.1049 -0.4174 -0.0240
 9130SOL    HW138852   3.431   1.633   5.220  1.6221 -0.1146  2.3341
 9130SOL    HW238853   3.327   1.727   5.173  0.5923  1.9326  0.6813
 9131SOL     OW38854   4.364   2.239  16.653 -0.0445  0.5000 -0.2164
 9131SOL    HW138855   4.339   2.322  16.613 -0.0403  1.6321  2.1491
 9131SOL    HW238856   4.439   2.214  16.599  0.7490  0.4917  0.8750
 9132SOL     OW38857   2.996   3.577   8.326 -0.0175 -0.1433 -0.6048
 9132SOL    HW138858   2.986   3.604   8.235 -1.4420  0.9558 -0.1289
 9132SOL    HW238859   2.968   3.486   8.318  0.2721 -0.4398  1.6365
 9133SOL     OW38860   3.806   0.920  10.440  0.9699 -0.1651  0.5127
 9133SOL    HW138861   3.788   1.003  10.485  0.8814  0.2993 -0.3676
 9133SOL    HW238862   3.899   0.932  10.422  0.9179  0.4866  0.6872
 9134SOL     OW38863   1.753   0.752   0.692  0.3240  0.0110  0.3394
 9134SOL    HW138864   1.705   0.716   0.617 -0.2708  0.0752  0.6856
 9134SOL    HW238865   1.829   0.696   0.707 -0.8613 -1.9099 -0.8000
 9135SOL     OW38866   4.429   3.338   2.134  0.5344  0.7209 -0.0649
 9135SOL    HW138867   4.359   3.315   2.195 -0.2855 -0.7018 -1.5320
 9135SOL    HW238868   4.500   3.342   2.198  0.4220  0.6458  0.0668
 9136SOL     OW38869   1.285   3.597   2.628  0.4073  0.2582 -0.2713
 9136SOL    HW138870   1.238   3.562   2.553  2.4982 -0.4823 -1.2353
 9136SOL    HW238871   1.361   3.640   2.589  1.1860  1.4443  2.5336
 9137SOL     OW38872   3.800   2.760   3.277 -0.2201 -0.1258 -0.0225
 9137SOL    HW138873   3.865   2.824   3.250  0.6511 -1.6319 -1.4786
 9137SOL    HW238874   3.803   2.759   3.373 -1.1027  1.7800  0.0124
 9138SOL     OW38875   4.588   2.460  16.434  0.2062 -0.6027 -0.3313
 9138SOL    HW138876   4.594   2.376  16.480 -0.1242 -0.8996 -0.8398
 9138SOL    HW238877   4.504   2.489  16.469  0.8157  0.0943  0.5529
 9139SOL     OW38878   2.148   4.536  12.811  0.5617 -0.1228  0.2425
 9139SOL    HW138879   2.148   4.594  12.736 -2.0647  0.6731  0.8769
 9139SOL    HW238880   2.224   4.553  12.868 -0.2424 -0.8302  1.5259
 9140SOL     OW38881   2.387   2.649   7.346 -0.4477 -0.1827 -0.1678
 9140SOL    HW138882   2.347   2.564   7.327 -1.0499 -0.3712  1.9854
 9140SOL    HW238883   2.369   2.662   7.439  1.0992  0.8651 -0.0114
 9141SOL     OW38884   2.689   3.083   7.346  0.6619  0.2103 -0.1428
 9141SOL    HW138885   2.617   3.055   7.402  0.5126 -1.8756 -1.3919
 9141SOL    HW238886   2.655   3.067   7.258 -1.5350 -1.5546  1.0495
 9142SOL     OW38887   1.823   4.146   4.279  0.2374  0.0953  0.0990
 9142SOL    HW138888   1.882   4.080   4.314 -1.7305 -1.0484  1.2692
 9142SOL    HW238889   1.789   4.098   4.203  1.2873  0.1969 -0.4337
 9143SOL     OW38890   4.095   3.949   2.282 -0.0017 -0.1352  1.0424
 9143SOL    HW138891   4.114   4.043   2.279  1.1217 -0.4320 -1.2074
 9143SOL    HW238892   4.182   3.914   2.304  0.0207 -0.2395  0.7821
 9144SOL     OW38893   0.045   4.438  16.883 -0.2732 -0.4433 -0.4526
 9144SOL    HW138894   4.708   4.441  16.955 -0.9407  0.6561 -1.0684
 9144SOL    HW238895   0.119   4.483  16.925 -0.3148  1.4630 -2.3960
 9145SOL     OW38896   0.068   2.079   9.274  0.1016 -0.3596  0.0832
 9145SOL    HW138897   0.116   2.132   9.210  1.3346 -2.1501 -0.4769
 9145SOL    HW238898   4.721   2.140   9.289  0.1565 -0.2746  0.0053
 9146SOL     OW38899   0.643   2.967   6.388  1.0961 -0.3109 -0.4223
 9146SOL    HW138900   0.698   2.971   6.310  2.3459 -0.3365  0.4591
 9146SOL    HW238901   0.639   2.873   6.405 -2.1165  0.0213  0.7888
 9147SOL     OW38902   1.498   3.015   2.859  0.6711  0.0492 -0.0687
 9147SOL    HW138903   1.471   2.932   2.820 -1.8421 -0.1774  2.1218
 9147SOL    HW238904   1.539   3.059   2.785  1.4841 -1.1276 -0.3065
 9148SOL     OW38905   4.127   3.470   5.109 -0.6521  0.2159 -0.2690
 9148SOL    HW138906   4.072   3.396   5.081 -0.3306  0.2291 -0.9361
 9148SOL    HW238907   4.140   3.445   5.200 -0.8760  1.6002  0.1471
 9149SOL     OW38908   3.264   0.125   6.474  0.1269  0.3671  0.2016
 9149SOL    HW138909   3.267   0.105   6.381 -3.3209 -1.4304  0.4888
 9149SOL    HW238910   3.191   0.185   6.481 -1.2506 -1.2857  0.0667
 9150SOL     OW38911   3.340   0.301  10.125  0.4165  0.1637 -0.4055
 9150SOL    HW138912   3.287   0.270  10.052 -0.3902 -1.4157  0.8752
 9150SOL    HW238913   3.314   0.243  10.196  0.5764  2.1370  1.2336
 9151SOL     OW38914   1.311   1.403   1.472 -0.4043 -0.2837 -0.3216
 9151SOL    HW138915   1.316   1.312   1.504 -1.3214 -0.0974  0.3486
 9151SOL    HW238916   1.226   1.431   1.506  0.7809  0.0947  2.2840
 9152SOL     OW38917   2.178   2.629   6.918  0.4446  0.4698  0.8010
 9152SOL    HW138918   2.162   2.721   6.938  1.2039  0.4472  1.4893
 9152SOL    HW238919   2.115   2.593   6.980 -0.6618 -0.7373 -1.0042
 9153SOL     OW38920   2.631   0.691  14.880  0.2694  0.8005  0.8787
 9153SOL    HW138921   2.676   0.647  14.808 -1.7039  0.6011 -0.2345
 9153SOL    HW238922   2.556   0.631  14.871 -0.8466  2.2355  0.5352
 9154SOL     OW38923   4.253   0.003   4.020 -0.0637  0.0204 -0.0659
 9154SOL    HW138924   4.286   4.680   3.944  0.7410  1.4744 -0.6393
 9154SOL    HW238925   4.319   4.712   4.088 -0.5866  3.0176  1.1210
 9155SOL     OW38926   1.001   0.421   4.551  0.1030 -0.3169  0.4447
 9155SOL    HW138927   0.928   0.367   4.580  1.1443 -3.4879 -2.7943
 9155SOL    HW238928   0.960   0.494   4.505  0.1054 -0.1437  0.7195
 9156SOL     OW38929   1.561   2.247   8.726 -0.2727 -0.1507  0.1130
 9156SOL    HW138930   1.564   2.315   8.793  1.4676  0.7895 -0.9332
 9156SOL    HW238931   1.640   2.274   8.679  0.4776 -2.8071 -0.1832
 9157SOL     OW38932   4.597   0.367  12.179 -0.5632  0.3820  0.1776
 9157SOL    HW138933   4.658   0.426  12.222 -1.2581  0.5990  0.8768
 9157SOL    HW238934   4.547   0.425  12.123 -0.4108  0.5236  0.1906
 9158SOL     OW38935   3.259   0.945   9.026 -0.2581 -0.4362 -0.0167
 9158SOL    HW138936   3.195   1.015   9.026 -1.2327 -1.3293 -1.0873
 9158SOL    HW238937   3.223   0.886   9.091  1.5397 -0.7750  0.6656
 9159SOL     OW38938   3.116   2.386   1.675 -0.2663  0.6234 -0.0532
 9159SOL    HW138939   3.128   2.292   1.693 -0.2270  0.6790  0.2221
 9159SOL    HW238940   3.045   2.407   1.737 -0.6957  1.8287 -0.9646
 9160SOL     OW38941   1.397   1.647   1.328  0.0322 -0.0154  0.2168
 9160SOL    HW138942   1.332   1.672   1.262 -1.3160 -0.7660  1.2561
 9160SOL    HW238943   1.370   1.559   1.356 -0.4962  0.1129  0.1194
 9161SOL     OW38944   1.112   1.846   1.305 -0.1086  0.4072 -0.0464
 9161SOL    HW138945   1.146   1.935   1.302  0.7590  0.0168 -1.7943
 9161SOL    HW238946   1.027   1.871   1.341 -0.4197 -1.6978  0.6781
 9162SOL     OW38947   0.125   3.709   5.149  0.0177 -0.4942 -0.2146
 9162SOL    HW138948   0.177   3.779   5.187 -0.1662 -0.6320  0.2849
 9162SOL    HW238949   0.048   3.754   5.113  0.6961  0.5412 -0.3636
 9163SOL     OW38950   0.069   4.069   3.975  0.4103  0.3325  0.0619
 9163SOL    HW138951   0.022   3.987   3.962  1.6885 -0.2518 -0.8168
 9163SOL    HW238952   0.019   4.096   4.052 -0.6008 -2.3834  0.3507
 9164SOL     OW38953   4.328   3.200   3.791 -0.4638  0.4292  0.3728
 9164SOL    HW138954   4.254   3.142   3.772  0.1622  0.5760 -2.4739
 9164SOL    HW238955   4.373   3.161   3.716  1.4627 -1.9191  2.7360
 9165SOL     OW38956   3.566   3.674   5.266  0.7042  1.1483  0.1539
 9165SOL    HW138957   3.497   3.681   5.332  1.9560  3.5528  1.2349
 9165SOL    HW238958   3.606   3.761   5.266 -1.0064  1.9341  0.3545
 9166SOL     OW38959   4.478   3.935   0.804 -0.2730 -0.0977 -0.5088
 9166SOL    HW138960   4.423   3.991   0.749  1.6108  0.7983 -1.5009
 9166SOL    HW238961   4.422   3.937   0.881 -1.0063  1.8209 -1.0813
 9167SOL     OW38962   1.193   0.941  15.428  0.0374  0.3313  0.4187
 9167SOL    HW138963   1.134   0.904  15.494  0.7453 -0.5161  0.5841
 9167SOL    HW238964   1.277   0.942  15.474  1.2557  1.8786 -1.8281
 9168SOL     OW38965   0.481   1.870   7.613  0.2245  0.1703 -0.9480
 9168SOL    HW138966   0.402   1.831   7.575  0.6983 -1.3245 -0.3895
 9168SOL    HW238967   0.547   1.805   7.588  0.2710 -0.2867  0.3642
 9169SOL     OW38968   2.381   3.248   9.416 -0.1098  0.4495 -0.6880
 9169SOL    HW138969   2.404   3.297   9.338  2.9315  0.2340  0.0643
 9169SOL    HW238970   2.301   3.203   9.389  0.1002 -0.8954  0.9201
 9170SOL     OW38971   4.225   2.870   7.485  0.5501 -0.5269 -0.3898
 9170SOL    HW138972   4.167   2.850   7.558  0.2917  0.4247 -0.3340
 9170SOL    HW238973   4.288   2.798   7.486  1.7345  0.5055 -0.5097
 9171SOL     OW38974   3.429   0.327   8.336 -0.3788  0.2800  0.7179
 9171SOL    HW138975   3.454   0.241   8.370 -0.8274 -0.6604 -1.3813
 9171SOL    HW238976   3.384   0.363   8.413 -0.7408 -0.6761  0.9500
 9172SOL     OW38977   0.740   0.083   7.775 -0.7291  0.1156  0.2874
 9172SOL    HW138978   0.726   0.172   7.808  0.2172  0.6345 -0.6807
 9172SOL    HW238979   0.701   0.025   7.840  0.9011 -2.6610 -1.1866
 9173SOL     OW38980   2.676   1.189  15.984  0.2256 -0.0122 -0.3035
 9173SOL    HW138981   2.582   1.205  15.992  0.3193  0.1307  0.4846
 9173SOL    HW238982   2.677   1.094  15.974 -2.6155 -0.2460  1.9165
 9174SOL     OW38983   3.803   2.474   1.778 -0.0689  0.3032 -0.5919
 9174SOL    HW138984   3.868   2.412   1.744 -1.5967 -1.2815 -0.6321
 9174SOL    HW238985   3.730   2.464   1.717 -1.4068  0.4176  0.9689
 9175SOL     OW38986   2.480   1.665  16.212 -0.1852 -0.5781  0.0753
 9175SOL    HW138987   2.548   1.630  16.270 -0.2490  0.0475  0.5194
 9175SOL    HW238988   2.405   1.611  16.237 -1.7844  1.4661 -0.3136
 9176SOL     OW38989   4.519   0.653   4.071  0.4569 -0.7660 -0.6673
 9176SOL    HW138990   4.594   0.695   4.112  0.2482 -2.3414  1.3422
 9176SOL    HW238991   4.472   0.632   4.152  1.0423 -0.7274 -0.3161
 9177SOL     OW38992   2.122   1.420   8.905 -0.4640  0.3822 -0.7905
 9177SOL    HW138993   2.187   1.361   8.942 -1.9507  0.3032  1.6765
 9177SOL    HW238994   2.065   1.430   8.981 -0.5241  1.3153 -0.9527
 9178SOL     OW38995   2.983   2.992   6.691  0.1994 -0.0704 -0.1011
 9178SOL    HW138996   3.007   2.972   6.781  0.9615 -0.3733 -0.3754
 9178SOL    HW238997   2.978   2.906   6.649  1.3585 -0.7456  1.1656
 9179SOL     OW38998   2.331   4.276   1.404 -0.0059  0.3273 -0.5538
 9179SOL    HW138999   2.263   4.242   1.345 -0.4258  1.0678 -0.5006
 9179SOL    HW239000   2.304   4.235   1.486  2.1505  1.6155  0.7899
 9180SOL     OW39001   2.636   0.491  11.147  0.1103  0.1659  0.7506
 9180SOL    HW139002   2.658   0.440  11.225  0.5780  1.2080  1.2989
 9180SOL    HW239003   2.597   0.427  11.088  0.6331 -0.6086  1.2527
 9181SOL     OW39004   0.045   3.056   7.529  0.1770  0.1758  0.2726
 9181SOL    HW139005   0.006   3.136   7.493  2.0736  1.1147  0.3407
 9181SOL    HW239006   0.027   2.994   7.459 -1.3317 -1.2474  1.9083
 9182SOL     OW39007   0.303   4.079  13.357  0.3663  0.0457 -0.7480
 9182SOL    HW139008   0.233   4.089  13.422  2.5272  0.0042  1.6129
 9182SOL    HW239009   0.358   4.009  13.392  1.0696  1.3398  0.7784
 9183SOL     OW39010   4.201   3.383  16.342 -0.1797 -0.3339 -0.2882
 9183SOL    HW139011   4.228   3.382  16.250 -1.2885 -2.0178 -0.5956
 9183SOL    HW239012   4.116   3.344  16.322  0.7803 -0.8448 -3.4097
 9184SOL     OW39013   0.938   0.455   5.269  0.2948 -0.1124 -0.0993
 9184SOL    HW139014   0.948   0.442   5.174 -1.1496  2.6872 -0.6342
 9184SOL    HW239015   0.918   0.548   5.277  1.9836  0.2304  0.0260
 9185SOL     OW39016   3.282   2.604   7.677 -0.8504 -0.8907  0.3914
 9185SOL    HW139017   3.291   2.511   7.658  2.4243 -0.2504 -1.0508
 9185SOL    HW239018   3.233   2.607   7.760  0.5351  0.5624  1.1634
 9186SOL     OW39019   0.851   1.600   0.910  0.2582  0.1365  0.8677
 9186SOL    HW139020   0.782   1.659   0.879  0.5279  0.0084  0.0334
 9186SOL    HW239021   0.849   1.609   1.005  0.4346  1.1726  0.7762
 9187SOL     OW39022   1.122   2.111  12.026 -0.0125  0.0167 -0.2780
 9187SOL    HW139023   1.043   2.090  12.076  0.5179 -3.0673 -0.7929
 9187SOL    HW239024   1.111   2.205  12.010  0.5818  0.0634 -0.3972
 9188SOL     OW39025   1.059   2.899   0.364 -0.0992 -0.0681 -0.1250
 9188SOL    HW139026   1.133   2.885   0.422 -1.0176 -0.0969  1.0321
 9188SOL    HW239027   1.078   2.836   0.295 -2.0617  0.2030 -0.9189
 9189SOL     OW39028   4.660   3.472   7.001  0.0540  0.1587 -0.4245
 9189SOL    HW139029   4.633   3.533   6.933  0.2372 -0.4219 -1.0198
 9189SOL    HW239030   4.594   3.490   7.068  1.2522  0.5050  0.6612
 9190SOL     OW39031   3.819   0.749   3.368  0.1975  0.1342  0.1400
 9190SOL    HW139032   3.888   0.684   3.356  0.5350  0.1886  1.8318
 9190SOL    HW239033   3.822   0.757   3.463  0.2500 -1.7626  0.2964
 9191SOL     OW39034   1.187   2.157   8.173  0.1141  0.1770 -0.1439
 9191SOL    HW139035   1.155   2.089   8.113  0.1644 -0.1017  0.1423
 9191SOL    HW239036   1.105   2.205   8.183  0.0334 -0.2896  1.5763
 9192SOL     OW39037   2.564   4.317   3.824  0.2761 -0.5529 -0.8973
 9192SOL    HW139038   2.606   4.292   3.906 -0.3989  1.5220  0.0793
 9192SOL    HW239039   2.616   4.272   3.757  0.0399 -3.0567  0.6177
 9193SOL     OW39040   0.975   4.161   8.346  0.1925  0.1118  0.8612
 9193SOL    HW139041   0.973   4.219   8.271 -0.1089  0.7770  1.3836
 9193SOL    HW239042   1.065   4.173   8.379 -0.5568  2.9714  1.8986
 9194SOL     OW39043   2.401   0.245   2.051 -0.2903  0.0125  0.2864
 9194SOL    HW139044   2.383   0.166   2.000 -1.9764 -0.2408  1.2684
 9194SOL    HW239045   2.446   0.205   2.125  0.3761 -1.8028 -1.0849
 9195SOL     OW39046   0.164   1.123   4.616  0.8523 -0.5277  0.3120
 9195SOL    HW139047   0.078   1.101   4.651  0.1901  1.4539 -0.0806
 9195SOL    HW239048   0.180   1.212   4.648 -1.5412 -1.0945  3.0308
 9196SOL     OW39049   1.741   1.200   1.903  0.2552 -0.8609  0.4053
 9196SOL    HW139050   1.754   1.125   1.962 -1.6649 -1.7131 -0.2182
 9196SOL    HW239051   1.818   1.254   1.917 -0.5338  1.0927 -2.8323
 9197SOL     OW39052   3.530   0.278   2.465  0.9270  0.0737  0.1164
 9197SOL    HW139053   3.567   0.340   2.403 -1.0051  0.7974 -0.3135
 9197SOL    HW239054   3.531   0.331   2.545 -0.2791 -0.7025  0.6535
 9198SOL     OW39055   4.022   0.439   2.848 -0.2727 -0.2111  0.6747
 9198SOL    HW139056   3.941   0.404   2.886 -1.2610  2.3552  0.9128
 9198SOL    HW239057   3.994   0.529   2.831  0.2624 -0.2427 -0.3592
 9199SOL     OW39058   3.828   1.890   4.031 -0.1905  0.3026  0.1962
 9199SOL    HW139059   3.816   1.985   4.039  0.2830  0.2832  1.0141
 9199SOL    HW239060   3.879   1.881   4.111  1.4685 -2.3516 -1.1720
 9200SOL     OW39061   0.782   3.655   5.907 -0.2528  0.4028 -0.4426
 9200SOL    HW139062   0.715   3.598   5.946  1.2739 -0.7410  0.4909
 9200SOL    HW239063   0.867   3.611   5.906 -1.9857 -3.0216  2.6245
 9201SOL     OW39064   3.592   0.669  14.429  0.2935  0.0695  0.1750
 9201SOL    HW139065   3.563   0.754  14.461 -1.5688 -0.2292 -0.7487
 9201SOL    HW239066   3.569   0.672  14.336 -1.3693 -0.3325  0.5752
 9202SOL     OW39067   2.067   3.990   7.850 -0.7562  0.1513 -0.1772
 9202SOL    HW139068   2.099   3.947   7.929 -0.7918 -0.5646 -0.5600
 9202SOL    HW239069   2.027   3.915   7.805  0.9972 -1.0900  0.3622
 9203SOL     OW39070   2.484   1.360   3.753 -0.0759 -0.7299 -0.0716
 9203SOL    HW139071   2.495   1.339   3.660  2.0396 -0.5737  0.1377
 9203SOL    HW239072   2.570   1.346   3.794 -0.4231 -0.0693  0.8842
 9204SOL     OW39073   0.344   2.458   0.023 -0.5726 -0.0555 -0.3027
 9204SOL    HW139074   0.339   2.464  17.629 -1.2401  0.6298 -0.2215
 9204SOL    HW239075   0.415   2.518   0.045 -1.6671  1.3189 -0.5601
 9205SOL     OW39076   0.336   0.496   4.646 -0.8258  0.3349  0.2318
 9205SOL    HW139077   0.364   0.451   4.566 -0.1723  0.3909  0.4251
 9205SOL    HW239078   0.289   0.429   4.695 -1.3631 -0.5171 -1.4681
 9206SOL     OW39079   0.262   3.630   2.144 -0.2400  0.3045 -0.2961
 9206SOL    HW139080   0.188   3.589   2.190 -1.1687  0.7305 -1.4067
 9206SOL    HW239081   0.218   3.670   2.069  0.0061 -0.8153 -1.0392
 9207SOL     OW39082   0.793   4.395  13.345 -0.0281 -0.1285 -0.3859
 9207SOL    HW139083   0.863   4.422  13.286 -1.5783  1.4758 -1.5000
 9207SOL    HW239084   0.843   4.355  13.416 -1.8018  0.5197  1.2089
 9208SOL     OW39085   1.616   2.868  12.675  0.4930  0.1332  0.2787
 9208SOL    HW139086   1.654   2.785  12.646 -2.3228 -0.9320 -0.4479
 9208SOL    HW239087   1.522   2.866  12.657  0.6727  1.5042 -0.8323
 9209SOL     OW39088   4.164   2.169  14.621 -0.5407 -0.3135 -0.4264
 9209SOL    HW139089   4.193   2.082  14.594  0.9736 -0.6353  2.2828
 9209SOL    HW239090   4.230   2.225  14.579 -0.8730  0.8935  0.6521
 9210SOL     OW39091   1.046   1.215  11.848  0.5712  0.0176  0.4466
 9210SOL    HW139092   1.070   1.140  11.902 -2.6326 -1.0100  0.4431
 9210SOL    HW239093   1.114   1.279  11.864  0.5673  0.1018  0.1344
 9211SOL     OW39094   3.696   1.666  10.940  0.1596  0.0586 -0.2218
 9211SOL    HW139095   3.658   1.578  10.937 -0.1905  0.2376 -1.1623
 9211SOL    HW239096   3.780   1.633  10.909 -1.1070 -0.3416 -3.1899
 9212SOL     OW39097   2.015   0.521   2.463 -0.1675  0.5154 -0.9277
 9212SOL    HW139098   2.075   0.516   2.388  1.0981 -0.0587  0.1111
 9212SOL    HW239099   1.947   0.574   2.422 -1.8269 -0.2208  0.8820
 9213SOL     OW39100   2.698   1.876   5.834  0.6763  0.8586  0.4182
 9213SOL    HW139101   2.733   1.845   5.750  0.3821  0.7096  0.3498
 9213SOL    HW239102   2.659   1.799   5.875  0.5775  2.4869  3.3597
 9214SOL     OW39103   0.575   2.369  10.722  0.2599  0.3345  0.6215
 9214SOL    HW139104   0.539   2.384  10.809 -0.1710  0.7383  0.3777
 9214SOL    HW239105   0.540   2.285  10.691 -1.3373  1.8609 -1.7794
 9215SOL     OW39106   3.265   4.645  12.883 -0.1787 -0.0066 -0.2240
 9215SOL    HW139107   3.321   4.580  12.923  0.2537  0.1208 -0.6297
 9215SOL    HW239108   3.334   4.708  12.863 -0.9243  1.0658  0.4964
 9216SOL     OW39109   1.854   1.064  15.819  0.2640  0.1395  1.0056
 9216SOL    HW139110   1.783   1.068  15.755 -0.4052 -1.3416  1.6675
 9216SOL    HW239111   1.819   1.010  15.889 -1.4531 -0.4132 -0.3002
 9217SOL     OW39112   4.175   2.779   5.640  0.0638 -0.3443 -0.0527
 9217SOL    HW139113   4.204   2.853   5.693 -0.5356 -1.0608  1.2845
 9217SOL    HW239114   4.098   2.819   5.599  2.4299  1.5916 -2.5033
 9218SOL     OW39115   1.450   2.829   3.960  0.6243  0.4018 -0.1331
 9218SOL    HW139116   1.395   2.897   3.998  1.0253  0.5592  0.1622
 9218SOL    HW239117   1.528   2.849   4.013 -0.8501  1.8629  1.4656
 9219SOL     OW39118   0.127   3.281  14.841 -0.0989 -0.0352 -0.0610
 9219SOL    HW139119   0.168   3.244  14.919  1.2357 -0.1789 -0.8338
 9219SOL    HW239120   0.034   3.261  14.852 -0.5920  1.9097 -0.6378
 9220SOL     OW39121   0.491   3.084  15.802 -0.2133  0.4426  0.0257
 9220SOL    HW139122   0.535   3.059  15.721  0.2557  0.0705  0.3941
 9220SOL    HW239123   0.470   3.177  15.791 -2.6739  0.1946  2.7510
 9221SOL     OW39124   0.611   3.986   6.221 -0.2188 -0.4671 -0.2589
 9221SOL    HW139125   0.693   3.955   6.259 -1.4306 -3.7462 -0.3140
 9221SOL    HW239126   0.623   3.989   6.127  1.0080 -0.7507 -0.1032
 9222SOL     OW39127   1.087   3.238   6.233  0.4220 -0.4713 -0.4362
 9222SOL    HW139128   1.035   3.314   6.258 -0.1194 -1.0118  0.0773
 9222SOL    HW239129   1.075   3.245   6.138 -1.7606 -1.9216 -0.2744
 9223SOL     OW39130   4.305   1.870   8.791 -0.0131 -0.1445  0.0285
 9223SOL    HW139131   4.361   1.843   8.864 -0.9017  2.0936  1.5285
 9223SOL    HW239132   4.292   1.964   8.800 -1.3001 -0.2854 -0.3615
 9224SOL     OW39133   3.502   4.396   6.406 -0.2639  0.0418 -0.0884
 9224SOL    HW139134   3.541   4.336   6.470 -1.1499  1.4131  1.7423
 9224SOL    HW239135   3.408   4.378   6.404 -0.4477  1.4351 -3.4527
 9225SOL     OW39136   0.287   4.415  13.313 -0.0869 -0.1794 -0.1100
 9225SOL    HW139137   0.367   4.382  13.355 -0.9806 -3.3363 -0.8589
 9225SOL    HW239138   0.314   4.408  13.222  0.0233  2.3686 -0.2792
 9226SOL     OW39139   0.041   3.052  13.481 -0.6167  0.4093 -0.1062
 9226SOL    HW139140   4.677   3.022  13.460 -0.3785 -1.8498  2.1167
 9226SOL    HW239141   0.032   3.117  13.551 -1.0653  2.1797 -1.8367
 9227SOL     OW39142   3.705   2.308  17.345 -0.0794 -0.0281 -0.3326
 9227SOL    HW139143   3.788   2.346  17.375 -0.6218  2.2322 -1.6147
 9227SOL    HW239144   3.662   2.392  17.328  0.8959  0.8230  1.3451
 9228SOL     OW39145   3.804   4.234  16.528 -0.3246  0.0520 -0.1928
 9228SOL    HW139146   3.776   4.263  16.615 -0.6701  0.9313 -0.5868
 9228SOL    HW239147   3.732   4.268  16.475  0.8848  1.0336 -1.2036
 9229SOL     OW39148   3.422   4.628  14.054  0.3240  0.2390  0.3945
 9229SOL    HW139149   3.501   4.593  14.095 -0.5244 -2.1414  0.0118
 9229SOL    HW239150   3.365   4.641  14.130  0.3047  0.6135  0.3171
 9230SOL     OW39151   1.629   1.053   4.564 -0.2847  0.0783  0.6709
 9230SOL    HW139152   1.620   0.958   4.573 -0.2201 -0.0609 -0.8553
 9230SOL    HW239153   1.547   1.099   4.576 -1.1301 -1.3506  0.3570
 9231SOL     OW39154   1.275   2.851   6.691  0.0377  0.2666  0.0966
 9231SOL    HW139155   1.199   2.871   6.746  1.2185  0.2507  1.7522
 9231SOL    HW239156   1.319   2.791   6.752 -0.5188  0.0122  0.2523
 9232SOL     OW39157   0.091   3.356  11.041  0.3032 -0.3985 -0.4368
 9232SOL    HW139158   0.097   3.387  11.131  0.2793 -1.3482 -0.1122
 9232SOL    HW239159   0.119   3.265  11.035 -2.5090 -1.2438 -0.4036
 9233SOL     OW39160   1.310   3.095   6.322 -0.0648  0.1835 -0.0221
 9233SOL    HW139161   1.236   3.147   6.290  0.0042  1.9070  2.6094
 9233SOL    HW239162   1.340   3.061   6.238 -0.5287 -0.4141  0.0494
 9234SOL     OW39163   0.171   3.928  13.819 -0.7175 -0.7265  0.0468
 9234SOL    HW139164   0.156   3.878  13.900  2.1939  0.5083  1.3439
 9234SOL    HW239165   0.162   3.861  13.751 -1.1917 -1.0318  0.4016
 9235SOL     OW39166   3.448   3.554   3.179  0.3062  0.4871 -0.0174
 9235SOL    HW139167   3.363   3.585   3.146 -0.1324 -0.7659 -0.0786
 9235SOL    HW239168   3.424   3.467   3.210 -3.2832  0.9561 -1.3720
 9236SOL     OW39169   1.262   4.271   1.622 -0.2529  0.1446  0.1430
 9236SOL    HW139170   1.306   4.221   1.552  0.0937 -0.1576  0.5773
 9236SOL    HW239171   1.329   4.260   1.690  1.7859 -0.9830 -2.0165
 9237SOL     OW39172   0.781   0.096   2.351 -0.7228  0.8169  0.0560
 9237SOL    HW139173   0.856   0.038   2.365  0.4805  2.3349 -0.0944
 9237SOL    HW239174   0.794   0.117   2.259  0.4380 -4.1274 -0.8760
 9238SOL     OW39175   1.539   1.494   2.435 -0.1527  0.1415  0.3616
 9238SOL    HW139176   1.447   1.516   2.445 -0.0193  0.0817  1.6156
 9238SOL    HW239177   1.580   1.577   2.410 -2.0461  1.1473  0.6355
 9239SOL     OW39178   4.170   4.498   8.958  0.3741 -0.2707  0.3553
 9239SOL    HW139179   4.115   4.423   8.934 -1.0718  0.7551  0.5016
 9239SOL    HW239180   4.174   4.505   9.053 -2.0696  1.7848  0.2966
 9240SOL     OW39181   1.639   3.069   6.355 -0.3849 -0.0648  0.6320
 9240SOL    HW139182   1.601   3.149   6.319  0.8282  0.5166  0.6240
 9240SOL    HW239183   1.594   3.056   6.438  0.8525  0.9052  1.4525
 9241SOL     OW39184   3.231   0.957  16.109 -0.4064 -0.1465 -0.4593
 9241SOL    HW139185   3.171   1.022  16.146  1.0244 -0.2861  2.1211
 9241SOL    HW239186   3.310   1.009  16.094 -1.7257  2.1079  0.3467
 9242SOL     OW39187   2.608   2.416   7.235 -0.1512  0.4757 -0.1442
 9242SOL    HW139188   2.555   2.493   7.212  1.4852  1.6007 -0.1222
 9242SOL    HW239189   2.673   2.454   7.294 -0.5805 -0.7203  1.1068
 9243SOL     OW39190   3.816   0.955   2.509 -0.0461  0.1661 -0.1619
 9243SOL    HW139191   3.826   0.860   2.500  0.5907  0.0339  2.0091
 9243SOL    HW239192   3.720   0.954   2.506 -0.1174  2.7162  1.1522
 9244SOL     OW39193   2.783   2.080   0.259  0.3437 -0.3543 -0.1759
 9244SOL    HW139194   2.838   2.114   0.188  0.2605  2.2191  0.9759
 9244SOL    HW239195   2.811   2.125   0.339 -1.6062  0.9918 -0.2300
 9245SOL     OW39196   0.348   0.495   7.921 -0.1536  0.3748 -0.4677
 9245SOL    HW139197   0.400   0.512   7.842 -0.8410  1.0089 -0.7977
 9245SOL    HW239198   0.298   0.419   7.891  1.5100 -0.2797 -1.5884
 9246SOL     OW39199   4.193   1.934   4.771  0.5902 -0.3080  0.2909
 9246SOL    HW139200   4.166   1.884   4.694 -0.6493 -0.6652  0.9587
 9246SOL    HW239201   4.261   1.987   4.729  1.3545 -2.5623 -1.2972
 9247SOL     OW39202   0.993   1.999  13.952 -1.0087  0.3310 -0.1082
 9247SOL    HW139203   0.916   1.978  13.899 -1.3703  1.4220 -0.0091
 9247SOL    HW239204   0.991   1.920  14.006 -2.0276  0.0304 -0.5934
 9248SOL     OW39205   3.266   2.640   1.269  0.1352  0.4254  0.6097
 9248SOL    HW139206   3.261   2.709   1.336  0.8453 -0.1240  1.2213
 9248SOL    HW239207   3.255   2.565   1.328  1.5003  0.9942  1.5825
 9249SOL     OW39208   4.631   4.389   7.142  0.0720 -0.1805 -0.7752
 9249SOL    HW139209   4.719   4.394   7.105  0.3337  0.1805 -0.0988
 9249SOL    HW239210   4.641   4.358   7.233  0.5195 -0.3990 -0.8974
 9250SOL     OW39211   0.348   0.235   4.489  0.2213 -0.1127 -0.1306
 9250SOL    HW139212   0.398   0.214   4.567  1.9441  4.2596 -0.0336
 9250SOL    HW239213   0.294   0.157   4.479  0.0726 -0.0568  0.2583
 9251SOL     OW39214   0.699   4.113   2.627 -0.3787 -0.8065 -0.1022
 9251SOL    HW139215   0.660   4.084   2.544  1.5553  0.3243 -1.4200
 9251SOL    HW239216   0.662   4.045   2.682 -1.2957 -0.3600 -0.1571
 9252SOL     OW39217   0.200   2.853   3.628  0.6025 -0.2363  0.3174
 9252SOL    HW139218   0.218   2.778   3.685 -0.3506 -1.6987 -1.2998
 9252SOL    HW239219   0.290   2.879   3.613  0.9210 -1.6445 -0.2269
 9253SOL     OW39220   2.749   4.075  11.917  0.0372  0.3300  0.0143
 9253SOL    HW139221   2.689   4.054  11.846  0.9890  0.0106 -0.6962
 9253SOL    HW239222   2.832   4.053  11.874  0.7755 -0.0939  1.6400
 9254SOL     OW39223   1.356   1.667   4.372 -0.1211  0.1517  0.1617
 9254SOL    HW139224   1.292   1.639   4.307 -1.1525 -1.4188  1.8437
 9254SOL    HW239225   1.347   1.762   4.366 -2.2541  0.0296  1.6023
 9255SOL     OW39226   2.384   3.800   3.412 -0.0151 -0.0294 -0.0769
 9255SOL    HW139227   2.383   3.869   3.477 -1.9729 -0.1239 -0.0061
 9255SOL    HW239228   2.316   3.834   3.353 -1.0467 -0.1285  1.0555
 9256SOL     OW39229   2.267   1.490   8.428 -0.3401  0.2406 -0.0975
 9256SOL    HW139230   2.295   1.560   8.369  2.8027 -0.9212  0.0536
 9256SOL    HW239231   2.179   1.470   8.397 -0.3334  0.6541 -0.3779
 9257SOL     OW39232   2.325   2.349   8.676  0.4912 -1.3388 -0.0999
 9257SOL    HW139233   2.403   2.336   8.623  1.0482  0.5984  0.2282
 9257SOL    HW239234   2.357   2.331   8.764  3.2358 -1.9037 -1.2344
 9258SOL     OW39235   0.204   3.984   7.000 -0.7485 -0.1250  0.3066
 9258SOL    HW139236   0.211   3.896   6.963 -2.3231 -0.3461  0.5145
 9258SOL    HW239237   0.243   3.967   7.085  0.5051 -0.1751 -0.2812
 9259SOL     OW39238   3.145   3.488   1.009 -0.3868  0.1161 -0.0976
 9259SOL    HW139239   3.181   3.538   1.082 -0.0727 -0.3576  0.0766
 9259SOL    HW239240   3.053   3.507   1.022 -0.0056  1.5102  0.6056
 9260SOL     OW39241   3.452   1.641  12.323 -0.1192  0.1704  0.2192
 9260SOL    HW139242   3.389   1.630  12.394 -2.6360  2.1933 -1.6707
 9260SOL    HW239243   3.481   1.729  12.347 -1.1885  0.0782  1.8459
 9261SOL     OW39244   2.751   0.631   7.835  0.2286 -0.3111  0.6965
 9261SOL    HW139245   2.659   0.643   7.858  0.5768 -0.3065  2.0827
 9261SOL    HW239246   2.802   0.689   7.892  0.6905  1.8010 -1.8705
 9262SOL     OW39247   4.326   2.862   4.144  1.2462 -0.1332  0.0207
 9262SOL    HW139248   4.338   2.783   4.091  1.9427 -0.8849  1.2990
 9262SOL    HW239249   4.248   2.910   4.114  0.5628 -2.0933 -1.3178
 9263SOL     OW39250   3.559   2.948  16.759  0.2903  0.0342  0.0692
 9263SOL    HW139251   3.542   3.008  16.687 -0.0630  1.1101  1.0399
 9263SOL    HW239252   3.606   2.879  16.711  1.5240 -0.4197  1.9017
 9264SOL     OW39253   4.243   4.330   3.727  0.4681 -0.0593  0.1748
 9264SOL    HW139254   4.154   4.341   3.694  0.3523 -1.2916  0.0874
 9264SOL    HW239255   4.283   4.308   3.643 -0.0279 -0.1722 -0.0327
 9265SOL     OW39256   0.230   2.555   7.334  0.3133  0.4364  0.7498
 9265SOL    HW139257   0.144   2.546   7.375 -0.6650 -3.8264 -2.2931
 9265SOL    HW239258   0.263   2.467   7.320 -1.9624 -0.2357 -0.2691
 9266SOL     OW39259   3.019   0.995  13.368  0.4348 -0.1318  0.7255
 9266SOL    HW139260   2.930   1.016  13.397 -0.4185 -1.7489 -0.7006
 9266SOL    HW239261   3.075   1.066  13.399 -0.8715  2.2232 -2.3562
 9267SOL     OW39262   3.186   0.225   2.517  0.3471  0.4304 -0.3990
 9267SOL    HW139263   3.103   0.192   2.553 -0.7862  1.5659 -1.9410
 9267SOL    HW239264   3.169   0.232   2.423  0.6595 -2.5469 -0.6711
 9268SOL     OW39265   3.413   0.092  15.314  0.0567 -0.2360 -0.0926
 9268SOL    HW139266   3.337   0.114  15.259  0.6807 -1.2595 -1.3719
 9268SOL    HW239267   3.418   4.722  15.313  2.3758 -0.1132  2.1839
 9269SOL     OW39268   0.366   2.698   4.338 -0.6686  0.0017  0.1716
 9269SOL    HW139269   0.422   2.643   4.285 -0.6105 -1.1260  1.3849
 9269SOL    HW239270   0.285   2.693   4.287 -0.6116 -3.3607  0.4225
 9270SOL     OW39271   0.952   0.520  12.203  0.2397  0.1301  0.8642
 9270SOL    HW139272   0.858   0.503  12.198  0.1945 -0.0581  2.1879
 9270SOL    HW239273   0.974   0.533  12.111  0.3047 -1.9461  0.5809
 9271SOL     OW39274   0.502   3.709   7.596 -0.1434 -0.1871 -0.0880
 9271SOL    HW139275   0.510   3.695   7.690  2.0077  1.5610 -0.0154
 9271SOL    HW239276   0.417   3.752   7.589  0.2177  0.4996 -0.2566
 9272SOL     OW39277   1.734   0.014  16.794 -0.3122 -0.1455  0.2118
 9272SOL    HW139278   1.807   4.677  16.794 -0.7926 -0.7001 -0.7513
 9272SOL    HW239279   1.675   4.699  16.858  0.5018  1.7679  2.1941
 9273SOL     OW39280   3.941   0.881  12.576 -0.5084 -0.2869 -0.0085
 9273SOL    HW139281   4.012   0.836  12.530  0.0021 -0.0023  0.4927
 9273SOL    HW239282   3.976   0.965  12.606  1.5227 -0.0149 -3.1543
 9274SOL     OW39283   1.689   0.170  14.048 -0.2938  0.3266  0.2354
 9274SOL    HW139284   1.602   0.141  14.023 -0.6415  0.3243  1.4433
 9274SOL    HW239285   1.699   0.263  14.029  2.2489 -0.4034 -1.9426
 9275SOL     OW39286   3.511   1.459  16.635  0.7050  0.8850  0.0098
 9275SOL    HW139287   3.516   1.415  16.550  2.8842  4.1326 -1.5347
 9275SOL    HW239288   3.548   1.544  16.612 -2.7790  2.5288  0.4765
 9276SOL     OW39289   3.733   3.232   5.929  0.5347 -0.3038 -0.4385
 9276SOL    HW139290   3.675   3.167   5.968 -1.8634  1.8113 -0.5112
 9276SOL    HW239291   3.746   3.198   5.841  5.6304 -0.5961  0.4155
 9277SOL     OW39292   1.222   2.543   7.110  0.9376 -0.6631 -0.0876
 9277SOL    HW139293   1.229   2.628   7.066 -0.2250 -1.2625 -1.4495
 9277SOL    HW239294   1.213   2.488   7.033  1.0939 -0.4047 -0.2915
 9278SOL     OW39295   3.201   4.166   7.402 -0.4071 -0.5147 -0.4345
 9278SOL    HW139296   3.270   4.170   7.336 -2.2340  1.1383 -2.2766
 9278SOL    HW239297   3.195   4.072   7.420  0.3955 -0.9287 -2.3123
 9279SOL     OW39298   1.367   1.006  16.862  0.1042 -0.1358  0.1780
 9279SOL    HW139299   1.365   0.911  16.857  0.9740 -0.2238  1.5872
 9279SOL    HW239300   1.275   1.024  16.881  0.3848  2.3376 -0.6861
 9280SOL     OW39301   4.514   1.096  11.335  0.9111 -0.4743  0.6858
 9280SOL    HW139302   4.525   1.061  11.423 -1.0879 -0.5086  0.9262
 9280SOL    HW239303   4.608   1.101  11.314  0.8915 -0.3791  0.6175
 9281SOL     OW39304   1.874   1.266  14.495 -0.0493  0.0996 -0.1720
 9281SOL    HW139305   1.958   1.302  14.523  0.4332 -1.1644  0.0180
 9281SOL    HW239306   1.828   1.348  14.481 -0.4365 -0.1724 -0.5321
 9282SOL     OW39307   3.455   2.390   2.990 -0.4318 -0.4000  0.3602
 9282SOL    HW139308   3.501   2.470   2.965 -2.6246 -0.1085 -2.7590
 9282SOL    HW239309   3.463   2.379   3.085  1.4192  1.3004  0.3898
 9283SOL     OW39310   4.714   1.718  10.841  0.3135 -0.7076  0.4388
 9283SOL    HW139311   4.645   1.749  10.900 -0.3528 -0.0906 -0.6787
 9283SOL    HW239312   4.683   1.629  10.831 -0.7653 -0.6168  3.0265
 9284SOL     OW39313   0.341   1.853   1.811  0.1957  0.0876 -0.0208
 9284SOL    HW139314   0.418   1.878   1.862 -0.1669 -0.5305  0.8180
 9284SOL    HW239315   0.283   1.903   1.869 -0.5798 -0.4556 -0.3290
 9285SOL     OW39316   2.695   1.761   5.170  0.0658 -0.4523  0.6572
 9285SOL    HW139317   2.779   1.787   5.209  0.1732 -1.0591  0.8300
 9285SOL    HW239318   2.661   1.711   5.245  1.8580 -1.7489  0.6124
 9286SOL     OW39319   2.060   1.097  13.402  0.2092  0.2412 -0.3909
 9286SOL    HW139320   2.011   1.021  13.433 -0.1850  1.7095  2.5662
 9286SOL    HW239321   2.006   1.165  13.364  0.7373  0.1914 -1.2248
 9287SOL     OW39322   0.495   3.972   9.870  0.4018 -0.4188 -0.4915
 9287SOL    HW139323   0.473   4.052   9.824 -0.4140  0.2385  1.0610
 9287SOL    HW239324   0.410   3.937   9.895 -0.6975  1.2068 -1.9654
 9288SOL     OW39325   4.422   2.002   5.412 -0.1965 -0.0076 -0.2196
 9288SOL    HW139326   4.431   2.001   5.507 -0.5897 -2.8156 -0.2125
 9288SOL    HW239327   4.490   1.943   5.380 -1.4653 -0.3889 -2.2250
 9289SOL     OW39328   0.694   0.387   9.827  0.1231  0.0121  0.0205
 9289SOL    HW139329   0.716   0.299   9.856 -2.5412 -0.7638 -0.3093
 9289SOL    HW239330   0.775   0.405   9.778  0.5557 -0.5796  0.5267
 9290SOL     OW39331   3.983   1.434   1.756 -0.2989  0.4838  0.1003
 9290SOL    HW139332   3.931   1.492   1.701  0.5435  0.8689 -0.2810
 9290SOL    HW239333   4.070   1.458   1.726 -0.1199 -2.6633 -1.9484
 9291SOL     OW39334   1.581   1.820   6.909 -0.5209 -0.0530  0.0364
 9291SOL    HW139335   1.637   1.822   6.831 -0.6768 -2.9102 -0.1531
 9291SOL    HW239336   1.499   1.778   6.883 -1.7317  2.8654 -0.8997
 9292SOL     OW39337   1.920   1.459   6.862  0.3151  0.2711 -0.3575
 9292SOL    HW139338   1.926   1.441   6.956  3.0144  3.6184  0.1246
 9292SOL    HW239339   1.825   1.454   6.859  0.1053  2.8886  1.5163
 9293SOL     OW39340   3.140   4.068  10.801 -0.3052  0.3289 -0.4092
 9293SOL    HW139341   3.177   4.023  10.725  2.8761  2.7434 -0.3062
 9293SOL    HW239342   3.048   4.081  10.780 -0.5603 -0.6384  0.1248
 9294SOL     OW39343   0.292   4.147  13.109  0.4736 -0.0322  0.1991
 9294SOL    HW139344   0.319   4.123  13.198  0.4410 -0.0984  0.1911
 9294SOL    HW239345   0.206   4.106  13.100  1.5722 -2.4689  0.7354
 9295SOL     OW39346   0.441   4.614   2.622 -0.3012  0.4438 -0.3997
 9295SOL    HW139347   0.416   4.624   2.530  2.3815 -0.0140 -1.2023
 9295SOL    HW239348   0.485   4.529   2.615  0.3105  0.8713 -1.8592
 9296SOL     OW39349   4.297   1.449   1.849 -0.4720 -0.0430 -0.3478
 9296SOL    HW139350   4.378   1.413   1.886 -0.0777  3.0852  1.8058
 9296SOL    HW239351   4.331   1.452   1.759 -1.0266 -2.3827 -0.6433
 9297SOL     OW39352   1.640   3.676  14.667  0.1729 -0.3816  0.3161
 9297SOL    HW139353   1.654   3.736  14.594 -1.3968  0.1670  0.4679
 9297SOL    HW239354   1.615   3.603  14.611  2.4428 -0.0827 -1.0582
 9298SOL     OW39355   0.888   2.884  12.107 -0.0413 -0.0610  0.0656
 9298SOL    HW139356   0.844   2.816  12.056 -0.8428  0.9706 -0.5929
 9298SOL    HW239357   0.965   2.892  12.050  0.0809 -0.4410  0.1753
 9299SOL     OW39358   1.827   2.160  14.724 -0.4771 -0.0475 -0.1285
 9299SOL    HW139359   1.837   2.189  14.815 -0.1321 -1.4342  0.2796
 9299SOL    HW239360   1.733   2.163  14.705 -1.2068  0.1228  3.5518
 9300SOL     OW39361   2.382   3.386   2.558  0.2078 -0.0962 -0.5318
 9300SOL    HW139362   2.424   3.378   2.472 -0.6306 -1.0684 -0.8504
 9300SOL    HW239363   2.296   3.344   2.546  0.6170 -0.8511 -0.8109
 9301SOL     OW39364   2.063   4.055  14.869  0.2347 -0.9575 -0.0228
 9301SOL    HW139365   2.081   4.066  14.962  1.1718 -1.7376 -0.0995
 9301SOL    HW239366   2.117   3.977  14.851 -0.3307 -1.1582 -0.8519
 9302SOL     OW39367   2.538   1.680  12.890 -0.2027  0.6200 -0.4317
 9302SOL    HW139368   2.477   1.719  12.827 -2.1441 -0.5221  0.7632
 9302SOL    HW239369   2.622   1.715  12.859  0.1804 -1.5193 -1.8026
 9303SOL     OW39370   3.612   2.842   2.651 -0.4618 -0.4444 -0.7581
 9303SOL    HW139371   3.526   2.801   2.653 -1.5884  2.0166  0.3413
 9303SOL    HW239372   3.589   2.917   2.596 -2.9310 -0.1897  0.6374
 9304SOL     OW39373   0.065   0.454   8.282  0.2809  0.3029  0.1267
 9304SOL    HW139374   0.105   0.369   8.263  0.1970  0.5671 -1.2311
 9304SOL    HW239375   0.035   0.488   8.198 -0.9351 -2.1710 -0.4628
 9305SOL     OW39376   3.660   2.206   6.997  0.1432 -0.2573  0.0254
 9305SOL    HW139377   3.665   2.291   7.041  0.7167 -0.2129 -0.1315
 9305SOL    HW239378   3.577   2.166   7.025  0.3915  0.2797  1.5011
 9306SOL     OW39379   3.574   3.862   5.047 -0.1422  0.0018  0.1271
 9306SOL    HW139380   3.600   3.770   5.053  1.8991  0.4601 -1.3970
 9306SOL    HW239381   3.656   3.897   5.011  0.5927  0.4095  2.1865
 9307SOL     OW39382   3.564   1.784   0.497  0.9548 -0.4585  0.4551
 9307SOL    HW139383   3.596   1.794   0.408  0.3835  2.1088  0.5356
 9307SOL    HW239384   3.515   1.864   0.513  1.0700 -0.2236 -0.4160
 9308SOL     OW39385   4.088   1.026   8.966  0.0812 -0.4145 -0.4248
 9308SOL    HW139386   4.181   1.027   8.942  0.7334  1.3223  2.2360
 9308SOL    HW239387   4.067   0.934   8.982 -0.6379 -0.1782  0.0113
 9309SOL     OW39388   3.800   3.496  13.396 -1.0751  0.3767 -0.4589
 9309SOL    HW139389   3.798   3.576  13.447  1.1473 -0.2411  0.5830
 9309SOL    HW239390   3.788   3.433  13.467  0.9165  0.3689 -0.1312
 9310SOL     OW39391   2.605   2.541   3.201 -0.5826  0.4372 -0.3364
 9310SOL    HW139392   2.545   2.474   3.232 -2.2474  1.9691 -0.2292
 9310SOL    HW239393   2.576   2.553   3.110 -0.0403 -0.8294 -0.6743
 9311SOL     OW39394   4.002   4.680  16.453 -0.9646 -0.1995 -0.5365
 9311SOL    HW139395   4.050   4.698  16.534 -1.2741 -0.4749 -0.2894
 9311SOL    HW239396   4.075   4.649  16.399 -0.4919  0.0215 -0.0263
 9312SOL     OW39397   1.487   1.309   1.965  0.2093 -0.2070 -0.0383
 9312SOL    HW139398   1.482   1.324   2.060  0.6055 -3.5373  0.5129
 9312SOL    HW239399   1.571   1.264   1.974  0.9234  1.4012  1.4325
 9313SOL     OW39400   0.998   0.571   3.874  0.2857  0.8045  0.2145
 9313SOL    HW139401   0.937   0.644   3.865 -0.6843 -0.2798 -1.9301
 9313SOL    HW239402   1.018   0.575   3.968  0.0511 -0.4833  0.3300
 9314SOL     OW39403   0.898   1.652   7.800  0.0799 -0.5147 -0.0893
 9314SOL    HW139404   0.973   1.593   7.784 -0.0455 -0.5967 -0.3828
 9314SOL    HW239405   0.937   1.738   7.814 -1.3860  0.1413 -0.1572
 9315SOL     OW39406   0.953   0.789   7.470  0.0013  0.3079 -0.0295
 9315SOL    HW139407   0.972   0.875   7.507  2.0884  0.1571 -0.7369
 9315SOL    HW239408   0.869   0.800   7.425  0.6038 -0.1642 -1.2875
 9316SOL     OW39409   0.228   2.196   8.423 -0.1818  0.0446  0.4637
 9316SOL    HW139410   0.223   2.166   8.514  0.3598 -2.1123 -0.2407
 9316SOL    HW239411   0.225   2.108   8.385 -0.5480  0.2113  0.1074
 9317SOL     OW39412   1.211   3.164   3.173  0.5066  0.0840 -0.1793
 9317SOL    HW139413   1.277   3.225   3.139 -0.1635  0.0854 -1.4659
 9317SOL    HW239414   1.230   3.081   3.130  0.1845 -1.0665  1.8921
 9318SOL     OW39415   1.086   1.532  12.189  0.1664 -0.2706 -0.1535
 9318SOL    HW139416   1.072   1.625  12.176 -2.9372 -0.7086  0.2351
 9318SOL    HW239417   0.996   1.502  12.179 -0.6050  0.9597  3.3375
 9319SOL     OW39418   2.337   3.201  10.429  0.0096 -0.4826  0.3708
 9319SOL    HW139419   2.395   3.215  10.504 -0.4891  1.5374  0.3852
 9319SOL    HW239420   2.264   3.262  10.444 -0.3781 -1.0857  0.9641
 9320SOL     OW39421   4.678   2.014   8.281 -0.2732  0.6076 -0.0884
 9320SOL    HW139422   4.633   1.933   8.256 -0.3050  0.4700  0.4001
 9320SOL    HW239423   4.700   2.053   8.197  3.0829  0.1201  0.5574
 9321SOL     OW39424   0.533   0.109  14.567  0.3329  0.2257 -0.3320
 9321SOL    HW139425   0.557   0.157  14.488  0.9509  0.3735 -0.0541
 9321SOL    HW239426   0.543   0.175  14.635  1.6072 -1.1026  0.7579
 9322SOL     OW39427   3.057   3.379  11.161 -1.2113  0.0723 -0.2096
 9322SOL    HW139428   2.968   3.399  11.131 -2.1476 -1.4088  1.5881
 9322SOL    HW239429   3.097   3.437  11.096 -1.5498  1.4064  0.7673
 9323SOL     OW39430   0.384   4.604   2.365 -0.0186 -0.2406  0.0688
 9323SOL    HW139431   0.449   4.589   2.296  0.2705  1.5098 -0.0513
 9323SOL    HW239432   0.336   4.679   2.329 -2.3846 -1.1520  1.3570
 9324SOL     OW39433   1.838   1.779   4.312 -0.1357  0.1186 -0.4674
 9324SOL    HW139434   1.894   1.819   4.246  0.1073 -1.4040 -1.1724
 9324SOL    HW239435   1.849   1.685   4.297  0.5211 -0.3393  2.8951
 9325SOL     OW39436   2.188   2.307   3.673  0.0393 -0.3882  0.2323
 9325SOL    HW139437   2.275   2.267   3.679  1.0135  2.0820  2.8715
 9325SOL    HW239438   2.195   2.376   3.739  1.5424 -2.1672  1.9558
 9326SOL     OW39439   1.333   2.916  11.941 -0.4850  0.7904  0.1706
 9326SOL    HW139440   1.376   2.831  11.931 -1.5261  0.3611 -0.7079
 9326SOL    HW239441   1.364   2.965  11.865 -0.2676  0.1222 -0.1770
 9327SOL     OW39442   0.081   1.958  16.091 -0.7038 -0.3189  0.0450
 9327SOL    HW139443   0.006   1.989  16.141 -0.8595  0.7096 -0.8265
 9327SOL    HW239444   0.113   2.045  16.069  0.9943 -0.9135  0.1109
 9328SOL     OW39445   3.500   2.891   4.331 -0.2617  0.0565  0.0199
 9328SOL    HW139446   3.430   2.896   4.266  1.0921  2.1473 -1.2876
 9328SOL    HW239447   3.490   2.978   4.369 -0.1885  0.3140 -0.5464
 9329SOL     OW39448   4.522   2.839   4.333 -0.0889  0.1567 -0.1843
 9329SOL    HW139449   4.501   2.930   4.354  2.1682  1.7297 -4.8953
 9329SOL    HW239450   4.443   2.821   4.282  1.2274 -3.1257 -1.0315
 9330SOL     OW39451   3.623   4.263   8.744  0.0018  0.0153  0.1451
 9330SOL    HW139452   3.587   4.196   8.686 -1.0442  0.4173  0.3449
 9330SOL    HW239453   3.630   4.334   8.681  0.1953 -0.1338  0.0002
 9331SOL     OW39454   2.769   2.034   4.081 -0.1061 -0.4718  0.5590
 9331SOL    HW139455   2.832   2.076   4.140 -0.7143  1.5994 -0.2648
 9331SOL    HW239456   2.735   1.968   4.141 -2.7777  0.9832  0.6211
 9332SOL     OW39457   0.850   0.353   7.822  0.1880 -0.3144  0.2735
 9332SOL    HW139458   0.843   0.439   7.781 -0.6267 -1.4711 -2.0603
 9332SOL    HW239459   0.910   0.368   7.894  1.6893 -1.3718 -0.7567
 9333SOL     OW39460   1.442   2.158  11.214 -0.0653 -0.2518  0.3591
 9333SOL    HW139461   1.415   2.073  11.179  2.7156  0.8861 -4.4947
 9333SOL    HW239462   1.412   2.219  11.147  1.4015  1.1241  0.9534
 9334SOL     OW39463   0.511   2.293   1.926 -0.6351 -0.0555  0.1458
 9334SOL    HW139464   0.428   2.271   1.882 -0.2802  1.3232 -1.2038
 9334SOL    HW239465   0.545   2.354   1.860 -0.6434 -1.0506 -0.7675
 9335SOL     OW39466   1.860   3.464  13.463 -0.8179  0.1582  0.1196
 9335SOL    HW139467   1.787   3.517  13.433 -0.4470  0.7041  0.1694
 9335SOL    HW239468   1.870   3.499  13.552 -1.5185 -0.3502  0.3933
 9336SOL     OW39469   0.750   2.610   5.471  0.4753 -0.4012 -0.5124
 9336SOL    HW139470   0.736   2.632   5.563 -0.5023 -2.8800 -0.0791
 9336SOL    HW239471   0.749   2.694   5.424 -1.7201 -0.6289 -0.8378
 9337SOL     OW39472   2.843   4.048   2.363  0.2637  0.0673  0.0105
 9337SOL    HW139473   2.927   4.074   2.402  0.9161 -0.5462 -0.9846
 9337SOL    HW239474   2.868   3.957   2.347  0.1197 -0.0971  0.7554
 9338SOL     OW39475   2.017   1.664   8.790  0.3317  0.6570 -0.1400
 9338SOL    HW139476   2.073   1.593   8.818 -0.8783 -0.6075 -0.8814
 9338SOL    HW239477   1.939   1.651   8.845  0.8214 -0.1244  0.3559
 9339SOL     OW39478   4.550   0.823   1.329 -0.0776 -0.0955  0.0631
 9339SOL    HW139479   4.556   0.893   1.395 -3.6029  0.7453 -0.5096
 9339SOL    HW239480   4.537   0.749   1.388 -0.8128  0.9498  1.2154
 9340SOL     OW39481   0.256   2.301   1.491 -0.2580  0.0156 -0.0041
 9340SOL    HW139482   0.210   2.231   1.444 -0.7563 -1.0330  2.0586
 9340SOL    HW239483   0.342   2.261   1.495 -0.7003 -0.8461  0.9485
 9341SOL     OW39484   3.876   1.673   7.406  0.1900 -0.0269 -0.1868
 9341SOL    HW139485   3.926   1.732   7.464 -1.0919  1.6631 -0.8241
 9341SOL    HW239486   3.900   1.707   7.320 -0.2901 -0.6983 -0.5814
 9342SOL     OW39487   1.219   0.674   2.358  0.1838 -0.2804 -0.9934
 9342SOL    HW139488   1.131   0.645   2.383  1.3547 -0.5790  2.8823
 9342SOL    HW239489   1.266   0.600   2.398  1.2713  0.1354 -1.5138
 9343SOL     OW39490   4.284   0.178   1.651 -0.1552  0.0019 -0.0493
 9343SOL    HW139491   4.230   0.245   1.694  0.9844  0.6447  0.3798
 9343SOL    HW239492   4.233   0.098   1.661  2.4193 -1.5859  0.3804
 9344SOL     OW39493   2.884   1.282  13.750 -0.1566 -0.3842 -0.2463
 9344SOL    HW139494   2.866   1.198  13.792 -4.4572  0.6831  0.0282
 9344SOL    HW239495   2.979   1.290  13.764 -0.5988  2.6816  0.9769
 9345SOL     OW39496   0.801   4.613   6.639 -0.0596  0.0980  0.6231
 9345SOL    HW139497   0.849   4.601   6.721 -0.5165 -0.0079  0.8783
 9345SOL    HW239498   0.877   4.618   6.581 -0.7097 -2.5557 -0.4714
 9346SOL     OW39499   1.844   1.747  13.543  0.4380  0.1133 -0.4801
 9346SOL    HW139500   1.873   1.797  13.467  3.2018  0.9369  1.1061
 9346SOL    HW239501   1.805   1.821  13.590 -1.9796 -0.0242 -2.2424
 9347SOL     OW39502   0.297   2.332   5.495  0.0260  0.1904  0.0430
 9347SOL    HW139503   0.210   2.293   5.483  1.0261 -1.1736 -2.9021
 9347SOL    HW239504   0.330   2.287   5.572 -1.8459 -0.5785  0.4102
 9348SOL     OW39505   2.335   3.834   1.553 -0.7171 -0.4462 -0.4594
 9348SOL    HW139506   2.401   3.773   1.588 -1.0039 -0.4452  0.0818
 9348SOL    HW239507   2.311   3.883   1.632  2.0214 -0.9821  0.7193
 9349SOL     OW39508   0.873   2.223   2.708 -0.2224 -0.2178  0.0692
 9349SOL    HW139509   0.880   2.224   2.613 -1.5763 -3.1744 -0.0858
 9349SOL    HW239510   0.787   2.180   2.712  0.0832 -0.8985 -0.5709
 9350SOL     OW39511   2.442   1.858  15.898  0.1440 -0.2522 -0.0323
 9350SOL    HW139512   2.394   1.904  15.830 -2.1157 -1.9270  0.4221
 9350SOL    HW239513   2.492   1.932  15.932 -0.6500 -0.1326  0.8690
 9351SOL     OW39514   1.631   4.217   6.274 -0.0328  0.2252 -0.9322
 9351SOL    HW139515   1.589   4.144   6.228  1.7048 -0.6005 -1.2365
 9351SOL    HW239516   1.566   4.239   6.340 -1.9433  0.9108 -3.0398
 9352SOL     OW39517   1.226   3.261  10.234 -0.3796  0.3243 -0.0004
 9352SOL    HW139518   1.267   3.183  10.196 -1.7680 -0.0069 -0.8467
 9352SOL    HW239519   1.131   3.252  10.221 -0.0401 -0.8709 -1.6901
 9353SOL     OW39520   1.977   3.306   9.185  0.0128 -0.5383 -0.2673
 9353SOL    HW139521   2.018   3.290   9.101 -0.8308  0.0000 -0.7847
 9353SOL    HW239522   1.887   3.283   9.164 -0.2483 -2.0758  2.4831
 9354SOL     OW39523   3.783   0.162   2.637 -0.0255 -0.2502 -0.5294
 9354SOL    HW139524   3.749   0.116   2.560 -0.7911 -0.9660  0.2332
 9354SOL    HW239525   3.703   0.213   2.651  0.7553  0.7598  0.2935
 9355SOL     OW39526   0.120   2.669   6.431  0.1587 -0.0539 -0.0971
 9355SOL    HW139527   0.065   2.644   6.357  1.0846 -1.7272 -0.2200
 9355SOL    HW239528   0.106   2.593   6.488 -0.5117  0.8172  0.8955
 9356SOL     OW39529   3.164   1.270   7.290  0.2535  0.0712 -0.0139
 9356SOL    HW139530   3.210   1.313   7.363  2.0356 -3.7092  1.0568
 9356SOL    HW239531   3.136   1.189   7.331 -0.3934  0.8961  1.1787
 9357SOL     OW39532   0.764   4.098   8.093  0.6159  0.3088 -0.0215
 9357SOL    HW139533   0.830   4.030   8.084  1.5798  1.3033 -0.4936
 9357SOL    HW239534   0.783   4.156   8.019 -0.9591 -1.8773 -2.1758
 9358SOL     OW39535   3.605   2.981   0.837  0.8119  0.1274 -0.0704
 9358SOL    HW139536   3.650   2.910   0.883  1.2841  1.5193  1.6478
 9358SOL    HW239537   3.663   2.988   0.762 -0.6485  1.5349 -1.0786
 9359SOL     OW39538   1.627   3.889   6.540 -0.1329  0.8354  0.1663
 9359SOL    HW139539   1.639   3.797   6.565  1.5044  0.9603 -0.1952
 9359SOL    HW239540   1.719   3.915   6.544  0.1017 -0.1852  1.4811
 9360SOL     OW39541   2.202   3.590   4.190 -0.4068  0.4338 -0.9629
 9360SOL    HW139542   2.270   3.549   4.137 -0.3739  0.2428 -0.7733
 9360SOL    HW239543   2.141   3.516   4.188  0.1919 -0.1317  1.8250
 9361SOL     OW39544   3.160   1.421  12.629  0.1586 -0.3204  0.5438
 9361SOL    HW139545   3.118   1.492  12.678  2.7802 -0.3347  2.8365
 9361SOL    HW239546   3.106   1.351  12.665 -1.3427  1.2718  1.4349
 9362SOL     OW39547   0.708   1.345  12.768  0.8844 -0.5177 -0.0975
 9362SOL    HW139548   0.617   1.319  12.783  0.1340  1.9644 -0.2537
 9362SOL    HW239549   0.731   1.422  12.821 -0.1112  0.4202 -1.0140
 9363SOL     OW39550   4.336   1.996   3.308  0.0121  0.5285  0.2479
 9363SOL    HW139551   4.303   2.020   3.221  0.6739  0.6457  0.0308
 9363SOL    HW239552   4.314   1.903   3.312 -2.0120  1.1204  2.9993
 9364SOL     OW39553   0.145   0.806   7.674  0.1489 -0.3101 -0.4027
 9364SOL    HW139554   0.202   0.835   7.745  0.2322  0.4236 -0.7679
 9364SOL    HW239555   0.200   0.816   7.597  0.2213 -0.3227 -0.3520
 9365SOL     OW39556   1.807   2.227   9.788 -0.3545  0.2631 -0.5404
 9365SOL    HW139557   1.747   2.185   9.851  0.1069  0.3920 -0.0196
 9365SOL    HW239558   1.825   2.312   9.828  0.6596 -0.2336  0.0505
 9366SOL     OW39559   1.603   0.099   7.855  0.5378 -0.0013 -0.1564
 9366SOL    HW139560   1.695   0.123   7.862 -0.8481  5.2509 -0.5661
 9366SOL    HW239561   1.613   0.018   7.804  1.1124  0.4713 -0.7901
 9367SOL     OW39562   1.373   0.775   5.558 -0.1704  0.3072  0.0939
 9367SOL    HW139563   1.411   0.784   5.471 -1.0199  2.0828 -0.0964
 9367SOL    HW239564   1.313   0.850   5.557 -3.0722 -1.9962 -0.6705
 9368SOL     OW39565   4.307   3.673  17.471 -0.0126 -0.0724 -0.3392
 9368SOL    HW139566   4.382   3.615  17.483 -0.5373 -0.4884  0.9986
 9368SOL    HW239567   4.301   3.714  17.558  1.0882 -1.0753  0.2161
 9369SOL     OW39568   2.460   0.834   3.087 -0.1595  0.1026 -0.6084
 9369SOL    HW139569   2.414   0.827   3.171  2.8966 -0.4065  0.9926
 9369SOL    HW239570   2.490   0.925   3.088 -0.2173  0.0804  1.7780
 9370SOL     OW39571   0.777   2.512   6.225 -0.4851  0.7755  0.7233
 9370SOL    HW139572   0.697   2.476   6.188 -0.7449  0.8490  1.2236
 9370SOL    HW239573   0.834   2.437   6.206 -0.2125  1.1731 -0.0400
 9371SOL     OW39574   2.292   3.767  13.462  0.3872 -0.5362  0.4427
 9371SOL    HW139575   2.381   3.802  13.472  0.2972  0.3946 -1.7963
 9371SOL    HW239576   2.283   3.757  13.367 -2.0039  0.4836  0.5724
 9372SOL     OW39577   0.845   2.302  11.334 -0.0734  0.1588  0.7176
 9372SOL    HW139578   0.912   2.237  11.313 -0.2605  0.5147 -1.0174
 9372SOL    HW239579   0.870   2.364  11.265 -0.9043  0.8140  0.9989
 9373SOL     OW39580   2.878   1.496   3.564 -0.6635 -0.8272 -0.3256
 9373SOL    HW139581   2.923   1.573   3.532 -0.0532 -0.5974  1.0873
 9373SOL    HW239582   2.809   1.535   3.618  0.2942 -0.5243  0.6922
 9374SOL     OW39583   1.071   2.949   5.956 -0.2076  0.2021 -0.2786
 9374SOL    HW139584   1.067   2.898   5.874 -0.4847  0.7192 -0.5815
 9374SOL    HW239585   1.095   3.037   5.929  1.9539 -0.0927  0.6607
 9375SOL     OW39586   3.579   2.831  12.012  0.6260  0.1816  0.5084
 9375SOL    HW139587   3.498   2.813  11.963 -0.3889  0.6697  1.9820
 9375SOL    HW239588   3.600   2.738  12.005 -1.6433 -0.0776 -3.2654
 9376SOL     OW39589   2.331   2.192  11.057  0.1096  0.4067 -0.4736
 9376SOL    HW139590   2.265   2.164  11.120 -0.3995 -1.0484 -1.6444
 9376SOL    HW239591   2.409   2.156  11.099 -0.2917  0.9514  0.7515
 9377SOL     OW39592   3.501   3.241   7.421 -0.2284  0.1382  0.6770
 9377SOL    HW139593   3.520   3.174   7.486 -1.6987  0.2928  1.2715
 9377SOL    HW239594   3.560   3.219   7.349  1.6535  1.6732  1.7553
 9378SOL     OW39595   1.710   3.123   8.405  0.1604  0.9298 -0.1447
 9378SOL    HW139596   1.740   3.110   8.495 -1.9977  1.5681  0.6647
 9378SOL    HW239597   1.626   3.077   8.412  1.3673 -1.2978 -0.2077
 9379SOL     OW39598   3.723   0.432   6.734  0.0569  0.2958 -0.3595
 9379SOL    HW139599   3.817   0.430   6.717  0.2598 -0.7923  0.9081
 9379SOL    HW239600   3.695   0.353   6.689 -1.4135  0.2154  0.6994
 9380SOL     OW39601   0.355   1.720   7.371  0.2218 -0.3716 -0.1262
 9380SOL    HW139602   0.367   1.715   7.276 -2.4032 -0.8549 -0.4286
 9380SOL    HW239603   0.327   1.631   7.390 -1.4281 -0.0585 -1.0927
 9381SOL     OW39604   1.203   2.195   6.660 -0.3402  0.4032 -0.2810
 9381SOL    HW139605   1.297   2.180   6.669 -0.6564 -0.3476  1.8260
 9381SOL    HW239606   1.202   2.220   6.567 -0.9366  0.3235 -0.3000
 9382SOL     OW39607   3.118   1.239   1.288 -0.4444  0.3917  0.4492
 9382SOL    HW139608   3.080   1.181   1.354  2.0230 -0.7693  0.8249
 9382SOL    HW239609   3.206   1.204   1.278 -0.2277  0.8266  0.8423
 9383SOL     OW39610   2.664   3.879   7.077 -0.2489 -0.2470 -0.3457
 9383SOL    HW139611   2.749   3.838   7.060  0.5658  2.1948 -2.0752
 9383SOL    HW239612   2.678   3.888   7.171 -3.1360 -0.4071  0.1161
 9384SOL     OW39613   3.314   0.269   5.406  0.4383  0.2913 -0.2451
 9384SOL    HW139614   3.270   0.321   5.473  0.0924 -1.5732  0.9711
 9384SOL    HW239615   3.239   0.234   5.356 -1.0734  1.4637  1.2366
 9385SOL     OW39616   2.392   2.727   6.488  0.4435  0.0777 -0.1362
 9385SOL    HW139617   2.383   2.726   6.584 -0.7798 -1.6993 -0.2850
 9385SOL    HW239618   2.441   2.809   6.490 -0.7336  0.7324  2.7814
 9386SOL     OW39619   2.342   1.931   7.659 -0.1291  0.0974 -0.5221
 9386SOL    HW139620   2.431   1.929   7.623 -0.2127  2.0336 -0.8535
 9386SOL    HW239621   2.348   1.943   7.753  0.5479  0.2057 -0.5825
 9387SOL     OW39622   2.004   4.403   4.475 -0.3124  0.0485  0.0834
 9387SOL    HW139623   2.017   4.310   4.455 -0.7479  0.1461 -0.6496
 9387SOL    HW239624   2.029   4.400   4.567 -0.9771  0.2747  0.2696
 9388SOL     OW39625   4.681   3.538  13.999  0.1405  0.1801  0.3288
 9388SOL    HW139626   4.673   3.477  14.072 -0.1394  0.9335  0.9291
 9388SOL    HW239627   4.589   3.548  13.976  0.2884  0.7022 -0.0318
 9389SOL     OW39628   0.007   1.908   6.808  0.2225 -0.1518  0.0024
 9389SOL    HW139629   4.711   1.876   6.896 -0.2071 -2.2495 -0.8432
 9389SOL    HW239630   0.038   1.826   6.768 -0.2047 -0.0007 -0.6365
 9390SOL     OW39631   0.148   3.482   9.190  0.0827  0.0193 -0.2539
 9390SOL    HW139632   0.176   3.566   9.226 -2.4197  0.3005  1.0456
 9390SOL    HW239633   0.093   3.450   9.262 -0.3080 -2.1498 -1.5158
 9391SOL     OW39634   1.082   1.794  12.152 -0.0719  0.1519  0.1434
 9391SOL    HW139635   1.006   1.851  12.145 -0.8321 -0.5281  2.7160
 9391SOL    HW239636   1.080   1.785  12.248  2.1262  0.8986  0.2721
 9392SOL     OW39637   1.459   1.300   4.284  0.3481  0.5162  0.6318
 9392SOL    HW139638   1.550   1.329   4.286 -0.0614  1.7203  2.0847
 9392SOL    HW239639   1.472   1.211   4.252  0.8991 -0.0169  2.3226
 9393SOL     OW39640   3.782   4.178   6.883  0.0662 -0.0732 -0.4088
 9393SOL    HW139641   3.858   4.170   6.941  0.0841  0.2294 -0.3940
 9393SOL    HW239642   3.790   4.085   6.860 -1.5854 -0.3739  0.2430
 9394SOL     OW39643   2.352   1.184   0.315 -0.0394 -0.1316 -0.3054
 9394SOL    HW139644   2.258   1.166   0.319 -0.1660  0.8442  0.8672
 9394SOL    HW239645   2.363   1.262   0.369  0.4246 -0.9095  0.7372
 9395SOL     OW39646   1.390   3.381   9.547 -0.0048 -0.4759  0.3554
 9395SOL    HW139647   1.428   3.300   9.578 -1.7131 -1.1492  0.7096
 9395SOL    HW239648   1.410   3.447   9.613  0.8886 -0.7958  0.3963
 9396SOL     OW39649   0.469   1.758  14.339 -0.0934 -0.0338  0.4502
 9396SOL    HW139650   0.470   1.670  14.302 -0.7367  0.5919 -1.0755
 9396SOL    HW239651   0.391   1.794  14.296  1.2196 -0.4099 -2.2706
 9397SOL     OW39652   3.554   3.928  16.859 -0.0734 -0.3697  0.5629
 9397SOL    HW139653   3.596   3.844  16.842  0.5264  0.5119 -2.2910
 9397SOL    HW239654   3.540   3.932  16.954  0.4921  0.1070  0.6289
 9398SOL     OW39655   0.700   4.382   7.653 -0.4508  0.0583  0.5110
 9398SOL    HW139656   0.710   4.329   7.574 -0.2553 -0.7622  1.0809
 9398SOL    HW239657   0.645   4.451   7.617 -0.9043 -0.1773  0.7540
 9399SOL     OW39658   1.122   3.238   8.316 -0.1575  0.0580  0.0284
 9399SOL    HW139659   1.040   3.232   8.268  0.3010 -0.5213 -0.6780
 9399SOL    HW239660   1.094   3.265   8.404  1.6502 -2.2319  1.3210
 9400SOL     OW39661   2.650   1.067   4.983  0.1750  0.4270 -0.0735
 9400SOL    HW139662   2.692   0.994   5.028 -2.4147 -1.6177 -0.9813
 9400SOL    HW239663   2.727   1.123   4.981  0.1043  0.5269 -0.0233
 9401SOL     OW39664   1.487   3.996   6.167 -0.2160 -0.4523  0.3708
 9401SOL    HW139665   1.417   4.057   6.142  0.2518 -0.3508 -0.7020
 9401SOL    HW239666   1.458   3.983   6.257  1.2593  0.7179  1.0166
 9402SOL     OW39667   0.050   2.509   1.800  0.3014 -0.5238 -0.3431
 9402SOL    HW139668   0.016   2.472   1.719  2.5191  0.9587 -1.9578
 9402SOL    HW239669   0.030   2.602   1.790 -0.3958 -0.5259  1.0938
 9403SOL     OW39670   0.667   3.229   6.416  0.4869 -0.0814 -0.3535
 9403SOL    HW139671   0.661   3.134   6.411 -1.4808  0.0110 -0.0616
 9403SOL    HW239672   0.582   3.243   6.374  1.2777 -0.3009 -2.0163
 9404SOL     OW39673   3.811   1.871   2.124  0.0395  0.5770  0.3654
 9404SOL    HW139674   3.894   1.893   2.083  0.6883 -0.2562  1.2351
 9404SOL    HW239675   3.769   1.955   2.107  0.7618  0.8470 -0.0637
 9405SOL     OW39676   2.062   0.144   9.075  0.6346 -0.3341  0.3274
 9405SOL    HW139677   1.972   0.162   9.050  0.0841 -0.9012  1.8763
 9405SOL    HW239678   2.061   0.175   9.166  0.6691 -0.6723  0.4466
 9406SOL     OW39679   2.397   4.403   7.475  1.0080  0.1670  0.3247
 9406SOL    HW139680   2.411   4.486   7.521  2.6811  0.5233 -0.8340
 9406SOL    HW239681   2.392   4.433   7.384  1.1825 -1.3396 -0.1871
 9407SOL     OW39682   2.149   3.134   9.342  0.3680 -0.3701 -0.3861
 9407SOL    HW139683   2.098   3.195   9.289  1.2739 -0.8249 -1.7823
 9407SOL    HW239684   2.087   3.065   9.364  0.1756  0.1610  0.7446
 9408SOL     OW39685   2.088   1.950   1.277 -0.3285 -1.1889  0.6342
 9408SOL    HW139686   2.029   1.991   1.214 -0.4713 -2.0668  0.1893
 9408SOL    HW239687   2.175   1.951   1.235 -0.6415  1.9219  0.0642
 9409SOL     OW39688   3.326   1.417   5.775  0.2856  0.1108 -0.3065
 9409SOL    HW139689   3.376   1.446   5.699  0.2393  1.1674  0.0780
 9409SOL    HW239690   3.235   1.443   5.766  0.6011  1.6384  0.9709
 9410SOL     OW39691   4.107   2.459   7.396 -0.1107  0.1732 -0.2510
 9410SOL    HW139692   4.016   2.439   7.418 -1.3886  2.8998 -3.0441
 9410SOL    HW239693   4.156   2.381   7.422  1.3130  1.7198  1.7798
 9411SOL     OW39694   4.113   4.608  14.431  0.1040 -0.1478  0.3866
 9411SOL    HW139695   4.052   4.617  14.358 -1.7323 -2.1502  1.7003
 9411SOL    HW239696   4.140   4.698  14.451  0.4102  0.2301 -1.7461
 9412SOL     OW39697   1.852   3.914  14.814 -0.1070  0.0797  0.1839
 9412SOL    HW139698   1.918   3.975  14.848  0.9825 -0.6296 -0.6511
 9412SOL    HW239699   1.896   3.865  14.745  1.4852  0.9982  0.5519
 9413SOL     OW39700   3.293   1.342   3.025  0.0678 -0.3044 -0.8031
 9413SOL    HW139701   3.298   1.432   2.992 -2.8601  0.1815  0.0719
 9413SOL    HW239702   3.208   1.342   3.069  0.7968 -0.5302  0.6149
 9414SOL     OW39703   0.259   2.990  12.378 -0.7584  0.5257  0.2408
 9414SOL    HW139704   0.227   3.039  12.303  1.3449  0.9639 -0.3935
 9414SOL    HW239705   0.242   2.903  12.343  0.9486  0.2601  0.0451
 9415SOL     OW39706   2.438   2.758   0.987 -0.0251 -0.7670  0.1609
 9415SOL    HW139707   2.452   2.780   1.080 -0.2923  1.6917 -0.3757
 9415SOL    HW239708   2.344   2.762   0.972 -0.3382  1.1463  2.4999
 9416SOL     OW39709   1.877   2.982   3.390  0.1301  0.3785 -0.1377
 9416SOL    HW139710   1.910   2.901   3.429 -1.0591 -0.7040 -1.3738
 9416SOL    HW239711   1.954   3.032   3.362 -0.3829  1.8715  1.1034
 9417SOL     OW39712   4.422   0.018   5.171  0.3819 -0.0370  0.5648
 9417SOL    HW139713   4.470   4.661   5.155 -0.5964 -0.6321  0.6904
 9417SOL    HW239714   4.502   0.070   5.183  1.3744 -1.4015 -0.0380
 9418SOL     OW39715   1.795   2.236   3.311 -0.5500  0.2261  0.3101
 9418SOL    HW139716   1.874   2.206   3.356  0.5243  0.4126 -1.4433
 9418SOL    HW239717   1.809   2.329   3.292 -0.6572 -0.2867 -2.2545
 9419SOL     OW39718   2.661   1.510   1.194  0.0126  0.2917  0.4928
 9419SOL    HW139719   2.686   1.423   1.225  0.1294  0.8924  2.0859
 9419SOL    HW239720   2.643   1.502   1.101 -2.6378 -4.7493  1.4918
 9420SOL     OW39721   1.108   1.371  12.865  0.0022  0.3879  0.3566
 9420SOL    HW139722   1.192   1.329  12.849  1.9674  3.6890  1.9052
 9420SOL    HW239723   1.098   1.366  12.960  2.9158 -0.0822  0.6252
 9421SOL     OW39724   0.418   2.628   6.179  0.9555  0.5464 -0.2269
 9421SOL    HW139725   0.352   2.559   6.181  0.3067  1.1926  0.6205
 9421SOL    HW239726   0.410   2.664   6.267  0.5552 -1.4512  0.5506
 9422SOL     OW39727   2.707   3.954  13.862 -0.1131  0.1869  0.1031
 9422SOL    HW139728   2.776   3.952  13.929  0.6103  0.3136 -0.6452
 9422SOL    HW239729   2.658   3.874  13.882  0.0178  0.8701  3.1341
 9423SOL     OW39730   4.102   3.062   3.259 -0.4248 -0.1107 -0.8743
 9423SOL    HW139731   4.057   2.994   3.309 -0.3097 -0.8242 -1.7314
 9423SOL    HW239732   4.190   3.028   3.276 -0.2462  0.5000 -0.5905
 9424SOL     OW39733   0.713   1.174  16.047 -0.0216 -0.1707  0.3658
 9424SOL    HW139734   0.717   1.196  16.140  1.7049  1.7615 -0.1736
 9424SOL    HW239735   0.622   1.197  16.029 -0.9811 -1.3687  3.6455
 9425SOL     OW39736   2.715   4.255   4.924  0.2353 -0.2907  0.2532
 9425SOL    HW139737   2.676   4.290   5.005 -1.2129 -1.1514 -0.0601
 9425SOL    HW239738   2.801   4.294   4.912  1.2998 -2.6562  0.2480
 9426SOL     OW39739   1.917   4.131  15.093 -0.5954 -0.0263  0.1451
 9426SOL    HW139740   1.873   4.135  15.008 -3.5596  2.5099  1.7669
 9426SOL    HW239741   1.865   4.065  15.139  0.6675  0.0368  1.6478
 9427SOL     OW39742   2.783   2.718   4.777  0.3378  0.3074 -0.2535
 9427SOL    HW139743   2.785   2.803   4.734 -2.1056  0.7965  0.5727
 9427SOL    HW239744   2.854   2.722   4.841 -1.9982 -0.5932  2.4099
 9428SOL     OW39745   3.169   4.059  16.702 -0.7647  0.4354 -0.4555
 9428SOL    HW139746   3.098   3.998  16.723 -3.3361  3.3532 -0.6338
 9428SOL    HW239747   3.118   4.111  16.640 -0.7928 -1.7315 -2.2585
 9429SOL     OW39748   4.637   0.432   7.791 -0.6809  0.3100 -0.8475
 9429SOL    HW139749   4.689   0.355   7.813  1.9387  2.3175 -0.1895
 9429SOL    HW239750   4.553   0.404   7.829 -0.7176  1.6253  0.0449
 9430SOL     OW39751   0.326   3.899   4.028 -0.0724  0.2107  0.2947
 9430SOL    HW139752   0.263   3.936   3.967  0.2862  0.5065  0.1014
 9430SOL    HW239753   0.278   3.825   4.065 -1.3915  1.3132  0.8037
 9431SOL     OW39754   3.951   1.009   3.051 -0.3620  0.4946  0.7564
 9431SOL    HW139755   3.863   0.971   3.046 -0.0469 -0.1439  0.0558
 9431SOL    HW239756   3.974   1.021   2.959 -0.9829 -1.4631  0.3461
 9432SOL     OW39757   0.414   3.135   5.152  0.6510 -0.3479  0.3300
 9432SOL    HW139758   0.438   3.103   5.238  3.5237 -0.4882 -0.5464
 9432SOL    HW239759   0.347   3.068   5.140 -0.3833  0.5450  1.0748
 9433SOL     OW39760   2.278   2.444   6.534 -0.0135 -0.7078  0.2720
 9433SOL    HW139761   2.277   2.539   6.521 -0.3580 -0.8748 -0.8916
 9433SOL    HW239762   2.233   2.422   6.453  0.0906 -2.4867  0.6860
 9434SOL     OW39763   2.900   3.221   6.146  0.3658  0.0478 -0.2956
 9434SOL    HW139764   2.830   3.240   6.208  0.7527  0.0294  0.1456
 9434SOL    HW239765   2.977   3.211   6.202 -0.1846  3.0546  0.9759
 9435SOL     OW39766   3.696   0.219   5.757 -0.2545  0.2842 -0.6336
 9435SOL    HW139767   3.763   0.240   5.822 -2.5950 -0.3376  1.9385
 9435SOL    HW239768   3.655   0.305   5.755  0.8364  0.7661 -2.2920
 9436SOL     OW39769   2.965   4.169  17.669 -0.0959 -0.3777  0.4863
 9436SOL    HW139770   3.016   4.214   0.035  0.6245 -1.7136  0.8325
 9436SOL    HW239771   3.021   4.152  17.594  1.3378  0.5832  1.3285
 9437SOL     OW39772   1.499   1.290   2.235  0.0854  0.2668  0.5961
 9437SOL    HW139773   1.554   1.215   2.256  0.5960  0.5187  0.1314
 9437SOL    HW239774   1.505   1.359   2.302 -1.0120 -0.2124  1.1863
 9438SOL     OW39775   1.169   3.306   9.181 -0.6054 -0.2728 -0.4020
 9438SOL    HW139776   1.171   3.255   9.100  0.5463  0.8336 -1.0677
 9438SOL    HW239777   1.197   3.392   9.150 -0.5556  0.4438  1.6062
 9439SOL     OW39778   2.103   2.331   7.741 -0.3398  0.2276 -0.0590
 9439SOL    HW139779   2.052   2.321   7.661 -0.1057  0.7025 -0.2652
 9439SOL    HW239780   2.174   2.271   7.720 -0.2489 -0.4574  2.1972
 9440SOL     OW39781   4.304   2.170  10.791 -1.0470  0.2138  0.1351
 9440SOL    HW139782   4.232   2.125  10.834 -0.0261 -0.0686  1.5350
 9440SOL    HW239783   4.366   2.098  10.779 -1.5494  0.0370 -1.4724
 9441SOL     OW39784   3.589   2.192   3.869 -0.7373 -0.1800  0.0480
 9441SOL    HW139785   3.618   2.107   3.834 -0.0144  0.3604 -0.6552
 9441SOL    HW239786   3.538   2.162   3.944 -1.2620  0.6681  0.0324
 9442SOL     OW39787   3.288   3.443   6.405 -0.1094 -0.2279 -0.4009
 9442SOL    HW139788   3.226   3.515   6.390 -0.7078 -0.5095  0.7369
 9442SOL    HW239789   3.268   3.422   6.496  0.6236 -0.5742 -0.3264
 9443SOL     OW39790   0.018   4.281  13.343  0.7649 -0.1302  0.2561
 9443SOL    HW139791   4.697   4.356  13.381 -1.8299 -0.9814 -1.1967
 9443SOL    HW239792   0.093   4.330  13.309  0.3494  0.0591 -0.4043
 9444SOL     OW39793   1.983   0.357  11.290  0.4615  0.0669 -0.3858
 9444SOL    HW139794   2.047   0.419  11.254 -0.4544 -0.1179 -2.2900
 9444SOL    HW239795   1.954   0.392  11.374  0.7154 -1.8463  0.4920
 9445SOL     OW39796   2.316   2.850  11.759 -0.2292 -0.3460 -0.0781
 9445SOL    HW139797   2.294   2.837  11.667  2.2306  1.6697 -0.9395
 9445SOL    HW239798   2.353   2.938  11.754 -0.4748 -0.2898 -0.8984
 9446SOL     OW39799   2.250   4.192   7.911  0.1450  0.5803  0.0122
 9446SOL    HW139800   2.177   4.137   7.882  0.9221  0.1151 -1.0775
 9446SOL    HW239801   2.217   4.259   7.970  0.4247  1.2995 -0.6458
 9447SOL     OW39802   1.054   0.868   6.325 -0.6536  0.3799  0.1190
 9447SOL    HW139803   1.019   0.810   6.392 -0.2457 -1.6407 -1.4021
 9447SOL    HW239804   1.048   0.813   6.247 -0.2449  2.0056 -1.0717
 9448SOL     OW39805   3.760   4.310   0.250  0.1750 -0.9594  0.7569
 9448SOL    HW139806   3.705   4.320   0.172 -0.6175 -0.5546  1.3750
 9448SOL    HW239807   3.696   4.269   0.307  0.5119 -2.1691  0.2621
 9449SOL     OW39808   4.710   0.311   7.426 -0.1857  0.1087 -0.5238
 9449SOL    HW139809   0.044   0.322   7.351  1.6882  0.7778  1.0381
 9449SOL    HW239810   4.685   0.400   7.452 -0.2516 -0.2757  0.7197
 9450SOL     OW39811   3.287   1.268   8.909 -0.5207  0.4023  0.1664
 9450SOL    HW139812   3.292   1.339   8.972 -2.0248  0.1598  0.5547
 9450SOL    HW239813   3.210   1.216   8.931  1.0562 -1.9924  0.0787
 9451SOL     OW39814   3.789   1.844  13.625  0.3028  0.2105 -0.0077
 9451SOL    HW139815   3.857   1.779  13.640  0.1067 -0.3770 -1.7222
 9451SOL    HW239816   3.709   1.793  13.616 -0.2763  1.5141 -2.4778
 9452SOL     OW39817   1.554   3.725  17.156 -0.3272  0.0477 -0.4745
 9452SOL    HW139818   1.506   3.642  17.157 -2.3449  1.2345  0.9221
 9452SOL    HW239819   1.591   3.726  17.067 -0.0910  0.0047 -0.3764
 9453SOL     OW39820   4.602   4.063  16.406  0.0151  0.1806 -0.2427
 9453SOL    HW139821   4.696   4.085  16.405  0.2147 -0.6819 -0.5556
 9453SOL    HW239822   4.575   4.126  16.473 -1.1808 -0.3986 -0.1845
 9454SOL     OW39823   2.857   3.064   0.871  0.2786  0.6050 -0.1528
 9454SOL    HW139824   2.827   3.021   0.791 -0.3972  0.8775 -0.0481
 9454SOL    HW239825   2.898   3.147   0.846 -0.7294  0.8411 -1.0430
 9455SOL     OW39826   4.140   1.823   8.505  0.3579  0.1241 -0.2330
 9455SOL    HW139827   4.168   1.784   8.422 -0.7109 -2.3251  0.5634
 9455SOL    HW239828   4.116   1.912   8.480  0.4036  0.0061 -0.6975
 9456SOL     OW39829   2.618   4.210   5.787  0.1174 -0.4061 -0.1468
 9456SOL    HW139830   2.536   4.246   5.751  0.2736  0.1522  0.0480
 9456SOL    HW239831   2.667   4.286   5.818 -0.8354 -0.3081  1.1364
 9457SOL     OW39832   1.794   3.805   4.871  0.2217  0.5110 -0.0846
 9457SOL    HW139833   1.793   3.785   4.965  2.0686  1.8276  0.2121
 9457SOL    HW239834   1.886   3.813   4.846  0.6180 -0.9777  0.9414
 9458SOL     OW39835   2.555   1.024  10.804 -0.4138  0.1727  0.1063
 9458SOL    HW139836   2.528   1.068  10.724 -1.7574 -1.4357 -0.3322
 9458SOL    HW239837   2.650   1.026  10.805 -0.4221 -0.1037  1.4069
 9459SOL     OW39838   0.740   2.923  15.072 -0.4873 -0.0334  1.0080
 9459SOL    HW139839   0.717   2.972  15.151  0.3531  0.7249  0.7872
 9459SOL    HW239840   0.832   2.915  15.096 -0.3359 -0.5571  0.2470
 9460SOL     OW39841   2.112   1.473   5.402 -0.2466 -0.6767 -0.5012
 9460SOL    HW139842   2.042   1.408   5.391 -0.8089  0.1089 -1.6137
 9460SOL    HW239843   2.187   1.417   5.383 -2.0932 -2.8710 -1.3245
 9461SOL     OW39844   4.484   0.411   1.341 -0.0987 -0.6047  0.1591
 9461SOL    HW139845   4.518   0.347   1.403  0.8374  0.7622  1.0462
 9461SOL    HW239846   4.496   0.495   1.385  0.8936 -1.6709  1.9276
 9462SOL     OW39847   1.270   1.746  11.705  0.4103  0.0841 -0.1486
 9462SOL    HW139848   1.358   1.727  11.737  0.2036 -0.4363  0.1099
 9462SOL    HW239849   1.264   1.832  11.746 -0.9115 -0.6315  1.1167
 9463SOL     OW39850   1.054   1.994   7.983  0.8646  0.1629 -0.0804
 9463SOL    HW139851   1.031   2.087   7.987  2.2590  0.5897 -2.0278
 9463SOL    HW239852   1.031   1.986   7.890 -3.3823  0.4677  0.9454
 9464SOL     OW39853   1.468   0.809   5.311 -0.2798  0.3301  0.3197
 9464SOL    HW139854   1.557   0.795   5.278 -0.4367 -0.2465  0.1389
 9464SOL    HW239855   1.456   0.904   5.307 -0.9373  0.1606 -1.8216
 9465SOL     OW39856   4.369   4.195   0.737 -0.2872 -0.5819 -0.4786
 9465SOL    HW139857   4.290   4.209   0.789 -0.1413 -0.1049 -0.3804
 9465SOL    HW239858   4.438   4.186   0.804  0.1446  0.2735 -0.8044
 9466SOL     OW39859   0.995   2.621   1.685  0.4148 -0.7698 -0.3993
 9466SOL    HW139860   0.907   2.656   1.695  0.0199 -1.5756 -1.0894
 9466SOL    HW239861   1.011   2.587   1.773 -0.4261  2.3561  0.9556
 9467SOL     OW39862   2.495   1.754   5.452  0.3246 -0.1676  0.0706
 9467SOL    HW139863   2.534   1.840   5.471  0.9128 -0.3906 -0.1011
 9467SOL    HW239864   2.411   1.765   5.496 -1.5106 -0.0244 -3.5057
 9468SOL     OW39865   3.590   4.072   4.074 -0.2002  0.4696  0.2074
 9468SOL    HW139866   3.541   4.031   4.145  1.7163 -0.6652  0.8740
 9468SOL    HW239867   3.679   4.055   4.103 -1.3524 -0.7890  2.9907
 9469SOL     OW39868   0.927   4.557  16.091  0.2121  0.2005 -0.2380
 9469SOL    HW139869   0.868   4.487  16.118 -2.0032  1.9017 -0.7321
 9469SOL    HW239870   0.968   4.511  16.018  0.5501  0.8142 -0.4344
 9470SOL     OW39871   2.397   4.053   7.197  0.0464  0.8303 -0.0053
 9470SOL    HW139872   2.370   4.057   7.106  1.6246  0.1271 -0.5148
 9470SOL    HW239873   2.472   4.113   7.200 -1.1511  2.1852  2.5362
 9471SOL     OW39874   0.906   3.420   1.499  0.2163  0.0154  0.9124
 9471SOL    HW139875   0.817   3.438   1.529  0.5490  0.4992  1.6171
 9471SOL    HW239876   0.881   3.336   1.462 -1.3358  0.9712 -0.1697
 9472SOL     OW39877   0.651   2.116   0.959  0.0443  0.1537 -0.3941
 9472SOL    HW139878   0.654   2.210   0.976 -1.0075 -0.0450  0.8957
 9472SOL    HW239879   0.601   2.117   0.877 -0.9439  0.7165  0.2059
 9473SOL     OW39880   0.860   2.748   8.238  0.2962 -0.4288 -0.1363
 9473SOL    HW139881   0.839   2.692   8.312 -1.3385 -0.5685 -0.7080
 9473SOL    HW239882   0.953   2.770   8.246  0.7921 -1.9523 -1.6708
 9474SOL     OW39883   3.055   0.204  11.287 -0.2828 -0.2881 -0.1225
 9474SOL    HW139884   3.002   0.190  11.209 -1.4212  0.1886  0.5674
 9474SOL    HW239885   3.080   0.112  11.301 -1.1523 -0.3192  1.2478
 9475SOL     OW39886   0.947   2.288   3.141  0.0033  0.1165 -0.0570
 9475SOL    HW139887   0.875   2.337   3.101 -0.7346 -1.5780 -0.8224
 9475SOL    HW239888   1.002   2.278   3.063  1.4478 -1.1314  1.1439
 9476SOL     OW39889   3.716   4.565   5.311 -0.3753 -0.3437  0.7967
 9476SOL    HW139890   3.729   4.614   5.230  1.1829 -1.8189  0.1573
 9476SOL    HW239891   3.787   4.586   5.372  1.0117  0.6585 -1.1677
 9477SOL     OW39892   1.818   1.361   8.844  0.0081 -0.3412  0.1702
 9477SOL    HW139893   1.862   1.392   8.765  1.7341  1.5414  1.8527
 9477SOL    HW239894   1.872   1.400   8.913  0.2449 -1.5712  0.6872
 9478SOL     OW39895   2.967   1.324  15.350 -0.2018 -0.2798  0.1650
 9478SOL    HW139896   2.911   1.384  15.300 -0.3590 -1.0388 -0.5655
 9478SOL    HW239897   2.899   1.278  15.400 -1.2720  0.8151 -0.2719
 9479SOL     OW39898   3.869   3.699   1.363  0.1902 -0.2287  0.5743
 9479SOL    HW139899   3.802   3.651   1.314  0.2500  0.9845 -0.6849
 9479SOL    HW239900   3.833   3.688   1.452 -0.5472  0.6911  0.3916
 9480SOL     OW39901   0.841   1.268   8.425 -0.5618  0.0034 -0.2501
 9480SOL    HW139902   0.807   1.204   8.488  1.5796 -1.6922 -0.8489
 9480SOL    HW239903   0.926   1.284   8.466 -1.4112 -0.4083  1.7198
 9481SOL     OW39904   1.363   1.322   0.129  0.0285  0.2965 -0.3461
 9481SOL    HW139905   1.329   1.256   0.069  0.1674 -1.1570  1.1684
 9481SOL    HW239906   1.287   1.343   0.183  1.8454 -1.5240  2.9523
 9482SOL     OW39907   1.084   1.944   2.521  0.0363 -0.2891  0.5238
 9482SOL    HW139908   1.032   1.883   2.468  0.0590  1.0509 -1.0767
 9482SOL    HW239909   1.149   1.888   2.562  0.8156  0.2294  0.0140
 9483SOL     OW39910   0.746   1.823   6.253 -0.4344 -0.0985  0.0738
 9483SOL    HW139911   0.742   1.870   6.169  0.8393  1.1848  0.7166
 9483SOL    HW239912   0.789   1.886   6.311 -0.6255  0.3420 -0.2612
 9484SOL     OW39913   1.968   2.558   9.303 -0.2295  0.1592  0.5624
 9484SOL    HW139914   1.901   2.561   9.235  1.4288 -0.8536 -1.1229
 9484SOL    HW239915   1.911   2.584   9.375 -0.2872  0.0861  0.5437
 9485SOL     OW39916   4.038   0.256   8.539  0.2513 -0.1275 -0.3394
 9485SOL    HW139917   4.025   0.340   8.582  1.1033  0.2893 -0.8827
 9485SOL    HW239918   4.008   0.196   8.608 -0.1955  1.1001  0.5189
 9486SOL     OW39919   2.278   3.249   7.923  0.1760  0.4986 -0.0410
 9486SOL    HW139920   2.193   3.283   7.897  0.1567 -0.2087 -0.9039
 9486SOL    HW239921   2.257   3.223   8.012  1.0076 -1.1007 -0.3099
 9487SOL     OW39922   1.135   1.763  11.332  0.0825 -0.0146  0.7420
 9487SOL    HW139923   1.048   1.746  11.296  0.3824 -2.3543  1.0942
 9487SOL    HW239924   1.189   1.699  11.286  0.1693 -0.5120  1.5393
 9488SOL     OW39925   0.784   1.143   3.233  0.1028  0.7817 -0.8319
 9488SOL    HW139926   0.810   1.170   3.321  2.1651 -3.1171 -0.2516
 9488SOL    HW239927   0.865   1.120   3.187  0.0009 -0.8055 -0.2521
 9489SOL     OW39928   0.822   2.374   1.399  0.3777 -0.4675 -0.3113
 9489SOL    HW139929   0.728   2.394   1.392  0.3644  0.2801  2.0036
 9489SOL    HW239930   0.839   2.386   1.492  0.8216  1.1556 -0.5956
 9490SOL     OW39931   1.266   0.404   4.566 -0.1332  0.1761  0.3332
 9490SOL    HW139932   1.296   0.439   4.650  0.6833 -1.2980  0.6503
 9490SOL    HW239933   1.173   0.419   4.551  0.1562 -0.9750 -2.5437
 9491SOL     OW39934   1.674   3.923   7.845  1.1970  0.0152  0.4307
 9491SOL    HW139935   1.701   3.867   7.918  1.5092  1.3158  1.3137
 9491SOL    HW239936   1.674   3.860   7.774  0.8902  0.7681 -0.2336
 9492SOL     OW39937   1.989   2.195   8.831 -0.0542 -0.3627 -0.0528
 9492SOL    HW139938   1.922   2.238   8.885  0.4029  2.3881 -1.6899
 9492SOL    HW239939   1.939   2.164   8.755 -1.6254  0.4147  0.6725
 9493SOL     OW39940   3.576   1.821   6.275  0.2460 -0.0684  0.1952
 9493SOL    HW139941   3.516   1.815   6.200  1.5922  0.2108 -0.9039
 9493SOL    HW239942   3.528   1.772   6.342 -1.0813  1.2626  0.2186
 9494SOL     OW39943   1.023   3.970   2.644 -0.1019  0.0834  0.7300
 9494SOL    HW139944   0.980   3.953   2.727 -0.8885  0.5919  0.4180
 9494SOL    HW239945   1.007   3.884   2.604  2.8346 -1.9278  3.8925
 9495SOL     OW39946   1.121   2.339   1.814 -0.0732 -0.0061  0.3071
 9495SOL    HW139947   1.096   2.407   1.876  1.3026  0.1648  0.6823
 9495SOL    HW239948   1.216   2.338   1.803  0.1006 -1.9428  1.9475
 9496SOL     OW39949   4.635   1.990   9.720  0.5434  0.6349 -0.2019
 9496SOL    HW139950   4.577   2.043   9.665  0.0527  0.5999  0.2738
 9496SOL    HW239951   4.711   1.974   9.665  2.7261  0.9803  2.7030
 9497SOL     OW39952   0.625   1.979  12.118  0.4010 -0.1944 -0.3985
 9497SOL    HW139953   0.581   2.013  12.040 -0.8280 -0.5696  0.1265
 9497SOL    HW239954   0.582   2.021  12.193  1.9025  1.3923 -0.4114
 9498SOL     OW39955   4.027   1.036   3.646  0.0060  0.0661 -0.0471
 9498SOL    HW139956   4.027   1.072   3.557  1.4508 -1.1812 -0.5544
 9498SOL    HW239957   3.933   1.021   3.652  0.0364  0.1397  0.5530
 9499SOL     OW39958   4.225   3.914  17.045 -0.4935  0.0268  0.4070
 9499SOL    HW139959   4.179   3.843  17.000  0.6007  0.4650 -1.3769
 9499SOL    HW239960   4.293   3.862  17.088  0.2031 -0.0441 -0.7719
 9500SOL     OW39961   4.570   0.700  12.382 -0.5709  0.5282  0.3131
 9500SOL    HW139962   4.584   0.697  12.476  0.6519  1.5976  0.1652
 9500SOL    HW239963   4.653   0.658  12.359  0.0720  2.7375 -1.4926
 9501SOL     OW39964   0.156   1.681   6.720  0.9226 -0.5029 -0.4304
 9501SOL    HW139965   0.246   1.698   6.694  0.9442 -2.2672 -1.5096
 9501SOL    HW239966   0.124   1.618   6.655 -1.9045  0.3987  0.0823
 9502SOL     OW39967   3.287   1.103   6.291 -0.0499  1.0752 -0.2020
 9502SOL    HW139968   3.276   1.009   6.308 -4.2222  1.0631 -3.0223
 9502SOL    HW239969   3.276   1.138   6.379 -1.2589  0.3040 -0.0503
 9503SOL     OW39970   1.809   1.181  14.229 -0.2623  0.0936  0.6211
 9503SOL    HW139971   1.824   1.211  14.139 -0.8091 -0.6870  0.2619
 9503SOL    HW239972   1.782   1.257  14.280 -0.0970  2.2940 -2.5591
 9504SOL     OW39973   0.739   3.908   1.677 -0.2315  0.0140 -0.0590
 9504SOL    HW139974   0.788   3.980   1.718  1.0735 -0.6809 -0.3975
 9504SOL    HW239975   0.650   3.929   1.704  0.3899  0.3375  1.7461
 9505SOL     OW39976   3.593   3.559   9.598  0.3926 -0.3003 -0.1850
 9505SOL    HW139977   3.530   3.525   9.661  0.8283  0.8595  0.8816
 9505SOL    HW239978   3.549   3.547   9.514  0.1051 -0.6074  0.0094
 9506SOL     OW39979   0.800   4.166   4.234 -0.2440  0.4723 -0.3105
 9506SOL    HW139980   0.736   4.222   4.278  0.1308  1.4704 -1.0355
 9506SOL    HW239981   0.779   4.178   4.142 -2.4241 -0.0302  0.1157
 9507SOL     OW39982   0.501   2.105  11.429 -0.6327 -0.4782 -0.6091
 9507SOL    HW139983   0.505   2.200  11.417 -2.1379 -0.1081  1.7827
 9507SOL    HW239984   0.467   2.107  11.518 -3.8412  1.2092 -1.8759
 9508SOL     OW39985   1.884   1.614   7.506 -0.0976 -0.2389 -0.0082
 9508SOL    HW139986   1.964   1.609   7.453  0.0769  1.2518  0.1151
 9508SOL    HW239987   1.835   1.537   7.478 -2.4042  1.0073  0.6241
 9509SOL     OW39988   0.655   0.706   1.202 -0.2924  0.4135 -0.3570
 9509SOL    HW139989   0.565   0.714   1.172 -0.3880  1.8403  0.3084
 9509SOL    HW239990   0.688   0.644   1.136 -1.2292  0.0559 -0.4919
 9510SOL     OW39991   0.402   0.312   5.805 -0.0658  0.1241 -0.0176
 9510SOL    HW139992   0.379   0.405   5.807  0.4270  0.2075  2.3055
 9510SOL    HW239993   0.376   0.286   5.717 -2.3261 -0.4128  0.8133
 9511SOL     OW39994   1.095   0.335  14.162 -0.2457  0.0199  0.9925
 9511SOL    HW139995   1.061   0.420  14.188  0.0885  0.1590  0.9756
 9511SOL    HW239996   1.155   0.359  14.091  0.1424  0.9427  1.6373
 9512SOL     OW39997   3.851   2.534   5.425  0.5911 -0.6025 -0.2835
 9512SOL    HW139998   3.825   2.462   5.483 -0.5571  0.5293  0.6155
 9512SOL    HW239999   3.934   2.501   5.390  0.3841 -0.2989 -1.0618
 9513SOL     OW40000   4.401   4.187   6.988  0.2266 -0.3519  0.0928
 9513SOL    HW140001   4.419   4.281   6.976 -0.6444 -0.4465 -1.9494
 9513SOL    HW240002   4.488   4.151   7.005  0.7476  0.7626 -0.2227
 9514SOL     OW40003   2.196   3.832   4.098  0.0922  0.1117  0.4175
 9514SOL    HW140004   2.284   3.830   4.060 -0.5490  0.3689 -1.1019
 9514SOL    HW240005   2.192   3.750   4.147  0.9388 -0.4264 -0.3847
 9515SOL     OW40006   0.315   4.681   0.552 -0.1554 -0.0497 -0.0608
 9515SOL    HW140007   0.382   0.023   0.538  2.0654 -2.0549  0.9764
 9515SOL    HW240008   0.331   4.634   0.470 -1.7639 -0.2159 -0.2900
 9516SOL     OW40009   0.544   2.580  11.457 -0.5908  0.3736  0.4736
 9516SOL    HW140010   0.487   2.527  11.400  0.8506  0.6988 -1.2739
 9516SOL    HW240011   0.485   2.650  11.485 -1.3107  0.6211 -1.6368
 9517SOL     OW40012   3.474   4.506  11.137  0.2595  0.6879  0.6283
 9517SOL    HW140013   3.442   4.470  11.054  1.0085 -0.4036  0.8179
 9517SOL    HW240014   3.387   4.525  11.174  1.1550  0.7414  2.7081
 9518SOL     OW40015   4.663   3.343  15.814  0.2023  0.3456 -0.5767
 9518SOL    HW140016   0.007   3.397  15.777 -0.4556  0.3440 -1.7938
 9518SOL    HW240017   4.632   3.382  15.895  0.4440  1.6497 -1.1161
 9519SOL     OW40018   0.674   1.518   6.442 -0.4628 -0.1933  0.0572
 9519SOL    HW140019   0.724   1.458   6.386 -0.4752 -1.1085  1.0246
 9519SOL    HW240020   0.743   1.554   6.499 -0.4378  2.1173 -1.4368
 9520SOL     OW40021   3.257   4.620  11.233  0.2436 -0.1212 -0.3402
 9520SOL    HW140022   3.169   4.635  11.266 -0.3846 -1.1125 -1.5649
 9520SOL    HW240023   3.303   4.602  11.315  0.0522 -0.8330 -0.3899
 9521SOL     OW40024   0.967   2.318   7.632  0.2737 -0.5359 -0.0605
 9521SOL    HW140025   0.875   2.292   7.635  0.3663 -0.6850  1.9234
 9521SOL    HW240026   0.987   2.272   7.551  2.6692 -0.5747  0.5299
 9522SOL     OW40027   1.744   0.302   0.659 -0.7836  0.3805  0.3739
 9522SOL    HW140028   1.771   0.219   0.697 -0.1158 -0.4482 -1.9280
 9522SOL    HW240029   1.823   0.355   0.670 -1.9482  1.5920  3.1414
 9523SOL     OW40030   2.677   2.780   0.718 -0.5493 -0.0350  0.1240
 9523SOL    HW140031   2.761   2.759   0.760  0.7651 -0.1062 -2.5529
 9523SOL    HW240032   2.704   2.859   0.671 -0.2939  1.6681  3.1390
 9524SOL     OW40033   1.366   4.242   9.130  0.1397 -0.4108  0.0030
 9524SOL    HW140034   1.371   4.177   9.060  1.2408  1.1040 -1.3373
 9524SOL    HW240035   1.392   4.195   9.209  4.3041 -0.2319 -1.2573
 9525SOL     OW40036   0.468   0.582   8.301  0.1242  0.6656 -0.1367
 9525SOL    HW140037   0.516   0.648   8.352 -0.5137  0.8017  0.2861
 9525SOL    HW240038   0.388   0.631   8.285 -0.3423 -0.4567 -1.2502
 9526SOL     OW40039   1.555   0.771   4.545 -0.4784  0.5210  0.3465
 9526SOL    HW140040   1.560   0.688   4.592 -0.7544 -0.7365 -1.8433
 9526SOL    HW240041   1.533   0.733   4.460 -0.5665  0.6078  0.3311
 9527SOL     OW40042   0.507   0.933   7.263  0.2386  0.3461 -0.1529
 9527SOL    HW140043   0.581   0.993   7.272  2.6810 -2.4831 -1.5189
 9527SOL    HW240044   0.554   0.856   7.231  0.8395 -0.2398  2.0917
 9528SOL     OW40045   2.055   4.006   8.289 -0.0365  0.2529  0.4226
 9528SOL    HW140046   2.116   4.076   8.311 -0.3867  0.2902  1.2796
 9528SOL    HW240047   2.106   3.960   8.222  0.3149  0.9350  0.2218
 9529SOL     OW40048   0.978   3.308  14.857 -0.0792 -0.0951  0.0147
 9529SOL    HW140049   0.974   3.217  14.884  1.8295 -0.2804 -0.3204
 9529SOL    HW240050   1.017   3.315  14.770  1.0640 -1.1463  0.4457
 9530SOL     OW40051   1.020   3.067  13.793  0.1560 -0.1212 -0.2116
 9530SOL    HW140052   0.991   3.159  13.790 -1.7464 -0.6627  1.3647
 9530SOL    HW240053   1.114   3.064  13.811 -0.2303  2.6616  2.5205
 9531SOL     OW40054   1.507   1.265  16.859 -0.2579 -0.4193 -0.0716
 9531SOL    HW140055   1.488   1.192  16.918 -0.6708 -0.2342  0.0209
 9531SOL    HW240056   1.587   1.237  16.814 -0.3099  0.7806 -0.9169
 9532SOL     OW40057   3.110   3.627   9.926  0.4576  0.0270  0.4805
 9532SOL    HW140058   3.155   3.606  10.007  0.5451 -0.0965  0.4004
 9532SOL    HW240059   3.154   3.708   9.900  0.5873  0.1646  1.1246
 9533SOL     OW40060   2.841   0.844   3.810  0.2274 -0.2168  0.0835
 9533SOL    HW140061   2.765   0.902   3.802 -0.3305 -0.8632  0.6139
 9533SOL    HW240062   2.851   0.825   3.717  0.2284  0.7836 -0.1181
 9534SOL     OW40063   0.065   0.685   4.131  0.6669 -0.6015  0.0119
 9534SOL    HW140064   0.061   0.757   4.194 -1.6718 -1.1289  0.4719
 9534SOL    HW240065   0.142   0.640   4.166  0.2232 -0.3818  1.2694
 9535SOL     OW40066   3.489   3.698   7.811  0.0825  0.3668 -0.4276
 9535SOL    HW140067   3.412   3.730   7.858 -1.2279 -1.8571 -1.0651
 9535SOL    HW240068   3.473   3.741   7.728  1.2726  0.4698 -0.6125
 9536SOL     OW40069   2.528   0.433   7.963 -0.0429 -0.5458 -0.3374
 9536SOL    HW140070   2.525   0.528   7.974 -0.1644 -0.5348 -0.4635
 9536SOL    HW240071   2.481   0.394   8.036  1.8412  0.0112  1.1635
 9537SOL     OW40072   0.654   4.156  11.006 -0.4047 -0.2338 -0.2593
 9537SOL    HW140073   0.655   4.176  11.099 -0.6777  0.2432 -0.3595
 9537SOL    HW240074   0.584   4.212  10.974  0.4177 -0.1654 -1.9523
 9538SOL     OW40075   3.620   3.987   2.949 -0.0927  0.0533 -0.2686
 9538SOL    HW140076   3.570   4.056   2.992 -1.6545 -1.3402  0.1553
 9538SOL    HW240077   3.704   3.991   2.995  1.4759 -3.8263 -2.8552
 9539SOL     OW40078   4.452   4.328   6.445  0.1098 -0.9982 -0.6834
 9539SOL    HW140079   4.486   4.274   6.517 -0.6846 -0.5274  0.0559
 9539SOL    HW240080   4.530   4.346   6.394 -0.6710  1.2138 -1.1244
 9540SOL     OW40081   4.558   0.751  17.637 -0.2591  0.4098  0.0681
 9540SOL    HW140082   4.476   0.794  17.661  0.3066  2.4837 -1.6516
 9540SOL    HW240083   4.568   0.770  17.543  0.7807  0.9370  0.2858
 9541SOL     OW40084   0.368   4.614   6.399 -0.0832 -0.6531  0.0794
 9541SOL    HW140085   0.429   4.673   6.356 -0.4589 -0.6650 -0.4724
 9541SOL    HW240086   0.364   4.539   6.339  1.0284  1.5072 -2.6951
 9542SOL     OW40087   1.395   4.362  14.290 -0.1920  0.4091  0.0302
 9542SOL    HW140088   1.305   4.396  14.292 -1.4586 -2.9265 -0.1903
 9542SOL    HW240089   1.447   4.442  14.290 -0.1222  0.3616 -0.3912
 9543SOL     OW40090   3.009   0.374  11.535  0.1321  0.8138  0.0694
 9543SOL    HW140091   3.044   0.312  11.600 -1.5913  0.5416  0.7404
 9543SOL    HW240092   2.959   0.433  11.591  3.3313  1.6147  2.1388
 9544SOL     OW40093   2.059   2.758   3.478 -1.1146  0.7286  0.5087
 9544SOL    HW140094   2.152   2.766   3.495 -0.7707  0.5533 -1.3138
 9544SOL    HW240095   2.052   2.682   3.421 -0.3475  1.1588 -0.1620
 9545SOL     OW40096   2.733   3.486   8.155  0.3205 -0.0666  0.2753
 9545SOL    HW140097   2.724   3.560   8.095 -0.0140  0.4074  0.9160
 9545SOL    HW240098   2.647   3.481   8.198 -0.5096 -0.9432 -1.4864
 9546SOL     OW40099   3.570   0.471   7.485  0.4181 -0.2947 -0.7105
 9546SOL    HW140100   3.519   0.547   7.512  0.5955 -1.0536  1.7757
 9546SOL    HW240101   3.534   0.456   7.398 -2.2829  0.6040  0.2632
 9547SOL     OW40102   4.626   1.068   5.752 -0.6007 -0.5392 -0.0453
 9547SOL    HW140103   4.537   1.070   5.717 -0.0573  0.0921 -1.3917
 9547SOL    HW240104   4.632   0.983   5.796  2.5385 -1.4329 -2.2810
 9548SOL     OW40105   4.032   1.582  16.082  0.5100  0.4411 -0.0019
 9548SOL    HW140106   4.051   1.621  15.996 -2.6128 -0.6721 -1.2116
 9548SOL    HW240107   3.944   1.614  16.103 -0.7827 -2.5989 -0.7025
 9549SOL     OW40108   1.958   4.687  10.245  0.3827  0.1335 -0.1428
 9549SOL    HW140109   2.019   4.617  10.222 -1.1036 -2.1634  2.9027
 9549SOL    HW240110   1.965   0.011  10.163  0.3884  0.1813 -0.1136
 9550SOL     OW40111   2.259   0.356   7.752  0.5379 -0.4455 -0.4952
 9550SOL    HW140112   2.296   0.272   7.778 -0.1187 -0.5398  0.1245
 9550SOL    HW240113   2.170   0.322   7.736  0.8311 -1.4808  0.1149
 9551SOL     OW40114   4.017   4.670   2.177  0.1162  0.7636 -0.4274
 9551SOL    HW140115   4.099   4.620   2.184 -0.1505  0.2466 -1.0499
 9551SOL    HW240116   3.964   4.624   2.241  1.3159  0.3605  0.2707
 9552SOL     OW40117   1.775   1.536   0.051 -0.4241  0.3162  0.2406
 9552SOL    HW140118   1.743   1.463   0.104 -0.0122  0.3013  0.4693
 9552SOL    HW240119   1.864   1.507   0.031 -0.0896  1.5085 -0.0228
 9553SOL     OW40120   3.504   0.984  14.938 -0.4233  0.7042 -0.1039
 9553SOL    HW140121   3.495   0.894  14.967 -0.4391  0.9982  0.8029
 9553SOL    HW240122   3.433   1.022  14.990 -1.2560 -1.7636  0.5706
 9554SOL     OW40123   2.009   3.408   5.594  0.3045 -0.0789 -0.1454
 9554SOL    HW140124   1.936   3.347   5.605  0.5950  0.0456  2.5246
 9554SOL    HW240125   1.981   3.481   5.540  1.7310  0.9703  0.5300
 9555SOL     OW40126   3.716   0.109   3.012 -0.0784  0.5535 -0.8259
 9555SOL    HW140127   3.638   0.076   2.967 -1.3292  1.1191  0.9355
 9555SOL    HW240128   3.747   0.030   3.055  0.6117  1.4825  0.3792
 9556SOL     OW40129   0.331   1.170   6.312 -0.5025  0.2212  0.3425
 9556SOL    HW140130   0.268   1.230   6.351 -0.3058 -0.4156  1.6157
 9556SOL    HW240131   0.284   1.129   6.239 -0.5055  0.4195  0.2310
 9557SOL     OW40132   4.433   0.818   5.264 -0.0401 -0.5543 -0.1077
 9557SOL    HW140133   4.454   0.735   5.222  0.6515 -0.8490  0.8202
 9557SOL    HW240134   4.342   0.829   5.238  0.1394  0.2224 -0.4004
 9558SOL     OW40135   4.098   1.500   6.406  0.0108  0.0190 -0.2931
 9558SOL    HW140136   4.084   1.412   6.440 -0.6895  0.2952  0.1442
 9558SOL    HW240137   4.010   1.531   6.380  0.4009  0.4860 -1.0670
 9559SOL     OW40138   1.475   3.238   3.064 -0.1432  0.6860 -0.2177
 9559SOL    HW140139   1.497   3.175   2.996  1.9211 -0.1710  1.2190
 9559SOL    HW240140   1.560   3.223   3.107 -0.8010 -3.3222 -0.2650
 9560SOL     OW40141   1.594   4.631  17.021 -0.0986 -0.1877  0.1326
 9560SOL    HW140142   1.565   4.549  16.982  1.5445 -1.7885  2.2635
 9560SOL    HW240143   1.521   4.686  16.991  0.4879  0.5497  0.0659
 9561SOL     OW40144   3.344   4.487   6.894  0.0473 -0.2500  0.3873
 9561SOL    HW140145   3.418   4.543   6.875  0.3184 -0.6467  0.2754
 9561SOL    HW240146   3.322   4.508   6.985 -1.5293  0.7396 -0.2209
 9562SOL     OW40147   0.146   4.215  13.906 -0.1388 -0.4580 -0.1335
 9562SOL    HW140148   0.205   4.253  13.971 -0.0804 -1.2683  0.2845
 9562SOL    HW240149   0.160   4.121  13.906  1.3475 -0.2243  1.0271
 9563SOL     OW40150   1.086   2.837  16.563 -0.4075  0.0148 -0.0516
 9563SOL    HW140151   1.130   2.757  16.534 -1.6415 -0.4674 -0.6270
 9563SOL    HW240152   1.078   2.822  16.657 -0.5663  0.9707  0.0899
 9564SOL     OW40153   2.228   0.545   1.770  0.2951  0.4620 -0.2055
 9564SOL    HW140154   2.267   0.540   1.683  1.7037 -2.0412  0.5739
 9564SOL    HW240155   2.303   0.522   1.826 -2.2835 -2.8285  1.9132
 9565SOL     OW40156   4.134   3.948   1.925 -0.5896 -0.7603  0.3893
 9565SOL    HW140157   4.138   4.036   1.963  0.7707  0.0063 -1.5473
 9565SOL    HW240158   4.112   3.959   1.832  0.5035  0.0809  0.2190
 9566SOL     OW40159   1.010   2.215   4.161 -0.6556 -0.3528 -0.2577
 9566SOL    HW140160   0.984   2.209   4.252 -0.5531  0.3096 -0.1859
 9566SOL    HW240161   1.104   2.194   4.166 -0.7290 -0.4130  0.8030
 9567SOL     OW40162   2.752   4.133   8.422  0.0787  0.1164  0.3990
 9567SOL    HW140163   2.734   4.227   8.417 -0.4795 -0.0165 -0.0540
 9567SOL    HW240164   2.716   4.119   8.509 -1.1234  1.6687  0.1380
 9568SOL     OW40165   0.125   4.207   7.326 -0.5584 -0.1343  0.1058
 9568SOL    HW140166   0.035   4.209   7.358 -0.6314 -0.3535 -0.0896
 9568SOL    HW240167   0.131   4.127   7.274  2.1570 -1.8480  3.0437
   4.72498   4.72498  17.70131
