Membrane in water
40167
    1TCq1    O1    1   0.577   0.930  11.054 -0.5300 -0.4543 -0.8116
    1TCq1    C1    2   0.595   0.998  11.168  0.0129  0.0884 -0.4880
    1TCq1    O2    3   0.690   1.066  11.201  0.1267  0.1291  0.3516
    1TCq1    C2    4   0.503   0.948  11.269  0.0284  0.6004 -0.4304
    1TCq1    C3    5   0.391   0.881  11.229  0.6603 -0.6442  0.1068
    1TCq1    C4    6   0.307   0.833  11.324 -0.5961 -0.1954 -0.3242
    1TCq1    C5    7   0.336   0.852  11.456 -0.0618  0.1106 -0.6181
    1TCq1    C6    8   0.459   0.910  11.491 -0.7496  0.2421 -0.2248
    1TCq1    C7    9   0.545   0.956  11.399  0.9069  0.3375  0.6786
    1TCq1    C8   10   0.521   0.840  11.598 -0.2358 -0.3304 -0.4572
    1TCq1    O4   11   0.456   0.778  11.685 -0.0448  0.6542  0.2041
    1TCq1    C9   12   0.190   0.763  11.292  0.0127 -0.5786  0.3097
    1TCq1    O5   13   0.160   0.750  11.170  0.0869 -0.2711  0.2805
    1TCq1    O6   14   0.164   0.680  11.377  0.2860  0.1017  0.3200
    1TCq1    H1   15   0.506   0.863  11.061 -0.8779 -0.2524 -2.4824
    1TCq1    H2   16   0.360   0.878  11.125 -1.1514  1.1808  0.5949
    1TCq1    H3   17   0.274   0.815  11.537 -0.3115  1.7941 -0.0336
    1TCq1    H4   18   0.636   1.012  11.415  1.6245 -0.5173 -0.4313
    2MPD2     C   19   0.886   0.482  11.682 -0.1615 -0.5230  0.3680
    2MPD2    C1   20   0.777   0.518  11.748 -0.5309 -0.5579  0.4241
    2MPD2    C2   21   0.693   0.626  11.714 -0.6534 -0.1016  0.8257
    2MPD2    C3   22   0.735   0.709  11.615  0.2384 -0.3822  0.1100
    2MPD2    C4   23   0.857   0.677  11.547  0.1179  0.5891 -0.6129
    2MPD2    C5   24   0.924   0.564  11.578  1.2544 -0.1076  0.1751
    2MPD2     H   25   0.610   0.648  11.780 -2.4034 -0.3128 -1.2875
    2MPD2    H1   26   0.900   0.735  11.466 -1.0018 -1.0692 -2.3845
    2MPD2    H2   27   0.947   0.396  11.707 -0.6724 -0.6760  1.0721
    2MPD2    H3   28   1.015   0.551  11.520  0.0666  1.0944 -1.9539
    2MPD2     N   29   0.658   0.817  11.572  0.0144 -0.3196  0.4293
    2MPD2    H5   30   0.697   0.869  11.494 -0.4982  0.6488  0.8234
    2MPD2    N1   31   0.737   0.446  11.864  0.1415  0.1902 -0.2500
    2MPD2    H7   32   0.654   0.478  11.913  0.3649 -0.8125  0.7896
    3TCq1    O1   33   4.034   0.563  10.423  0.6662  0.0259 -0.1863
    3TCq1    C1   34   4.080   0.568  10.547 -0.5870 -0.3169  0.1810
    3TCq1    O2   35   4.058   0.490  10.635 -0.3911  0.2174 -0.2215
    3TCq1    C2   36   4.122   0.705  10.572 -0.7919 -0.7442  0.5851
    3TCq1    C3   37   4.172   0.788  10.477  0.5174 -0.5692 -0.1559
    3TCq1    C4   38   4.198   0.917  10.507  0.5530 -0.1939  0.5386
    3TCq1    C5   39   4.160   0.959  10.627  0.2551  0.2033  0.3281
    3TCq1    C6   40   4.108   0.878  10.728 -1.0630  0.3853 -0.4712
    3TCq1    C7   41   4.091   0.745  10.701 -0.3264 -0.0982  0.5495
    3TCq1    C8   42   4.094   0.924  10.866 -0.1600 -0.2216 -0.1057
    3TCq1    O4   43   4.056   0.845  10.954  0.2616 -0.0470  0.3487
    3TCq1    C9   44   4.239   1.012  10.410 -0.3700 -0.5047  0.2489
    3TCq1    O5   45   4.226   1.138  10.435  0.2197  0.4060 -0.7672
    3TCq1    O6   46   4.278   0.961  10.303 -0.5787  0.2559  0.0704
    3TCq1    H1   47   4.059   0.644  10.374 -1.5759 -0.2258 -1.7241
    3TCq1    H2   48   4.201   0.761  10.377 -0.2612 -0.0965 -0.5111
    3TCq1    H3   49   4.166   1.064  10.656 -1.6927  0.4461 -0.1952
    3TCq1    H4   50   4.058   0.674  10.776  1.5566  1.0715  2.5135
    4MPD2     C   51   3.958   1.310  11.190  0.0118 -0.6042 -0.2643
    4MPD2    C1   52   4.025   1.359  11.080 -0.1235  0.5864 -0.2432
    4MPD2    C2   53   4.073   1.275  10.980 -0.2589 -0.2405 -0.1111
    4MPD2    C3   54   4.058   1.137  10.989  0.5750  0.8562  0.5518
    4MPD2    C4   55   3.993   1.083  11.101 -0.2116  0.5438 -0.2649
    4MPD2    C5   56   3.945   1.173  11.201  0.7958  0.6382 -0.3583
    4MPD2     H   57   4.115   1.307  10.886 -0.8306  1.5724  0.2348
    4MPD2    H1   58   3.958   0.981  11.100  2.2267 -0.2599 -2.1726
    4MPD2    H2   59   3.914   1.381  11.260  0.3217 -0.2445 -0.4322
    4MPD2    H3   60   3.881   1.147  11.283  1.8291  2.7466  1.1280
    4MPD2     N   61   4.090   1.059  10.871 -1.2705  0.3048  0.1176
    4MPD2    H5   62   4.110   1.103  10.782  0.1573 -0.9234 -0.1668
    4MPD2    N1   63   4.038   1.501  11.059 -1.1115  0.4526 -0.5159
    4MPD2    H7   64   4.063   1.538  10.968 -0.4850  1.7141  0.1624
    5TCq1    O1   65   1.137   3.243  11.885 -0.2092 -0.0201  0.0010
    5TCq1    C1   66   1.042   3.141  11.879  0.5747 -0.2070 -0.3407
    5TCq1    O2   67   1.058   3.041  11.812  0.5079 -0.4550 -0.2259
    5TCq1    C2   68   0.924   3.223  11.862 -0.0400 -0.2759  0.2089
    5TCq1    C3   69   0.890   3.303  11.961 -0.2872  0.5858  0.0889
    5TCq1    C4   70   0.771   3.363  11.953 -0.2565 -0.8197  0.2156
    5TCq1    C5   71   0.688   3.350  11.839 -0.1124 -0.0722 -0.0654
    5TCq1    C6   72   0.733   3.279  11.737 -0.2580 -0.2413 -0.1740
    5TCq1    C7   73   0.857   3.220  11.744  0.3423 -0.2233  0.1129
    5TCq1    C8   74   0.653   3.231  11.622  0.4660  0.5343 -0.2122
    5TCq1    O4   75   0.689   3.136  11.557  0.4867  0.5310  0.3909
    5TCq1    C9   76   0.735   3.451  12.069 -0.0124 -0.0952 -0.3423
    5TCq1    O5   77   0.637   3.530  12.050  0.2986  0.1610 -0.5259
    5TCq1    O6   78   0.829   3.467  12.156 -0.1736  0.4013 -0.3242
    5TCq1    H1   79   1.109   3.323  11.934 -1.5385  0.6942 -1.9168
    5TCq1    H2   80   0.945   3.299  12.054  0.5000  0.1327 -0.4042
    5TCq1    H3   81   0.597   3.407  11.846 -1.1115 -1.7187  0.4283
    5TCq1    H4   82   0.896   3.153  11.668 -0.8553  0.4327 -1.0876
    6MPD2     C   83   0.310   3.360  11.546  0.0295  0.0297  0.1478
    6MPD2    C1   84   0.413   3.268  11.550 -0.0805  0.1452  0.2451
    6MPD2    C2   85   0.391   3.139  11.497  0.3471 -1.0430  0.2645
    6MPD2    C3   86   0.267   3.110  11.451  0.1454 -0.3325 -0.0768
    6MPD2    C4   87   0.165   3.203  11.442 -0.2644 -0.3899 -0.1286
    6MPD2    C5   88   0.193   3.330  11.482  0.0082 -0.1270 -0.2864
    6MPD2     H   89   0.462   3.058  11.504 -0.5228 -1.6699  1.8288
    6MPD2    H1   90   0.065   3.179  11.408 -0.5771 -1.7845  1.7505
    6MPD2    H2   91   0.319   3.465  11.574 -0.5377 -0.1639  1.0910
    6MPD2    H3   92   0.119   3.408  11.469 -1.1923 -1.1508  0.4746
    6MPD2     N   93   0.239   2.976  11.421 -0.3389  0.1806 -0.2243
    6MPD2    H5   94   0.323   2.919  11.424  0.8295  1.8467 -1.2499
    6MPD2    N1   95   0.538   3.305  11.606  0.0605  0.3865 -0.0010
    6MPD2    H7   96   0.540   3.393  11.657 -0.8374  0.2619  0.2555
    7TCq1    O1   97   3.231   2.867  13.651  0.6596 -0.4721 -0.1913
    7TCq1    C1   98   3.235   2.825  13.521 -0.8802  0.0563 -0.1821
    7TCq1    O2   99   3.335   2.803  13.454  0.2041  0.0939  0.0822
    7TCq1    C2  100   3.099   2.782  13.497  0.0882  1.1241  0.0812
    7TCq1    C3  101   3.036   2.848  13.396  0.1497 -1.2162 -0.1954
    7TCq1    C4  102   2.910   2.805  13.356  0.4433  1.0486  0.0927
    7TCq1    C5  103   2.852   2.699  13.418 -0.6281 -0.7031  1.3197
    7TCq1    C6  104   2.919   2.637  13.517 -0.1962  0.0476  0.1372
    7TCq1    C7  105   3.038   2.681  13.565  0.0148  0.3777 -0.4484
    7TCq1    C8  106   2.879   2.500  13.539  0.4401  0.4408 -0.4803
    7TCq1    O4  107   2.760   2.480  13.522  0.4686 -0.3038  1.1088
    7TCq1    C9  108   2.856   2.861  13.235 -0.7459  0.3140  0.1143
    7TCq1    O5  109   2.933   2.949  13.184  0.2676 -0.2158 -0.7281
    7TCq1    O6  110   2.749   2.813  13.197  0.1975  0.1624 -0.6206
    7TCq1    H1  111   3.137   2.883  13.674  1.4129  3.3684  0.0867
    7TCq1    H2  112   3.092   2.925  13.344 -1.6437  0.2840  0.0725
    7TCq1    H3  113   2.755   2.668  13.381  0.3424  0.5621 -2.3845
    7TCq1    H4  114   3.102   2.633  13.638 -1.4657 -0.2932  0.3874
    8MPD2     C  115   2.928   1.981  13.569 -0.3618  1.0559 -0.4153
    8MPD2    C1  116   2.823   2.064  13.555 -0.4193  0.5110  0.5128
    8MPD2    C2  117   2.834   2.203  13.560  0.1577  0.4490  0.2681
    8MPD2    C3  118   2.957   2.261  13.571 -0.0108 -0.0165 -0.9579
    8MPD2    C4  119   3.071   2.177  13.595  0.2229 -0.4389 -0.3870
    8MPD2    C5  120   3.056   2.038  13.589  0.0010 -0.1266  0.2333
    8MPD2     H  121   2.747   2.265  13.541  0.1937 -0.1733 -1.9098
    8MPD2    H1  122   3.175   2.209  13.602 -0.0191  0.6116 -1.4780
    8MPD2    H2  123   2.915   1.875  13.553  2.2546  0.6626  0.0246
    8MPD2    H3  124   3.141   1.975  13.612  0.0960  0.0210  0.2873
    8MPD2     N  125   2.980   2.401  13.561  0.0352 -0.0548 -0.7347
    8MPD2    H5  126   3.073   2.437  13.580 -0.7670  1.2715  0.7127
    8MPD2    N1  127   2.698   2.004  13.547  0.4399  0.6017 -0.1755
    8MPD2    H7  128   2.696   1.903  13.538 -1.7154  0.7858 -1.9656
    9TCq1    O1  129   4.350   1.211  10.756 -0.0490 -0.4081  0.0744
    9TCq1    C1  130   4.449   1.139  10.811 -0.0098  0.2605  0.4087
    9TCq1    O2  131   4.457   1.111  10.932  0.0162 -0.3416  0.1121
    9TCq1    C2  132   4.572   1.146  10.729  0.9694  0.1530 -0.3278
    9TCq1    C3  133   4.567   1.140  10.594  0.1899 -0.0753  0.5679
    9TCq1    C4  134   4.674   1.192  10.522 -0.0134 -0.4522 -0.3531
    9TCq1    C5  135   0.065   1.239  10.592  0.5138 -0.5424  0.4406
    9TCq1    C6  136   0.065   1.232  10.729 -0.3992  0.1625 -0.8171
    9TCq1    C7  137   4.678   1.185  10.799 -0.3664 -0.4433 -0.2215
    9TCq1    C8  138   0.194   1.267  10.788 -0.3352 -0.5034 -0.3139
    9TCq1    O4  139   0.288   1.268  10.712 -0.7054  0.4065  0.2836
    9TCq1    C9  140   4.659   1.197  10.374 -0.2932  0.6555  0.1869
    9TCq1    O5  141   0.023   1.259  10.305 -0.5124  0.4008 -0.1618
    9TCq1    O6  142   4.550   1.151  10.325  0.1535 -0.0849  0.3930
    9TCq1    H1  143   4.383   1.255  10.675 -0.2001 -0.3267  0.0559
    9TCq1    H2  144   4.485   1.104  10.533  1.4497 -0.7365 -0.7326
    9TCq1    H3  145   0.142   1.291  10.535  0.2389  1.3600  1.8320
    9TCq1    H4  146   4.665   1.212  10.903  3.1206  0.8563 -0.1421
   10MPD2     C  147   0.395   1.366  10.996 -0.2297  0.0009 -0.2457
   10MPD2    C1  148   0.286   1.289  11.029 -0.0857 -0.5024 -1.1601
   10MPD2    C2  149   0.264   1.244  11.156  0.2289  0.4167  0.3501
   10MPD2    C3  150   0.351   1.277  11.259  0.5921 -0.2996 -0.2294
   10MPD2    C4  151   0.465   1.343  11.224 -0.5007  1.0646 -0.2423
   10MPD2    C5  152   0.481   1.391  11.097  0.3974 -0.0137  0.1159
   10MPD2     H  153   0.171   1.190  11.173  1.4112 -2.0117 -0.8931
   10MPD2    H1  154   0.534   1.362  11.305 -1.1158  0.3263  0.4425
   10MPD2    H2  155   0.408   1.411  10.898 -1.6175 -0.5373 -0.6727
   10MPD2    H3  156   0.562   1.456  11.066  0.3811  0.0648  0.2393
   10MPD2     N  157   0.334   1.235  11.396  0.0282 -0.2412  0.4435
   10MPD2    H5  158   0.413   1.260  11.455 -1.7519 -1.5760  3.3513
   10MPD2    N1  159   0.190   1.256  10.928 -0.5732  0.0275  0.2879
   10MPD2    H7  160   0.103   1.215  10.962 -0.6834 -0.2269 -0.3060
   11TCq1    O1  161   2.018   0.947  14.020 -0.1422  0.5858 -0.5988
   11TCq1    C1  162   2.016   1.077  13.985  0.4914 -0.2426  0.0403
   11TCq1    O2  163   2.036   1.112  13.869 -0.1547  0.0016  0.3670
   11TCq1    C2  164   1.913   1.130  14.072  0.2907  0.5390 -0.3974
   11TCq1    C3  165   1.929   1.113  14.203  0.0420 -0.0446 -0.2931
   11TCq1    C4  166   1.817   1.096  14.282 -0.1795 -0.6483 -0.4385
   11TCq1    C5  167   1.688   1.099  14.241 -0.9392 -1.1194 -0.2389
   11TCq1    C6  168   1.682   1.111  14.102 -0.2865 -0.5361  0.0930
   11TCq1    C7  169   1.783   1.133  14.023 -0.5882 -0.3947  0.0920
   11TCq1    C8  170   1.548   1.111  14.040  0.8283 -0.6661 -0.4401
   11TCq1    O4  171   1.536   1.189  13.948  0.3821  0.6620 -0.2687
   11TCq1    C9  172   1.841   1.100  14.422 -0.0411 -1.5522 -0.5445
   11TCq1    O5  173   1.960   1.088  14.465  0.3533 -0.2948 -0.1695
   11TCq1    O6  174   1.745   1.133  14.500 -0.3173 -0.8618 -0.1555
   11TCq1    H1  175   1.984   0.937  14.112  2.2244  2.4734  0.4989
   11TCq1    H2  176   2.028   1.104  14.247 -0.5289  0.8049  1.1711
   11TCq1    H3  177   1.599   1.102  14.302  0.0324  0.9937  1.0979
   11TCq1    H4  178   1.772   1.145  13.916 -1.0062  1.1145  0.3135
   12MPD2     C  179   1.259   1.126  14.006 -0.2152  0.1815  0.2733
   12MPD2    C1  180   1.315   1.040  14.092  0.1351 -0.1523 -0.1606
   12MPD2    C2  181   1.240   0.938  14.157 -0.8801 -0.4941 -0.0248
   12MPD2    C3  182   1.106   0.928  14.136  0.5736 -0.4949  0.4832
   12MPD2    C4  183   1.040   1.022  14.059 -0.6357 -0.1618 -0.3292
   12MPD2    C5  184   1.121   1.107  13.984 -0.0864  0.0093  0.7538
   12MPD2     H  185   1.299   0.865  14.211  1.9798 -0.5773 -3.2450
   12MPD2    H1  186   0.934   1.045  14.055 -0.7724 -0.6127  0.6087
   12MPD2    H2  187   1.311   1.203  13.950 -1.3945  0.2102 -0.7772
   12MPD2    H3  188   1.073   1.181  13.921 -0.8388 -1.0081  0.1420
   12MPD2     N  189   1.030   0.834  14.212  0.3372 -0.8597  0.0948
   12MPD2    H5  190   1.080   0.756  14.255  1.8138 -0.0495 -0.1398
   12MPD2    N1  191   1.459   1.041  14.110  0.0805  0.6938  0.0251
   12MPD2    H7  192   1.495   0.988  14.189 -0.1872  2.7230  1.5161
   13TCq1    O1  193   0.514   1.133  10.782  0.1143  0.1826  0.3157
   13TCq1    C1  194   0.546   1.065  10.676 -0.4790 -1.5564 -0.3213
   13TCq1    O2  195   0.648   0.999  10.664  0.0003 -0.6464 -0.0269
   13TCq1    C2  196   0.421   1.004  10.634  0.0375  0.6726  0.1649
   13TCq1    C3  197   0.420   0.987  10.499  0.1853 -0.0099 -0.4727
   13TCq1    C4  198   0.315   0.920  10.441  0.4339  0.1077 -0.2389
   13TCq1    C5  199   0.208   0.888  10.522 -0.9573  0.4889 -0.0778
   13TCq1    C6  200   0.215   0.897  10.660 -0.7473  0.5428 -0.1469
   13TCq1    C7  201   0.327   0.958  10.721 -0.0094 -0.4047 -0.6578
   13TCq1    C8  202   0.106   0.861  10.739  0.2770  0.4376 -0.2378
   13TCq1    O4  203   0.121   0.887  10.856  0.4361 -0.2409 -0.0850
   13TCq1    C9  204   0.309   0.901  10.300  0.2630  0.3558 -0.2986
   13TCq1    O5  205   0.416   0.919  10.229  0.1752  0.7203 -0.3275
   13TCq1    O6  206   0.192   0.881  10.260  0.3432  0.7045  0.2089
   13TCq1    H1  207   0.423   1.169  10.772 -0.1491 -0.5227  0.1365
   13TCq1    H2  208   0.500   1.021  10.434 -1.5423  0.3593 -2.4550
   13TCq1    H3  209   0.113   0.855  10.480 -0.4042 -1.2071  0.0194
   13TCq1    H4  210   0.342   0.967  10.828 -1.5065  1.6552 -0.6258
   14MPD2     C  211   4.549   0.634  10.690  0.3997 -0.2993 -0.0220
   14MPD2    C1  212   4.619   0.731  10.748  0.4514 -0.0989  0.3489
   14MPD2    C2  213   4.569   0.783  10.865  0.4881  0.2281  0.0712
   14MPD2    C3  214   4.451   0.748  10.929 -0.1331  0.2954 -0.2650
   14MPD2    C4  215   4.377   0.654  10.849 -0.5253  0.0642  0.9304
   14MPD2    C5  216   4.427   0.594  10.738  0.0155  0.1839  0.2818
   14MPD2     H  217   4.620   0.866  10.913  0.0898  0.1313  0.6583
   14MPD2    H1  218   4.276   0.637  10.884 -1.1709  0.1117 -0.9460
   14MPD2    H2  219   4.601   0.588  10.607  1.7651  0.4620  0.4003
   14MPD2    H3  220   4.369   0.514  10.693 -0.1650  1.1451 -1.2058
   14MPD2     N  221   4.411   0.809  11.050 -0.3270 -0.5822 -0.2380
   14MPD2    H5  222   4.468   0.889  11.077  0.5391 -0.9853 -0.8690
   14MPD2    N1  223   0.017   0.771  10.686  0.2423 -0.3152  0.2976
   14MPD2    H7  224   0.045   0.728  10.599 -1.7527 -0.2838 -0.3562
   15TCq1    O1  225   1.538   0.127   2.732  0.0341 -0.2244  0.5104
   15TCq1    C1  226   1.674   0.132   2.714  0.0937  0.2013 -0.2488
   15TCq1    O2  227   1.741   0.029   2.715  0.2164  0.9128  0.3226
   15TCq1    C2  228   1.685   0.233   2.615 -0.1822  0.2330 -0.6403
   15TCq1    C3  229   1.675   0.368   2.637  0.1133  0.5005  0.2648
   15TCq1    C4  230   1.695   0.451   2.531 -0.2111 -0.2173  0.3561
   15TCq1    C5  231   1.702   0.404   2.400  0.0541 -0.0364  0.0743
   15TCq1    C6  232   1.699   0.269   2.381 -0.0962  0.1401 -0.6274
   15TCq1    C7  233   1.709   0.182   2.489  0.4438 -0.9770 -0.2396
   15TCq1    C8  234   1.731   0.216   2.253 -0.2134  0.5067  0.1587
   15TCq1    O4  235   1.788   0.106   2.241 -0.1472 -0.2029  0.1688
   15TCq1    C9  236   1.697   0.595   2.546 -0.3001 -0.0046  0.1736
   15TCq1    O5  237   1.698   0.666   2.444  0.1900 -0.1131  0.3340
   15TCq1    O6  238   1.672   0.647   2.658 -0.1616 -0.4876  0.2275
   15TCq1    H1  239   1.485   0.205   2.707  1.0431 -0.0566 -1.1696
   15TCq1    H2  240   1.661   0.398   2.740  0.5587 -1.3203  0.8667
   15TCq1    H3  241   1.713   0.463   2.310 -0.2932 -0.2883 -0.1350
   15TCq1    H4  242   1.725   0.076   2.476 -0.6197 -1.3912  1.9778
   16MPD2     C  243   1.590   0.351   1.937 -0.4658  0.1494 -0.3591
   16MPD2    C1  244   1.648   0.258   2.022  0.5373 -0.3715  0.0336
   16MPD2    C2  245   1.698   0.146   1.973 -1.1638 -0.3616 -0.6782
   16MPD2    C3  246   1.698   0.122   1.840  0.1522 -0.2891 -0.1945
   16MPD2    C4  247   1.642   0.214   1.755  0.0233  0.7086 -0.0504
   16MPD2    C5  248   1.586   0.329   1.803 -0.1557 -0.0895  0.7745
   16MPD2     H  249   1.730   0.065   2.037  0.6137 -0.3877 -1.5991
   16MPD2    H1  250   1.657   0.193   1.649 -4.8142 -0.5940 -0.4893
   16MPD2    H2  251   1.565   0.453   1.964  0.0705 -0.2298  1.5537
   16MPD2    H3  252   1.549   0.391   1.722  0.6005 -0.6359  0.0139
   16MPD2     N  253   1.755   0.002   1.790  0.1869  0.1197  0.1296
   16MPD2    H5  254   1.800   4.670   1.863  1.5202  3.0368  1.4904
   16MPD2    N1  255   1.663   0.286   2.156 -0.6101 -0.3216  0.4563
   16MPD2    H7  256   1.623   0.373   2.191 -0.7073  0.0279 -0.5315
   17TCq1    O1  257   4.357   0.152  11.027  0.7194 -0.1020 -0.5398
   17TCq1    C1  258   4.376   0.249  11.114 -0.1714 -0.2318 -0.1822
   17TCq1    O2  259   4.324   0.245  11.225  0.0970  0.3760  0.5619
   17TCq1    C2  260   4.502   0.313  11.082  0.0741  0.3274  0.0527
   17TCq1    C3  261   4.589   0.328  11.185  0.4719 -0.0496 -0.1749
   17TCq1    C4  262   4.718   0.361  11.155 -0.4061  0.4030  0.1351
   17TCq1    C5  263   0.034   0.366  11.026 -0.2492  0.1134 -0.0640
   17TCq1    C6  264   4.672   0.344  10.927  0.3158 -0.2317  0.0810
   17TCq1    C7  265   4.539   0.322  10.949 -0.1569  0.3782 -0.1404
   17TCq1    C8  266   4.705   0.341  10.789  0.1053 -0.6642 -0.4049
   17TCq1    O4  267   4.629   0.280  10.715 -0.1336  0.4443 -0.3000
   17TCq1    C9  268   0.094   0.378  11.255  0.1402 -0.2834 -0.3086
   17TCq1    O5  269   0.212   0.365  11.217 -0.3541 -0.4250 -0.6367
   17TCq1    O6  270   0.062   0.390  11.375 -0.3107 -0.1899  0.2411
   17TCq1    H1  271   4.431   0.148  10.963 -0.0428  1.5854 -1.5206
   17TCq1    H2  272   4.555   0.321  11.288  0.4843 -0.9665 -0.2373
   17TCq1    H3  273   0.138   0.374  10.998  0.0183 -0.4662  0.7502
   17TCq1    H4  274   4.473   0.339  10.865  0.2550  1.8343 -0.1680
   18MPD2     C  275   0.076   0.428  10.524 -0.2896 -0.4313  0.4152
   18MPD2    C1  276   0.149   0.452  10.643  0.6210  0.8742 -0.3629
   18MPD2    C2  277   0.267   0.518  10.638 -0.4137 -0.2680 -0.1901
   18MPD2    C3  278   0.321   0.558  10.513  0.7612 -0.3009  0.2380
   18MPD2    C4  279   0.249   0.523  10.397  0.2879 -0.3488  0.2714
   18MPD2    C5  280   0.123   0.470  10.402  0.6123  0.0203 -0.0550
   18MPD2     H  281   0.310   0.550  10.732  0.9324  1.1758 -1.3044
   18MPD2    H1  282   0.286   0.550  10.299  0.8379  1.2934  0.9429
   18MPD2    H2  283   4.702   0.379  10.517 -0.3739 -0.2866  0.5494
   18MPD2    H3  284   0.070   0.441  10.313  0.7764  1.0638 -0.4973
   18MPD2     N  285   0.444   0.622  10.489 -0.3342 -0.5342  0.2645
   18MPD2    H5  286   0.484   0.616  10.395  0.3462 -0.5735  0.5564
   18MPD2    N1  287   0.095   0.423  10.763 -0.1967  0.0054  0.5673
   18MPD2    H7  288   0.146   0.458  10.844 -0.6648  0.1317  0.8074
   19TMC2    C1  289   2.264   0.713  13.973  0.2787  0.3254 -0.0970
   19TMC2    C2  290   2.275   0.778  13.858  0.0487 -0.1319 -0.2052
   19TMC2    C3  291   2.206   0.737  13.748 -0.4640  0.2876 -0.3003
   19TMC2    C4  292   2.166   0.615  13.989  0.0174 -0.0940  0.1850
   19TMC2    C5  293   2.091   0.585  13.878  0.3584  0.1571 -0.3587
   19TMC2    C6  294   2.108   0.642  13.751  0.1542 -0.2077 -0.0377
   19TMC2     C  295   2.367   0.727  14.072  0.0907 -0.4742  0.0174
   19TMC2     O  296   2.471   0.783  14.038  0.6100  0.5537  0.3387
   19TMC2     H  297   2.343   0.862  13.853  0.0209 -0.2040 -2.0068
   19TMC2    H1  298   2.152   0.555  14.078 -3.4637  1.6683  0.8310
   19TMC2    H2  299   2.070   0.600  13.658 -0.2092 -0.6429  0.3046
   19TMC2    C7  300   1.972   0.510  13.906 -0.4399  0.1044  0.8544
   19TMC2    C8  301   2.221   0.822  13.636 -0.5596  0.9089 -0.1068
   19TMC2    O1  302   1.975   0.465  14.019  0.1950  0.2738  0.0114
   19TMC2    O2  303   2.308   0.909  13.637  0.4800  0.0694 -0.4043
   19TMC2    O5  304   2.094   0.841  13.592 -0.2518 -0.1758 -0.2764
   19TMC2    H5  305   2.040   0.759  13.603  0.3337 -0.5530 -0.2271
   20MPD2     C  306   2.510   0.778  14.318 -0.2730 -0.2201 -0.6482
   20MPD2    C1  307   2.395   0.702  14.309  0.9548 -0.2602  0.5829
   20MPD2    C2  308   2.349   0.650  14.426 -0.5421 -0.1128 -1.3792
   20MPD2    C3  309   2.414   0.662  14.546  0.0171  0.4629  0.0707
   20MPD2    C4  310   2.529   0.739  14.546  0.0060  0.5427 -0.1087
   20MPD2    C5  311   2.577   0.806  14.435  0.2274  0.2684 -0.3533
   20MPD2     H  312   2.254   0.599  14.414 -2.2565  2.6931  0.3218
   20MPD2    H1  313   2.596   0.752  14.631  0.2166 -2.0742  0.1239
   20MPD2    H2  314   2.547   0.835  14.233  0.5465 -0.3631 -0.3820
   20MPD2    H3  315   2.665   0.869  14.433 -0.3461  1.1052  1.1095
   20MPD2     N  316   2.369   0.598  14.661 -0.3687 -0.2684  0.1580
   20MPD2    H5  317   2.416   0.618  14.749  0.4059 -0.8897 -0.1122
   20MPD2    N1  318   2.325   0.677  14.196  0.3584  0.3868 -0.0830
   20MPD2    H7  319   2.235   0.632  14.201  0.1520  1.0770  2.1312
   21MPD2     C  320   4.625   0.966  14.699 -0.3156  0.1463 -0.6599
   21MPD2    C1  321   4.520   0.978  14.794  0.0480 -0.4489  0.6784
   21MPD2    C2  322   4.432   1.086  14.790 -0.1121  0.1907 -0.4565
   21MPD2    C3  323   4.453   1.194  14.708  0.1244 -0.6627  0.5217
   21MPD2    C4  324   4.557   1.183  14.624  0.1080  0.4822  0.3106
   21MPD2    C5  325   4.643   1.078  14.615  0.4348  0.3961  0.2470
   21MPD2     H  326   4.350   1.074  14.859  1.8973 -0.4733  1.8202
   21MPD2    H1  327   4.561   1.268  14.556 -1.0306  0.5528  0.3231
   21MPD2    H2  328   4.703   0.890  14.697 -1.2136 -0.7290 -2.4580
   21MPD2    H3  329   0.003   1.078  14.543  0.3639 -1.0960  0.1598
   21MPD2     N  330   4.374   1.309  14.715  0.0251 -0.1386 -0.1313
   21MPD2    H5  331   4.408   1.391  14.664  1.2967  0.4718  1.6726
   21MPD2    N1  332   4.489   0.865  14.875  0.4515 -0.0968  0.1052
   21MPD2    H7  333   4.413   0.894  14.936  0.5358 -0.7660  0.5244
   22TCq2    C1  334   4.271   1.335  14.799 -0.2113  0.3105  0.2384
   22TCq2    O2  335   4.211   1.271  14.882 -0.1060 -0.7737 -0.5771
   22TCq2    C2  336   4.224   1.475  14.777  0.2017 -0.3121 -0.2497
   22TCq2    C3  337   4.124   1.511  14.863 -0.2916 -0.4881  1.3075
   22TCq2    C4  338   4.055   1.627  14.838  0.0895 -0.3732 -0.5507
   22TCq2    C5  339   4.077   1.698  14.727  0.3545  0.4964 -0.4454
   22TCq2    C6  340   4.164   1.651  14.633  0.1814  0.5182 -0.6347
   22TCq2    C7  341   4.242   1.537  14.660 -0.1130  0.4139  0.6977
   22TCq2    C8  342   4.152   1.700  14.498 -0.1261 -0.2403 -0.2004
   22TCq2    O4  343   4.256   1.693  14.432 -0.3585  0.0718 -0.7496
   22TCq2    C9  344   3.970   1.696  14.937 -0.0308 -0.2571  0.0719
   22TCq2    O5  345   3.913   1.806  14.910  0.5276 -0.3019 -0.1952
   22TCq2    O6  346   3.944   1.641  15.052  0.5436  0.2986  0.0580
   22TCq2    H2  347   4.102   1.473  14.962 -1.7103  0.9092  1.5174
   22TCq2    H3  348   4.026   1.793  14.714 -0.5731 -0.1801 -1.7453
   22TCq2    H4  349   4.314   1.499  14.589 -0.4013  1.8290 -0.3400
   23MPD2     C  350   1.292   1.778  14.910  0.5636 -0.0776  0.2383
   23MPD2    C1  351   1.167   1.755  14.959 -0.3566  0.2126 -0.1993
   23MPD2    C2  352   1.066   1.834  14.907 -0.3266  0.0478  0.3702
   23MPD2    C3  353   1.083   1.933  14.810  0.3939  0.4955  0.8487
   23MPD2    C4  354   1.210   1.959  14.774  0.1381 -0.0060 -0.5410
   23MPD2    C5  355   1.313   1.880  14.813  0.3306 -0.0378  0.3426
   23MPD2     H  356   0.966   1.820  14.946 -0.6544  0.8836 -0.1795
   23MPD2    H1  357   1.231   2.040  14.704 -2.2621 -1.2016 -2.6296
   23MPD2    H2  358   1.374   1.708  14.922  1.2543  0.3230 -2.1431
   23MPD2    H3  359   1.408   1.889  14.761  0.4695  1.2021  0.8154
   23MPD2     N  360   0.975   2.019  14.769  0.2262  0.0116 -0.2521
   23MPD2    H5  361   1.003   2.088  14.700  0.2439  1.8880  1.5959
   23MPD2    N1  362   1.142   1.639  15.041 -0.0146  0.0724 -0.4375
   23MPD2    H7  363   1.044   1.621  15.060 -0.1300 -0.3742 -1.4797
   24TCq2    C1  364   0.835   2.015  14.809  0.0167  0.2873  0.7902
   24TCq2    O2  365   0.785   1.966  14.908  0.0629 -0.5879  0.6129
   24TCq2    C2  366   0.753   2.100  14.723  1.0190  0.3427  0.9264
   24TCq2    C3  367   0.815   2.166  14.618  0.4614  0.4902  0.3109
   24TCq2    C4  368   0.733   2.195  14.509  0.2902 -0.9347 -0.4760
   24TCq2    C5  369   0.601   2.170  14.503 -0.2012  0.0797  0.6365
   24TCq2    C6  370   0.548   2.102  14.607  0.3573 -0.2802 -0.8537
   24TCq2    C7  371   0.625   2.060  14.719  0.8577 -0.1166 -0.6657
   24TCq2    C8  372   0.426   2.025  14.600  0.8158 -0.7204  0.7289
   24TCq2    O4  373   0.431   1.908  14.624 -0.3381 -0.1212  0.0356
   24TCq2    C9  374   0.786   2.246  14.388  0.0383  0.7253  0.2407
   24TCq2    O5  375   0.898   2.301  14.399  0.0225 -0.3326 -0.6659
   24TCq2    O6  376   0.714   2.243  14.289  0.3587 -0.5331 -0.0381
   24TCq2    H2  377   0.918   2.199  14.622 -0.1144  2.0817  2.1047
   24TCq2    H3  378   0.555   2.181  14.406 -1.5066  0.4994  1.2993
   24TCq2    H4  379   0.585   2.012  14.808  0.2885  1.2390 -0.1926
   25TMC2    C1  380   4.533   4.524  11.833  0.0977  0.4069  0.3648
   25TMC2    C2  381   4.604   4.642  11.833  0.1754  0.4865  0.2108
   25TMC2    C3  382   4.650   4.694  11.953 -0.3675 -0.9074 -1.0654
   25TMC2    C4  383   4.506   4.457  11.952  0.1108 -0.5255  0.1665
   25TMC2    C5  384   4.561   4.508  12.065 -0.6515 -0.0738  0.7929
   25TMC2    C6  385   4.631   4.626  12.065 -0.3492  0.1549  0.8385
   25TMC2     C  386   4.495   4.472  11.703 -0.9796 -0.5565  0.1406
   25TMC2     O  387   4.497   4.558  11.616  0.0231  0.3851  0.5876
   25TMC2     H  388   4.605   4.697  11.740 -0.6745  0.0207 -0.0703
   25TMC2    H1  389   4.450   4.364  11.957 -0.0516 -0.3589  1.5169
   25TMC2    H2  390   4.688   4.662  12.150  2.5298  0.9840 -1.4310
   25TMC2    C7  391   4.532   4.456  12.198  0.0250  0.0467  0.5686
   25TMC2    C8  392   0.016   0.087  11.962  0.1594 -0.0719 -0.1862
   25TMC2    O1  393   4.614   4.476  12.283 -0.3489  0.3848 -0.5909
   25TMC2    O2  394   0.068   0.128  12.064  0.2820  0.0962 -0.1773
   25TMC2    O5  395   0.068   0.120  11.843 -0.2288  0.3060 -1.1190
   25TMC2    H5  396   0.052   0.055  11.771  1.2527 -1.2959 -0.0297
   26MPD2     C  397   4.508   4.101  11.352 -0.5621 -0.5069  0.5172
   26MPD2    C1  398   4.506   4.050  11.476  0.1968 -0.2645 -0.2967
   26MPD2    C2  399   4.503   4.132  11.588  0.3493  0.0208 -0.3920
   26MPD2    C3  400   4.500   4.264  11.576 -0.4213  0.1742 -0.5730
   26MPD2    C4  401   4.485   4.319  11.450 -0.1471  0.4432 -0.2462
   26MPD2    C5  402   4.494   4.237  11.340 -0.4150 -0.2727  0.7654
   26MPD2     H  403   4.508   4.091  11.688 -0.5083  3.2713  0.9823
   26MPD2    H1  404   4.462   4.424  11.438 -2.9012 -0.0630  0.4324
   26MPD2    H2  405   4.522   4.036  11.266 -2.5571 -0.0682 -0.1458
   26MPD2    H3  406   4.511   4.297  11.251 -1.7543 -0.1745  0.5742
   26MPD2     N  407   4.494   4.335  11.694  0.1377 -0.1956 -0.5140
   26MPD2    H5  408   4.505   4.272  11.774  0.6213  0.9452  0.3233
   26MPD2    N1  409   4.502   3.908  11.491 -0.1116  0.8324  0.1697
   26MPD2    H7  410   4.515   3.848  11.411  0.6602  1.7436 -0.3915
   27TMC2    C1  411   3.367   1.668  12.196  0.2890 -0.1784  0.2717
   27TMC2    C2  412   3.349   1.726  12.073  0.2100 -0.0924  0.9991
   27TMC2    C3  413   3.384   1.857  12.053 -0.3404  0.4632  0.0675
   27TMC2    C4  414   3.439   1.740  12.297 -0.2185  0.6003 -0.6167
   27TMC2    C5  415   3.478   1.869  12.270 -0.0255 -0.5039 -0.0152
   27TMC2    C6  416   3.451   1.936  12.152 -0.3114  0.0489 -1.1023
   27TMC2     C  417   3.334   1.531  12.218  0.6955  0.0559  0.0626
   27TMC2     O  418   3.370   1.447  12.135 -0.5312  0.1154  0.6590
   27TMC2     H  419   3.287   1.673  12.002 -0.6475 -0.8680  2.3073
   27TMC2    H1  420   3.433   1.713  12.402 -0.5670 -0.8226 -0.9984
   27TMC2    H2  421   3.506   2.029  12.139  1.0721 -0.8144 -1.4946
   27TMC2    C7  422   3.460   1.953  12.390  0.4729 -0.3597 -0.1341
   27TMC2    C8  423   3.370   1.897  11.909  0.3267  0.1964  0.0355
   27TMC2    O1  424   3.503   1.909  12.499  0.6197 -0.2520 -0.0373
   27TMC2    O2  425   3.444   1.982  11.857 -0.5943  0.3668 -0.2103
   27TMC2    O5  426   3.236   1.913  11.909  0.6654  0.1074 -0.2309
   27TMC2    H5  427   3.179   1.861  11.969  0.5957  1.4019  0.8289
   28MPD2     C  428   3.035   1.200  12.490 -0.2556  0.6848  0.9887
   28MPD2    C1  429   2.996   1.329  12.524  0.3345 -0.5707  0.6357
   28MPD2    C2  430   3.069   1.433  12.466  0.4528 -0.0512 -0.1410
   28MPD2    C3  431   3.173   1.410  12.370  0.3862 -0.9847 -0.1736
   28MPD2    C4  432   3.195   1.277  12.330 -0.0423 -0.2203  0.3048
   28MPD2    C5  433   3.119   1.175  12.386 -0.3237  0.1588  0.2348
   28MPD2     H  434   3.049   1.535  12.498 -1.0640 -0.0860 -0.9814
   28MPD2    H1  435   3.257   1.246  12.247 -1.2663  0.9644 -1.0362
   28MPD2    H2  436   2.988   1.112  12.531  0.6149  0.1184  0.7834
   28MPD2    H3  437   3.149   1.073  12.364 -0.9963 -0.2238  1.0933
   28MPD2     N  438   3.241   1.522  12.319  0.2480 -0.0683  0.2743
   28MPD2    H5  439   3.224   1.613  12.362 -0.6354 -0.4663  0.7636
   28MPD2    N1  440   2.898   1.340  12.622  0.1405  0.0982 -0.4415
   28MPD2    H7  441   2.865   1.249  12.654 -1.4442  1.0178  0.5030
   29MPD2     C  442   2.546   3.910  15.054 -0.6770 -0.4422  0.6847
   29MPD2    C1  443   2.652   3.911  14.970  0.2710 -0.0706  0.0497
   29MPD2    C2  444   2.739   4.021  14.968 -0.0091 -0.1683  0.1332
   29MPD2    C3  445   2.714   4.129  15.047 -0.4048  0.4301  0.5176
   29MPD2    C4  446   2.611   4.129  15.137  0.0728  0.5529 -0.2345
   29MPD2    C5  447   2.524   4.018  15.134 -1.0413 -0.2019 -0.2774
   29MPD2     H  448   2.821   4.022  14.897 -0.0550  2.4056  0.1085
   29MPD2    H1  449   2.579   4.223  15.182 -0.3936  0.2323  0.1019
   29MPD2    H2  450   2.461   3.844  15.047  0.9319 -2.6264  1.5714
   29MPD2    H3  451   2.438   4.008  15.198 -3.3324  1.0924 -3.1618
   29MPD2     N  452   2.784   4.257  15.036  0.3507 -0.4965  0.0009
   29MPD2    H5  453   2.756   4.332  15.098 -0.3753  2.1758 -3.6258
   29MPD2    N1  454   2.675   3.807  14.878  0.4249  0.3433  0.1008
   29MPD2    H7  455   2.742   3.830  14.805  0.7205  0.9573  0.5678
   30TCq2    C1  456   2.899   4.279  14.958 -0.4399  0.1489 -0.2457
   30TCq2    O2  457   2.944   4.226  14.859  0.7666  0.0496 -0.4103
   30TCq2    C2  458   2.958   4.412  14.980 -0.1075  0.4562 -0.7313
   30TCq2    C3  459   2.949   4.468  15.109  0.5302 -0.0533  0.4124
   30TCq2    C4  460   3.008   4.589  15.135  0.2731 -0.3323 -0.4901
   30TCq2    C5  461   3.085   4.653  15.036  0.2363  0.3372 -0.1519
   30TCq2    C6  462   3.092   4.594  14.911 -0.2852 -0.0303  0.8692
   30TCq2    C7  463   3.030   4.470  14.879 -0.7912 -0.4587  0.2855
   30TCq2    C8  464   3.129   4.671  14.799  0.4264  0.0980  0.4165
   30TCq2    O4  465   3.077   4.629  14.694  0.4797  0.5388  0.6489
   30TCq2    C9  466   3.001   4.650  15.259  0.4871 -0.2663  0.0739
   30TCq2    O5  467   2.952   4.573  15.350 -0.3189  0.1451  0.3118
   30TCq2    O6  468   3.042   0.046  15.275  0.6469 -0.3116 -0.2722
   30TCq2    H2  469   2.893   4.419  15.188  0.8812  1.0566  1.3462
   30TCq2    H3  470   3.139   0.022  15.062  0.3849  0.2389 -0.1206
   30TCq2    H4  471   3.025   4.429  14.778  1.6611  2.1348 -0.8977
   31MPD2     C  472   1.028   3.199  14.674  0.0835 -0.6894 -0.9385
   31MPD2    C1  473   0.901   3.212  14.615 -0.0001  0.2260 -0.5956
   31MPD2    C2  474   0.792   3.163  14.682 -0.5671 -0.1715 -1.1172
   31MPD2    C3  475   0.806   3.093  14.802  0.0574 -0.3260  0.8350
   31MPD2    C4  476   0.931   3.073  14.853  0.5616 -0.4426  0.2696
   31MPD2    C5  477   1.040   3.125  14.788 -0.4379  0.0262  0.8229
   31MPD2     H  478   0.697   3.176  14.632 -1.6526  1.2253  1.3285
   31MPD2    H1  479   0.955   3.015  14.941  0.5311  0.0938  0.6295
   31MPD2    H2  480   1.118   3.242  14.630  0.5759 -1.5552 -0.7688
   31MPD2    H3  481   1.140   3.119  14.829 -0.9812 -2.2173  1.8513
   31MPD2     N  482   0.699   3.024  14.861  0.3328  0.3015 -0.2827
   31MPD2    H5  483   0.726   2.964  14.939  0.5353  0.2179 -0.4175
   31MPD2    N1  484   0.902   3.284  14.493 -0.0194  0.3247 -0.2602
   31MPD2    H7  485   0.990   3.314  14.451  1.3009 -1.3711  1.3318
   32TCq2    C1  486   0.563   3.027  14.826  0.4972 -0.2306  0.4172
   32TCq2    O2  487   0.513   3.089  14.732 -0.0743  0.1765 -0.4680
   32TCq2    C2  488   0.479   2.940  14.903  0.1712  0.2475 -1.0770
   32TCq2    C3  489   0.355   2.905  14.852  0.0627  0.2920  0.1577
   32TCq2    C4  490   0.273   2.818  14.914 -0.4479  0.3763 -0.0021
   32TCq2    C5  491   0.308   2.743  15.019 -0.2893 -0.6429 -0.3080
   32TCq2    C6  492   0.436   2.775  15.067 -0.2141  0.2949  0.0359
   32TCq2    C7  493   0.522   2.873  15.017 -0.0380  0.3603 -0.3367
   32TCq2    C8  494   0.477   2.712  15.186  0.6619 -0.0546 -0.4164
   32TCq2    O4  495   0.594   2.710  15.228  0.3387 -0.3581 -0.0231
   32TCq2    C9  496   0.152   2.793  14.844  0.5725 -1.0368 -0.3987
   32TCq2    O5  497   0.066   2.716  14.900  0.3139  0.5212  0.2930
   32TCq2    O6  498   0.122   2.862  14.747  0.2544 -0.2213  0.4974
   32TCq2    H2  499   0.323   2.955  14.761  1.2307 -0.7749 -0.8301
   32TCq2    H3  500   0.257   2.649  15.035 -0.7245 -0.1886  1.0355
   32TCq2    H4  501   0.613   2.901  15.069 -0.9602  0.1869  1.3648
   33MPD2     C  502   1.092   1.123  10.311  0.6165 -0.3519  0.1235
   33MPD2    C1  503   1.028   1.016  10.250 -0.1110  0.8424 -0.2661
   33MPD2    C2  504   1.021   1.009  10.114 -0.0750  0.3227 -0.6677
   33MPD2    C3  505   1.080   1.114  10.037  0.4189 -0.6495  0.3748
   33MPD2    C4  506   1.144   1.217  10.093 -0.0972 -0.0760 -0.0419
   33MPD2    C5  507   1.145   1.225  10.230 -0.5609 -0.3660  0.4044
   33MPD2     H  508   0.970   0.928  10.064  0.9126 -0.8871  0.2989
   33MPD2    H1  509   1.182   1.306  10.044 -0.1940  0.7563  1.3719
   33MPD2    H2  510   1.105   1.138  10.418 -0.6980  1.8635 -0.0246
   33MPD2    H3  511   1.211   1.302  10.268  0.4457 -1.2478  0.4497
   33MPD2     N  512   1.084   1.120   9.890  0.1683 -0.0356  0.3760
   33MPD2    H5  513   1.129   1.204   9.855  0.8107 -0.1360  0.9633
   33MPD2    N1  514   0.961   0.922  10.333  0.1264 -0.1768  0.3420
   33MPD2    H7  515   0.963   0.934  10.434 -0.6128  1.9790  0.1058
   34TCq2    C1  516   1.013   1.028   9.809 -0.6687 -0.2671  0.3636
   34TCq2    O2  517   0.936   0.933   9.840 -0.1438  0.3163  0.3691
   34TCq2    C2  518   1.045   1.044   9.669 -0.1767  0.5456 -0.2810
   34TCq2    C3  519   0.964   0.976   9.584  0.3089 -0.2213  0.2468
   34TCq2    C4  520   0.975   0.995   9.451 -0.4941  0.6453  0.4646
   34TCq2    C5  521   1.058   1.090   9.401  1.1798 -0.7901  0.0613
   34TCq2    C6  522   1.149   1.145   9.486  0.4082  0.1316 -0.5063
   34TCq2    C7  523   1.138   1.132   9.623 -0.6632 -0.6672  0.5497
   34TCq2    C8  524   1.263   1.217   9.430 -0.2220 -0.2854 -0.2667
   34TCq2    O4  525   1.309   1.312   9.494 -0.6333  0.1165 -0.3451
   34TCq2    C9  526   0.890   0.919   9.350  0.6229  0.0621  0.1485
   34TCq2    O5  527   0.806   0.840   9.400  0.4706 -0.2402 -0.6753
   34TCq2    O6  528   0.905   0.942   9.227  0.0779  0.6652  0.8546
   34TCq2    H2  529   0.890   0.903   9.616 -0.9894  1.3837  0.8754
   34TCq2    H3  530   1.076   1.109   9.296  0.3683 -0.4612 -0.0175
   34TCq2    H4  531   1.203   1.191   9.686 -2.1499  0.2552  1.2184
   35MPD2     C  532   2.407   2.259  12.264 -0.6439  0.2358 -0.5796
   35MPD2    C1  533   2.426   2.135  12.215 -0.4839 -0.3307 -0.7982
   35MPD2    C2  534   2.410   2.115  12.083 -0.4502 -0.4180 -0.0795
   35MPD2    C3  535   2.372   2.221  11.999 -0.2986  0.3263  0.2995
   35MPD2    C4  536   2.367   2.345  12.050  0.3330  0.7565 -0.8058
   35MPD2    C5  537   2.379   2.367  12.187  0.9281  0.1240  0.2377
   35MPD2     H  538   2.419   2.014  12.045  0.1367 -0.4361  0.1143
   35MPD2    H1  539   2.341   2.431  11.988 -1.3510  1.1666  0.4738
   35MPD2    H2  540   2.425   2.278  12.369  0.3032 -0.1954 -0.6605
   35MPD2    H3  541   2.370   2.461  12.240  0.7961  0.5023 -0.4669
   35MPD2     N  542   2.364   2.188  11.864  0.1161 -0.1264 -0.5574
   35MPD2    H5  543   2.387   2.091  11.846  1.7382  0.1668 -0.0779
   35MPD2    N1  544   2.449   2.033  12.319 -0.3331 -0.1137  0.9604
   35MPD2    H7  545   2.475   2.069  12.410  0.6339 -1.6778  1.2817
   36TCq2    C1  546   2.317   2.271  11.769  0.2076 -0.1594  0.5106
   36TCq2    O2  547   2.295   2.390  11.772 -0.6684  0.2377  0.3920
   36TCq2    C2  548   2.284   2.200  11.645  0.4387 -0.3579  0.8784
   36TCq2    C3  549   2.241   2.285  11.543  0.0067 -0.3440 -0.2997
   36TCq2    C4  550   2.160   2.225  11.446  0.6681 -0.5492  0.2747
   36TCq2    C5  551   2.123   2.093  11.448 -0.4348 -0.1770 -0.8243
   36TCq2    C6  552   2.176   2.016  11.549  0.4038  0.2129  0.2119
   36TCq2    C7  553   2.249   2.069  11.648 -0.9375  0.0446 -0.9749
   36TCq2    C8  554   2.130   1.878  11.557  0.9701 -0.4868 -0.2946
   36TCq2    O4  555   2.050   1.841  11.477  0.8427 -0.0579 -0.3643
   36TCq2    C9  556   2.102   2.311  11.344  0.8478 -0.2638 -0.7345
   36TCq2    O5  557   2.168   2.415  11.321  0.3284  0.2298  0.3244
   36TCq2    O6  558   2.039   2.259  11.248  0.3805  0.2166 -0.2062
   36TCq2    H2  559   2.251   2.392  11.550  0.8150 -0.1381 -4.5216
   36TCq2    H3  560   2.033   2.062  11.397 -0.3259 -0.3128 -0.9314
   36TCq2    H4  561   2.251   2.010  11.739 -3.0810  0.7617 -0.4555
   37TMC2    C1  562   4.140   2.331  11.154 -0.3196 -0.3443 -0.1283
   37TMC2    C2  563   4.075   2.353  11.035  0.1517 -0.0927  0.6474
   37TMC2    C3  564   4.104   2.283  10.919 -0.0159 -0.0061  0.4448
   37TMC2    C4  565   4.224   2.227  11.159 -0.1181 -0.8739  0.2669
   37TMC2    C5  566   4.249   2.156  11.043  0.2694 -0.9096  0.3575
   37TMC2    C6  567   4.206   2.192  10.920 -0.1144 -1.1115 -0.4588
   37TMC2     C  568   4.065   2.359  11.274 -0.3049  0.6027 -0.6163
   37TMC2     O  569   3.941   2.360  11.274 -0.3920 -0.7097 -0.1833
   37TMC2     H  570   4.006   2.437  11.030 -0.3346 -0.6826 -2.0903
   37TMC2    H1  571   4.258   2.181  11.251  2.3693 -1.0598 -0.7264
   37TMC2    H2  572   4.258   2.162  10.830  2.0509  1.5562 -0.1103
   37TMC2    C7  573   4.372   2.075  11.037 -0.2802 -0.6486 -0.1122
   37TMC2    C8  574   4.049   2.341  10.802 -0.4202  0.2963 -1.1670
   37TMC2    O1  575   4.381   1.986  10.958 -0.0120 -0.6147  0.4805
   37TMC2    O2  576   4.044   2.464  10.792  0.6027  0.0327 -0.0348
   37TMC2    O5  577   4.086   2.265  10.702 -0.0263 -0.4174  0.1193
   37TMC2    H5  578   4.084   2.169  10.723 -0.0104 -0.5920 -0.6634
   38MPD2     C  579   4.022   2.292  11.775 -0.2187  0.4353  0.1149
   38MPD2    C1  580   4.159   2.278  11.740 -0.5776 -0.0765 -0.2373
   38MPD2    C2  581   4.200   2.303  11.612 -0.3758 -0.5808 -0.3574
   38MPD2    C3  582   4.109   2.336  11.515  0.3416 -0.1355 -0.3715
   38MPD2    C4  583   3.982   2.358  11.557 -0.2656 -0.3412  0.1744
   38MPD2    C5  584   3.942   2.345  11.680 -0.8299  0.0470 -0.3897
   38MPD2     H  585   4.301   2.286  11.578 -0.1359  0.4943 -0.1952
   38MPD2    H1  586   3.905   2.405  11.497 -1.5817 -2.7294 -0.0295
   38MPD2    H2  587   3.985   2.278  11.876 -0.2575 -0.0449  0.0343
   38MPD2    H3  588   3.838   2.367  11.703 -0.1071  1.8639  1.1725
   38MPD2     N  589   4.148   2.349  11.383 -0.9538  0.3518 -0.7164
   38MPD2    H5  590   4.248   2.330  11.376 -0.4493  3.0350 -0.6842
   38MPD2    N1  591   4.257   2.246  11.839  0.5476  0.5424  0.0039
   38MPD2    H7  592   4.354   2.258  11.811  0.4224  0.6584 -0.3843
   39MPD2     C  593   2.274   3.594   1.677  0.8055 -0.5829 -0.0713
   39MPD2    C1  594   2.183   3.663   1.755  0.1710  0.0210  0.3808
   39MPD2    C2  595   2.092   3.746   1.695  0.2475  0.7646 -0.6194
   39MPD2    C3  596   2.086   3.761   1.555 -0.4327 -0.3518 -0.7735
   39MPD2    C4  597   2.194   3.708   1.484 -0.4165 -0.1602 -0.1806
   39MPD2    C5  598   2.281   3.620   1.541 -0.3004 -0.0988 -0.1610
   39MPD2     H  599   2.010   3.776   1.761  1.2889 -1.7818  1.8399
   39MPD2    H1  600   2.195   3.708   1.376  0.0162 -1.0503 -0.1726
   39MPD2    H2  601   2.354   3.535   1.719 -0.4519 -1.0889  1.6120
   39MPD2    H3  602   2.362   3.567   1.492  0.3253 -0.3472  1.1553
   39MPD2     N  603   1.984   3.837   1.485 -0.0770 -0.1334 -0.0730
   39MPD2    H5  604   1.976   3.837   1.384 -3.3077 -0.1720  0.1747
   39MPD2    N1  605   2.191   3.640   1.891  0.5800  0.2127 -0.3732
   39MPD2    H7  606   2.271   3.584   1.916 -0.7588 -0.1266  3.1111
   40TCq2    C1  607   2.099   3.685   1.983  0.9201  0.3304  0.0193
   40TCq2    O2  608   1.982   3.719   1.967 -0.1280  0.3038  0.4512
   40TCq2    C2  609   2.146   3.675   2.126  0.6392 -0.6541  0.1190
   40TCq2    C3  610   2.058   3.682   2.222  0.3190 -0.7710  0.3638
   40TCq2    C4  611   2.089   3.653   2.346  0.6929 -0.2353 -0.2410
   40TCq2    C5  612   2.223   3.635   2.383 -1.2908  0.1671  0.5484
   40TCq2    C6  613   2.318   3.636   2.288  0.1925  0.3339  0.2493
   40TCq2    C7  614   2.277   3.648   2.157 -0.0552 -0.0741  0.0512
   40TCq2    C8  615   2.435   3.555   2.314  0.2633  0.6533  0.8777
   40TCq2    O4  616   2.430   3.477   2.404 -0.4723  0.1196  0.1200
   40TCq2    C9  617   1.984   3.642   2.441 -0.4727 -0.6887  0.4983
   40TCq2    O5  618   2.024   3.623   2.558 -0.1560 -0.4605 -0.3078
   40TCq2    O6  619   1.874   3.592   2.403 -0.0973 -0.1290 -0.0842
   40TCq2    H2  620   1.954   3.682   2.189  0.1810 -2.0264  0.8095
   40TCq2    H3  621   2.243   3.620   2.489 -0.4017  1.5666  0.5795
   40TCq2    H4  622   2.355   3.653   2.081 -1.7597 -0.1390 -1.6917
   41TMC2    C1  623   0.601   1.487  14.176 -0.7623  0.0271  0.2498
   41TMC2    C2  624   0.478   1.429  14.200 -0.2926  0.0336 -0.3490
   41TMC2    C3  625   0.366   1.489  14.142  0.8099 -0.5169  0.8510
   41TMC2    C4  626   0.608   1.598  14.095 -0.6878  0.1249  0.4839
   41TMC2    C5  627   0.493   1.640  14.032 -0.3334  0.6060 -0.2477
   41TMC2    C6  628   0.368   1.596  14.066  0.0583  0.5925 -0.6132
   41TMC2     C  629   0.716   1.413  14.207 -0.2299  0.6401 -0.1892
   41TMC2     O  630   0.691   1.296  14.221  0.3359 -0.6211 -0.1127
   41TMC2     H  631   0.462   1.344  14.265  1.0203  0.0496 -0.0027
   41TMC2    H1  632   0.708   1.632  14.070 -0.9671  0.1694 -0.5509
   41TMC2    H2  633   0.279   1.623  14.010 -0.1657 -0.4549 -0.7680
   41TMC2    C7  634   0.496   1.754  13.948  0.2112 -0.0204 -0.2486
   41TMC2    C8  635   0.247   1.409  14.120  0.5258 -0.0229  0.7620
   41TMC2    O1  636   0.390   1.812  13.939  0.1927  0.0331  0.0156
   41TMC2    O2  637   0.233   1.288  14.122 -0.3523  0.3505  0.2175
   41TMC2    O5  638   0.144   1.483  14.160 -0.5288  0.1117 -0.6823
   41TMC2    H5  639   0.174   1.574  14.181  0.1332 -0.4247  0.7370
   42MPD2     C  640   0.979   1.303  14.273 -0.1861  0.0522 -0.6271
   42MPD2    C1  641   0.944   1.441  14.277  0.0258  0.9115  0.2033
   42MPD2    C2  642   1.050   1.526  14.316  0.9008 -0.3693 -0.2163
   42MPD2    C3  643   1.177   1.479  14.343 -0.3655 -0.6916  0.3610
   42MPD2    C4  644   1.213   1.345  14.319 -0.0001  0.3628 -0.3663
   42MPD2    C5  645   1.111   1.261  14.297 -0.1897 -0.0383  0.1592
   42MPD2     H  646   1.027   1.631  14.316 -1.3728 -0.8667 -2.1128
   42MPD2    H1  647   1.312   1.305  14.342  0.7220  1.8639 -0.8738
   42MPD2    H2  648   0.910   1.225  14.244 -0.5875  0.4960 -0.8552
   42MPD2    H3  649   1.130   1.155  14.311  0.1943 -0.0625 -0.5292
   42MPD2     N  650   1.289   1.561  14.377  0.0919  0.1614  0.2250
   42MPD2    H5  651   1.380   1.521  14.396 -0.7248 -1.4418  0.7478
   42MPD2    N1  652   0.821   1.491  14.241 -0.2536  0.3209  0.5226
   42MPD2    H7  653   0.816   1.592  14.227 -0.9050  0.5840  2.7119
   43MPD2     C  654   2.387   0.056   1.064 -0.1723  0.5101  0.5055
   43MPD2    C1  655   2.476   4.690   1.125 -0.0703 -0.1162 -0.2307
   43MPD2    C2  656   2.481   4.688   1.264  0.5214 -0.0011  0.0626
   43MPD2    C3  657   2.412   0.058   1.343 -0.5461  0.3947  0.9272
   43MPD2    C4  658   2.323   0.147   1.278 -0.4938  0.1298  0.0425
   43MPD2    C5  659   2.314   0.137   1.144  0.2298 -0.4593  0.6548
   43MPD2     H  660   2.557   4.624   1.308 -0.5094 -0.2734  1.4359
   43MPD2    H1  661   2.255   0.208   1.336 -0.8682  0.6934 -0.9847
   43MPD2    H2  662   2.358   0.058   0.959  0.0423  2.1861  0.4793
   43MPD2    H3  663   2.227   0.190   1.107  0.2140  0.0328  1.3866
   43MPD2     N  664   2.423   0.066   1.483 -0.3503 -0.5639 -0.5064
   43MPD2    H5  665   2.382   0.150   1.521  1.0700  0.1268 -0.4711
   43MPD2    N1  666   2.544   4.593   1.044  0.8405  0.0607 -0.9182
   43MPD2    H7  667   2.597   4.522   1.094  1.5226  1.3750  0.2129
   44TCq2    C1  668   2.464   4.556   2.023  0.2150 -0.3974 -0.2887
   44TCq2    O2  669   2.498   4.443   1.985  0.4643 -0.0907 -0.0321
   44TCq2    C2  670   2.494   4.669   1.928 -0.0101  0.3766  0.0798
   44TCq2    C3  671   2.491   0.068   1.981 -0.0661  0.0580 -0.8983
   44TCq2    C4  672   2.499   0.177   1.888 -0.2553 -0.3982  0.2587
   44TCq2    C5  673   2.487   0.150   1.755  1.3647 -0.1692 -0.3646
   44TCq2    C6  674   2.483   0.021   1.704 -0.1254 -0.0843 -0.1774
   44TCq2    C7  675   2.498   4.643   1.794  0.5688 -0.7475  0.0699
   44TCq2    C8  676   2.498   4.705   1.566 -0.4815 -0.1076 -0.2740
   44TCq2    O4  677   2.569   4.606   1.539  0.5172 -0.1480 -0.0771
   44TCq2    C9  678   2.529   0.310   1.936 -0.0553 -0.5352  0.0385
   44TCq2    O5  679   2.508   0.319   2.060  0.1545 -0.0220 -0.1827
   44TCq2    O6  680   2.576   0.394   1.853 -0.4599 -0.1116  0.5846
   44TCq2    H2  681   2.511   0.086   2.086 -0.1149 -2.3857 -0.4649
   44TCq2    H3  682   2.486   0.231   1.683  0.4222 -0.6966 -0.9436
   44TCq2    H4  683   2.493   4.539   1.762  0.6353 -0.6004 -0.4154
   45TMC2    C1  684   4.028   1.987   9.896 -0.8649 -0.4772 -0.0228
   45TMC2    C2  685   4.071   2.027   9.768 -0.2093 -0.5504  0.1636
   45TMC2    C3  686   4.133   2.148   9.757  0.1679  0.3243  0.5775
   45TMC2    C4  687   4.062   2.054  10.013 -0.3920  0.2344 -0.3418
   45TMC2    C5  688   4.135   2.162  10.002 -0.7318  0.4868  0.5262
   45TMC2    C6  689   4.169   2.210   9.876 -0.1844 -0.4882 -0.3507
   45TMC2     C  690   3.940   1.867   9.908 -0.2366 -0.1884 -0.4059
   45TMC2     O  691   3.946   1.791  10.010  0.3871 -0.2096  0.2868
   45TMC2     H  692   4.051   1.968   9.679 -1.6545  1.1696 -0.6478
   45TMC2    H1  693   4.037   2.020  10.113  0.0294  1.5882  0.2258
   45TMC2    H2  694   4.231   2.298   9.874  0.4830 -0.9876 -1.1984
   45TMC2    C7  695   4.193   2.227  10.115  0.0040  0.6878  0.0380
   45TMC2    C8  696   4.154   2.221   9.634  0.9104 -0.6170 -0.4285
   45TMC2    O1  697   4.112   2.250  10.207 -0.4445  0.9021 -0.3499
   45TMC2    O2  698   4.257   2.282   9.616 -0.1279  0.0285 -0.0589
   45TMC2    O5  699   4.025   2.266   9.593  0.2518  0.3614  0.6770
   45TMC2    H5  700   3.949   2.205   9.592 -1.9388  3.1086 -1.2291
   46MPD2     C  701   3.768   1.630   9.827  0.2892  0.7689 -0.1603
   46MPD2    C1  702   3.756   1.763   9.782 -0.9778 -0.0270  0.1202
   46MPD2    C2  703   3.654   1.791   9.696 -0.0765  0.3273  0.0988
   46MPD2    C3  704   3.554   1.709   9.662 -0.7280  0.4095  0.2793
   46MPD2    C4  705   3.563   1.578   9.705 -0.1664  0.3382 -0.7439
   46MPD2    C5  706   3.672   1.544   9.791 -0.8154  0.0612 -0.3826
   46MPD2     H  707   3.657   1.896   9.668 -3.6979  0.4437  0.0349
   46MPD2    H1  708   3.485   1.507   9.678 -1.5186  2.6913 -3.1187
   46MPD2    H2  709   3.849   1.608   9.895  0.8776  2.8458 -0.1741
   46MPD2    H3  710   3.691   1.445   9.831  0.4219 -0.1677 -1.5542
   46MPD2     N  711   3.445   1.764   9.594  0.3708  0.3867 -0.6274
   46MPD2    H5  712   3.444   1.864   9.575  0.4328  0.9656  2.4027
   46MPD2    N1  713   3.836   1.875   9.820 -0.2192  0.0603  0.2159
   46MPD2    H7  714   3.827   1.965   9.774 -0.3117  0.8699  1.8290
   47TMC2    C1  715   0.757   2.515  10.165  0.4008  0.5467  0.5056
   47TMC2    C2  716   0.765   2.400  10.088  0.2424 -0.8062  0.1936
   47TMC2    C3  717   0.659   2.381  10.001  0.5282 -0.3420  0.0229
   47TMC2    C4  718   0.655   2.604  10.155 -0.8226  0.1837 -0.3356
   47TMC2    C5  719   0.559   2.582  10.065 -0.1989  0.8468 -0.2126
   47TMC2    C6  720   0.561   2.470   9.985 -0.3262  0.0775 -0.1463
   47TMC2     C  721   0.870   2.560  10.249  0.6365  0.5074  0.5179
   47TMC2     O  722   0.843   2.651  10.327 -0.4187 -0.0738 -0.1774
   47TMC2     H  723   0.832   2.315  10.103 -0.6387 -1.6399 -0.5745
   47TMC2    H1  724   0.665   2.694  10.214  0.4826 -0.0100 -0.2616
   47TMC2    H2  725   0.482   2.447   9.914  0.5114  0.7042 -1.2767
   47TMC2    C7  726   0.444   2.666  10.056  0.1117  0.2668 -0.0643
   47TMC2    C8  727   0.643   2.261   9.927  0.7379  0.2573  0.6578
   47TMC2    O1  728   0.359   2.643   9.970 -0.2953 -0.0174 -0.2904
   47TMC2    O2  729   0.543   2.237   9.860 -0.1512 -0.2067  0.1649
   47TMC2    O5  730   0.761   2.202   9.893 -0.1128  0.3356 -0.2808
   47TMC2    H5  731   0.839   2.260   9.912 -2.5314  2.6828  2.4420
   48MPD2     C  732   1.122   2.563  10.429  0.8018  0.7783 -0.5359
   48MPD2    C1  733   1.108   2.498  10.304 -0.4283 -0.2024  0.4105
   48MPD2    C2  734   1.221   2.447  10.246  0.3799  0.1815  0.1037
   48MPD2    C3  735   1.353   2.454  10.304 -0.1193  0.0146 -0.0214
   48MPD2    C4  736   1.358   2.511  10.429  0.0322  0.1484  0.4307
   48MPD2    C5  737   1.248   2.561  10.486  0.0045  0.4152  0.1809
   48MPD2     H  738   1.210   2.382  10.160 -2.6078  2.3628 -1.2012
   48MPD2    H1  739   1.446   2.508  10.492 -0.5688  2.0722  1.3565
   48MPD2    H2  740   1.042   2.611  10.484  0.2774  0.4434 -0.9986
   48MPD2    H3  741   1.260   2.605  10.584 -0.1745 -1.0031  0.8462
   48MPD2     N  742   1.463   2.382  10.249  0.5999 -0.3380  0.1714
   48MPD2    H5  743   1.444   2.313  10.177  0.3383  1.6249 -1.6463
   48MPD2    N1  744   0.987   2.487  10.230  0.4414 -1.1058 -0.1707
   48MPD2    H7  745   0.990   2.440  10.141 -0.5923  0.8662 -1.2409
   49MPD2     C  746   0.641   0.338  10.828  0.0921  0.0799 -0.0013
   49MPD2    C1  747   0.560   0.246  10.761 -0.3826 -0.2221 -0.4755
   49MPD2    C2  748   0.460   0.185  10.839 -0.1510  0.9850 -0.5758
   49MPD2    C3  749   0.449   0.225  10.972 -0.8134 -0.6562 -0.5598
   49MPD2    C4  750   0.532   0.314  11.035  0.0645 -0.1908 -0.5905
   49MPD2    C5  751   0.629   0.373  10.962  0.4628  0.5944 -0.0192
   49MPD2     H  752   0.382   0.127  10.790  0.8146 -0.2960 -0.6133
   49MPD2    H1  753   0.512   0.343  11.137  0.8514  0.8260 -0.7302
   49MPD2    H2  754   0.720   0.398  10.784 -0.7162  1.7241  0.7432
   49MPD2    H3  755   0.704   0.441  11.001 -0.2623  1.3725  0.0213
   49MPD2     N  756   0.334   0.181  11.046 -0.1984 -0.1706 -0.0485
   49MPD2    H5  757   0.312   0.241  11.125  0.1758  0.5994 -0.5292
   49MPD2    N1  758   0.577   0.214  10.621 -0.2790  0.1371 -0.2219
   49MPD2    H7  759   0.508   0.161  10.568 -0.8587  0.4373  0.2306
   50TCq2    C1  760   0.682   0.263  10.543 -0.4689  1.0243 -0.7047
   50TCq2    O2  761   0.787   0.317  10.587  0.5504 -0.4661 -0.6489
   50TCq2    C2  762   0.640   0.272  10.398  0.8680  0.6686  0.9792
   50TCq2    C3  763   0.724   0.337  10.317 -0.2010 -0.0959 -0.1153
   50TCq2    C4  764   0.673   0.368  10.195  0.9727 -0.0319 -0.8006
   50TCq2    C5  765   0.546   0.345  10.153  0.0060 -1.0820  0.3817
   50TCq2    C6  766   0.468   0.269  10.233 -0.5008  0.6634 -0.0122
   50TCq2    C7  767   0.514   0.225  10.358  0.5105  0.2839  0.7154
   50TCq2    C8  768   0.338   0.219  10.186 -0.4453 -0.4765 -0.1540
   50TCq2    O4  769   0.283   0.127  10.250 -0.0333 -0.2418  0.7525
   50TCq2    C9  770   0.755   0.437  10.105  0.0940  1.2381  0.2842
   50TCq2    O5  771   0.856   0.497  10.155  0.5173 -0.0618  0.0686
   50TCq2    O6  772   0.735   0.429   9.980  0.1617 -0.0934 -0.1565
   50TCq2    H2  773   0.828   0.340  10.346 -0.4254 -1.8812  0.8891
   50TCq2    H3  774   0.505   0.385  10.061 -0.1875  0.4496  1.1365
   50TCq2    H4  775   0.453   0.156  10.416 -2.3430  0.4982 -2.0236
   51MPD2     C  776   1.107   2.340   1.482  0.0102 -0.2634  0.2430
   51MPD2    C1  777   0.995   2.417   1.451 -0.2673  0.3761 -0.3152
   51MPD2    C2  778   1.015   2.542   1.406  0.0595  0.2538 -0.3954
   51MPD2    C3  779   1.135   2.611   1.426  0.7608  0.2446 -0.2213
   51MPD2    C4  780   1.242   2.539   1.473  0.4222  0.3146 -0.0304
   51MPD2    C5  781   1.227   2.402   1.500 -0.6932 -0.4719 -0.6135
   51MPD2     H  782   0.925   2.581   1.360 -0.1862  1.0951  0.8021
   51MPD2    H1  783   1.340   2.585   1.480  0.4905 -0.0073  1.1147
   51MPD2    H2  784   1.098   2.235   1.506 -0.1864  0.0450  1.5023
   51MPD2    H3  785   1.314   2.344   1.530  0.3384  0.1221 -2.4595
   51MPD2     N  786   1.143   2.746   1.395  0.3928 -0.0923  0.3608
   51MPD2    H5  787   1.238   2.783   1.397 -0.4390  2.1723 -2.6268
   51MPD2    N1  788   0.863   2.366   1.434  0.3850  0.0205  0.0102
   51MPD2    H7  789   0.793   2.438   1.423 -1.5670 -1.8638  0.1654
   52TCq2    C1  790   1.044   2.829   1.341 -0.4071  0.0652  0.0901
   52TCq2    O2  791   0.928   2.796   1.311  0.4592  0.4993  0.0938
   52TCq2    C2  792   1.075   2.972   1.355  0.5848 -0.1796 -0.1413
   52TCq2    C3  793   1.205   3.005   1.382 -0.6332  0.6323  0.3063
   52TCq2    C4  794   1.232   3.114   1.449  0.1189  0.0222  0.4641
   52TCq2    C5  795   1.136   3.189   1.510  0.2466  0.0171 -0.2894
   52TCq2    C6  796   1.008   3.148   1.491 -0.0871  1.0445 -0.0185
   52TCq2    C7  797   0.976   3.046   1.415  0.5015 -0.2874  0.9642
   52TCq2    C8  798   0.907   3.207   1.572 -0.1962 -0.2626  0.4602
   52TCq2    O4  799   0.795   3.208   1.523 -0.6451 -0.4151  0.1190
   52TCq2    C9  800   1.373   3.137   1.483  0.0049  0.8819 -0.8383
   52TCq2    O5  801   1.460   3.070   1.426  0.5829  0.2177  0.0053
   52TCq2    O6  802   1.401   3.246   1.540  0.3078  0.0818 -0.1312
   52TCq2    H2  803   1.291   2.943   1.362  0.1822  2.3345 -1.4894
   52TCq2    H3  804   1.175   3.269   1.572 -0.2863 -0.8619  1.1918
   52TCq2    H4  805   0.875   3.007   1.419  0.3670  0.0397  0.7678
   53TMC2    C1  806   0.314   2.229  11.537 -0.7459  0.9573  0.2148
   53TMC2    C2  807   0.430   2.188  11.601 -0.2957 -0.6030 -0.6158
   53TMC2    C3  808   0.453   2.238  11.726  0.2126 -0.5305  0.5730
   53TMC2    C4  809   0.233   2.320  11.600  0.1916  0.2089 -0.3595
   53TMC2    C5  810   0.255   2.358  11.732  0.1972 -0.4304 -0.2544
   53TMC2    C6  811   0.376   2.327  11.796  0.0318  0.1135  0.1334
   53TMC2     C  812   0.270   2.147  11.425  0.0844 -0.2176 -0.1541
   53TMC2     O  813   0.347   2.077  11.365  0.0851 -0.3102 -0.7383
   53TMC2     H  814   0.503   2.124  11.554  0.4904  0.1106 -0.3693
   53TMC2    H1  815   0.141   2.359  11.557 -0.9100 -1.3488  0.5668
   53TMC2    H2  816   0.382   2.342  11.904 -0.1260 -1.4516  0.3520
   53TMC2    C7  817   0.142   2.419  11.809  0.2628  0.0298 -0.1972
   53TMC2    C8  818   0.584   2.219  11.764 -0.5007 -0.3912 -0.6082
   53TMC2    O1  819   0.047   2.447  11.737  0.6060 -0.4075  0.4968
   53TMC2    O2  820   0.664   2.150  11.706 -0.0521  0.7747 -0.3824
   53TMC2    O5  821   0.619   2.329  11.831  0.9163 -0.4280  0.0216
   53TMC2    H5  822   0.540   2.384  11.849  1.1058 -0.6925  1.6328
   54MPD2     C  823   0.134   1.990  11.217  0.2950  0.0893 -0.6509
   54MPD2    C1  824   0.080   2.097  11.282 -0.1816 -0.0973 -0.1994
   54MPD2    C2  825   4.676   2.144  11.253  0.1631 -0.0755  0.2528
   54MPD2    C3  826   4.599   2.086  11.161 -0.1661 -0.3218 -0.2996
   54MPD2    C4  827   4.654   1.978  11.099 -0.4687 -0.0687  0.3191
   54MPD2    C5  828   0.051   1.928  11.132 -0.9229 -0.9418 -0.3646
   54MPD2     H  829   4.632   2.217  11.320 -0.4112  0.0368 -0.2528
   54MPD2    H1  830   4.589   1.920  11.034 -1.2320  1.2423 -0.0843
   54MPD2    H2  831   0.230   1.947  11.242 -0.8771 -1.0376  1.9820
   54MPD2    H3  832   0.083   1.838  11.080  0.6930 -0.4349 -0.2618
   54MPD2     N  833   4.465   2.131  11.130 -0.1129  0.4305  0.2736
   54MPD2    H5  834   4.435   2.209  11.187  0.7744  0.9509  0.0237
   54MPD2    N1  835   0.139   2.166  11.398  0.8265 -0.2399  0.0937
   54MPD2    H7  836   0.086   2.236  11.449 -1.7464 -3.6599  2.1440
   55MPD2     C  837   1.002   3.675  17.522 -0.4732 -0.2592 -0.2688
   55MPD2    C1  838   1.059   3.805  17.529 -0.1814  0.5999 -0.3353
   55MPD2    C2  839   0.975   3.915  17.518 -0.3449 -0.1997 -0.5614
   55MPD2    C3  840   0.846   3.895  17.473  0.1482 -0.2762  0.4225
   55MPD2    C4  841   0.793   3.765  17.456 -0.2245 -0.0677  0.2111
   55MPD2    C5  842   0.874   3.661  17.480  0.1970  0.3027 -0.5070
   55MPD2     H  843   1.007   4.014  17.547  0.3575 -1.1495  1.9002
   55MPD2    H1  844   0.693   3.745  17.421  0.1533  0.5159 -1.1811
   55MPD2    H2  845   1.053   3.583  17.547 -1.8024 -0.6135  1.1919
   55MPD2    H3  846   0.832   3.561  17.473  1.8989 -0.2678 -2.8551
   55MPD2     N  847   0.767   4.013  17.467 -0.4240 -0.3221  0.2209
   55MPD2    H5  848   0.823   4.097  17.481  0.0661 -0.3940 -1.3680
   55MPD2    N1  849   1.191   3.824  17.577  0.1536 -0.1146  0.5111
   55MPD2    H7  850   1.253   3.745  17.593  1.1203  0.1529 -1.9009
   56TCq2    C1  851   1.256   3.944  17.604  0.1392  0.2177 -0.1098
   56TCq2    O2  852   1.219   4.060  17.612 -0.3748 -0.1587 -0.3282
   56TCq2    C2  853   1.401   3.925  17.638  0.5081 -0.0471 -0.8086
   56TCq2    C3  854   1.467   3.818  17.586  0.1309 -0.0006  0.1005
   56TCq2    C4  855   1.593   3.793  17.636 -0.5312  0.0505 -0.1408
   56TCq2    C5  856   1.641   3.867   0.050  0.0050  0.0026  0.3953
   56TCq2    C6  857   1.572   3.978   0.094 -0.9975  1.1052 -0.3055
   56TCq2    C7  858   1.453   4.013   0.039  0.1269  0.1267 -0.7958
   56TCq2    C8  859   1.623   4.050   0.212  0.5116 -0.7826 -0.8351
   56TCq2    O4  860   1.747   4.066   0.220 -0.1268  1.1467  0.3357
   56TCq2    C9  861   1.656   3.672  17.579 -0.0578 -0.2825 -0.6258
   56TCq2    O5  862   1.609   3.641  17.467  0.2374  0.8453  0.2413
   56TCq2    O6  863   1.743   3.613  17.653  0.0299  0.5259 -0.4799
   56TCq2    H2  864   1.414   3.758  17.513  1.6293 -0.2184 -0.8032
   56TCq2    H3  865   1.733   3.835   0.096 -0.3753  2.4272  2.9032
   56TCq2    H4  866   1.400   4.106   0.055  0.1788 -0.0783  0.6168
   57TMC2    C1  867   0.155   0.635  14.089  0.2894  0.0296 -0.6498
   57TMC2    C2  868   0.273   0.703  14.051  0.6392 -0.2579 -0.1400
   57TMC2    C3  869   0.320   0.678  13.927  0.3447 -0.3911  0.0321
   57TMC2    C4  870   0.087   0.563  13.997 -0.1233 -0.0578  0.3038
   57TMC2    C5  871   0.131   0.550  13.868 -0.9750  0.4286 -0.5813
   57TMC2    C6  872   0.250   0.604  13.830 -0.1595  0.7680  0.3761
   57TMC2     C  873   0.074   0.705  14.192 -0.4945 -0.0338  0.3861
   57TMC2     O  874   0.117   0.809  14.240 -0.5943  0.1342  0.8014
   57TMC2     H  875   0.338   0.745  14.127  1.2547  0.5916 -1.1476
   57TMC2    H1  876   4.710   0.524  14.020  0.5758 -0.7795  2.0549
   57TMC2    H2  877   0.276   0.600  13.724  1.2538  3.9177  0.5932
   57TMC2    C7  878   0.029   0.526  13.763  0.1791  0.2523 -0.1535
   57TMC2    C8  879   0.459   0.714  13.903 -0.1386 -0.0544 -0.7421
   57TMC2    O1  880   4.632   0.518  13.788  0.2203  0.8859  0.4235
   57TMC2    O2  881   0.532   0.707  14.001 -0.2290  0.2046 -0.8817
   57TMC2    O5  882   0.492   0.717  13.771  0.0655  0.1878  0.4740
   57TMC2    H5  883   0.414   0.744  13.719 -0.3408 -0.8643  0.5259
   58MPD2     C  884   4.358   0.808  14.425  0.1509  0.2209  0.4265
   58MPD2    C1  885   4.443   0.889  14.353 -0.6744 -0.1908  0.0215
   58MPD2    C2  886   4.557   0.827  14.304 -0.3415 -0.2502 -0.2956
   58MPD2    C3  887   4.576   0.691  14.312  0.3490  0.1240  0.5825
   58MPD2    C4  888   4.483   0.613  14.371 -0.4302  0.4371  0.2553
   58MPD2    C5  889   4.378   0.675  14.437 -0.6778  0.0690 -0.0731
   58MPD2     H  890   4.632   0.880  14.247  0.8221 -0.5105  0.9972
   58MPD2    H1  891   4.490   0.505  14.380 -0.4026  0.3483 -0.8669
   58MPD2    H2  892   4.262   0.851  14.455 -1.3922 -1.6184 -1.8524
   58MPD2    H3  893   4.312   0.608  14.492 -1.0935 -0.5739 -1.3579
   58MPD2     N  894   4.680   0.630  14.237  0.1441 -0.3964  0.2006
   58MPD2    H5  895   4.669   0.535  14.204  0.2036 -0.7470  1.1862
   58MPD2    N1  896   4.431   1.026  14.326  0.2830 -0.1930  0.5195
   58MPD2    H7  897   4.513   1.062  14.279 -0.1154  1.2951  0.9780
   59MPD2     C  898   2.543   0.899  13.301 -0.0813 -0.1250 -0.1272
   59MPD2    C1  899   2.629   0.934  13.199  0.2425 -0.0318 -0.3482
   59MPD2    C2  900   2.705   1.048  13.220 -1.5120  0.2147  0.3965
   59MPD2    C3  901   2.705   1.121  13.338  0.0903 -0.4213 -0.2070
   59MPD2    C4  902   2.622   1.081  13.438 -0.1559 -0.1784 -0.1747
   59MPD2    C5  903   2.544   0.974  13.421 -0.5731  0.9740  0.6155
   59MPD2     H  904   2.773   1.068  13.138  1.1044 -2.2924  1.9295
   59MPD2    H1  905   2.630   1.129  13.535  2.3259  0.2497 -0.5903
   59MPD2    H2  906   2.486   0.808  13.306  0.0267 -0.1653  0.3783
   59MPD2    H3  907   2.483   0.933  13.501  0.6255 -2.6856 -0.3694
   59MPD2     N  908   2.797   1.231  13.361 -0.0725 -0.7865 -0.3832
   59MPD2    H5  909   2.802   1.274  13.453 -1.0592 -0.6971 -0.3757
   59MPD2    N1  910   2.639   0.862  13.077 -0.1666 -1.1277  0.3883
   59MPD2    H7  911   2.701   0.908  13.011 -1.3302  0.6267  0.5026
   60TCq2    C1  912   2.582   0.739  13.046 -0.3464  0.1730  0.1151
   60TCq2    O2  913   2.522   0.671  13.124 -0.5075  0.6198  0.6260
   60TCq2    C2  914   2.595   0.704  12.904 -1.0555 -0.2997  0.1801
   60TCq2    C3  915   2.538   0.586  12.869  0.5872  0.1027 -0.8941
   60TCq2    C4  916   2.505   0.568  12.740  0.3590 -0.1251 -0.3061
   60TCq2    C5  917   2.550   0.656  12.641  0.3783 -0.8102 -0.2127
   60TCq2    C6  918   2.613   0.774  12.678 -0.1545  0.1003  0.3117
   60TCq2    C7  919   2.628   0.802  12.809  0.4924 -0.4556  0.1257
   60TCq2    C8  920   2.691   0.848  12.574  0.3514  0.1994  0.5613
   60TCq2    O4  921   2.728   0.785  12.474  0.6028 -0.1935 -0.8206
   60TCq2    C9  922   2.439   0.454  12.692  0.1212 -0.5075  0.1260
   60TCq2    O5  923   2.421   0.451  12.570  0.7903 -0.1011 -0.2309
   60TCq2    O6  924   2.363   0.401  12.775 -0.4457 -0.2175  0.9350
   60TCq2    H2  925   2.512   0.500  12.929  2.4580  0.7288  0.8305
   60TCq2    H3  926   2.533   0.637  12.536 -1.9220  3.9194 -0.6858
   60TCq2    H4  927   2.689   0.887  12.834 -1.2753  1.1253 -0.9453
   61MPD2     C  928   1.897   2.165  15.632 -0.0260 -0.2972 -0.4722
   61MPD2    C1  929   1.855   2.295  15.610 -0.3509  0.4079  0.0548
   61MPD2    C2  930   1.904   2.367  15.499  0.3306  0.4258  0.3876
   61MPD2    C3  931   1.984   2.305  15.409 -0.0650 -0.8218 -0.5870
   61MPD2    C4  932   2.017   2.174  15.428 -0.1722  0.1417  0.8002
   61MPD2    C5  933   1.976   2.105  15.540  0.1286 -0.3703 -0.4574
   61MPD2     H  934   1.886   2.473  15.486  1.0765  0.4385 -0.5691
   61MPD2    H1  935   2.087   2.132  15.357 -0.3866 -0.1023  0.7330
   61MPD2    H2  936   1.874   2.115  15.726 -2.5026  1.3828 -0.1831
   61MPD2    H3  937   2.011   2.004  15.557  0.9858 -0.3147 -1.8246
   61MPD2     N  938   2.029   2.361  15.281  0.3078 -0.1464  0.1623
   61MPD2    H5  939   2.091   2.298  15.231  0.6686  1.6981 -1.6932
   61MPD2    N1  940   1.764   2.363  15.693  0.1098 -0.0553 -0.2263
   61MPD2    H7  941   1.713   2.441  15.653 -0.9537 -0.8497 -0.4047
   62TCq2    C1  942   1.717   2.323  15.817 -0.2161 -0.2142 -0.1154
   62TCq2    O2  943   1.738   2.221  15.885 -0.5214 -0.0050  0.8340
   62TCq2    C2  944   1.620   2.418  15.865  0.3680  0.3870  0.5244
   62TCq2    C3  945   1.511   2.374  15.926 -0.9759 -0.1108 -0.3432
   62TCq2    C4  946   1.399   2.451  15.961  0.3737  0.5622 -0.3893
   62TCq2    C5  947   1.404   2.586  15.929 -0.4722 -0.6131 -0.1592
   62TCq2    C6  948   1.520   2.626  15.863 -0.4972  0.2563 -0.3760
   62TCq2    C7  949   1.633   2.548  15.835 -0.1876  0.3937 -0.3828
   62TCq2    C8  950   1.507   2.738  15.774  0.0346 -0.4721  0.6638
   62TCq2    O4  951   1.613   2.791  15.748 -0.3494 -0.0171 -0.2216
   62TCq2    C9  952   1.293   2.389  16.035  0.0664  0.6901 -0.3287
   62TCq2    O5  953   1.185   2.459  16.059 -1.0567 -0.2724 -0.2914
   62TCq2    O6  954   1.304   2.261  16.056  0.3273 -0.3241  0.6477
   62TCq2    H2  955   1.508   2.265  15.932 -1.4923 -0.1041 -0.4170
   62TCq2    H3  956   1.319   2.649  15.953  0.9117  1.0637  0.2582
   62TCq2    H4  957   1.723   2.592  15.793  0.1603  1.5217  1.5697
   63TMC2    C1  958   1.670   2.492  11.280  0.2345 -0.1076  0.2783
   63TMC2    C2  959   1.757   2.549  11.368 -0.0342  0.4558  0.7767
   63TMC2    C3  960   1.873   2.586  11.308  0.2735 -0.6209 -0.3622
   63TMC2    C4  961   1.686   2.485  11.143 -0.3098  0.1103 -0.0494
   63TMC2    C5  962   1.801   2.533  11.089  0.4503  0.9944 -0.4191
   63TMC2    C6  963   1.900   2.580  11.176  0.3097 -0.4370  1.1734
   63TMC2     C  964   1.530   2.473  11.335  0.1634 -0.0852 -0.5358
   63TMC2     O  965   1.496   2.536  11.436  0.3605  0.3277 -0.3134
   63TMC2     H  966   1.731   2.543  11.473  1.3847  1.5545  1.2024
   63TMC2    H1  967   1.600   2.464  11.080  0.3240 -0.1430 -0.8415
   63TMC2    H2  968   1.989   2.634  11.143 -0.1766  0.0640  0.6818
   63TMC2    C7  969   1.783   2.596  10.960  0.0199 -0.3092 -0.2203
   63TMC2    C8  970   1.961   2.679  11.372 -0.0224 -0.4549 -0.4424
   63TMC2    O1  971   1.697   2.554  10.884 -0.0381 -0.3866 -1.0197
   63TMC2    O2  972   2.009   2.775  11.317  0.1735  0.0382  0.3581
   63TMC2    O5  973   1.954   2.639  11.501  0.0304  0.4213  0.0740
   63TMC2    H5  974   1.937   2.544  11.516 -2.9161  0.4164 -3.5273
   64MPD2     C  975   1.079   2.221  11.345 -0.2037  0.0121  0.6357
   64MPD2    C1  976   1.174   2.151  11.281 -0.1088 -0.1207  0.5455
   64MPD2    C2  977   1.303   2.199  11.255  0.3146  0.4327  0.2042
   64MPD2    C3  978   1.335   2.324  11.302  0.0057 -0.8803  0.1319
   64MPD2    C4  979   1.246   2.396  11.385  0.3051 -0.0618  0.0671
   64MPD2    C5  980   1.114   2.345  11.394 -0.2398  0.6353 -0.1109
   64MPD2     H  981   1.369   2.143  11.190  0.8811  1.8399 -0.4339
   64MPD2    H1  982   1.277   2.490  11.429  2.1003 -0.0626 -1.2117
   64MPD2    H2  983   0.975   2.191  11.354  0.3159 -1.9247  0.1550
   64MPD2    H3  984   1.044   2.402  11.453 -1.3619  0.2011 -1.0310
   64MPD2     N  985   1.464   2.368  11.278 -0.0352 -0.1344 -0.1980
   64MPD2    H5  986   1.520   2.306  11.220  1.3816  2.5981 -1.7287
   64MPD2    N1  987   1.153   2.029  11.213 -0.1681  0.6477 -0.9955
   64MPD2    H7  988   1.234   1.996  11.162  1.1419  0.5485  1.1606
   65MPD2     C  989   2.270   1.840  15.963 -0.1077  0.0058 -0.3755
   65MPD2    C1  990   2.299   1.846  15.827  0.0660  0.0732 -0.1528
   65MPD2    C2  991   2.329   1.727  15.764  0.9419  0.0566  0.6065
   65MPD2    C3  992   2.322   1.605  15.826 -0.1355 -0.6410  0.7660
   65MPD2    C4  993   2.294   1.602  15.963 -0.1576  0.0843  0.2311
   65MPD2    C5  994   2.270   1.717  16.032  0.3374  0.3167 -0.2621
   65MPD2     H  995   2.349   1.733  15.658 -0.4797  1.1176  0.4085
   65MPD2    H1  996   2.289   1.506  16.013  1.0902 -0.9735 -1.6357
   65MPD2    H2  997   2.248   1.926  16.025 -0.8763  0.5080 -1.3581
   65MPD2    H3  998   2.256   1.729  16.139  2.0688 -0.2143  0.0215
   65MPD2     N  999   2.355   1.479  15.761  0.4122 -0.3988  0.2401
   65MPD2    H5 1000   2.363   1.393  15.814 -0.0702  0.9567  2.5326
   65MPD2    N1 1001   2.318   1.962  15.749 -0.1338 -0.1528  0.3788
   65MPD2    H7 1002   2.361   1.942  15.660  2.1878  1.9081  1.0442
   66TCq2    C1 1003   2.285   2.087  15.790  0.3388 -0.0466 -0.2322
   66TCq2    O2 1004   2.233   2.131  15.894 -0.4347  0.3458 -0.2554
   66TCq2    C2 1005   2.325   2.178  15.685  0.2506  0.6292  0.4991
   66TCq2    C3 1006   2.417   2.135  15.593 -0.2442  0.3185  0.2038
   66TCq2    C4 1007   2.444   2.219  15.496  0.2959 -0.0471  0.1416
   66TCq2    C5 1008   2.369   2.327  15.483  0.3932 -0.0308 -0.2374
   66TCq2    C6 1009   2.284   2.375  15.580  0.1056  0.4187 -0.6018
   66TCq2    C7 1010   2.273   2.301  15.693 -0.2364  0.0757 -0.3778
   66TCq2    C8 1011   2.247   2.513  15.582 -0.2373  0.1294  0.5640
   66TCq2    O4 1012   2.301   2.590  15.510  0.3013  0.4408 -0.1400
   66TCq2    C9 1013   2.524   2.175  15.389  0.2850  0.1572  0.5412
   66TCq2    O5 1014   2.578   2.259  15.318 -0.5089  0.1152 -0.7733
   66TCq2    O6 1015   2.558   2.052  15.386  0.8913 -0.2227 -0.5851
   66TCq2    H2 1016   2.488   2.054  15.607  0.8802  1.5112  1.4285
   66TCq2    H3 1017   2.386   2.384  15.393 -3.3399  0.2924 -0.7208
   66TCq2    H4 1018   2.217   2.318  15.784 -0.4463  1.8122 -0.8291
   67MPD2     C 1019   2.899   1.545  14.248  0.1581  0.3330  0.2274
   67MPD2    C1 1020   2.807   1.603  14.332  0.1232 -0.4348  0.0019
   67MPD2    C2 1021   2.673   1.579  14.305  0.7436 -0.4680  1.0568
   67MPD2    C3 1022   2.629   1.487  14.212  0.5039  0.4225  0.3213
   67MPD2    C4 1023   2.718   1.435  14.118 -0.1996 -0.2482 -0.3173
   67MPD2    C5 1024   2.851   1.465  14.142 -0.3759  0.3910  0.2539
   67MPD2     H 1025   2.602   1.629  14.370  1.0529 -0.8083  1.6609
   67MPD2    H1 1026   2.702   1.361  14.041  1.7884  0.6887 -1.6475
   67MPD2    H2 1027   3.003   1.572  14.259  0.1065  0.7187 -0.2130
   67MPD2    H3 1028   2.920   1.420  14.072 -1.2246 -1.3687  0.5313
   67MPD2     N 1029   2.492   1.464  14.185 -0.0692  0.3766 -0.4132
   67MPD2    H5 1030   2.478   1.409  14.101  1.5613 -1.3521  0.4474
   67MPD2    N1 1031   2.843   1.696  14.431 -0.6542 -0.5408 -0.0713
   67MPD2    H7 1032   2.771   1.754  14.473 -0.8855 -0.8985  0.0234
   68TCq2    C1 1033   2.971   1.734  14.466 -0.1945 -1.1870  0.0294
   68TCq2    O2 1034   3.079   1.680  14.447  0.1042 -0.2047  0.0369
   68TCq2    C2 1035   2.966   1.831  14.576  0.5244 -0.8885 -0.1696
   68TCq2    C3 1036   2.862   1.923  14.591  0.2883 -0.3820 -1.0414
   68TCq2    C4 1037   2.858   1.995  14.705 -1.0279  0.0660  0.5453
   68TCq2    C5 1038   2.950   1.983  14.806 -0.1291 -0.3599 -0.1459
   68TCq2    C6 1039   3.054   1.885  14.785  0.9292  0.0476 -0.6192
   68TCq2    C7 1040   3.060   1.815  14.675 -0.0088  0.0516  0.3040
   68TCq2    C8 1041   3.133   1.831  14.901  0.0362  0.2134 -0.3078
   68TCq2    O4 1042   3.221   1.752  14.874  0.2818 -0.2186  0.2832
   68TCq2    C9 1043   2.765   2.096  14.734  0.3076 -0.5891  0.3116
   68TCq2    O5 1044   2.695   2.130  14.632  0.4844  0.4523 -0.2185
   68TCq2    O6 1045   2.742   2.123  14.857  0.0589 -0.3613  0.9834
   68TCq2    H2 1046   2.789   1.938  14.513  0.2410  0.7744 -0.7799
   68TCq2    H3 1047   2.950   2.053  14.889  0.0614 -1.5560  0.8495
   68TCq2    H4 1048   3.147   1.756  14.649 -1.2153 -1.5276 -0.1501
   69TMC2    C1 1049   0.486   3.180  12.745  0.5675  0.4316  0.6960
   69TMC2    C2 1050   0.391   3.274  12.730 -0.5054  0.3461 -0.4110
   69TMC2    C3 1051   0.400   3.359  12.623  0.1239 -0.3506  0.8199
   69TMC2    C4 1052   0.579   3.151  12.647  0.6561  0.0362  0.6962
   69TMC2    C5 1053   0.579   3.228  12.530 -0.0856  0.4778 -0.4332
   69TMC2    C6 1054   0.494   3.333  12.523 -0.8401  0.1289  0.0957
   69TMC2     C 1055   0.456   3.066  12.834 -0.1702  0.3205  0.3289
   69TMC2     O 1056   0.338   3.046  12.865  0.5655  0.8156 -0.1021
   69TMC2     H 1057   0.315   3.278  12.806 -0.6117 -1.3925 -0.4130
   69TMC2    H1 1058   0.622   3.052  12.640  0.9067  0.4540 -4.2444
   69TMC2    H2 1059   0.514   3.400  12.440  1.4519 -0.6736 -0.0071
   69TMC2    C7 1060   0.630   3.168  12.409 -0.8174  0.0262 -1.0601
   69TMC2    C8 1061   0.295   3.457  12.603  0.6046  0.2629 -0.3914
   69TMC2    O1 1062   0.721   3.088  12.424  0.1515  0.7204 -0.6693
   69TMC2    O2 1063   0.192   3.459  12.676 -0.2200 -0.0862 -0.7156
   69TMC2    O5 1064   0.353   3.574  12.575  0.2405 -0.0074  0.3275
   69TMC2    H5 1065   0.450   3.563  12.569  0.0722  0.7068 -3.4845
   70MPD2     C 1066   0.692   2.876  13.029 -0.5287  0.3882 -0.1436
   70MPD2    C1 1067   0.577   2.891  12.961 -0.5584 -0.5375  0.0331
   70MPD2    C2 1068   0.483   2.795  12.957  0.0004  0.1525  0.5730
   70MPD2    C3 1069   0.504   2.677  13.023 -0.2833 -0.0945 -0.0509
   70MPD2    C4 1070   0.625   2.656  13.087  0.1604  0.4387  0.0174
   70MPD2    C5 1071   0.716   2.755  13.091  0.0505  0.2388  0.2275
   70MPD2     H 1072   0.392   2.806  12.899 -0.0123 -2.7621  0.0404
   70MPD2    H1 1073   0.631   2.557  13.132 -1.2208  0.7598  0.8987
   70MPD2    H2 1074   0.772   2.948  13.041 -0.2616  0.2311 -1.0106
   70MPD2    H3 1075   0.809   2.735  13.144  0.6076  0.8951 -0.4959
   70MPD2     N 1076   0.421   2.561  13.014 -0.2603  0.1517 -0.1968
   70MPD2    H5 1077   0.456   2.473  13.050 -0.6913 -0.8641 -2.2446
   70MPD2    N1 1078   0.566   3.010  12.889  0.0560  0.1083 -0.0641
   70MPD2    H7 1079   0.656   3.051  12.869 -0.7182  1.2300 -1.2230
   71TMC2    C1 1080   1.851   3.404   1.870 -0.2037  0.5540 -0.4173
   71TMC2    C2 1081   1.939   3.374   1.974  1.0220  0.4535 -0.4669
   71TMC2    C3 1082   1.897   3.412   2.103 -0.5125  0.3974 -0.2852
   71TMC2    C4 1083   1.739   3.479   1.889  0.1721 -0.4592  0.4258
   71TMC2    C5 1084   1.708   3.497   2.019 -0.3302 -0.4904 -0.5713
   71TMC2    C6 1085   1.780   3.473   2.130 -0.3779  0.4986  0.8576
   71TMC2     C 1086   1.896   3.392   1.732 -0.0058  0.0590 -0.1775
   71TMC2     O 1087   1.824   3.434   1.649  0.4742  0.2205 -0.2885
   71TMC2     H 1088   2.036   3.328   1.961  1.4015  0.8362  1.0698
   71TMC2    H1 1089   1.681   3.519   1.806 -0.7500 -1.1567  0.7283
   71TMC2    H2 1090   1.745   3.508   2.226 -0.2897 -0.4402  1.2380
   71TMC2    C7 1091   1.591   3.573   2.038  0.3677  0.2680  0.8296
   71TMC2    C8 1092   1.964   3.339   2.210  0.1358  0.0419 -0.3265
   71TMC2    O1 1093   1.572   3.621   2.153  0.0821  1.1227  0.1833
   71TMC2    O2 1094   2.027   3.237   2.193  0.1027  0.1442  0.0598
   71TMC2    O5 1095   1.882   3.353   2.314 -0.2361 -0.6198  0.4912
   71TMC2    H5 1096   1.879   3.443   2.352  0.2711  0.5327 -2.1895
   72MPD2     C 1097   2.246   3.312   1.365  0.1639  0.1451  0.7694
   72MPD2    C1 1098   2.127   3.381   1.364  0.2830  1.0620  0.5844
   72MPD2    C2 1099   2.047   3.385   1.472 -0.1881  0.2495 -0.5110
   72MPD2    C3 1100   2.086   3.319   1.586 -0.3789  0.4866 -0.6521
   72MPD2    C4 1101   2.207   3.238   1.586  0.5991  0.5346  0.1177
   72MPD2    C5 1102   2.286   3.248   1.475 -0.4453 -0.1689 -0.3995
   72MPD2     H 1103   1.962   3.452   1.470 -0.2434  0.2461  1.4118
   72MPD2    H1 1104   2.250   3.196   1.676 -1.1945 -0.1239  0.6536
   72MPD2    H2 1105   2.316   3.320   1.283  1.5690  2.0599  2.1781
   72MPD2    H3 1106   2.388   3.213   1.478  0.5360  2.7681  1.5266
   72MPD2     N 1107   2.019   3.330   1.715  0.5325 -0.9327 -0.3783
   72MPD2    H5 1108   2.065   3.293   1.797 -1.4776  2.7252  2.4259
   72MPD2    N1 1109   2.086   3.459   1.254 -0.3565 -0.2285 -0.3050
   72MPD2    H7 1110   2.003   3.518   1.257 -0.3459 -0.1762 -1.0999
   73TMC2    C1 1111   2.458   0.173  14.178 -0.7315  0.1953 -0.1995
   73TMC2    C2 1112   2.342   0.158  14.251  0.4718  0.7620  0.5026
   73TMC2    C3 1113   2.353   0.177  14.388  0.2601  0.2566  0.2668
   73TMC2    C4 1114   2.572   0.194  14.241 -0.1412 -0.0111 -0.0656
   73TMC2    C5 1115   2.570   0.220  14.370  0.0429 -0.0607 -0.4417
   73TMC2    C6 1116   2.468   0.209  14.453  0.2666  0.1481 -0.2207
   73TMC2     C 1117   2.450   0.210  14.042  0.2252  0.0312 -0.3028
   73TMC2     O 1118   2.556   0.244  13.996  0.0930  0.2592  0.3570
   73TMC2     H 1119   2.249   0.144  14.198  1.5631 -0.4046 -1.0721
   73TMC2    H1 1120   2.666   0.196  14.188  0.9878 -0.5311  1.8919
   73TMC2    H2 1121   2.473   0.225  14.559  0.9928  1.1883 -0.4201
   73TMC2    C7 1122   2.655   0.342  14.391  0.5216 -0.8307  0.5356
   73TMC2    C8 1123   2.234   0.148  14.475 -0.2638 -1.0082 -0.0652
   73TMC2    O1 1124   2.708   0.370  14.495 -0.1558 -0.5758  0.2383
   73TMC2    O2 1125   2.241   0.157  14.593  0.4000  0.0890  0.6402
   73TMC2    O5 1126   2.138   0.089  14.403  0.4854  0.1912 -0.1919
   73TMC2    H5 1127   2.156   0.045  14.318 -1.4566 -0.5273 -0.2277
   74MPD2     C 1128   2.244   0.365  13.601  0.1645  0.3168 -1.2256
   74MPD2    C1 1129   2.353   0.409  13.673  0.4077 -0.1079 -0.0191
   74MPD2    C2 1130   2.377   0.354  13.795  1.1392 -0.5142 -0.8043
   74MPD2    C3 1131   2.297   0.259  13.852  1.2231  0.4717  0.2470
   74MPD2    C4 1132   2.180   0.224  13.784 -0.4510  0.0762 -0.0918
   74MPD2    C5 1133   2.155   0.285  13.660 -0.7206 -0.4688 -0.2986
   74MPD2     H 1134   2.459   0.396  13.852  0.0433 -1.7501  1.7160
   74MPD2    H1 1135   2.111   0.152  13.827  2.2419 -1.3174  1.9040
   74MPD2    H2 1136   2.223   0.420  13.509 -3.2129  1.4729  0.2399
   74MPD2    H3 1137   2.062   0.270  13.608 -0.0136  0.4673 -1.8283
   74MPD2     N 1138   2.323   0.220  13.985 -0.4662  0.7465  0.1660
   74MPD2    H5 1139   2.243   0.174  14.029 -0.0896  0.5188  0.6178
   74MPD2    N1 1140   2.444   0.509  13.623  0.0461  0.4831  0.1261
   74MPD2    H7 1141   2.443   0.518  13.522  2.0852 -1.2011 -0.0489
   75TCq2    C1 1142   2.402   1.478  14.285  0.3292  0.4599  0.0981
   75TCq2    O2 1143   2.420   1.511  14.402  0.4501  0.3019 -0.1208
   75TCq2    C2 1144   2.264   1.466  14.240 -0.5636 -0.6678 -0.2054
   75TCq2    C3 1145   2.169   1.470  14.339  0.9668 -0.1850 -0.0299
   75TCq2    C4 1146   2.040   1.465  14.300  0.0936  0.4877 -0.5698
   75TCq2    C5 1147   2.002   1.451  14.168 -0.3156  0.1605  0.1370
   75TCq2    C6 1148   2.102   1.456  14.075 -0.4882 -0.1961  0.3405
   75TCq2    C7 1149   2.237   1.461  14.108 -0.5879  0.6562 -0.6158
   75TCq2    C8 1150   2.060   1.459  13.939 -0.4994 -0.1654 -0.9978
   75TCq2    O4 1151   2.142   1.431  13.854 -0.1105  0.2131 -0.1607
   75TCq2    C9 1152   1.938   1.454  14.402 -0.2324 -0.5770 -0.5765
   75TCq2    O5 1153   1.825   1.442  14.359 -0.3595  0.6475 -0.1126
   75TCq2    O6 1154   1.972   1.411  14.515  0.1320 -0.2769  0.9946
   75TCq2    H2 1155   2.204   1.460  14.441  2.2798  2.8211 -0.1841
   75TCq2    H3 1156   1.901   1.423  14.139  0.4896 -3.3042  0.7008
   75TCq2    H4 1157   2.303   1.466  14.021  0.6106  1.6860  0.3557
   76MPD2     C 1158   1.392   2.473  12.340  0.2726 -0.0310  0.3347
   76MPD2    C1 1159   1.314   2.389  12.256 -0.1036  0.0059 -0.0770
   76MPD2    C2 1160   1.336   2.251  12.250  0.6296 -0.5050 -0.2605
   76MPD2    C3 1161   1.438   2.202  12.331 -0.2587  0.0546 -0.5055
   76MPD2    C4 1162   1.506   2.289  12.422 -0.6849  0.1473  0.3886
   76MPD2    C5 1163   1.476   2.417  12.433 -0.6732  0.9397  0.0537
   76MPD2     H 1164   1.281   2.180  12.189 -1.9741  0.7108  0.6473
   76MPD2    H1 1165   1.584   2.246  12.483 -2.0702 -1.3627  1.1013
   76MPD2    H2 1166   1.379   2.580  12.348 -1.1468 -0.2760  1.3244
   76MPD2    H3 1167   1.520   2.478  12.511 -2.2497  1.9405  0.1570
   76MPD2     N 1168   1.464   2.061  12.348  0.8780  0.9358  0.5169
   76MPD2    H5 1169   1.511   2.041  12.436  1.6232  1.2162  0.1723
   76MPD2    N1 1170   1.225   2.441  12.163  0.7364 -0.3620  0.1302
   76MPD2    H7 1171   1.171   2.368  12.116  2.5457 -1.4994 -0.1501
   77TCq2    C1 1172   1.424   1.959  12.263  0.5107  0.1959 -0.0828
   77TCq2    O2 1173   1.356   1.961  12.163 -0.1039  0.4878 -0.0122
   77TCq2    C2 1174   1.491   1.837  12.306 -0.8148 -0.2131 -0.1371
   77TCq2    C3 1175   1.532   1.756  12.206 -0.2448  0.2461 -0.1835
   77TCq2    C4 1176   1.593   1.644  12.247  0.0079 -0.3541  0.0297
   77TCq2    C5 1177   1.604   1.611  12.376  1.1981  0.0999  0.5156
   77TCq2    C6 1178   1.550   1.689  12.477 -0.2056 -0.0485  0.7310
   77TCq2    C7 1179   1.494   1.807  12.438  0.8792 -0.4949  0.2170
   77TCq2    C8 1180   1.594   1.663  12.616 -0.3794 -0.3166  0.2115
   77TCq2    O4 1181   1.672   1.570  12.615 -0.1747 -0.1690 -0.4441
   77TCq2    C9 1182   1.638   1.545  12.146  0.6516  0.2562 -0.7875
   77TCq2    O5 1183   1.701   1.448  12.192 -0.1035 -0.0974  0.3633
   77TCq2    O6 1184   1.603   1.567  12.024 -0.3785  0.1461 -0.4775
   77TCq2    H2 1185   1.525   1.783  12.102  2.8865  1.5995 -0.0358
   77TCq2    H3 1186   1.647   1.515  12.401  2.9348  0.5282 -0.8631
   77TCq2    H4 1187   1.466   1.874  12.518 -0.5272  1.6600 -2.0664
   78MPD1     C 1188   3.061   2.666   2.072  0.2772  0.9497 -0.2741
   78MPD1    C1 1189   3.193   2.674   2.049  0.0416  0.2709  0.5715
   78MPD1    C2 1190   3.236   2.756   1.949  0.7514 -0.0652 -0.3629
   78MPD1    C3 1191   3.151   2.824   1.868  0.5967 -0.9400 -0.6915
   78MPD1    C4 1192   3.023   2.816   1.898 -0.1015 -1.0770  0.3131
   78MPD1    C5 1193   2.976   2.741   2.001 -0.1077 -0.3932 -0.8222
   78MPD1     H 1194   3.343   2.773   1.944  1.0913 -2.1573 -0.3505
   78MPD1    H1 1195   2.961   2.868   1.827 -1.6462 -1.0585  1.6737
   78MPD1    H2 1196   3.012   2.609   2.150  1.4087  1.8091  1.0631
   78MPD1    H3 1197   2.871   2.744   2.029 -0.2417  0.5417 -1.4556
   78MPD1     N 1198   3.190   2.903   1.758  0.2036  0.1954  0.0467
   78MPD1    H5 1199   3.119   2.957   1.710  0.6076  1.9185  1.3778
   78MPD1    N1 1200   3.278   2.640   2.156 -0.1194 -0.0027  0.5613
   78MPD1    H6 1201   3.378   2.644   2.137 -0.1808  2.1296  0.6973
   78MPD1    H7 1202   3.250   2.579   2.232  0.3354 -0.3826  0.4244
   79TCq2    C1 1203   3.315   2.913   1.705 -0.2685  0.0590 -0.3907
   79TCq2    O2 1204   3.414   2.850   1.745  0.1018  0.0658 -0.0472
   79TCq2    C2 1205   3.332   3.020   1.601  0.0359  0.0822 -0.0518
   79TCq2    C3 1206   3.236   3.119   1.581  0.4409  1.1865 -0.5573
   79TCq2    C4 1207   3.251   3.204   1.478  0.2540  0.8274 -0.1829
   79TCq2    C5 1208   3.359   3.191   1.395  0.1788  0.9418  0.3256
   79TCq2    C6 1209   3.448   3.096   1.415 -0.1940  0.6748  0.8352
   79TCq2    C7 1210   3.438   3.005   1.518 -0.4550 -0.3439  0.2012
   79TCq2    C8 1211   3.572   3.090   1.333  0.2182 -0.3300  0.6664
   79TCq2    O4 1212   3.656   3.012   1.380 -0.5759 -0.0918  0.4779
   79TCq2    C9 1213   3.154   3.315   1.470 -0.2793  0.5169  0.0294
   79TCq2    O5 1214   3.047   3.306   1.534 -0.1953  0.4367 -0.2365
   79TCq2    O6 1215   3.167   3.394   1.370 -0.2683 -0.2567  0.7657
   79TCq2    H2 1216   3.158   3.144   1.653  1.8193  1.9603  0.6663
   79TCq2    H3 1217   3.366   3.265   1.316  1.7620  1.3401  0.8437
   79TCq2    H4 1218   3.506   2.921   1.516  0.4071  0.3796 -0.6509
   80MPD2     C 1219   0.463   2.124  12.125  0.1088 -0.3589  1.0369
   80MPD2    C1 1220   0.386   2.057  12.042 -0.3848  1.1348 -0.5070
   80MPD2    C2 1221   0.251   2.087  12.033 -0.2983  0.7977  0.6123
   80MPD2    C3 1222   0.199   2.170  12.137 -0.0797 -0.0709  0.6641
   80MPD2    C4 1223   0.280   2.225  12.233  0.2417  0.3037  0.3239
   80MPD2    C5 1224   0.412   2.209  12.219  0.3718 -0.1304  0.5366
   80MPD2     H 1225   0.183   2.032  11.969  0.7536 -1.1580  1.1692
   80MPD2    H1 1226   0.239   2.277  12.319 -2.0289  0.5419 -0.9207
   80MPD2    H2 1227   0.569   2.106  12.139 -0.0602 -1.7456  0.5794
   80MPD2    H3 1228   0.477   2.267  12.283  2.8276  0.5795 -2.5831
   80MPD2     N 1229   0.062   2.194  12.151  0.7183 -0.2492 -0.0646
   80MPD2    H5 1230   0.036   2.232  12.241  0.4024  0.4031 -0.4294
   80MPD2    N1 1231   0.439   1.954  11.954 -0.4778  0.1707 -0.5416
   80MPD2    H7 1232   0.375   1.885  11.915  0.0932 -0.8836  0.4272
   81TCq2    C1 1233   0.570   1.916  11.951  0.1385  0.4558 -0.0226
   81TCq2    O2 1234   0.670   1.976  11.984 -0.3901 -0.6500 -0.4995
   81TCq2    C2 1235   0.581   1.779  11.894 -0.0296 -0.3646  0.2338
   81TCq2    C3 1236   0.703   1.720  11.896 -0.1853 -0.3979  0.5678
   81TCq2    C4 1237   0.728   1.610  11.822  0.8345  0.0359  0.4477
   81TCq2    C5 1238   0.632   1.565  11.737 -0.1555  0.5219 -0.0171
   81TCq2    C6 1239   0.508   1.621  11.737 -0.5509 -0.4486 -0.1485
   81TCq2    C7 1240   0.482   1.727  11.816 -0.5820  0.0083  0.5584
   81TCq2    C8 1241   0.392   1.553  11.670 -0.1104  0.0609  0.0017
   81TCq2    O4 1242   0.415   1.492  11.567  0.0833  0.4673 -0.4629
   81TCq2    C9 1243   0.864   1.551  11.808 -0.2562  0.0576 -0.1354
   81TCq2    O5 1244   0.871   1.448  11.734 -0.1933  0.4643  0.2105
   81TCq2    O6 1245   0.955   1.589  11.884 -0.3697  0.6388  0.1373
   81TCq2    H2 1246   0.785   1.762  11.952  1.0294 -2.0142  0.0039
   81TCq2    H3 1247   0.649   1.478  11.675 -2.4014 -1.1329  1.6787
   81TCq2    H4 1248   0.390   1.780  11.794 -0.4559  0.6105  1.4752
   82MPD2     C 1249   2.294   1.404  10.719 -0.0561  0.5781  0.4988
   82MPD2    C1 1250   2.380   1.407  10.614 -0.1616  0.2071  0.8167
   82MPD2    C2 1251   2.511   1.356  10.632 -0.5246 -0.2821 -0.3404
   82MPD2    C3 1252   2.548   1.290  10.749 -0.2447  0.6771  0.0219
   82MPD2    C4 1253   2.447   1.278  10.840 -0.1019 -0.5368  0.1408
   82MPD2    C5 1254   2.325   1.336  10.827 -0.2652  0.0945 -0.4071
   82MPD2     H 1255   2.585   1.377  10.556 -1.0701 -1.2735 -1.1463
   82MPD2    H1 1256   2.465   1.232  10.937  0.0502 -0.3390  0.2072
   82MPD2    H2 1257   2.205   1.466  10.719 -0.6111 -0.2259  0.0519
   82MPD2    H3 1258   2.258   1.331  10.912 -0.2837 -2.3444 -0.5571
   82MPD2     N 1259   2.677   1.240  10.783  0.6314  0.0786  0.0855
   82MPD2    H5 1260   2.685   1.207  10.879 -1.1063  0.2626  0.2933
   82MPD2    N1 1261   2.339   1.475  10.497  0.5749  0.6631  0.0898
   82MPD2    H7 1262   2.245   1.513  10.496  0.2160 -0.2159 -0.7449
   83TCq2    C1 1263   2.782   1.247  10.695  0.2203  0.2749  0.8636
   83TCq2    O2 1264   2.781   1.273  10.577  0.0770  0.0274  0.3834
   83TCq2    C2 1265   2.913   1.222  10.754 -0.0696 -0.0048  0.1867
   83TCq2    C3 1266   2.935   1.276  10.878  0.1376  0.5452  0.6249
   83TCq2    C4 1267   3.013   1.202  10.962  0.1002 -0.7592 -0.2075
   83TCq2    C5 1268   3.075   1.087  10.920  0.1878 -0.2305 -0.5963
   83TCq2    C6 1269   3.053   1.033  10.799  0.0860  0.3656 -0.0950
   83TCq2    C7 1270   2.978   1.105  10.708 -0.2916 -0.5277 -0.4096
   83TCq2    C8 1271   3.024   0.889  10.798 -0.2923  0.5152  0.1321
   83TCq2    O4 1272   2.925   0.863  10.731 -0.0595 -0.1327  0.6670
   83TCq2    C9 1273   3.044   1.255  11.091  0.4516 -1.0924 -0.2716
   83TCq2    O5 1274   3.144   1.213  11.153 -0.1123 -0.1927 -0.3978
   83TCq2    O6 1275   2.984   1.363  11.115 -0.3961  0.2468 -0.2985
   83TCq2    H2 1276   2.888   1.371  10.901 -1.3551  0.0936 -0.5540
   83TCq2    H3 1277   3.141   1.034  10.987  0.5330  0.5196 -0.3431
   83TCq2    H4 1278   2.963   1.070  10.607  2.2118 -2.7244 -0.0089
   84TCq2    C1 1279   0.248   0.071  11.016 -0.4011  0.5890  0.0631
   84TCq2    O2 1280   0.248   4.719  10.918 -0.0326 -0.1531  0.0839
   84TCq2    C2 1281   0.151   0.053  11.119 -0.5260  0.2598  0.1444
   84TCq2    C3 1282   0.179   0.080  11.252 -0.1489  0.2113  0.4114
   84TCq2    C4 1283   0.094   0.040  11.355  0.1498  0.2124 -0.3515
   84TCq2    C5 1284   4.705   4.684  11.322 -0.0134 -0.3438  0.4607
   84TCq2    C6 1285   4.690   4.660  11.190 -0.0134  0.3207 -0.2021
   84TCq2    C7 1286   0.049   4.693  11.093  0.3722  0.1046  0.0819
   84TCq2    C8 1287   4.570   4.584  11.160  0.1124  0.5087 -0.6539
   84TCq2    O4 1288   4.577   4.508  11.064  0.2605  0.0795  0.8335
   84TCq2    C9 1289   0.137   0.068  11.491  0.4066  0.6245 -0.4185
   84TCq2    O5 1290   0.054   0.046  11.582 -0.2375  0.0579  0.3839
   84TCq2    O6 1291   0.255   0.109  11.507  0.3393 -0.2767  0.0290
   84TCq2    H2 1292   0.278   0.125  11.264 -0.4910  1.0629  0.0631
   84TCq2    H3 1293   4.641   4.645  11.400 -0.7911  0.7050  0.3504
   84TCq2    H4 1294   0.048   4.640  10.998  0.4494 -0.3659  0.3416
   85MPD2     C 1295   3.991   3.150  16.224 -0.3881  0.3539  0.7566
   85MPD2    C1 1296   4.114   3.109  16.262 -0.3249 -0.2123 -0.4051
   85MPD2    C2 1297   4.223   3.199  16.266 -0.1663 -0.5503  0.4390
   85MPD2    C3 1298   4.194   3.333  16.243  0.9941 -0.2345  0.3745
   85MPD2    C4 1299   4.069   3.377  16.207 -0.3325  0.7585 -0.3891
   85MPD2    C5 1300   3.971   3.283  16.194 -0.6879  0.6410  0.5119
   85MPD2     H 1301   4.328   3.178  16.287  0.6305  2.3038 -0.7399
   85MPD2    H1 1302   4.045   3.482  16.192 -2.0906  0.4291  0.0837
   85MPD2    H2 1303   3.906   3.084  16.220 -0.2868  0.1909  1.3253
   85MPD2    H3 1304   3.873   3.309  16.157 -0.3394  0.7083 -0.3724
   85MPD2     N 1305   4.300   3.422  16.228 -0.4023 -0.4660 -0.0232
   85MPD2    H5 1306   4.393   3.382  16.221  0.4733  1.7629 -1.2315
   85MPD2    N1 1307   4.144   2.975  16.294 -0.3771  0.2837 -0.3085
   85MPD2    H7 1308   4.241   2.950  16.310 -1.0442 -1.4998  1.0032
   86TCq2    C1 1309   4.286   3.559  16.209  0.4949  0.0126 -0.0594
   86TCq2    O2 1310   4.197   3.632  16.247 -0.6053 -0.0468 -0.5358
   86TCq2    C2 1311   4.413   3.627  16.168  0.2926  0.5294  0.2590
   86TCq2    C3 1312   4.427   3.764  16.169 -0.1366 -0.8298 -0.4494
   86TCq2    C4 1313   4.556   3.817  16.169  0.9264  0.1465  0.5752
   86TCq2    C5 1314   4.668   3.739  16.148 -0.4137 -0.3123 -0.5820
   86TCq2    C6 1315   4.653   3.606  16.126  0.0043  0.9814  0.2913
   86TCq2    C7 1316   4.523   3.557  16.139 -0.1664 -0.1944  0.3882
   86TCq2    C8 1317   0.037   3.523  16.067  0.0412 -0.4636 -0.0696
   86TCq2    O4 1318   0.021   3.405  16.061  0.0627  0.0697 -0.1864
   86TCq2    C9 1319   4.584   3.959  16.149 -0.5073 -0.6035  0.0413
   86TCq2    O5 1320   4.702   3.978  16.100  0.0757  0.3050 -0.6230
   86TCq2    O6 1321   4.491   4.043  16.167  0.4547 -0.2340  0.1446
   86TCq2    H2 1322   4.341   3.830  16.168  2.1528  2.2275  0.4022
   86TCq2    H3 1323   0.045   3.780  16.130  0.1622 -1.2258  0.5420
   86TCq2    H4 1324   4.513   3.451  16.120  1.8694 -0.5681  1.4425
   87MPD2     C 1325   2.251   1.937   1.651 -0.4399 -0.0473  0.0378
   87MPD2    C1 1326   2.387   1.953   1.628 -0.3005  0.9451  0.5712
   87MPD2    C2 1327   2.438   2.055   1.555  0.5559 -0.2135  0.3667
   87MPD2    C3 1328   2.353   2.144   1.496  0.7370 -0.6079 -0.3525
   87MPD2    C4 1329   2.220   2.138   1.522  1.0259 -0.4723 -0.4476
   87MPD2    C5 1330   2.173   2.028   1.588  0.0095  0.1039 -0.9307
   87MPD2     H 1331   2.544   2.067   1.535  0.5625  1.1052  1.2234
   87MPD2    H1 1332   2.151   2.217   1.493  2.1709  0.6371 -0.1441
   87MPD2    H2 1333   2.200   1.855   1.700  2.0142 -1.2077  0.6353
   87MPD2    H3 1334   2.066   2.017   1.599  0.3197 -2.4071 -0.4688
   87MPD2     N 1335   2.401   2.254   1.421 -0.2899 -0.2860 -0.0860
   87MPD2    H5 1336   2.328   2.309   1.375  0.5770  0.2091 -0.8659
   87MPD2    N1 1337   2.465   1.852   1.688 -0.4268 -0.5984  0.4293
   87MPD2    H7 1338   2.414   1.781   1.741 -2.0729  1.6596  1.8696
   88TCq2    C1 1339   2.603   1.838   1.672 -0.2074 -0.5172  0.4601
   88TCq2    O2 1340   2.686   1.901   1.608  0.2204  0.5730  0.3731
   88TCq2    C2 1341   2.645   1.712   1.734 -0.3650  1.0262 -0.2504
   88TCq2    C3 1342   2.557   1.647   1.818  0.5889 -0.1131  0.7310
   88TCq2    C4 1343   2.577   1.517   1.852 -0.1865  0.2135 -0.3625
   88TCq2    C5 1344   2.679   1.448   1.798  0.0835 -0.2729  0.3815
   88TCq2    C6 1345   2.771   1.510   1.713 -0.3465 -0.1331 -0.0613
   88TCq2    C7 1346   2.752   1.646   1.673  0.1816 -0.1006  0.0504
   88TCq2    C8 1347   2.865   1.435   1.628 -0.4969  0.0813  0.2944
   88TCq2    O4 1348   2.946   1.495   1.555  0.5020 -0.0301 -0.2305
   88TCq2    C9 1349   2.498   1.453   1.946 -0.5270  0.4469  0.1490
   88TCq2    O5 1350   2.392   1.509   1.980 -0.5435 -0.3729  0.0754
   88TCq2    O6 1351   2.522   1.334   1.963  0.5064  0.5984 -0.3603
   88TCq2    H2 1352   2.484   1.701   1.876 -0.7472 -2.1081  0.9077
   88TCq2    H3 1353   2.688   1.342   1.817 -2.2209 -0.5002  0.0992
   88TCq2    H4 1354   2.823   1.692   1.605  0.8351 -0.8599  0.2055
   89MPD2     C 1355   2.700   3.442   2.337 -0.1703  0.4828 -0.0088
   89MPD2    C1 1356   2.668   3.551   2.256  0.0520 -0.1106 -0.0853
   89MPD2    C2 1357   2.774   3.625   2.209  0.7430  0.4799 -0.3780
   89MPD2    C3 1358   2.902   3.579   2.219  0.0904 -0.0022  0.0922
   89MPD2    C4 1359   2.933   3.463   2.293  0.3783 -0.0621 -0.7239
   89MPD2    C5 1360   2.825   3.389   2.344  0.3094 -0.4552  0.6902
   89MPD2     H 1361   2.772   3.718   2.154  0.7306  1.0361  0.5512
   89MPD2    H1 1362   3.031   3.418   2.300 -0.2527 -1.2780  0.3663
   89MPD2    H2 1363   2.622   3.379   2.379 -1.2004  1.6932 -0.0959
   89MPD2    H3 1364   2.850   3.294   2.389 -0.2620 -1.2076 -0.5773
   89MPD2     N 1365   3.000   3.643   2.145  0.3595 -0.0812 -0.2727
   89MPD2    H5 1366   2.970   3.726   2.094 -2.6378 -0.7947  0.3238
   89MPD2    N1 1367   2.542   3.600   2.244 -0.4644  0.6489 -0.2345
   89MPD2    H7 1368   2.540   3.688   2.192 -1.7412  1.0282  0.4674
   90TCq2    C1 1369   3.137   3.615   2.139  0.4785 -0.3616  0.0538
   90TCq2    O2 1370   3.199   3.530   2.204  0.1313  0.5063 -0.1978
   90TCq2    C2 1371   3.207   3.702   2.047  0.1900 -0.2103 -0.6147
   90TCq2    C3 1372   3.344   3.692   2.045 -0.4891 -0.5270 -0.2230
   90TCq2    C4 1373   3.419   3.755   1.949 -0.6379 -0.2288 -0.1432
   90TCq2    C5 1374   3.356   3.837   1.851  0.2015  0.3197 -0.9496
   90TCq2    C6 1375   3.220   3.847   1.862 -0.0551 -0.2123 -0.9409
   90TCq2    C7 1376   3.142   3.781   1.957  0.0150  0.2642  0.0287
   90TCq2    C8 1377   3.151   3.932   1.763  0.0291  0.2779 -0.0506
   90TCq2    O4 1378   3.049   3.991   1.801  0.2264 -0.2841 -0.5157
   90TCq2    C9 1379   3.556   3.737   1.940  0.7263 -0.4020  0.4582
   90TCq2    O5 1380   3.615   3.699   2.040 -0.0084 -0.1185  0.5042
   90TCq2    O6 1381   3.602   3.741   1.822 -0.1102  0.4959 -0.7807
   90TCq2    H2 1382   3.397   3.633   2.119 -3.0173 -1.2303  1.0259
   90TCq2    H3 1383   3.419   3.899   1.788  4.0602 -1.9820  0.6305
   90TCq2    H4 1384   3.034   3.777   1.945  0.2425  3.3356 -3.0571
   91TMC2    C1 1385   4.606   4.299  16.584  0.2626 -0.3661  0.3260
   91TMC2    C2 1386   4.685   4.397  16.636  0.0033 -0.6466  0.1015
   91TMC2    C3 1387   4.628   4.511  16.691 -0.1658 -0.7969  0.3707
   91TMC2    C4 1388   4.469   4.314  16.584  0.4333 -0.0443  0.3011
   91TMC2    C5 1389   4.416   4.429  16.639  0.5105 -0.2377 -0.2642
   91TMC2    C6 1390   4.487   4.534  16.687 -0.2348  0.0100 -0.2094
   91TMC2     C 1391   4.657   4.169  16.538  0.2354  0.8923  0.2984
   91TMC2     O 1392   4.576   4.079  16.517 -0.4210 -0.5783  0.2483
   91TMC2     H 1393   0.069   4.403  16.613 -0.5933  0.1961 -2.4695
   91TMC2    H1 1394   4.402   4.235  16.554  0.8906 -0.1046 -0.5491
   91TMC2    H2 1395   4.438   4.620  16.731 -0.6054 -1.3089  1.9281
   91TMC2    C7 1396   4.275   4.439  16.657 -0.3988  0.2086  0.6184
   91TMC2    C8 1397   0.001   4.612  16.728 -0.2977  0.2924 -0.0621
   91TMC2    O1 1398   4.234   4.509  16.748  0.9401  0.1372  0.1802
   91TMC2    O2 1399   0.107   4.621  16.665 -0.2758  0.0730  0.1596
   91TMC2    O5 1400   4.679   4.696  16.821 -0.2365 -0.1584  0.1784
   91TMC2    H5 1401   4.586   4.682  16.849 -0.5739  0.9756 -0.3794
   92MPD2     C 1402   0.135   3.934  16.525 -0.0751 -0.4549  0.7898
   92MPD2    C1 1403   0.166   4.070  16.513  0.5133 -0.6481  1.0410
   92MPD2    C2 1404   0.300   4.105  16.478  0.2503 -0.0216  0.0764
   92MPD2    C3 1405   0.397   4.009  16.473 -0.2291 -0.9063 -0.9591
   92MPD2    C4 1406   0.367   3.874  16.494  0.2933  0.1486  0.0391
   92MPD2    C5 1407   0.237   3.843  16.517  0.3828  0.2651  0.4341
   92MPD2     H 1408   0.326   4.208  16.458 -0.7599  0.2759  0.2807
   92MPD2    H1 1409   0.433   3.793  16.465 -0.0349 -0.2174  0.3255
   92MPD2    H2 1410   0.036   3.904  16.559  0.5245 -1.9420  1.1926
   92MPD2    H3 1411   0.209   3.738  16.528  0.6790  0.2139  0.6924
   92MPD2     N 1412   0.532   4.051  16.440  0.1155 -0.9814  0.1328
   92MPD2    H5 1413   0.559   4.149  16.438 -0.9809 -0.6006  2.5024
   92MPD2    N1 1414   0.071   4.171  16.529 -0.5110  0.3995 -0.5036
   92MPD2    H7 1415   0.114   4.259  16.555 -0.0206 -0.4343  1.4691
   93MPD2     C 1416   1.576   0.014  13.680  0.5686 -0.6917 -0.1034
   93MPD2    C1 1417   1.600   4.621  13.754 -0.0508  0.0863  0.3498
   93MPD2    C2 1418   1.498   4.558  13.817  0.4926  0.6507  0.6790
   93MPD2    C3 1419   1.363   4.600  13.806 -0.4705  0.1828  0.7781
   93MPD2    C4 1420   1.336   4.720  13.746  0.5069 -0.0376 -0.1299
   93MPD2    C5 1421   1.443   0.058  13.673  0.1369 -0.1073  0.7694
   93MPD2     H 1422   1.531   4.471  13.873 -1.6761 -1.5323 -1.4139
   93MPD2    H1 1423   1.235   0.036  13.740  0.1561 -0.8616  0.6746
   93MPD2    H2 1424   1.657   0.060  13.625  0.8709 -0.3723  0.6157
   93MPD2    H3 1425   1.408   0.146  13.620  1.4751 -0.3570 -0.5315
   93MPD2     N 1426   1.245   4.545  13.863 -0.6084  0.5379  0.1512
   93MPD2    H5 1427   1.157   4.595  13.857 -0.3516  0.7854 -1.4413
   93MPD2    N1 1428   1.730   4.579  13.791 -0.8658  0.6465  0.5311
   93MPD2    H7 1429   1.733   4.499  13.853 -4.1460  0.0571 -0.0682
   94TCq2    C1 1430   1.852   4.632  13.744 -0.1883 -0.1929  0.6002
   94TCq2    O2 1431   1.871   4.688  13.635 -0.1151  0.5018 -0.1518
   94TCq2    C2 1432   1.971   4.585  13.811 -0.1625  0.0909 -0.0550
   94TCq2    C3 1433   1.967   4.597  13.951 -0.1037 -0.0261  0.4882
   94TCq2    C4 1434   2.084   4.604  14.011 -0.5458 -0.0033 -0.5949
   94TCq2    C5 1435   2.197   4.612  13.936 -0.1924  0.0226  0.3226
   94TCq2    C6 1436   2.204   4.593  13.803  0.1044 -0.4595  0.8496
   94TCq2    C7 1437   2.087   4.575  13.735 -0.0055  0.5113  0.2029
   94TCq2    C8 1438   2.332   4.599  13.732 -0.2816  0.6456 -0.2951
   94TCq2    O4 1439   2.436   4.608  13.794 -0.0714 -0.3214 -0.8437
   94TCq2    C9 1440   2.091   4.605  14.153  0.1450 -0.0201  0.2764
   94TCq2    O5 1441   1.995   4.564  14.221  0.3962  0.5877  0.8596
   94TCq2    O6 1442   2.200   4.642  14.203 -0.2470 -0.1006 -0.7095
   94TCq2    H2 1443   1.878   4.588  14.012  0.1500 -0.5221  0.7890
   94TCq2    H3 1444   2.288   4.606  13.995  0.5240  0.3417 -0.7476
   94TCq2    H4 1445   2.079   4.569  13.627 -0.6273  0.9468  0.2215
   95TMC2    C1 1446   1.969   0.601  16.152 -0.7885  0.0232  0.4856
   95TMC2    C2 1447   2.062   0.569  16.243  0.7037 -0.6668  0.3656
   95TMC2    C3 1448   2.018   0.527  16.363 -0.3833  0.6379 -0.3225
   95TMC2    C4 1449   1.832   0.591  16.166  0.4709  0.5644 -0.3009
   95TMC2    C5 1450   1.801   0.541  16.288  0.2120 -0.5800  0.5122
   95TMC2    C6 1451   1.883   0.516  16.392 -0.2466  0.2555 -0.1171
   95TMC2     C 1452   2.024   0.647  16.034  0.6691  0.3582  0.2372
   95TMC2     O 1453   2.105   0.739  16.044  0.0817 -0.0623  0.1313
   95TMC2     H 1454   2.169   0.573  16.225  0.2166  1.8966 -2.0266
   95TMC2    H1 1455   1.760   0.638  16.101  0.9753  0.5546 -0.8634
   95TMC2    H2 1456   1.855   0.480  16.491  1.3883  0.4083  0.4133
   95TMC2    C7 1457   1.661   0.522  16.317 -0.0894  0.4871 -0.1651
   95TMC2    C8 1458   2.108   0.468  16.463  0.4656 -0.1345 -0.1495
   95TMC2    O1 1459   1.624   0.530  16.432  0.5151 -0.1769 -0.2576
   95TMC2    O2 1460   2.074   0.380  16.540  0.0600  0.1426 -0.4531
   95TMC2    O5 1461   2.224   0.541  16.472 -0.3032 -0.1627  0.2712
   95TMC2    H5 1462   2.241   0.616  16.411  1.5898 -0.5215  0.3601
   96MPD2     C 1463   1.955   0.764  15.536 -0.1741  0.7590 -0.4990
   96MPD2    C1 1464   2.036   0.827  15.626 -0.0241 -0.1496 -0.1843
   96MPD2    C2 1465   2.038   0.773  15.758 -0.0219  0.5392 -0.5891
   96MPD2    C3 1466   1.953   0.668  15.793  0.0363 -0.6771  0.2027
   96MPD2    C4 1467   1.867   0.616  15.698  0.3242  0.0397 -0.0571
   96MPD2    C5 1468   1.868   0.658  15.565 -0.0275 -0.2928  0.7090
   96MPD2     H 1469   2.093   0.824  15.837  1.5596  0.4767 -1.6495
   96MPD2    H1 1470   1.801   0.535  15.726  0.6674 -0.0873  0.3928
   96MPD2    H2 1471   1.952   0.798  15.433  1.0378  0.7265 -0.5419
   96MPD2    H3 1472   1.805   0.607  15.493  1.6091  1.0454 -1.6616
   96MPD2     N 1473   1.948   0.611  15.927  0.1044  0.3520 -0.1289
   96MPD2    H5 1474   1.880   0.536  15.934 -0.5005  0.9910  0.8476
   96MPD2    N1 1475   2.120   0.933  15.579  0.3056  0.5787 -0.7267
   96MPD2    H7 1476   2.111   0.971  15.485  0.0252  1.6220 -0.2811
   97MPD2     C 1477   3.768   3.431   1.502 -0.5544 -0.2721  0.8966
   97MPD2    C1 1478   3.790   3.304   1.552  0.7817 -0.7148 -0.4723
   97MPD2    C2 1479   3.886   3.232   1.484  0.2902 -0.2012  0.6371
   97MPD2    C3 1480   3.968   3.281   1.390 -0.0150 -0.7710  0.6042
   97MPD2    C4 1481   3.939   3.409   1.341 -0.7398 -0.1627 -0.0350
   97MPD2    C5 1482   3.833   3.479   1.393 -0.5712 -0.3849  0.2081
   97MPD2     H 1483   3.885   3.127   1.511 -0.9778  0.1438  1.9894
   97MPD2    H1 1484   3.992   3.448   1.254 -0.1183  0.3474  0.5729
   97MPD2    H2 1485   3.694   3.499   1.542 -2.2497 -1.8749  0.4816
   97MPD2    H3 1486   3.812   3.578   1.353  0.6076 -0.4874 -0.6411
   97MPD2     N 1487   4.093   3.224   1.361  0.0278  0.6970  0.3095
   97MPD2    H5 1488   4.153   3.284   1.306  1.7994  1.0483  2.6486
   97MPD2    N1 1489   3.722   3.255   1.668  0.5276  0.5462  0.0131
   97MPD2    H7 1490   3.654   3.321   1.705 -0.2124 -0.1435 -0.1164
   98TCq2    C1 1491   4.135   3.107   1.412 -0.1488 -0.3293  0.3303
   98TCq2    O2 1492   4.083   3.036   1.498  0.0737 -0.3359 -0.0758
   98TCq2    C2 1493   4.280   3.085   1.404 -1.1276 -0.3296 -0.3805
   98TCq2    C3 1494   4.335   2.988   1.493  0.0953  0.0612 -0.2035
   98TCq2    C4 1495   4.457   2.953   1.461 -0.2715  0.2662 -0.1228
   98TCq2    C5 1496   4.539   3.002   1.365 -0.3916  0.6744 -0.0187
   98TCq2    C6 1497   4.484   3.100   1.283  0.3029 -0.5582 -0.7385
   98TCq2    C7 1498   4.355   3.129   1.296  0.7747  0.6429 -0.4184
   98TCq2    C8 1499   4.558   3.176   1.179  0.3898 -0.0965 -0.0656
   98TCq2    O4 1500   4.503   3.277   1.140  1.2681  0.2160  0.2038
   98TCq2    C9 1501   4.516   2.855   1.550 -0.3905 -0.6250 -0.1259
   98TCq2    O5 1502   4.635   2.868   1.584  0.2601 -0.2391  0.8926
   98TCq2    O6 1503   4.432   2.801   1.624 -1.1866  0.0338  0.0607
   98TCq2    H2 1504   4.284   2.962   1.585 -1.9798  0.5842 -1.2001
   98TCq2    H3 1505   4.641   2.969   1.351 -0.7134 -1.1477  1.8422
   98TCq2    H4 1506   4.301   3.193   1.226  0.8093  0.6331 -0.4538
   99MPD2     C 1507   2.405   4.357   2.496 -0.5285  0.0217 -0.3946
   99MPD2    C1 1508   2.354   4.485   2.488 -0.0129 -0.2040 -0.0552
   99MPD2    C2 1509   2.359   4.554   2.373  0.5847 -0.0743  0.3750
   99MPD2    C3 1510   2.406   4.499   2.255 -0.4286 -0.2232 -0.4495
   99MPD2    C4 1511   2.447   4.372   2.262 -0.0185 -0.5272  0.8531
   99MPD2    C5 1512   2.448   4.309   2.384 -0.5447 -0.3080  0.1613
   99MPD2     H 1513   2.334   4.659   2.383 -0.1222 -0.2328  0.2491
   99MPD2    H1 1514   2.472   4.315   2.173  0.9695  1.6152 -0.2231
   99MPD2    H2 1515   2.390   4.295   2.584  0.1093  1.0669  0.4661
   99MPD2    H3 1516   2.496   4.212   2.385  0.0848 -0.0071 -1.1689
   99MPD2     N 1517   2.422   4.591   2.148  0.5911  0.2375 -0.2762
   99MPD2    H5 1518   2.414   4.691   2.161  0.9148  0.3015 -0.5653
   99MPD2    N1 1519   2.286   4.551   2.592  1.1340 -0.2413 -0.8254
   99MPD2    H7 1520   2.241   4.642   2.583  0.9153 -0.3661 -0.9927
  100TCq2    C1 1521   2.279   4.505   2.717  0.4004 -0.1599 -0.3716
  100TCq2    O2 1522   2.321   4.402   2.766 -0.8005 -0.1769 -0.7343
  100TCq2    C2 1523   2.213   4.608   2.797  0.0266 -0.7147  0.2518
  100TCq2    C3 1524   2.149   4.558   2.905 -0.2721 -0.5069 -0.1805
  100TCq2    C4 1525   2.068   4.643   2.976  0.4779  0.8510  0.7638
  100TCq2    C5 1526   2.044   0.051   2.933 -0.3831 -0.4172  0.2070
  100TCq2    C6 1527   2.105   0.099   2.822  0.4307 -0.5442  0.2083
  100TCq2    C7 1528   2.197   0.024   2.760 -0.0449 -0.9777 -0.4906
  100TCq2    C8 1529   2.094   0.240   2.795  0.2928  0.2702  0.0253
  100TCq2    O4 1530   2.046   0.309   2.881 -0.2265  0.3024 -0.3281
  100TCq2    C9 1531   2.014   4.604   3.103  0.2510 -0.0736  0.1251
  100TCq2    O5 1532   1.952   4.687   3.170  0.0658 -0.4011  0.1876
  100TCq2    O6 1533   2.038   4.486   3.140  0.4682  0.6665  0.1330
  100TCq2    H2 1534   2.172   4.459   2.943 -0.1535 -0.0833  0.8449
  100TCq2    H3 1535   1.990   0.119   2.997  0.4493  0.6308 -0.1950
  100TCq2    H4 1536   2.263   0.070   2.686 -0.1447  0.0583  0.0694
  101MPD2     C 1537   3.526   1.842  12.913  0.5568 -0.2507 -0.2573
  101MPD2    C1 1538   3.433   1.908  12.989 -0.2123  0.6356 -0.1007
  101MPD2    C2 1539   3.361   1.831  13.082  0.3799  0.4745 -0.2554
  101MPD2    C3 1540   3.387   1.699  13.107  0.2258 -0.9849 -0.0065
  101MPD2    C4 1541   3.480   1.638  13.028 -0.5017 -0.7497 -0.2213
  101MPD2    C5 1542   3.544   1.712  12.935 -0.4096 -0.0086 -0.1491
  101MPD2     H 1543   3.290   1.878  13.149 -0.8715 -0.8993 -0.6246
  101MPD2    H1 1544   3.511   1.535  13.040  0.7706 -0.4666 -1.0858
  101MPD2    H2 1545   3.580   1.893  12.834 -1.6236 -0.8956 -2.1672
  101MPD2    H3 1546   3.618   1.655  12.880 -0.9742 -0.4712 -0.4239
  101MPD2     N 1547   3.314   1.628  13.204  0.2446 -0.0356  0.2140
  101MPD2    H5 1548   3.245   1.672  13.264  0.6626 -0.6098  1.1203
  101MPD2    N1 1549   3.407   2.038  12.942  0.0923  0.9204  0.0925
  101MPD2    H7 1550   3.459   2.077  12.864 -0.1201 -1.4919 -1.2574
  102TCq2    C1 1551   3.459   2.391  12.602  0.8873 -0.1387 -0.0389
  102TCq2    O2 1552   3.567   2.334  12.575 -0.2464 -0.3265  0.0924
  102TCq2    C2 1553   3.388   2.389  12.727 -0.0417  0.2591  0.2834
  102TCq2    C3 1554   3.286   2.470  12.750  0.1358  0.3067  0.6086
  102TCq2    C4 1555   3.195   2.451  12.847  0.4248  0.1426 -0.1260
  102TCq2    C5 1556   3.215   2.339  12.932  1.0623  0.3677  0.9720
  102TCq2    C6 1557   3.323   2.255  12.912 -0.1685  0.2636 -0.6782
  102TCq2    C7 1558   3.416   2.280  12.812  0.1482  0.0404 -0.4517
  102TCq2    C8 1559   3.322   2.132  12.994  0.2768  0.1103  0.6860
  102TCq2    O4 1560   3.241   2.114  13.085  0.3176 -0.1189 -0.2108
  102TCq2    C9 1561   3.081   2.532  12.862  0.5152  0.6896 -0.2412
  102TCq2    O5 1562   2.979   2.462  12.886 -0.3755 -0.2693 -0.8231
  102TCq2    O6 1563   3.078   2.652  12.825  0.2605  0.6077  0.3451
  102TCq2    H2 1564   3.268   2.555  12.686  2.8640  0.5585  0.1755
  102TCq2    H3 1565   3.142   2.307  13.005 -0.4909  0.4487 -0.5477
  102TCq2    H4 1566   3.499   2.212  12.798 -0.7354 -1.1947  0.3437
  103TMC2    C1 1567   1.300   1.871  13.373 -0.1496  0.0591  0.1297
  103TMC2    C2 1568   1.329   1.999  13.339 -0.2752 -0.6561  0.2553
  103TMC2    C3 1569   1.252   2.098  13.391  0.0222  0.3584  0.4389
  103TMC2    C4 1570   1.221   1.840  13.478 -0.3334 -0.1431 -0.0522
  103TMC2    C5 1571   1.158   1.945  13.534  0.2550  0.3481 -0.3158
  103TMC2    C6 1572   1.167   2.075  13.492 -0.0482 -0.4558  0.0868
  103TMC2     C 1573   1.377   1.766  13.316 -0.6778  0.6150  0.3159
  103TMC2     O 1574   1.411   1.668  13.379  0.2591 -0.6702  0.0918
  103TMC2     H 1575   1.405   2.017  13.263 -0.0016  1.4533  1.0390
  103TMC2    H1 1576   1.214   1.737  13.510 -0.7458 -0.0661  0.0994
  103TMC2    H2 1577   1.113   2.155  13.542 -0.0962 -0.9627  0.8489
  103TMC2    C7 1578   1.056   1.910  13.626  0.4077 -1.1488  0.2126
  103TMC2    C8 1579   1.273   2.232  13.347  0.0113  0.1337  0.7658
  103TMC2    O1 1580   1.046   1.796  13.664 -0.5828  0.4779 -0.0921
  103TMC2    O2 1581   1.252   2.324  13.422  0.1983  0.1012  0.3105
  103TMC2    O5 1582   1.245   2.234  13.217 -0.5199 -0.4943  0.6232
  103TMC2    H5 1583   1.241   2.140  13.189 -1.0579  0.1929 -1.6215
  104MPD2     C 1584   1.584   1.636  13.125 -0.2387  0.9052 -1.0527
  104MPD2    C1 1585   1.485   1.721  13.092 -0.0386 -0.1330 -0.1763
  104MPD2    C2 1586   1.483   1.757  12.962 -0.4742  0.6509 -0.5292
  104MPD2    C3 1587   1.568   1.703  12.868 -0.1291  0.1604 -0.1261
  104MPD2    C4 1588   1.657   1.611  12.906  0.1222  0.5349 -0.5260
  104MPD2    C5 1589   1.671   1.579  13.039 -0.3906 -0.7743  0.0244
  104MPD2     H 1590   1.409   1.831  12.933  0.5233  1.6423 -0.5248
  104MPD2    H1 1591   1.730   1.565  12.840 -1.0151  0.3919 -1.6931
  104MPD2    H2 1592   1.601   1.600  13.226 -0.2455 -0.4494 -1.5487
  104MPD2    H3 1593   1.741   1.501  13.067 -1.4391 -1.2507  1.3359
  104MPD2     N 1594   1.541   1.731  12.729 -0.5689 -0.0292 -0.2013
  104MPD2    H5 1595   1.474   1.803  12.705 -0.1353  0.2546 -0.5723
  104MPD2    N1 1596   1.397   1.788  13.182  0.5292 -0.2053 -0.8519
  104MPD2    H7 1597   1.334   1.859  13.145  0.5315  0.7626  1.0084
  105MPD2     C 1598   3.545   1.036   0.434  0.1184  0.1027 -0.3851
  105MPD2    C1 1599   3.519   1.167   0.484  0.5105 -0.0853  0.0929
  105MPD2    C2 1600   3.536   1.199   0.617  0.4697 -0.0385  0.2255
  105MPD2    C3 1601   3.567   1.101   0.704 -0.0565 -0.0207  0.2483
  105MPD2    C4 1602   3.589   0.970   0.663  0.2969 -0.0203 -0.8747
  105MPD2    C5 1603   3.584   0.942   0.529 -0.2968 -0.2028 -0.4067
  105MPD2     H 1604   3.532   1.304   0.643 -1.0929  0.7293 -3.0963
  105MPD2    H1 1605   3.609   0.890   0.733  0.6853 -0.8540 -1.9450
  105MPD2    H2 1606   3.529   1.008   0.331  2.4731 -0.9168 -0.4847
  105MPD2    H3 1607   3.577   0.836   0.506  0.6709 -0.6385  1.3189
  105MPD2     N 1608   3.574   1.139   0.841  0.0352  0.6376  0.2010
  105MPD2    H5 1609   3.547   1.233   0.866  1.1076  1.1393 -0.5098
  105MPD2    N1 1610   3.481   1.275   0.399  0.2111  0.2627 -0.4304
  105MPD2    H7 1611   3.500   1.367   0.438 -1.3057 -0.1780  1.3368
  106TCq2    C1 1612   3.607   1.059   0.951  0.6010  0.5784  0.3022
  106TCq2    O2 1613   3.610   0.938   0.966  0.2685  0.0575 -0.5458
  106TCq2    C2 1614   3.593   1.129   1.076 -0.1669  0.7632 -0.2021
  106TCq2    C3 1615   3.624   1.262   1.080 -0.0948  0.3632  0.4634
  106TCq2    C4 1616   3.590   1.330   1.194 -1.0980 -0.0272 -0.2192
  106TCq2    C5 1617   3.524   1.272   1.299 -0.4448 -0.1878 -0.2966
  106TCq2    C6 1618   3.472   1.145   1.275  1.2724  0.4483 -0.2538
  106TCq2    C7 1619   3.509   1.067   1.165  0.1909 -0.1619  0.1687
  106TCq2    C8 1620   3.375   1.092   1.374 -0.6472 -0.5229  0.2640
  106TCq2    O4 1621   3.388   0.970   1.388  0.3808  0.7811 -0.2310
  106TCq2    C9 1622   3.608   1.468   1.208 -0.3585  0.2607  0.1993
  106TCq2    O5 1623   3.559   1.530   1.304  0.2359 -0.5178 -0.8197
  106TCq2    O6 1624   3.686   1.512   1.116 -0.1375 -0.3539  0.1152
  106TCq2    H2 1625   3.694   1.306   1.009 -1.9983  1.2430 -0.8844
  106TCq2    H3 1626   3.504   1.327   1.391 -0.4229 -0.1325 -0.3243
  106TCq2    H4 1627   3.459   0.976   1.133 -2.4230  1.2322  0.2482
  107TMC2    C1 1628   3.767   0.198  11.586  0.1277  0.3656 -0.8153
  107TMC2    C2 1629   3.671   0.139  11.665 -0.1745 -0.0537  0.3990
  107TMC2    C3 1630   3.621   0.018  11.621 -0.3211  0.1920  0.5452
  107TMC2    C4 1631   3.827   0.134  11.480 -0.6090 -0.4367 -0.2202
  107TMC2    C5 1632   3.786   0.007  11.455  0.2074 -0.1506  0.5574
  107TMC2    C6 1633   3.685   4.665  11.529  0.4701 -0.5344  0.2252
  107TMC2     C 1634   3.822   0.327  11.627  0.3657 -0.1193  0.5830
  107TMC2     O 1635   3.800   0.354  11.744  0.6459  0.2449  0.2449
  107TMC2     H 1636   3.619   0.191  11.744  0.1932  1.3815 -0.2903
  107TMC2    H1 1637   3.891   0.184  11.407  1.2405 -1.2976  0.7979
  107TMC2    H2 1638   3.656   4.564  11.503 -0.5675  0.3568 -2.1167
  107TMC2    C7 1639   3.863   4.642  11.368  0.4430  0.0521 -0.1258
  107TMC2    C8 1640   3.545   4.668  11.724  0.1162  0.7325 -1.1173
  107TMC2    O1 1641   3.804   4.549  11.313  0.6788 -0.0520  0.0602
  107TMC2    O2 1642   3.553   4.678  11.847  0.0815 -0.0746 -0.0299
  107TMC2    O5 1643   3.482   4.564  11.669 -0.4653  0.3862  0.5593
  107TMC2    H5 1644   3.462   4.597  11.579  2.3697 -0.7447 -0.5213
  108MPD2     C 1645   3.900   0.606  11.402  0.0669 -0.0695  0.2127
  108MPD2    C1 1646   3.911   0.539  11.523  0.1174  0.5195  0.1286
  108MPD2    C2 1647   3.926   0.602  11.642 -0.0764 -0.2981  0.2505
  108MPD2    C3 1648   3.933   0.739  11.646  0.8588  0.3696  0.7974
  108MPD2    C4 1649   3.921   0.805  11.528 -0.3793  0.1619 -0.4993
  108MPD2    C5 1650   3.909   0.742  11.408  0.3407  0.3844  0.1737
  108MPD2     H 1651   3.923   0.544  11.733  2.3216 -0.5662  0.1578
  108MPD2    H1 1652   3.921   0.913  11.519 -0.8736  0.2661  0.8140
  108MPD2    H2 1653   3.880   0.562  11.305 -0.2078  2.3823 -0.8389
  108MPD2    H3 1654   3.905   0.796  11.315 -2.2265 -0.5133 -0.2530
  108MPD2     N 1655   3.921   0.810  11.770  0.5610 -0.8093  0.1088
  108MPD2    H5 1656   3.897   0.908  11.763 -0.7156 -1.0316  1.4157
  108MPD2    N1 1657   3.871   0.404  11.520 -0.3663 -0.8068  0.2230
  108MPD2    H7 1658   3.851   0.367  11.427  1.4763  2.8964 -1.6506
  109MPD2     C 1659   4.423   2.266   1.275  0.2125  0.1391  0.0910
  109MPD2    C1 1660   4.352   2.373   1.332  0.2908  0.4430 -0.1955
  109MPD2    C2 1661   4.306   2.362   1.463  0.6299  0.2532 -0.1199
  109MPD2    C3 1662   4.339   2.253   1.541 -0.1497 -0.6447  1.0770
  109MPD2    C4 1663   4.411   2.145   1.483  0.2028  0.3267  0.0192
  109MPD2    C5 1664   4.451   2.154   1.354 -0.2406  0.4004 -0.1671
  109MPD2     H 1665   4.253   2.444   1.508 -0.4603 -1.0201  0.9063
  109MPD2    H1 1666   4.434   2.054   1.537  1.9101  0.8074  0.1286
  109MPD2    H2 1667   4.461   2.270   1.174  0.2169 -0.9449  0.0546
  109MPD2    H3 1668   4.499   2.069   1.306  1.3993  0.2081  1.8267
  109MPD2     N 1669   4.299   2.249   1.675  0.0156  0.1298  0.3341
  109MPD2    H5 1670   4.252   2.330   1.715 -0.5828 -0.0428 -0.0304
  109MPD2    N1 1671   4.325   2.483   1.241  0.7260 -0.7403 -0.4758
  109MPD2    H7 1672   4.360   2.478   1.146  0.7350 -2.0053 -0.3992
  110TCq2    C1 1673   4.337   2.160   1.775 -1.5656  0.5213  0.6314
  110TCq2    O2 1674   4.437   2.088   1.779  0.0605 -0.5562 -0.3303
  110TCq2    C2 1675   4.252   2.167   1.890  0.7227 -0.2224 -0.4538
  110TCq2    C3 1676   4.300   2.117   2.005 -0.5309 -0.1020  0.4242
  110TCq2    C4 1677   4.231   2.131   2.124 -0.3767 -0.0776 -0.5187
  110TCq2    C5 1678   4.113   2.190   2.126  0.3045 -0.1390  0.6043
  110TCq2    C6 1679   4.061   2.245   2.010 -0.4043 -0.4383  0.1436
  110TCq2    C7 1680   4.130   2.237   1.887  0.4736  0.8821 -0.6255
  110TCq2    C8 1681   3.967   2.357   2.012 -0.0426  0.2622  0.1784
  110TCq2    O4 1682   3.971   2.436   1.923  0.6963 -0.2190  0.0502
  110TCq2    C9 1683   4.280   2.077   2.248  0.1916 -0.1240 -0.7398
  110TCq2    O5 1684   4.236   2.126   2.352 -0.3044 -0.2429 -0.1145
  110TCq2    O6 1685   4.382   2.008   2.232  0.6605 -0.5037 -0.2870
  110TCq2    H2 1686   4.390   2.056   2.000  0.6611  1.5699  1.3391
  110TCq2    H3 1687   4.057   2.198   2.219 -0.5332 -1.2982  0.2092
  110TCq2    H4 1688   4.091   2.275   1.793 -0.4519 -1.6415 -1.2452
  111TMC2    C1 1689   3.440   3.349  11.449 -0.5626 -0.6309  0.1876
  111TMC2    C2 1690   3.337   3.390  11.535  0.4068  0.1399  0.4024
  111TMC2    C3 1691   3.323   3.316  11.654 -0.5738 -0.4379 -1.3485
  111TMC2    C4 1692   3.512   3.229  11.471  0.7037  0.4205  0.2733
  111TMC2    C5 1693   3.472   3.149  11.573  0.3172 -0.3736  0.1399
  111TMC2    C6 1694   3.377   3.193  11.666  0.1115 -0.3600  0.0699
  111TMC2     C 1695   3.485   3.434  11.343 -0.7359  0.1550  0.1119
  111TMC2     O 1696   3.400   3.505  11.289 -0.0103 -0.3506  0.3954
  111TMC2     H 1697   3.290   3.488  11.528 -1.2031 -0.6734 -0.0710
  111TMC2    H1 1698   3.585   3.205  11.395 -1.9097  1.0672 -2.4424
  111TMC2    H2 1699   3.360   3.133  11.755 -0.4234 -0.5906 -0.1922
  111TMC2    C7 1700   3.560   3.037  11.613 -0.0850  0.3428  0.3173
  111TMC2    C8 1701   3.215   3.351  11.746 -0.4552  0.5051 -0.3217
  111TMC2    O1 1702   3.560   3.007  11.727 -0.1656  0.1982  0.3719
  111TMC2    O2 1703   3.144   3.450  11.715  0.4629  0.4280 -0.3923
  111TMC2    O5 1704   3.275   3.353  11.865  0.9403 -0.0963  0.1064
  111TMC2    H5 1705   3.351   3.293  11.882 -1.8139 -3.1417  1.6691
  112MPD2     C 1706   3.776   3.468  10.931  0.4668  0.9401  0.0205
  112MPD2    C1 1707   3.640   3.493  10.944 -0.4426  0.1362  0.3585
  112MPD2    C2 1708   3.586   3.489  11.071 -0.0125 -0.1591  0.1161
  112MPD2    C3 1709   3.664   3.454  11.182 -0.0127  0.1620  0.2489
  112MPD2    C4 1710   3.797   3.431  11.165 -0.1174  0.5993  0.0019
  112MPD2    C5 1711   3.852   3.443  11.042  0.4671  0.6662 -0.2554
  112MPD2     H 1712   3.480   3.506  11.085 -0.1097 -0.3893 -0.3503
  112MPD2    H1 1713   3.857   3.384  11.243  0.4115 -0.8517 -1.2845
  112MPD2    H2 1714   3.837   3.462  10.842  1.0952 -0.8839  0.5727
  112MPD2    H3 1715   3.957   3.423  11.026  0.1417 -0.2299 -1.2650
  112MPD2     N 1716   3.614   3.427  11.310  0.1043 -0.0513 -0.2564
  112MPD2    H5 1717   3.671   3.385  11.382 -0.3095 -0.5428 -0.2152
  112MPD2    N1 1718   3.550   3.502  10.835  0.3075  0.4950 -0.0416
  112MPD2    H7 1719   3.453   3.503  10.867  0.5613 -1.1229  0.8106
  113MPD2     C 1720   1.919   0.499   1.276 -0.6233 -0.2667  0.1014
  113MPD2    C1 1721   1.883   0.626   1.308  0.1542 -0.2663  0.1745
  113MPD2    C2 1722   1.772   0.687   1.245  0.6425  0.1029  0.6686
  113MPD2    C3 1723   1.704   0.611   1.149 -0.2964 -0.0919 -0.2108
  113MPD2    C4 1724   1.740   0.483   1.122  0.3316  0.2224  0.0185
  113MPD2    C5 1725   1.854   0.430   1.178 -0.3035  0.2104  0.8409
  113MPD2     H 1726   1.741   0.789   1.269 -0.5578 -0.6741  2.4822
  113MPD2    H1 1727   1.685   0.420   1.052 -0.5636  0.8971  0.1238
  113MPD2    H2 1728   2.014   0.455   1.306 -0.4429 -0.2711 -0.4655
  113MPD2    H3 1729   1.889   0.335   1.138 -0.4537 -0.0613  1.3633
  113MPD2     N 1730   1.598   0.662   1.077 -0.1313  0.6532 -0.2479
  113MPD2    H5 1731   1.559   0.603   1.005  1.4562  1.5815 -1.8618
  113MPD2    N1 1732   1.956   0.699   1.410 -0.0450  0.1940  0.4617
  113MPD2    H7 1733   1.931   0.798   1.409 -1.6936 -0.2827 -3.7182
  114TCq2    C1 1734   1.543   0.786   1.091  0.4608  0.1037  0.1097
  114TCq2    O2 1735   1.576   0.885   1.156  0.3388 -0.5580  0.5092
  114TCq2    C2 1736   1.446   0.818   0.989  0.2055  1.1388 -0.3002
  114TCq2    C3 1737   1.434   0.947   0.947 -0.7235  0.0359  0.0320
  114TCq2    C4 1738   1.341   0.974   0.854  0.2909  0.0090 -0.4624
  114TCq2    C5 1739   1.260   0.875   0.798  0.1939  0.1044 -0.4205
  114TCq2    C6 1740   1.273   0.746   0.849 -0.7704 -0.6405  0.2652
  114TCq2    C7 1741   1.366   0.721   0.941 -0.2884  0.1371  0.0335
  114TCq2    C8 1742   1.169   0.654   0.824 -0.9144  0.1327  0.0296
  114TCq2    O4 1743   1.114   0.670   0.715 -0.1769 -0.0122 -0.0680
  114TCq2    C9 1744   1.311   1.108   0.816  0.4627 -0.5583 -0.2997
  114TCq2    O5 1745   1.211   1.126   0.741 -0.0881  0.8945 -0.1479
  114TCq2    O6 1746   1.373   1.200   0.876 -0.1208 -0.7384  0.2908
  114TCq2    H2 1747   1.482   1.027   1.001 -0.5832  0.2792 -0.4511
  114TCq2    H3 1748   1.186   0.900   0.722  2.1648  1.1568 -1.9864
  114TCq2    H4 1749   1.373   0.620   0.982 -0.1493  0.7719  1.5617
  115TMC2    C1 1750   2.247   3.099   0.341  0.1618  0.0428 -0.2568
  115TMC2    C2 1751   2.341   3.059   0.430 -0.5148 -0.2100 -0.8209
  115TMC2    C3 1752   2.388   3.140   0.527  0.1540 -0.2398 -0.1466
  115TMC2    C4 1753   2.201   3.230   0.345 -0.2206 -0.1768 -0.1089
  115TMC2    C5 1754   2.247   3.311   0.445 -0.3031  0.9348  0.2828
  115TMC2    C6 1755   2.342   3.271   0.532 -0.1563 -0.3771 -0.5593
  115TMC2     C 1756   2.197   2.991   0.254 -0.2091 -1.6140 -0.1674
  115TMC2     O 1757   2.235   2.880   0.291 -0.1219  0.3098 -0.5680
  115TMC2     H 1758   2.390   2.964   0.418 -1.2111 -0.7897  0.8863
  115TMC2    H1 1759   2.134   3.266   0.267  2.4913 -2.2045 -3.3957
  115TMC2    H2 1760   2.404   3.335   0.593 -1.0575  0.0069 -0.0441
  115TMC2    C7 1761   2.209   3.448   0.450  0.3593  0.2702 -0.3846
  115TMC2    C8 1762   2.490   3.092   0.611  0.6334 -0.1142  0.7562
  115TMC2    O1 1763   2.206   3.494   0.564  0.2274 -0.8577  0.0224
  115TMC2    O2 1764   2.588   3.035   0.570  0.1666 -0.4341 -0.1305
  115TMC2    O5 1765   2.476   3.145   0.731  0.1538  0.0759  0.3582
  115TMC2    H5 1766   2.384   3.162   0.761  0.0962 -0.2774  0.3784
  116MPD2     C 1767   1.960   2.819  17.524 -0.4193 -0.7141 -0.1117
  116MPD2    C1 1768   2.014   2.748  17.634  0.8715  0.6833 -0.0368
  116MPD2    C2 1769   2.070   2.825   0.047  0.6961  0.3408  0.4610
  116MPD2    C3 1770   2.068   2.959   0.044  0.3197  0.3236  0.4002
  116MPD2    C4 1771   2.013   3.026  17.622 -0.3047  0.2299  0.7941
  116MPD2    C5 1772   1.961   2.955  17.520  0.3224 -0.3288  0.3415
  116MPD2     H 1773   2.107   2.776   0.137  2.7919  0.7787 -0.1517
  116MPD2    H1 1774   2.021   3.134  17.621 -1.0157  0.2698 -1.0858
  116MPD2    H2 1775   1.912   2.763  17.445  1.3652 -2.5401  0.0940
  116MPD2    H3 1776   1.930   3.012  17.433  0.1446 -0.9555 -0.0028
  116MPD2     N 1777   2.121   3.038   0.148  0.1329  0.4474 -0.5328
  116MPD2    H5 1778   2.118   3.138   0.137  0.9499  0.5100 -0.1320
  116MPD2    N1 1779   2.024   2.606  17.627 -0.6869  0.2593  0.4996
  116MPD2    H7 1780   1.980   2.555  17.551  0.9911  0.4251 -0.5938
  117TMC2    C1 1781   1.461   4.555  14.215  0.8239 -0.1010 -0.3892
  117TMC2    C2 1782   1.553   4.487  14.299 -0.5708  0.3521 -0.1946
  117TMC2    C3 1783   1.678   4.550  14.310  0.6333 -0.6753  0.1266
  117TMC2    C4 1784   1.497   4.667  14.145  0.0798 -0.2604  0.0589
  117TMC2    C5 1785   1.620   4.714  14.163  0.2782 -0.8447  0.3652
  117TMC2    C6 1786   1.719   4.663  14.245 -0.6254  0.3690  0.1491
  117TMC2     C 1787   1.323   4.529  14.240  0.7650  0.7686  0.8604
  117TMC2     O 1788   1.295   4.436  14.321  0.1058 -0.1452  0.1358
  117TMC2     H 1789   1.521   4.406  14.363  1.5623 -1.0350 -0.8947
  117TMC2    H1 1790   1.423   4.704  14.075 -1.5114 -0.2430  1.7486
  117TMC2    H2 1791   1.813   4.712  14.267  0.3599 -0.6683 -1.7964
  117TMC2    C7 1792   1.678   0.081  14.067  0.3838  0.5575  0.9281
  117TMC2    C8 1793   1.749   4.515  14.431  0.0040  0.6184 -0.0559
  117TMC2    O1 1794   1.799   0.101  14.073  0.3616 -0.3294 -0.2743
  117TMC2    O2 1795   1.687   4.467  14.528  0.7968  0.1833  0.0260
  117TMC2    O5 1796   1.868   4.575  14.434  0.2516 -0.2258 -0.1615
  117TMC2    H5 1797   1.905   4.581  14.343 -2.3390  1.1403 -1.1248
  118MPD2     C 1798   1.506   0.321  13.843 -0.3411 -0.5371  0.5262
  118MPD2    C1 1799   1.611   0.271  13.915  0.3266 -0.8510  0.4131
  118MPD2    C2 1800   1.733   0.334  13.897  0.0457  0.3469  0.5903
  118MPD2    C3 1801   1.750   0.447  13.820 -0.5326  0.1629 -0.6920
  118MPD2    C4 1802   1.646   0.495  13.749 -0.7568 -0.2810  0.0600
  118MPD2    C5 1803   1.526   0.431  13.759  0.7667 -1.8401 -0.0418
  118MPD2     H 1804   1.822   0.295  13.946  0.0882 -1.8534 -1.2163
  118MPD2    H1 1805   1.652   0.585  13.689 -0.8808  0.7071  1.5561
  118MPD2    H2 1806   1.416   0.263  13.830  0.3427 -1.2064 -1.2274
  118MPD2    H3 1807   1.447   0.455  13.689  2.1120  0.1476 -0.8458
  118MPD2     N 1808   1.868   0.519  13.810  0.7149  0.5163  0.2523
  118MPD2    H5 1809   1.884   0.591  13.740 -3.0559  2.6402  1.5929
  118MPD2    N1 1810   1.583   0.155  13.994 -0.9176 -0.1931 -0.0150
  118MPD2    H7 1811   1.484   0.133  13.994 -0.9913  0.1432 -1.8469
  119MPD2     C 1812   0.005   1.142  13.881  0.3181 -0.5043  0.3871
  119MPD2    C1 1813   4.634   1.238  13.875  0.4644 -0.5411  0.0835
  119MPD2    C2 1814   4.582   1.271  13.748 -0.8425  0.1108 -0.2057
  119MPD2    C3 1815   4.621   1.213  13.631 -0.5956 -0.1594 -0.3256
  119MPD2    C4 1816   4.697   1.100  13.646  0.6892  0.4328 -0.2920
  119MPD2    C5 1817   0.032   1.069  13.767  0.0662  0.4040  0.6025
  119MPD2     H 1818   4.513   1.355  13.743 -0.5942  0.4163  1.3025
  119MPD2    H1 1819   0.008   1.037  13.563 -0.6588 -1.8405  0.8946
  119MPD2    H2 1820   0.058   1.118  13.973  1.0141 -1.1296 -0.1815
  119MPD2    H3 1821   0.104   0.990  13.783  0.8584  1.2042  1.0286
  119MPD2     N 1822   4.582   1.265  13.500  0.6835  0.7149  0.4225
  119MPD2    H5 1823   4.612   1.211  13.419  0.9081  0.0872  0.9251
  119MPD2    N1 1824   4.579   1.279  14.003  0.7122  0.2366  0.3537
  119MPD2    H7 1825   4.619   1.242  14.089  1.7231  1.6165  0.4715
  120TCq2    C1 1826   4.476   1.348  13.469  0.4867 -0.1800  0.0358
  120TCq2    O2 1827   4.386   1.388  13.541 -0.3889  0.1636 -0.3553
  120TCq2    C2 1828   4.465   1.371  13.326 -0.2210  0.1348  0.7502
  120TCq2    C3 1829   4.544   1.302  13.238  0.1067 -0.3650 -0.2075
  120TCq2    C4 1830   4.481   1.262  13.126  0.4494  0.0137  0.0691
  120TCq2    C5 1831   4.343   1.283  13.101  0.2214 -0.5933 -0.0751
  120TCq2    C6 1832   4.274   1.364  13.193 -0.1632  0.4640  0.1629
  120TCq2    C7 1833   4.344   1.419  13.295 -0.6842  0.4929 -0.0422
  120TCq2    C8 1834   4.130   1.362  13.196  0.1882 -0.4077 -0.0098
  120TCq2    O4 1835   4.071   1.347  13.094 -0.0050  0.4519  0.1315
  120TCq2    C9 1836   4.543   1.186  13.031  0.2447  0.4799 -0.3745
  120TCq2    O5 1837   4.474   1.167  12.926  0.1374 -0.3882 -0.1107
  120TCq2    O6 1838   4.667   1.173  13.048 -0.1763 -0.6917  0.1114
  120TCq2    H2 1839   4.647   1.272  13.254  0.7008  1.2167 -1.0259
  120TCq2    H3 1840   4.286   1.241  13.019  0.5559  1.5387 -1.4203
  120TCq2    H4 1841   4.295   1.488  13.361 -0.7759 -1.2843  1.7559
  121TMC2    C1 1842   0.845   3.065  14.118  0.6348  0.2227 -0.4546
  121TMC2    C2 1843   0.872   2.984  14.225 -0.2220 -0.0311  0.1757
  121TMC2    C3 1844   0.780   2.954  14.315  0.2100 -0.7466 -0.0333
  121TMC2    C4 1845   0.708   3.099  14.090 -0.2464 -0.2532 -0.7929
  121TMC2    C5 1846   0.615   3.064  14.188  0.1930 -0.0837  0.3246
  121TMC2    C6 1847   0.654   2.995  14.300 -0.3251 -0.0244  0.1596
  121TMC2     C 1848   0.964   3.121  14.068 -0.1075  0.0853 -0.2895
  121TMC2     O 1849   1.056   3.120  14.144  0.2950  0.0036 -0.0036
  121TMC2     H 1850   0.974   2.948  14.223 -0.5059 -0.9350  2.3344
  121TMC2    H1 1851   0.687   3.172  14.012  0.0450 -0.6309 -1.2253
  121TMC2    H2 1852   0.579   2.971  14.374  0.4809 -0.0494  0.9671
  121TMC2    C7 1853   0.472   3.055  14.149  0.0134  0.0346 -0.7022
  121TMC2    C8 1854   0.814   2.858  14.419 -0.7567 -0.3838  0.5439
  121TMC2    O1 1855   0.403   2.983  14.222 -0.2488  0.6464 -0.5853
  121TMC2    O2 1856   0.763   2.871  14.527  0.3099 -0.2188 -0.2778
  121TMC2    O5 1857   0.902   2.771  14.376  0.3327  0.1005 -0.1941
  121TMC2    H5 1858   0.936   2.771  14.284  1.7036  0.4851  0.3114
  122MPD2     C 1859   1.169   3.308  13.964  0.3568 -0.3107  0.8524
  122MPD2    C1 1860   1.066   3.255  13.884  0.0955 -0.0628  0.1190
  122MPD2    C2 1861   1.074   3.289  13.754 -0.5126  0.4101 -0.3251
  122MPD2    C3 1862   1.168   3.367  13.699 -0.4636 -0.7486 -0.1547
  122MPD2    C4 1863   1.259   3.420  13.786 -0.1781  0.2682  0.2836
  122MPD2    C5 1864   1.270   3.384  13.916 -0.2915 -0.9496  0.1038
  122MPD2     H 1865   0.988   3.261  13.694  1.9965 -2.0912 -2.7284
  122MPD2    H1 1866   1.351   3.464  13.749 -1.0390  1.0485 -0.9335
  122MPD2    H2 1867   1.170   3.291  14.071 -0.5650 -0.8277  0.7787
  122MPD2    H3 1868   1.343   3.428  13.983  0.9889  0.4674 -2.2381
  122MPD2     N 1869   1.174   3.407  13.564 -1.0561  0.8584 -0.1375
  122MPD2    H5 1870   1.236   3.482  13.535 -1.5284  1.6194  0.8158
  122MPD2    N1 1871   0.962   3.168  13.939 -0.3147  0.2240  0.0619
  122MPD2    H7 1872   0.879   3.156  13.882  0.3769  0.3933 -0.9772
  123MPD2     C 1873   2.918   0.461   9.558 -0.5107  0.0979  0.1511
  123MPD2    C1 1874   3.047   0.497   9.601  0.4182 -0.6144  0.3949
  123MPD2    C2 1875   3.156   0.445   9.535  0.1157 -0.5383  0.0094
  123MPD2    C3 1876   3.146   0.367   9.427 -0.4167 -0.0049 -0.3471
  123MPD2    C4 1877   3.021   0.331   9.388  0.2305 -0.0649  0.3580
  123MPD2    C5 1878   2.910   0.382   9.451 -0.6363 -0.6452 -0.1960
  123MPD2     H 1879   3.256   0.481   9.558 -1.3076  2.6989  1.1760
  123MPD2    H1 1880   2.998   0.263   9.306  2.0582  0.4032 -0.5305
  123MPD2    H2 1881   2.826   0.495   9.604 -0.8785 -0.0921 -0.4409
  123MPD2    H3 1882   2.812   0.353   9.416 -0.6340 -1.7773  0.7197
  123MPD2     N 1883   3.267   0.333   9.360  0.5734 -0.0098 -0.3240
  123MPD2    H5 1884   3.349   0.386   9.389 -0.2127  1.1315 -0.1643
  123MPD2    N1 1885   3.059   0.576   9.715  0.0530 -0.1195 -0.0729
  123MPD2    H7 1886   2.973   0.619   9.746 -1.5234 -1.5604 -2.4645
  124TCq2    C1 1887   3.282   0.252   9.250 -0.2487 -0.2261  0.5116
  124TCq2    O2 1888   3.199   0.177   9.203 -0.3632 -0.0496 -0.0942
  124TCq2    C2 1889   3.410   0.275   9.191 -0.1870  0.1918 -0.7018
  124TCq2    C3 1890   3.418   0.285   9.053 -0.8433 -0.0088  0.4068
  124TCq2    C4 1891   3.518   0.368   9.000 -0.7584 -0.0429 -0.3266
  124TCq2    C5 1892   3.617   0.423   9.079  0.5123 -0.4011  0.0712
  124TCq2    C6 1893   3.610   0.398   9.217 -0.0533  0.5045 -0.1593
  124TCq2    C7 1894   3.506   0.326   9.274 -0.7434 -0.8874  0.6187
  124TCq2    C8 1895   3.720   0.433   9.304  0.2790  0.1749 -0.2447
  124TCq2    O4 1896   3.748   0.371   9.406  0.4672 -0.1426 -0.2513
  124TCq2    C9 1897   3.530   0.376   8.855 -0.5544  0.0999 -0.6251
  124TCq2    O5 1898   3.450   0.312   8.779 -0.4645  0.2984  0.4234
  124TCq2    O6 1899   3.625   0.449   8.808  0.0085  0.2612  0.2226
  124TCq2    H2 1900   3.341   0.249   8.987  1.4781 -1.1920 -1.6544
  124TCq2    H3 1901   3.693   0.487   9.037  1.5767 -1.1543  0.8614
  124TCq2    H4 1902   3.510   0.316   9.382 -1.1174  1.0518  0.8095
  125TMC2    C1 1903   4.335   3.058   9.794  0.4299 -0.6863 -0.5867
  125TMC2    C2 1904   4.357   2.941   9.712 -0.0798 -0.0638  0.3106
  125TMC2    C3 1905   4.450   2.844   9.755 -0.2244  0.7406 -0.6526
  125TMC2    C4 1906   4.416   3.072   9.899 -0.7948 -0.5736 -0.2818
  125TMC2    C5 1907   4.512   2.977   9.927  0.8277 -0.4062 -0.1111
  125TMC2    C6 1908   4.536   2.867   9.855 -0.3222 -0.3759  0.1503
  125TMC2     C 1909   4.272   3.179   9.741 -0.0717  0.1007 -0.2287
  125TMC2     O 1910   4.284   3.284   9.801  0.4804 -0.2796  0.6365
  125TMC2     H 1911   4.308   2.931   9.616  0.9240 -2.1908  0.0327
  125TMC2    H1 1912   4.401   3.164   9.953  1.7354 -0.1016 -0.3976
  125TMC2    H2 1913   4.607   2.791   9.885 -0.3874 -0.3989  0.2477
  125TMC2    C7 1914   4.617   3.018  10.026 -0.3731 -0.0732  0.6293
  125TMC2    C8 1915   4.501   2.762   9.646 -0.3113  0.6721 -0.1452
  125TMC2    O1 1916   4.587   3.114  10.093 -0.2346  0.3117  0.2645
  125TMC2    O2 1917   4.622   2.739   9.638  0.1163 -0.0804  0.0985
  125TMC2    O5 1918   4.417   2.720   9.557 -0.1737  0.0456  0.0393
  125TMC2    H5 1919   4.322   2.735   9.576 -0.2301  0.7819 -0.8253
  126MPD1     C 1920   3.977   3.444   9.410 -0.1975 -0.4822 -0.2401
  126MPD1    C1 1921   3.961   3.306   9.387  0.1373  0.0983  0.5822
  126MPD1    C2 1922   4.034   3.218   9.461  0.2370 -0.3835 -0.1549
  126MPD1    C3 1923   4.125   3.254   9.557 -0.4672  0.1367 -0.1438
  126MPD1    C4 1924   4.151   3.389   9.569 -0.1518 -0.6487 -0.7406
  126MPD1    C5 1925   4.073   3.477   9.504 -0.0839 -0.6418  0.2821
  126MPD1     H 1926   4.020   3.115   9.431  3.9909 -1.1444  0.6987
  126MPD1    H1 1927   4.232   3.431   9.627 -1.6869 -1.8206  2.1984
  126MPD1    H2 1928   3.917   3.516   9.357 -1.8029 -1.0342  0.8280
  126MPD1    H3 1929   4.083   3.584   9.517  3.6098 -0.9898  0.5099
  126MPD1     N 1930   4.192   3.154   9.637  0.1246 -0.3522  0.5917
  126MPD1    H5 1931   4.178   3.059   9.604 -0.5619 -0.0309 -0.0386
  126MPD1    N1 1932   3.881   3.258   9.280  0.2161 -0.5149 -0.7910
  126MPD1    H6 1933   3.822   3.184   9.319 -0.3924  0.3379 -0.1111
  126MPD1    H7 1934   3.821   3.322   9.229  2.2955  0.7180 -1.7234
  127MPD2     C 1935   1.727   1.560   9.807  0.0474  0.3969 -0.3342
  127MPD2    C1 1936   1.804   1.658   9.753 -0.7625 -0.1643 -0.0118
  127MPD2    C2 1937   1.815   1.779   9.824 -0.0021  0.1397  0.4873
  127MPD2    C3 1938   1.742   1.796   9.943 -0.9225 -0.2061  1.0615
  127MPD2    C4 1939   1.672   1.696   9.998  0.0015  0.6848 -0.1126
  127MPD2    C5 1940   1.663   1.576   9.930 -0.3722 -0.2492  0.1204
  127MPD2     H 1941   1.883   1.857   9.792 -0.4154  0.9256  1.5351
  127MPD2    H1 1942   1.628   1.711  10.096 -0.6650 -0.1442 -0.2929
  127MPD2    H2 1943   1.701   1.467   9.759  1.1687 -0.6238  1.0407
  127MPD2    H3 1944   1.604   1.489   9.955  1.5064 -1.6696 -0.3608
  127MPD2     N 1945   1.766   1.919  10.017  1.1485  0.5357 -0.1371
  127MPD2    H5 1946   1.840   1.979   9.982  0.9998  1.1818  0.6548
  127MPD2    N1 1947   1.866   1.623   9.631 -0.1697  0.8842  0.1134
  127MPD2    H7 1948   1.831   1.536   9.593 -1.3644  1.8510 -0.9565
  128TCq2    C1 1949   1.958   1.699   9.562  0.0917 -0.9499 -0.0682
  128TCq2    O2 1950   2.025   1.783   9.612  0.0492 -0.2343  0.7742
  128TCq2    C2 1951   1.985   1.651   9.431  0.0933 -0.0851 -0.5680
  128TCq2    C3 1952   2.102   1.697   9.375  0.2124 -0.0340 -0.1553
  128TCq2    C4 1953   2.121   1.661   9.248 -0.0474 -0.4558  0.1201
  128TCq2    C5 1954   2.031   1.590   9.169 -0.4545  0.5820  0.3849
  128TCq2    C6 1955   1.917   1.548   9.233  0.0665 -0.6872 -0.6475
  128TCq2    C7 1956   1.898   1.576   9.364 -0.2634 -0.4548 -0.0785
  128TCq2    C8 1957   1.833   1.451   9.165  0.4691  0.5642 -0.2655
  128TCq2    O4 1958   1.867   1.422   9.049 -0.2270 -0.2105 -0.2717
  128TCq2    C9 1959   2.242   1.707   9.182  0.4501  0.6930 -0.0341
  128TCq2    O5 1960   2.277   1.655   9.072 -0.0090 -0.0277  0.2664
  128TCq2    O6 1961   2.305   1.794   9.243 -0.1294 -0.0912 -0.3715
  128TCq2    H2 1962   2.173   1.758   9.429  0.2003 -0.2979  0.1578
  128TCq2    H3 1963   2.045   1.571   9.063 -0.4991  0.8203  0.3368
  128TCq2    H4 1964   1.795   1.572   9.398 -0.4101 -0.5990 -0.5373
  129MPD2     C 1965   0.091   1.773   1.912 -0.4220  0.5327 -0.2916
  129MPD2    C1 1966   0.029   1.836   1.798  0.2556  0.7364  0.1543
  129MPD2    C2 1967   0.107   1.914   1.714 -0.2060 -0.0329  0.1946
  129MPD2    C3 1968   0.242   1.927   1.731 -0.0055 -0.6885 -0.2270
  129MPD2    C4 1969   0.307   1.865   1.839 -0.3424 -0.4490  0.3387
  129MPD2    C5 1970   0.230   1.790   1.922 -0.3917 -0.9200 -0.2135
  129MPD2     H 1971   0.061   1.979   1.641 -1.2046  0.4718  1.2686
  129MPD2    H1 1972   0.413   1.872   1.861 -0.4077 -0.9671  0.8137
  129MPD2    H2 1973   0.046   1.702   1.980  0.5436 -0.5891 -0.8080
  129MPD2    H3 1974   0.283   1.755   2.011 -1.8627  2.6065  2.0280
  129MPD2     N 1975   0.317   2.007   1.637 -0.1249 -0.4648 -0.3580
  129MPD2    H5 1976   0.266   2.062   1.569  0.0163  0.5458  0.3372
  129MPD2    N1 1977   4.614   1.819   1.770  0.8237  0.0475 -0.4981
  129MPD2    H7 1978   4.584   1.867   1.686 -3.4854 -1.3765  0.2571
  130TCq2    C1 1979   4.522   1.775   1.857  0.1061 -0.4617  0.3234
  130TCq2    O2 1980   4.529   1.764   1.976  0.3508  0.9172 -0.2365
  130TCq2    C2 1981   4.397   1.767   1.787  0.4184 -0.0826 -0.1653
  130TCq2    C3 1982   4.400   1.748   1.649 -0.2887 -0.3857  0.0141
  130TCq2    C4 1983   4.271   1.754   1.594 -0.8203  0.4417 -0.4663
  130TCq2    C5 1984   4.154   1.771   1.665  0.2237 -0.0691  0.5452
  130TCq2    C6 1985   4.162   1.787   1.799  0.2909  0.1232  0.2755
  130TCq2    C7 1986   4.284   1.787   1.858 -0.4119 -0.1305  0.4291
  130TCq2    C8 1987   4.060   1.868   1.859 -0.1008 -0.1335  0.3796
  130TCq2    O4 1988   3.989   1.940   1.790 -0.0901 -0.2252 -0.6857
  130TCq2    C9 1989   4.262   1.739   1.455  0.1404 -0.5480  0.2655
  130TCq2    O5 1990   4.147   1.708   1.412 -0.1576 -0.0152  0.3119
  130TCq2    O6 1991   4.376   1.733   1.401 -0.1735 -0.3995  0.2628
  130TCq2    H2 1992   4.488   1.729   1.590 -0.1505  1.4950 -0.3596
  130TCq2    H3 1993   4.057   1.762   1.618  0.0396 -0.2488  0.9570
  130TCq2    H4 1994   4.300   1.815   1.962 -1.7947  1.3070  0.2588
  131MPD2     C 1995   3.855   1.002  10.332 -0.1746 -0.2686 -0.6155
  131MPD2    C1 1996   3.817   1.093  10.236 -0.4463 -0.0138  0.2968
  131MPD2    C2 1997   3.701   1.077  10.157  0.5972 -0.2802  0.3743
  131MPD2    C3 1998   3.628   0.961  10.179 -0.1140  0.0414  0.5703
  131MPD2    C4 1999   3.667   0.873  10.283 -0.0883 -1.0545  0.1974
  131MPD2    C5 2000   3.782   0.902  10.358 -0.2887 -0.4851 -0.9743
  131MPD2     H 2001   3.666   1.141  10.076 -0.7239  0.2038  1.3381
  131MPD2    H1 2002   3.638   0.769  10.296  0.9119 -1.4663 -0.8345
  131MPD2    H2 2003   3.952   1.002  10.381 -0.4837 -0.6257 -0.0125
  131MPD2    H3 2004   3.815   0.835  10.437 -0.5574  0.7408  0.1812
  131MPD2     N 2005   3.510   0.944  10.101 -0.4184 -0.5476  0.0531
  131MPD2    H5 2006   3.496   1.002  10.019 -2.3708 -0.7565  0.2462
  131MPD2    N1 2007   3.900   1.204  10.219 -0.3560 -0.6512  0.1589
  131MPD2    H7 2008   3.967   1.224  10.294  1.6843 -1.1176 -1.5486
  132TCq2    C1 2009   4.213   1.557   9.870  0.3449  0.5996 -0.9521
  132TCq2    O2 2010   4.211   1.465   9.791  0.3024 -0.4618 -0.5780
  132TCq2    C2 2011   4.139   1.541   9.999 -0.0903 -0.2441 -0.1606
  132TCq2    C3 2012   4.185   1.587  10.118  0.2832 -0.2093 -0.6593
  132TCq2    C4 2013   4.140   1.538  10.236 -0.1080 -0.5123 -0.7657
  132TCq2    C5 2014   4.045   1.439  10.238 -0.0996  0.1553 -0.3040
  132TCq2    C6 2015   3.985   1.402  10.120  0.7523  0.1907  0.5239
  132TCq2    C7 2016   4.036   1.449  10.003  0.1749 -0.5721 -0.1652
  132TCq2    C8 2017   3.895   1.294  10.115 -0.5774 -0.3382 -0.1582
  132TCq2    O4 2018   3.847   1.275  10.003 -0.4003 -0.7533 -0.8891
  132TCq2    C9 2019   4.194   1.580  10.360  0.2383  0.0971  0.3363
  132TCq2    O5 2020   4.171   1.516  10.467  0.8975 -0.1153 -0.3028
  132TCq2    O6 2021   4.296   1.654  10.346  1.1062 -0.0738 -0.4186
  132TCq2    H2 2022   4.266   1.660  10.120  1.3586 -1.4245 -0.1163
  132TCq2    H3 2023   4.003   1.410  10.334  1.8338  2.4987  1.2317
  132TCq2    H4 2024   4.001   1.404   9.910  1.2048  0.5170 -1.0907
  133MPD2     C 2025   3.779   2.273   9.252  0.1649 -0.2578 -0.1739
  133MPD2    C1 2026   3.709   2.323   9.359  0.2062  0.2349 -0.4457
  133MPD2    C2 2027   3.589   2.264   9.382 -0.7191 -0.2956  0.5956
  133MPD2    C3 2028   3.534   2.159   9.309 -0.5731 -0.0347  0.2875
  133MPD2    C4 2029   3.613   2.105   9.213 -0.1789 -0.0714  0.4125
  133MPD2    C5 2030   3.739   2.155   9.197  0.2049  0.0470  0.3311
  133MPD2     H 2031   3.527   2.316   9.455 -0.5103 -1.0572  1.3094
  133MPD2    H1 2032   3.596   2.012   9.160  1.3348 -0.2879  0.3150
  133MPD2    H2 2033   3.881   2.304   9.229  0.5246 -1.3244 -0.0302
  133MPD2    H3 2034   3.793   2.101   9.120  0.5371 -0.3145  0.8139
  133MPD2     N 2035   3.410   2.100   9.333 -0.4720 -0.0363 -0.3176
  133MPD2    H5 2036   3.392   2.012   9.287  0.4512  0.0962 -0.9376
  133MPD2    N1 2037   3.759   2.439   9.437 -0.3569 -0.6242 -0.0063
  133MPD2    H7 2038   3.841   2.487   9.402  1.0186 -0.9331  2.7881
  134TCq2    C1 2039   3.706   2.474   9.562  0.2128 -1.0472  0.1404
  134TCq2    O2 2040   3.615   2.424   9.629 -0.5360  0.3841 -0.2661
  134TCq2    C2 2041   3.762   2.604   9.607  0.1664 -0.2302 -0.4602
  134TCq2    C3 2042   3.900   2.626   9.594  0.2126 -0.2295  0.5416
  134TCq2    C4 2043   3.935   2.752   9.590  0.8923  0.0222  0.3990
  134TCq2    C5 2044   3.849   2.857   9.610  0.2983  0.1048  0.1408
  134TCq2    C6 2045   3.719   2.833   9.628  0.2511  0.8443  0.1209
  134TCq2    C7 2046   3.669   2.704   9.623 -0.2166 -0.8396 -0.1023
  134TCq2    C8 2047   3.626   2.942   9.626 -1.1120  0.5500  0.3971
  134TCq2    O4 2048   3.510   2.910   9.605  0.7455 -0.7935  0.4156
  134TCq2    C9 2049   4.074   2.788   9.567  0.0863  0.0486  0.1412
  134TCq2    O5 2050   4.162   2.711   9.611 -0.1163 -0.2105 -0.2144
  134TCq2    O6 2051   4.099   2.908   9.539  0.2745 -0.1867  0.4018
  134TCq2    H2 2052   3.974   2.548   9.580  2.4203  1.9426  0.1131
  134TCq2    H3 2053   3.897   2.955   9.610  1.1792 -0.3260  3.1002
  134TCq2    H4 2054   3.565   2.687   9.648 -0.5715  0.1598 -0.9032
  135MPD2     C 2055   1.182   3.962   9.962  0.3206  0.1724  0.3038
  135MPD2    C1 2056   1.110   3.851   9.997  0.7411 -0.3122 -0.1341
  135MPD2    C2 2057   1.163   3.729   9.981 -0.0951 -0.0232  0.7148
  135MPD2    C3 2058   1.287   3.716   9.922 -0.3493 -0.6605  0.3649
  135MPD2    C4 2059   1.357   3.829   9.878 -0.2968  0.6828 -0.1515
  135MPD2    C5 2060   1.314   3.954   9.908  0.6144  0.3635  0.1002
  135MPD2     H 2061   1.115   3.641  10.023  0.4405 -0.9025 -0.5331
  135MPD2    H1 2062   1.460   3.816   9.845 -0.0013  1.4792  0.4787
  135MPD2    H2 2063   1.138   4.059   9.981 -0.3186  0.3408 -2.0437
  135MPD2    H3 2064   1.367   4.043   9.875 -0.9601  1.0434 -0.5773
  135MPD2     N 2065   1.357   3.595   9.903  0.3087  0.1929 -0.1993
  135MPD2    H5 2066   1.452   3.601   9.868  0.9740  0.0247  1.6020
  135MPD2    N1 2067   0.980   3.860  10.051 -0.8883 -0.2532  0.4454
  135MPD2    H7 2068   0.941   3.769  10.073 -3.4652  0.8438  0.4053
  136TCq2    C1 2069   0.920   3.975  10.103 -0.5881 -0.4047  0.2460
  136TCq2    O2 2070   0.967   4.085  10.107  0.1408  0.2504 -0.2365
  136TCq2    C2 2071   0.802   3.952  10.179 -0.1559  0.0723  0.1021
  136TCq2    C3 2072   0.794   4.037  10.287  0.2333 -0.0951 -0.0271
  136TCq2    C4 2073   0.707   4.004  10.390 -0.2269 -0.1835  0.8609
  136TCq2    C5 2074   0.616   3.906  10.360  0.1737 -0.0887 -0.5199
  136TCq2    C6 2075   0.617   3.834  10.237  0.5344  0.1419  0.6816
  136TCq2    C7 2076   0.720   3.850  10.149  0.4256  0.2076  0.4942
  136TCq2    C8 2077   0.498   3.767  10.191  0.9229  0.4972 -0.4218
  136TCq2    O4 2078   0.476   3.762  10.069 -0.2247  0.2062  0.5223
  136TCq2    C9 2079   0.693   4.087  10.511 -0.1654 -0.2209  0.0965
  136TCq2    O5 2080   0.776   4.182  10.518 -0.7791  0.1123 -0.3968
  136TCq2    O6 2081   0.601   4.054  10.595 -0.0948  0.0259 -0.5519
  136TCq2    H2 2082   0.859   4.121  10.307  2.4241 -1.8784  0.3637
  136TCq2    H3 2083   0.525   3.903  10.418 -0.6850 -0.3415 -1.8828
  136TCq2    H4 2084   0.717   3.797  10.054 -1.4410 -0.8215  1.1424
  137MPD2     C 2085   1.160   2.036  10.814  0.2662 -0.0746  0.3330
  137MPD2    C1 2086   1.019   2.053  10.822 -0.5813 -0.1982  0.5393
  137MPD2    C2 2087   0.962   2.161  10.891 -0.2286 -0.2522  0.2585
  137MPD2    C3 2088   1.047   2.254  10.956 -0.1297 -0.0745  0.4334
  137MPD2    C4 2089   1.185   2.235  10.945 -0.5280  0.2579  0.0839
  137MPD2    C5 2090   1.235   2.131  10.873 -0.0373  0.1540 -0.3322
  137MPD2     H 2091   0.855   2.173  10.897 -0.3409 -0.6751 -0.9953
  137MPD2    H1 2092   1.264   2.295  10.987 -1.3017 -0.0042  1.9229
  137MPD2    H2 2093   1.206   1.966  10.744 -1.8940  0.8818 -2.0119
  137MPD2    H3 2094   1.342   2.116  10.871 -0.2639 -1.2577 -2.1454
  137MPD2     N 2095   0.981   2.352  11.037 -0.1999 -0.0026 -0.9835
  137MPD2    H5 2096   0.880   2.344  11.043 -0.0897 -0.2444  0.5582
  137MPD2    N1 2097   0.944   1.974  10.733 -0.4700 -0.7435  0.3976
  137MPD2    H7 2098   0.999   1.925  10.663  0.8368 -2.0682  2.3467
  138TCq2    C1 2099   0.811   1.977  10.730  0.1416  0.2739  0.6173
  138TCq2    O2 2100   0.730   2.019  10.810  0.2291 -0.0928 -0.6182
  138TCq2    C2 2101   0.753   1.924  10.614 -0.2396  0.3522 -0.3231
  138TCq2    C3 2102   0.832   1.833  10.553  0.0523 -0.4954 -1.2349
  138TCq2    C4 2103   0.789   1.789  10.432 -0.3250 -0.2303 -0.1130
  138TCq2    C5 2104   0.673   1.837  10.367  0.0015  0.4381 -0.5961
  138TCq2    C6 2105   0.607   1.931  10.439 -0.5230  0.1253 -0.2482
  138TCq2    C7 2106   0.631   1.959  10.570  0.5684 -0.1789  0.0572
  138TCq2    C8 2107   0.529   2.022  10.358 -0.5605  0.5981  0.5263
  138TCq2    O4 2108   0.496   1.985  10.245 -0.2938 -0.4894  0.1932
  138TCq2    C9 2109   0.862   1.684  10.359 -0.0958  0.2733  0.1245
  138TCq2    O5 2110   0.800   1.635  10.264  0.2957  0.0890 -0.8865
  138TCq2    O6 2111   0.972   1.643  10.412  0.4675  0.0044  0.3899
  138TCq2    H2 2112   0.925   1.790  10.586 -0.0845  0.1199 -0.0586
  138TCq2    H3 2113   0.637   1.796  10.274  1.5534  1.8701 -1.8295
  138TCq2    H4 2114   0.562   2.021  10.627 -0.8430 -0.7645 -1.0183
  139TMC2    C1 2115   1.034   1.115  13.528 -0.2031  0.3478 -0.1162
  139TMC2    C2 2116   1.024   1.025  13.431 -0.1979 -0.8013  0.0063
  139TMC2    C3 2117   0.905   1.007  13.365 -0.2001  0.3797 -0.0180
  139TMC2    C4 2118   0.946   1.221  13.526  0.3564  0.2218  0.2061
  139TMC2    C5 2119   0.834   1.205  13.450  0.0751 -0.2827 -0.6362
  139TMC2    C6 2120   0.810   1.096  13.370 -0.5254  0.2629 -0.5503
  139TMC2     C 2121   1.167   1.162  13.546 -0.4813  0.3944  0.0367
  139TMC2     O 2122   1.193   1.276  13.507 -0.2603 -0.7857 -0.2661
  139TMC2     H 2123   1.102   0.952  13.415  1.2761  0.3564  2.0060
  139TMC2    H1 2124   0.956   1.302  13.597  1.6192  1.6770 -1.6440
  139TMC2    H2 2125   0.715   1.082  13.321  0.0660 -0.3977 -1.5118
  139TMC2    C7 2126   0.739   1.310  13.460 -0.0559 -0.6497 -0.2809
  139TMC2    C8 2127   0.905   0.919  13.256  0.1807 -0.1471  0.0308
  139TMC2    O1 2128   0.624   1.273  13.450 -0.3305 -0.3236 -0.2487
  139TMC2    O2 2129   0.970   0.815  13.257 -0.2556  0.5026  0.4019
  139TMC2    O5 2130   0.936   1.009  13.166 -0.2212  0.4248  0.2244
  139TMC2    H5 2131   0.882   1.090  13.167  0.6240  0.9831  0.4571
  140MPD2     C 2132   1.344   0.877  13.729 -0.1985 -0.4289  0.5987
  140MPD2    C1 2133   1.233   0.947  13.680  0.2553  0.4365  0.2831
  140MPD2    C2 2134   1.111   0.894  13.715  0.3182  0.3058  0.3284
  140MPD2    C3 2135   1.103   0.781  13.789  0.6861  0.2098  0.3807
  140MPD2    C4 2136   1.215   0.709  13.824  0.9696  0.0382 -0.4114
  140MPD2    C5 2137   1.338   0.759  13.793 -0.1440 -0.8533  0.0516
  140MPD2     H 2138   1.021   0.950  13.694 -0.1352  0.3434  2.3547
  140MPD2    H1 2139   1.197   0.621  13.886  0.2087  0.7172  0.3402
  140MPD2    H2 2140   1.441   0.918  13.702 -0.7560  0.1329 -0.5751
  140MPD2    H3 2141   1.428   0.707  13.824  0.8608  0.8475  0.0038
  140MPD2     N 2142   0.973   0.735  13.804 -0.2683 -0.2944 -0.2828
  140MPD2    H5 2143   0.901   0.796  13.767  1.0964  0.2111 -2.1155
  140MPD2    N1 2144   1.255   1.069  13.607  0.2723  0.3993  0.5805
  140MPD2    H7 2145   1.354   1.089  13.596  0.0093  1.7233  0.5456
  141TCq2    C1 2146   1.278   1.699  14.405  0.0718 -0.1267  0.1082
  141TCq2    O2 2147   1.180   1.771  14.394 -0.5598 -0.0274 -0.1731
  141TCq2    C2 2148   1.398   1.757  14.459 -0.2622  0.1518  0.0899
  141TCq2    C3 2149   1.498   1.679  14.510 -0.5497  0.2158 -0.8635
  141TCq2    C4 2150   1.612   1.729  14.568 -0.5901 -0.5355 -0.1807
  141TCq2    C5 2151   1.631   1.862  14.563 -0.1325 -0.1253 -0.3168
  141TCq2    C6 2152   1.529   1.943  14.506 -0.4849  0.8316  0.0168
  141TCq2    C7 2153   1.411   1.894  14.451 -0.2947 -0.0088  0.0146
  141TCq2    C8 2154   1.555   2.086  14.481 -0.2046  0.0009  0.5244
  141TCq2    O4 2155   1.510   2.145  14.379 -0.3063 -0.1617 -0.3785
  141TCq2    C9 2156   1.704   1.642  14.640 -0.2649  0.1149  0.1382
  141TCq2    O5 2157   1.786   1.701  14.716  0.6833  0.0125  0.0224
  141TCq2    O6 2158   1.682   1.521  14.632  0.1077 -0.1196 -0.5212
  141TCq2    H2 2159   1.489   1.572  14.527 -0.9427  0.5599  1.0489
  141TCq2    H3 2160   1.716   1.893  14.624  0.0681  1.6241 -1.4952
  141TCq2    H4 2161   1.331   1.950  14.403 -1.4915 -1.4648  0.3422
  142MPD2     C 2162   4.246   0.142  10.595 -0.1975 -0.3225  0.4943
  142MPD2    C1 2163   4.151   0.100  10.502 -0.1158  0.6082 -0.2504
  142MPD2    C2 2164   4.149   0.167  10.378 -0.4737  0.4766  0.3579
  142MPD2    C3 2165   4.235   0.271  10.354  0.1636  0.6201  0.1208
  142MPD2    C4 2166   4.327   0.309  10.449 -0.5148 -0.0878 -0.2885
  142MPD2    C5 2167   4.333   0.247  10.571 -0.2650 -0.2739  0.5391
  142MPD2     H 2168   4.082   0.126  10.303 -0.2346  0.4209  0.1767
  142MPD2    H1 2169   4.403   0.386  10.436 -1.3925  0.2492 -3.3285
  142MPD2    H2 2170   4.266   0.083  10.684  1.2485 -0.2470  0.2175
  142MPD2    H3 2171   4.397   0.276  10.653  3.0610 -3.4761 -0.9150
  142MPD2     N 2172   4.249   0.345  10.234  0.1060 -0.2407  0.1793
  142MPD2    H5 2173   4.328   0.409  10.235 -0.7183  0.7823 -0.2587
  142MPD2    N1 2174   4.077   4.710  10.541 -0.5965 -0.7620  0.1170
  142MPD2    H7 2175   4.103   4.668  10.630 -2.9177  0.2091  1.2651
  143TCq2    C1 2176   4.181   0.329  10.118  0.1185  0.2059  0.3870
  143TCq2    O2 2177   4.087   0.250  10.096 -0.2833 -0.5145  0.2811
  143TCq2    C2 2178   4.208   0.423  10.013 -0.1304  0.2465 -0.3475
  143TCq2    C3 2179   4.314   0.509  10.031  0.3509 -0.5330 -0.5002
  143TCq2    C4 2180   4.322   0.621   9.958  0.2620 -0.5881 -0.1582
  143TCq2    C5 2181   4.232   0.641   9.856 -0.1323 -0.5028 -0.0339
  143TCq2    C6 2182   4.127   0.557   9.835 -0.0413  0.0788 -0.2509
  143TCq2    C7 2183   4.120   0.447   9.917 -0.1381  0.0234  0.3156
  143TCq2    C8 2184   4.047   0.558   9.717 -0.0386 -0.9299  0.9184
  143TCq2    O4 2185   3.974   0.461   9.706  0.3834  0.4794  0.0425
  143TCq2    C9 2186   4.429   0.721   9.984  0.3964  0.1351  0.7444
  143TCq2    O5 2187   4.463   0.727  10.107 -0.6374 -0.5101 -0.3335
  143TCq2    O6 2188   4.461   0.795   9.888 -0.2997 -0.0839 -0.1340
  143TCq2    H2 2189   4.387   0.487  10.109  0.7632  0.2288 -0.6769
  143TCq2    H3 2190   4.241   0.733   9.799 -1.5947 -0.8763 -0.8840
  143TCq2    H4 2191   4.033   0.382   9.907  0.8808 -1.2586 -0.2729
  144MPD2     C 2192   1.692   0.127   0.849  0.3542  0.0036 -0.0460
  144MPD2    C1 2193   1.741   0.024   0.766  0.4364 -0.1352  0.1580
  144MPD2    C2 2194   1.846   4.668   0.803 -0.4459 -0.0248  0.2406
  144MPD2    C3 2195   1.907   4.698   0.925  0.1804  0.4274 -0.6270
  144MPD2    C4 2196   1.855   0.075   1.008 -0.1014  0.5490  0.6502
  144MPD2    C5 2197   1.742   0.143   0.977 -0.0074 -0.1528 -0.7699
  144MPD2     H 2198   1.888   4.590   0.742 -0.3343  0.6852 -0.5902
  144MPD2    H1 2199   1.907   0.111   1.096  1.9433  0.2633 -0.4285
  144MPD2    H2 2200   1.606   0.188   0.825  1.8434  1.6993 -1.0870
  144MPD2    H3 2201   1.698   0.212   1.048 -0.1354  0.7924 -1.7717
  144MPD2     N 2202   2.016   4.626   0.977  0.5003  0.8826  0.0088
  144MPD2    H5 2203   2.037   4.644   1.075 -1.8727 -0.9406  0.8672
  144MPD2    N1 2204   1.683   4.705   0.642  0.4263 -0.0218  0.5661
  144MPD2    H7 2205   1.725   4.622   0.601  0.4068  0.3706 -0.2500
  145TCq2    C1 2206   2.096   4.534   0.910 -0.2111  0.2548  0.1489
  145TCq2    O2 2207   2.122   4.526   0.790 -0.7330 -0.6346 -0.6384
  145TCq2    C2 2208   2.151   4.436   1.002  0.4770  0.1182  0.0949
  145TCq2    C3 2209   2.189   4.313   0.954  0.2310 -0.3264 -0.0891
  145TCq2    C4 2210   2.273   4.239   1.034 -0.4194 -0.2151 -0.1292
  145TCq2    C5 2211   2.287   4.265   1.165 -0.3336  0.4144 -0.0365
  145TCq2    C6 2212   2.238   4.383   1.212  0.4049 -0.0189 -0.3755
  145TCq2    C7 2213   2.182   4.478   1.132  0.2897 -0.5135  0.1610
  145TCq2    C8 2214   2.252   4.394   1.358 -0.3158  0.0428 -0.4014
  145TCq2    O4 2215   2.293   4.294   1.416  0.2495 -0.3511 -0.0376
  145TCq2    C9 2216   2.328   4.119   0.973 -0.1883  0.4938 -0.8100
  145TCq2    O5 2217   2.346   4.021   1.048  0.0157  0.3295  0.4682
  145TCq2    O6 2218   2.331   4.110   0.847 -0.3105 -0.0760 -0.2468
  145TCq2    H2 2219   2.170   4.273   0.855  0.3704 -0.8986  0.1159
  145TCq2    H3 2220   2.343   4.190   1.220  1.4101  1.7666  0.0280
  145TCq2    H4 2221   2.187   4.581   1.165 -0.0873  0.3646 -2.5169
  146TMC2    C1 2222   3.703   3.196  11.938 -0.0773 -0.1228  0.1080
  146TMC2    C2 2223   3.699   3.297  11.839 -0.3510  0.0345  0.0740
  146TMC2    C3 2224   3.796   3.287  11.745  0.4483 -0.3954 -0.1420
  146TMC2    C4 2225   3.809   3.108  11.944  0.3057  0.2251 -0.5435
  146TMC2    C5 2226   3.913   3.122  11.862  0.7494 -0.1274 -0.0551
  146TMC2    C6 2227   3.905   3.207  11.753 -0.5349 -0.3453  0.0606
  146TMC2     C 2228   3.582   3.172  12.008  0.3935 -0.4465  0.6721
  146TMC2     O 2229   3.473   3.194  11.956 -0.1614 -0.1768 -0.4800
  146TMC2     H 2230   3.609   3.355  11.826 -0.5706 -0.3549 -0.1493
  146TMC2    H1 2231   3.806   3.028  12.017  1.3758 -0.4422 -1.2219
  146TMC2    H2 2232   3.994   3.216  11.692 -0.2467 -0.0144  0.5283
  146TMC2    C7 2233   4.027   3.039  11.869 -0.3282  0.3693  0.4331
  146TMC2    C8 2234   3.781   3.369  11.627 -0.6691 -0.4387 -0.3189
  146TMC2    O1 2235   4.094   3.032  11.763 -0.4273 -0.6095  0.4323
  146TMC2    O2 2236   3.687   3.445  11.616 -0.6251  0.2503 -0.4340
  146TMC2    O5 2237   3.832   3.302  11.525 -0.5997 -0.0827 -0.2478
  146TMC2    H5 2238   3.876   3.220  11.556 -0.4259  0.7838  1.7560
  147MPD2     C 2239   4.390   2.855  12.188  0.2402 -0.2925  0.0090
  147MPD2    C1 2240   4.267   2.847  12.256 -0.5008  0.4952  0.1392
  147MPD2    C2 2241   4.157   2.892  12.187 -0.6267 -0.2359  0.6200
  147MPD2    C3 2242   4.164   2.943  12.054  0.1803  0.1427  0.5142
  147MPD2    C4 2243   4.288   2.962  11.993  0.1512 -0.3950  0.3970
  147MPD2    C5 2244   4.398   2.916  12.062  0.3955 -0.2790  0.4230
  147MPD2     H 2245   4.062   2.861  12.229 -0.5719  0.8729  1.5528
  147MPD2    H1 2246   4.294   3.015  11.898  2.0241  0.5253  1.0276
  147MPD2    H2 2247   4.485   2.820  12.228 -0.4490 -1.5209  0.5669
  147MPD2    H3 2248   4.499   2.934  12.027  0.5703 -1.3203  0.3851
  147MPD2     N 2249   4.046   2.993  11.996 -0.3622 -0.2187 -0.0005
  147MPD2    H5 2250   3.967   2.997  12.059 -0.0525 -1.9670  0.5060
  147MPD2    N1 2251   4.266   2.778  12.383  0.6587 -0.6531  1.1591
  147MPD2    H7 2252   4.356   2.757  12.425 -0.1258 -0.2425  3.0916
  148MPD2     C 2253   3.223   2.209  10.282 -0.2163  0.2769 -0.3668
  148MPD2    C1 2254   3.248   2.097  10.354  0.0467 -0.0994 -0.3350
  148MPD2    C2 2255   3.203   1.968  10.316 -0.2478 -0.1645  0.2945
  148MPD2    C3 2256   3.128   1.959  10.201  0.6689 -0.3431 -0.5225
  148MPD2    C4 2257   3.098   2.076  10.131  0.4662  0.3732  0.3326
  148MPD2    C5 2258   3.147   2.200  10.172  0.4923  0.1696 -0.1854
  148MPD2     H 2259   3.220   1.883  10.383 -0.7771 -0.3328  0.2148
  148MPD2    H1 2260   3.022   2.080  10.054  1.3917  1.2159 -0.5391
  148MPD2    H2 2261   3.263   2.304  10.315 -0.2707 -0.0871  0.7473
  148MPD2    H3 2262   3.119   2.289  10.117  0.5566 -0.4331 -1.1963
  148MPD2     N 2263   3.079   1.833  10.148 -0.2667  0.5100  0.3161
  148MPD2    H5 2264   3.023   1.840  10.063  0.8870  3.3898 -0.2200
  148MPD2    N1 2265   3.330   2.104  10.471 -0.6730  0.4087  0.2686
  148MPD2    H7 2266   3.353   2.015  10.513  0.8382 -0.3874 -2.2728
  149TCq2    C1 2267   3.380   2.221  10.529  0.2529  0.3488  0.6405
  149TCq2    O2 2268   3.356   2.339  10.506 -0.1522  0.1430 -0.4616
  149TCq2    C2 2269   3.476   2.198  10.633 -0.2529  0.3965  0.3118
  149TCq2    C3 2270   3.506   2.308  10.713 -0.0920  0.5862  0.4979
  149TCq2    C4 2271   3.602   2.295  10.807  0.2848  0.1761  0.6879
  149TCq2    C5 2272   3.676   2.182  10.817  0.0419  0.1955 -0.3387
  149TCq2    C6 2273   3.665   2.094  10.714  0.6672  0.1052  0.1489
  149TCq2    C7 2274   3.552   2.093  10.632  0.6102  0.1288  1.0772
  149TCq2    C8 2275   3.697   1.961  10.750  0.0830 -0.2434  0.3274
  149TCq2    O4 2276   3.708   1.882  10.657 -0.8105  0.0824  0.3900
  149TCq2    C9 2277   3.649   2.411  10.878 -0.0867 -0.3428 -0.0421
  149TCq2    O5 2278   3.741   2.401  10.964  0.1610  0.3615  0.4405
  149TCq2    O6 2279   3.587   2.517  10.849 -0.4338 -0.4148  0.1025
  149TCq2    H2 2280   3.461   2.406  10.698 -0.0818  0.7394  1.4600
  149TCq2    H3 2281   3.758   2.182  10.887 -0.5038  2.0750  0.2873
  149TCq2    H4 2282   3.540   2.011  10.562  1.7358  0.1124  0.9006
  150MPD2     C 2283   0.361   1.422  12.181 -0.2113 -0.3512 -0.6855
  150MPD2    C1 2284   0.445   1.349  12.103 -0.0025 -0.3510 -0.4957
  150MPD2    C2 2285   0.581   1.367  12.123 -0.3284 -0.8243  0.3010
  150MPD2    C3 2286   0.622   1.455  12.224 -0.2613 -0.9716  0.5057
  150MPD2    C4 2287   0.540   1.527  12.302  0.4156 -0.2096 -0.0920
  150MPD2    C5 2288   0.410   1.509  12.277  0.3452 -0.2182  0.4700
  150MPD2     H 2289   0.651   1.307  12.066  1.7774  0.9016  1.1121
  150MPD2    H1 2290   0.575   1.593  12.381  0.5296 -0.3918  0.0109
  150MPD2    H2 2291   0.256   1.427  12.156 -0.3942 -1.0989 -0.0655
  150MPD2    H3 2292   0.340   1.577  12.325  0.8063  2.4270 -2.5466
  150MPD2     N 2293   0.763   1.475  12.227 -0.1158 -0.6161  0.0082
  150MPD2    H5 2294   0.817   1.456  12.143  0.8807 -2.7099  1.1324
  150MPD2    N1 2295   0.388   1.263  12.007  0.3412 -0.2421  0.1885
  150MPD2    H7 2296   0.288   1.243  12.014  0.4183 -0.4855  0.6076
  151TCq2    C1 2297   0.827   1.532  12.333 -0.4313 -0.8203  0.6571
  151TCq2    O2 2298   0.784   1.571  12.439  0.1509 -0.0073  0.2446
  151TCq2    C2 2299   0.970   1.530  12.329 -0.1194 -0.5508 -0.0028
  151TCq2    C3 2300   1.043   1.530  12.217 -0.1532  0.4777 -0.2532
  151TCq2    C4 2301   1.178   1.500  12.223  0.3007  0.1324  0.2331
  151TCq2    C5 2302   1.243   1.479  12.339  0.3508 -0.0081 -0.0074
  151TCq2    C6 2303   1.162   1.486  12.453  0.0900  0.9829 -0.7043
  151TCq2    C7 2304   1.029   1.515  12.450 -0.4202 -0.0453  0.6186
  151TCq2    C8 2305   1.222   1.480  12.582  0.6562  0.0903 -0.0329
  151TCq2    O4 2306   1.156   1.536  12.667 -0.1415  0.1422  0.0183
  151TCq2    C9 2307   1.254   1.480  12.105  0.0212  0.2683 -0.0300
  151TCq2    O5 2308   1.345   1.396  12.111 -0.2748  0.0549 -0.0795
  151TCq2    O6 2309   1.202   1.502  11.993 -0.7971  0.2771 -0.1414
  151TCq2    H2 2310   1.005   1.550  12.118 -3.4253 -3.5414  0.1829
  151TCq2    H3 2311   1.351   1.478  12.340  0.3618  1.4480  0.4701
  151TCq2    H4 2312   0.968   1.514  12.540  0.7288 -1.0150  1.3867
  152MPD2     C 2313   0.228   0.689  12.702  0.1116  0.3316 -0.0955
  152MPD2    C1 2314   0.294   0.792  12.641  0.2327  0.4795  0.1121
  152MPD2    C2 2315   0.232   0.869  12.545  0.4482 -0.1741 -0.1957
  152MPD2    C3 2316   0.097   0.851  12.520 -0.0440  0.1793 -0.0960
  152MPD2    C4 2317   0.028   0.761  12.602 -0.6692 -0.2656  0.1964
  152MPD2    C5 2318   0.094   0.678  12.687 -0.1742 -1.0615  1.0802
  152MPD2     H 2319   0.281   0.949  12.491  3.7264 -1.4750  0.8604
  152MPD2    H1 2320   4.641   0.762  12.608 -0.6526 -0.6693  0.5673
  152MPD2    H2 2321   0.278   0.624  12.773 -0.3841 -1.4981 -1.4293
  152MPD2    H3 2322   0.030   0.610  12.743 -2.5520 -0.1134 -0.4629
  152MPD2     N 2323   0.044   0.947  12.427 -0.8469  0.0357  0.0232
  152MPD2    H5 2324   0.099   1.010  12.369 -0.7308 -0.1275 -0.0432
  152MPD2    N1 2325   0.432   0.823  12.665  0.1955 -0.2324  0.3907
  152MPD2    H7 2326   0.469   0.908  12.624  0.4509  0.2306  1.5820
  153TCq2    C1 2327   0.510   0.742  12.744  0.7029 -0.3041 -0.1317
  153TCq2    O2 2328   0.501   0.634  12.794  0.1203 -0.4057 -0.2217
  153TCq2    C2 2329   0.642   0.804  12.766  0.4994 -0.0502  0.2325
  153TCq2    C3 2330   0.651   0.940  12.770 -0.5242  0.0673 -0.2864
  153TCq2    C4 2331   0.769   1.001  12.811  0.2892  0.4877  0.1663
  153TCq2    C5 2332   0.878   0.923  12.851 -0.4580 -0.1188 -0.5316
  153TCq2    C6 2333   0.861   0.793  12.852 -0.2141  0.6313 -0.2258
  153TCq2    C7 2334   0.746   0.728  12.806 -0.3889 -0.1778  0.2885
  153TCq2    C8 2335   0.973   0.702  12.869  0.2008  0.2015 -0.2769
  153TCq2    O4 2336   0.973   0.607  12.792 -0.1080  0.0556  0.4088
  153TCq2    C9 2337   0.779   1.142  12.818  0.2158 -0.1601 -0.8293
  153TCq2    O5 2338   0.883   1.193  12.857  0.1117  0.0700 -0.5060
  153TCq2    O6 2339   0.677   1.199  12.775  0.5282 -0.2189 -0.5004
  153TCq2    H2 2340   0.563   1.002  12.757  0.3561  0.9622 -2.0241
  153TCq2    H3 2341   0.972   0.970  12.877 -0.5116 -0.5351  0.4258
  153TCq2    H4 2342   0.740   0.620  12.796  1.5441 -0.1825 -0.9114
  154MPD2     C 2343   2.169   0.772   0.723 -0.6760  0.9125  0.5663
  154MPD2    C1 2344   2.155   0.826   0.852  0.0406  0.8895 -0.1321
  154MPD2    C2 2345   2.106   0.953   0.859  0.7687 -0.3710  0.2029
  154MPD2    C3 2346   2.068   1.028   0.750  0.1832  1.0420  0.3036
  154MPD2    C4 2347   2.093   0.974   0.624 -0.0508 -0.2884  0.2328
  154MPD2    C5 2348   2.140   0.849   0.613  0.7007  0.8945 -0.0973
  154MPD2     H 2349   2.092   1.006   0.953  3.1727 -0.7827  0.8074
  154MPD2    H1 2350   2.078   1.029   0.532 -1.1760 -0.6597  0.1999
  154MPD2    H2 2351   2.213   0.675   0.700 -0.9045  0.7693  0.7288
  154MPD2    H3 2352   2.154   0.807   0.514  0.6177  1.2200 -0.2469
  154MPD2     N 2353   2.022   1.158   0.773  0.2535  0.0382  0.1978
  154MPD2    H5 2354   2.008   1.175   0.872  0.1437 -0.6608  0.3013
  154MPD2    N1 2355   2.199   0.745   0.962 -0.1828  0.3040 -0.2956
  154MPD2    H7 2356   2.223   0.650   0.938 -2.2836 -0.8151  2.1129
  155TCq2    C1 2357   2.196   0.789   1.096  0.3110 -0.6244  0.5990
  155TCq2    O2 2358   2.171   0.904   1.139 -0.1950 -0.2372 -0.6107
  155TCq2    C2 2359   2.263   0.696   1.185 -0.1237  0.3363  0.6394
  155TCq2    C3 2360   2.326   0.752   1.293  0.4125 -0.1779  0.4669
  155TCq2    C4 2361   2.423   0.689   1.361 -0.4993  0.1677 -0.1954
  155TCq2    C5 2362   2.466   0.568   1.315  0.1041 -0.0334  0.0181
  155TCq2    C6 2363   2.414   0.515   1.200 -0.0755 -1.0551 -0.2139
  155TCq2    C7 2364   2.308   0.572   1.134 -0.0368 -0.1909  0.9582
  155TCq2    C8 2365   2.484   0.414   1.122  0.0146 -0.8075  0.3797
  155TCq2    O4 2366   2.438   0.364   1.023 -0.3781 -0.0396  0.5579
  155TCq2    C9 2367   2.470   0.751   1.478  0.7908 -1.0239 -0.3272
  155TCq2    O5 2368   2.429   0.867   1.510 -0.5071  0.4934  0.1332
  155TCq2    O6 2369   2.545   0.675   1.547 -0.7105 -0.1422 -0.0677
  155TCq2    H2 2370   2.294   0.850   1.326  0.1463  0.6379 -2.1860
  155TCq2    H3 2371   2.547   0.518   1.366 -2.4092 -0.6788  3.3367
  155TCq2    H4 2372   2.273   0.526   1.042 -3.0507 -0.8430  2.4425
  156MPD2     C 2373   0.935   3.315  11.356  0.2777 -0.8537  0.8807
  156MPD2    C1 2374   0.846   3.413  11.375 -0.0911  0.2770 -0.4995
  156MPD2    C2 2375   0.871   3.510  11.476  0.1829 -0.1644 -0.2023
  156MPD2    C3 2376   0.986   3.510  11.554  0.3878  0.1861 -0.6009
  156MPD2    C4 2377   1.076   3.405  11.528 -1.1800 -0.4894 -1.0447
  156MPD2    C5 2378   1.043   3.303  11.438  0.3428  0.1555 -0.6959
  156MPD2     H 2379   0.804   3.595  11.468 -1.7548 -1.9824 -3.2662
  156MPD2    H1 2380   1.163   3.386  11.590  0.8344  4.4323 -2.3888
  156MPD2    H2 2381   0.918   3.226  11.297 -2.0823 -0.1129  0.4447
  156MPD2    H3 2382   1.104   3.213  11.434  1.0034  0.5803 -0.2100
  156MPD2     N 2383   1.002   3.617  11.645 -0.3201 -0.5473 -0.0796
  156MPD2    H5 2384   0.924   3.680  11.663  0.7843  0.1448  2.2949
  156MPD2    N1 2385   0.731   3.411  11.289  0.3731 -0.1473  0.4436
  156MPD2    H7 2386   0.728   3.344  11.213  1.1688 -2.3668  2.3665
  157TCq2    C1 2387   0.623   3.498  11.307  0.1785 -0.0536  0.4497
  157TCq2    O2 2388   0.603   3.575  11.397  0.5707  0.3163 -0.0455
  157TCq2    C2 2389   0.523   3.507  11.202 -0.2145  0.5477  0.4416
  157TCq2    C3 2390   0.547   3.433  11.089  0.9241 -0.0172 -0.3130
  157TCq2    C4 2391   0.540   3.493  10.963  0.0850 -0.6969 -0.5775
  157TCq2    C5 2392   0.495   3.617  10.955  0.7018  0.8791  0.0331
  157TCq2    C6 2393   0.471   3.688  11.067  0.3717  0.0562  0.2819
  157TCq2    C7 2394   0.474   3.630  11.185  0.5429 -0.4080 -0.2561
  157TCq2    C8 2395   0.432   3.826  11.049 -0.0760  1.0179  0.1090
  157TCq2    O4 2396   0.475   3.887  10.950  0.0092  0.1446  0.2451
  157TCq2    C9 2397   0.568   3.411  10.846  0.1655 -0.6987  0.4726
  157TCq2    O5 2398   0.603   3.294  10.874 -0.9031  0.2191  0.3428
  157TCq2    O6 2399   0.527   3.453  10.733  0.1891  0.6035  0.5731
  157TCq2    H2 2400   0.578   3.330  11.101  0.8736  0.0188  0.1151
  157TCq2    H3 2401   0.504   3.655  10.854 -0.1266  0.6136 -0.1390
  157TCq2    H4 2402   0.460   3.687  11.276 -0.5388  0.5623 -1.0377
  158TMC2    C1 2403   0.522   2.687  13.471  0.0821  0.5831 -0.3699
  158TMC2    C2 2404   0.542   2.817  13.429  0.7983  0.0029 -0.1981
  158TMC2    C3 2405   0.446   2.865  13.345  0.5314 -0.5195  0.3505
  158TMC2    C4 2406   0.406   2.612  13.439 -0.3106 -0.8390  0.2442
  158TMC2    C5 2407   0.321   2.663  13.341 -0.3760  0.1824  0.0511
  158TMC2    C6 2408   0.340   2.792  13.296 -0.9488  0.0756  0.1467
  158TMC2     C 2409   0.616   2.648  13.576  0.6114 -0.6927  0.4368
  158TMC2     O 2410   0.723   2.706  13.568 -0.2097  0.2443  0.0165
  158TMC2     H 2411   0.618   2.886  13.463  0.8236 -0.0408 -0.1656
  158TMC2    H1 2412   0.402   2.511  13.481  1.4051 -2.9007 -4.5799
  158TMC2    H2 2413   0.271   2.830  13.221  2.2768  2.8349 -1.4322
  158TMC2    C7 2414   0.196   2.596  13.308  0.4254 -0.1042  0.4680
  158TMC2    C8 2415   0.456   3.004  13.331  0.3396 -0.5584 -0.4664
  158TMC2    O1 2416   0.117   2.659  13.235  0.0786  0.2108  0.2771
  158TMC2    O2 2417   0.567   3.053  13.322  0.5457  0.7203 -0.3269
  158TMC2    O5 2418   0.344   3.048  13.277 -0.2173 -0.4896  0.1331
  158TMC2    H5 2419   0.268   3.009  13.326  0.5418 -1.3541  0.6285
  159MPD2     C 2420   0.776   2.359  13.964  0.5202  0.2528 -0.2400
  159MPD2    C1 2421   0.640   2.343  13.958 -0.3766  0.4515  0.0038
  159MPD2    C2 2422   0.565   2.402  13.852 -0.8099  0.4404  0.8613
  159MPD2    C3 2423   0.631   2.488  13.765 -0.1334 -0.1266 -0.6625
  159MPD2    C4 2424   0.770   2.505  13.782 -0.2472 -0.4749 -0.8370
  159MPD2    C5 2425   0.847   2.427  13.870  0.0172 -0.6576  0.1822
  159MPD2     H 2426   0.458   2.384  13.855 -0.7239 -0.1424  0.3645
  159MPD2    H1 2427   0.831   2.563  13.715 -0.0883 -0.1967 -0.4514
  159MPD2    H2 2428   0.837   2.311  14.039 -0.1165 -2.2922 -1.3478
  159MPD2    H3 2429   0.954   2.439  13.877 -0.2393  1.1255  1.0474
  159MPD2     N 2430   0.569   2.552  13.658  0.6295 -0.8409  0.1340
  159MPD2    H5 2431   0.473   2.522  13.648  0.4871  1.6067 -5.3140
  159MPD2    N1 2432   0.581   2.262  14.051 -0.1756  0.7650 -0.2804
  159MPD2    H7 2433   0.641   2.231  14.127  1.6336  2.8869 -0.8594
  160TMC2    C1 2434   1.024   0.222   1.767  0.1916  0.0185 -0.0004
  160TMC2    C2 2435   1.149   0.176   1.760 -0.0393  0.2402 -0.3472
  160TMC2    C3 2436   1.228   0.232   1.660 -0.8144 -0.3772  0.1833
  160TMC2    C4 2437   0.966   0.324   1.697 -0.1373 -0.8479 -0.0690
  160TMC2    C5 2438   1.046   0.365   1.587  0.5008 -0.1014 -0.0634
  160TMC2    C6 2439   1.180   0.330   1.574  0.0395  0.6408  0.3542
  160TMC2     C 2440   0.953   0.164   1.879  0.1642 -0.0828  0.3350
  160TMC2     O 2441   0.992   0.054   1.923  0.5540  0.3682  0.1686
  160TMC2     H 2442   1.188   0.102   1.829  1.5313  0.6989 -0.7518
  160TMC2    H1 2443   0.859   0.342   1.700  0.0319  0.0620  0.4726
  160TMC2    H2 2444   1.247   0.372   1.499  1.5558 -1.6178  0.4167
  160TMC2    C7 2445   0.997   0.486   1.514  0.3730 -0.0223 -0.4370
  160TMC2    C8 2446   1.350   0.169   1.607 -0.1326  0.1138 -0.4168
  160TMC2    O1 2447   0.878   0.480   1.504 -0.0330 -0.6408 -0.0307
  160TMC2    O2 2448   1.396   0.199   1.502  0.2209 -0.2462  0.0422
  160TMC2    O5 2449   1.361   0.049   1.663 -0.1353 -0.1677  0.0382
  160TMC2    H5 2450   1.368   0.036   1.760 -1.0082  1.5991  0.3409
  161MPD2     C 2451   0.761   0.114   2.100  0.2592  0.5943  0.0279
  161MPD2    C1 2452   0.766   0.230   2.025 -0.5704  0.5796  0.7777
  161MPD2    C2 2453   0.677   0.333   2.059 -0.0185  0.1795  0.3675
  161MPD2    C3 2454   0.587   0.322   2.166  0.6620  0.0406 -0.1522
  161MPD2    C4 2455   0.581   0.203   2.233  0.5562 -0.5554 -0.2953
  161MPD2    C5 2456   0.667   0.094   2.199 -0.2410 -1.2401  0.0720
  161MPD2     H 2457   0.676   0.421   1.997  1.5003 -0.4817 -0.5788
  161MPD2    H1 2458   0.513   0.185   2.315  0.0739  0.0517 -0.5581
  161MPD2    H2 2459   0.829   0.036   2.069 -0.3465 -0.0643  0.3680
  161MPD2    H3 2460   0.663   4.720   2.250 -0.4272 -1.2590  0.0208
  161MPD2     N 2461   0.495   0.427   2.190 -0.5945  0.1535 -0.0123
  161MPD2    H5 2462   0.421   0.401   2.256  0.0444  2.5751  1.6641
  161MPD2    N1 2463   0.857   0.251   1.923  0.7325  0.6888  0.6996
  161MPD2    H7 2464   0.848   0.343   1.882  0.9295  0.1204 -0.6349
  162TMC2    C1 2465   3.844   2.581   1.063  0.0007 -0.6232  0.2008
  162TMC2    C2 2466   3.872   2.665   0.957 -1.7683  0.7275  0.0240
  162TMC2    C3 2467   3.798   2.774   0.946  0.3371 -0.4967 -0.3340
  162TMC2    C4 2468   3.741   2.601   1.150  0.6033  0.2590  0.0028
  162TMC2    C5 2469   3.661   2.710   1.128 -0.4964 -0.4752  0.3268
  162TMC2    C6 2470   3.691   2.799   1.028 -0.4737  0.7041 -0.1105
  162TMC2     C 2471   3.910   2.452   1.056  0.1504  0.3992  0.1072
  162TMC2     O 2472   3.976   2.421   0.958 -0.4375 -0.9106 -0.0160
  162TMC2     H 2473   3.933   2.633   0.873 -1.2926 -0.4763  0.8240
  162TMC2    H1 2474   3.712   2.514   1.208  1.1205  0.4819  0.5991
  162TMC2    H2 2475   3.635   2.891   1.014 -1.0354  0.0636 -2.0697
  162TMC2    C7 2476   3.534   2.718   1.195 -0.2359  0.0877 -0.3759
  162TMC2    C8 2477   3.810   2.846   0.827  0.4105  0.5953  0.5616
  162TMC2    O1 2478   3.460   2.803   1.149 -0.2357  0.3104  0.3690
  162TMC2    O2 2479   3.913   2.856   0.764 -0.0946  0.1031  0.1717
  162TMC2    O5 2480   3.700   2.803   0.762 -0.5568  0.0417 -0.1124
  162TMC2    H5 2481   3.647   2.749   0.825  0.5118  0.0133  0.7682
  163MPD2     C 2482   4.051   2.010   1.249  0.1119 -0.4132  0.7311
  163MPD2    C1 2483   4.018   2.048   1.118 -0.2081 -0.0208  0.7086
  163MPD2    C2 2484   3.969   2.170   1.095  0.7757  0.6742 -0.2003
  163MPD2    C3 2485   3.968   2.260   1.204  0.4738 -0.5870  0.0059
  163MPD2    C4 2486   4.012   2.219   1.335  0.8104  0.2102  0.6624
  163MPD2    C5 2487   4.054   2.094   1.359  0.0618  0.9499  0.7806
  163MPD2     H 2488   3.923   2.185   0.999  2.9342 -0.9844 -1.4960
  163MPD2    H1 2489   4.010   2.289   1.418 -0.0833 -0.4669  1.2075
  163MPD2    H2 2490   4.085   1.908   1.260  0.5021 -0.4619 -0.9378
  163MPD2    H3 2491   4.093   2.068   1.457 -0.6099 -0.9258  0.5627
  163MPD2     N 2492   3.927   2.399   1.187 -0.5515  0.1956  0.4142
  163MPD2    H5 2493   3.921   2.458   1.270  0.5026  1.2833 -0.2746
  163MPD2    N1 2494   4.047   1.948   1.016 -1.0351  0.3579 -0.6192
  163MPD2    H7 2495   4.082   1.861   1.055 -0.9832  1.6186  2.1517
  164TCq2    C1 2496   4.019   1.599  11.153  0.0397 -0.3482 -0.3651
  164TCq2    O2 2497   3.984   1.587  11.275 -0.1229 -0.1922  0.0392
  164TCq2    C2 2498   4.021   1.731  11.087  0.1387 -0.1105  0.9785
  164TCq2    C3 2499   4.076   1.759  10.960 -0.1828  0.7533  0.0792
  164TCq2    C4 2500   4.047   1.883  10.903  0.0461  0.7127 -0.0767
  164TCq2    C5 2501   3.984   1.974  10.974 -0.0444  0.1263  0.4847
  164TCq2    C6 2502   3.954   1.958  11.108  0.1751 -0.0997 -0.6717
  164TCq2    C7 2503   3.975   1.832  11.165  0.3174 -0.1455 -0.0788
  164TCq2    C8 2504   3.857   2.049  11.173 -0.0164 -0.1861 -0.4424
  164TCq2    O4 2505   3.805   2.133  11.106  0.1290 -0.0581  0.1747
  164TCq2    C9 2506   4.088   1.912  10.771  0.5158  0.0122  0.5953
  164TCq2    O5 2507   4.055   2.019  10.721  1.0410  0.8060 -0.1004
  164TCq2    O6 2508   4.120   1.821  10.693 -0.0687 -0.5713 -0.0226
  164TCq2    H2 2509   4.126   1.689  10.894 -1.2886  0.8476 -0.8437
  164TCq2    H3 2510   3.960   2.070  10.931 -1.0910  0.0443  0.8932
  164TCq2    H4 2511   3.936   1.802  11.262 -0.0190  2.1124  0.4838
  165MPD2     C 2512   0.946   3.391   1.882  0.9238 -0.5504  0.1030
  165MPD2    C1 2513   0.883   3.342   1.766  0.1256 -0.2313  0.0623
  165MPD2    C2 2514   0.768   3.415   1.734  0.3914 -0.2513  0.5030
  165MPD2    C3 2515   0.731   3.528   1.798  0.1227 -0.1590 -0.5537
  165MPD2    C4 2516   0.804   3.576   1.903 -0.1894 -0.2315  0.3352
  165MPD2    C5 2517   0.912   3.508   1.944 -0.2090  0.2596 -0.3577
  165MPD2     H 2518   0.708   3.381   1.650 -0.3081  1.9690  0.1119
  165MPD2    H1 2519   0.781   3.670   1.952  1.2558  2.9066 -4.9181
  165MPD2    H2 2520   1.043   3.356   1.914  0.0604 -1.5837  1.5825
  165MPD2    H3 2521   0.968   3.548   2.028  0.3690  0.1720 -0.6974
  165MPD2     N 2522   0.617   3.606   1.764 -0.0015  1.1633  0.0314
  165MPD2    H5 2523   0.609   3.698   1.804 -0.1161  1.4612 -0.6750
  165MPD2    N1 2524   0.949   3.243   1.692  0.0483  0.3431  0.2095
  165MPD2    H7 2525   1.039   3.201   1.715  0.1353 -0.6865 -1.9808
  166TCq2    C1 2526   0.517   3.567   1.679  0.3195 -0.4792  0.3021
  166TCq2    O2 2527   0.478   3.459   1.636  0.1711 -0.2132 -0.2140
  166TCq2    C2 2528   0.420   3.676   1.648 -0.6588 -0.9977  0.3805
  166TCq2    C3 2529   0.297   3.632   1.595  0.1948 -0.7120 -0.0667
  166TCq2    C4 2530   0.195   3.715   1.565  0.2355 -0.4239 -0.4144
  166TCq2    C5 2531   0.223   3.850   1.572 -0.3533  0.0984  0.9197
  166TCq2    C6 2532   0.340   3.901   1.622  0.6725  0.1457  0.9283
  166TCq2    C7 2533   0.442   3.814   1.657 -0.2287  0.5170  0.4476
  166TCq2    C8 2534   0.375   4.036   1.571 -0.6055 -0.0978 -0.0589
  166TCq2    O4 2535   0.493   4.057   1.556 -0.0212 -0.3205  0.7651
  166TCq2    C9 2536   0.070   3.667   1.514 -1.1488 -0.1327  0.0507
  166TCq2    O5 2537   0.049   3.548   1.529  0.2659 -0.3825  0.2071
  166TCq2    O6 2538   4.707   3.747   1.475  0.1762 -0.0735 -0.0182
  166TCq2    H2 2539   0.278   3.526   1.583  1.2774 -1.0595  1.3232
  166TCq2    H3 2540   0.157   3.914   1.516 -0.3000  0.6253  1.4638
  166TCq2    H4 2541   0.544   3.850   1.668  0.0460  0.1752 -0.9547
  167TMC2    C1 2542   3.018   1.850  12.907 -0.2082  0.3949 -0.3998
  167TMC2    C2 2543   2.930   1.850  13.008 -0.4050 -0.1561 -0.1394
  167TMC2    C3 2544   2.899   1.730  13.059 -0.4413 -0.4257 -0.1493
  167TMC2    C4 2545   3.077   1.742  12.853  0.6845 -0.0538 -0.1329
  167TMC2    C5 2546   3.055   1.627  12.918  0.0526 -0.6062  0.6022
  167TMC2    C6 2547   2.957   1.611  13.021 -0.3943  0.2348 -0.3288
  167TMC2     C 2548   3.039   1.976  12.840 -0.1286 -0.0822 -0.7995
  167TMC2     O 2549   2.946   2.054  12.855  0.1601 -0.0715 -0.1260
  167TMC2     H 2550   2.877   1.941  13.034  1.9479  0.4152  2.7357
  167TMC2    H1 2551   3.126   1.749  12.756  2.0141 -2.7768  0.3351
  167TMC2    H2 2552   2.922   1.517  13.063 -1.2240  0.9872  0.6836
  167TMC2    C7 2553   3.114   1.501  12.880  0.5871 -0.4657  0.2412
  167TMC2    C8 2554   2.834   1.727  13.191  0.4055  0.4894 -0.3055
  167TMC2    O1 2555   3.054   1.398  12.918  0.0623  0.2779 -0.3333
  167TMC2    O2 2556   2.783   1.623  13.230 -0.2918 -0.2002  0.2491
  167TMC2    O5 2557   2.863   1.835  13.275 -0.2675 -0.3488 -0.1572
  167TMC2    H5 2558   2.923   1.905  13.242 -1.1226  0.1133 -0.7590
  168MPD2     C 2559   3.076   2.172  12.618  0.0305 -0.5916  0.0324
  168MPD2    C1 2560   3.172   2.081  12.662 -0.3754  0.0126 -0.0154
  168MPD2    C2 2561   3.283   2.063  12.587  0.2010 -0.1069 -0.0046
  168MPD2    C3 2562   3.294   2.119  12.462  1.1274 -0.1231 -0.6465
  168MPD2    C4 2563   3.206   2.219  12.429  0.1983 -0.2432  0.1859
  168MPD2    C5 2564   3.095   2.243  12.507 -0.0403 -0.2405 -1.3549
  168MPD2     H 2565   3.359   1.994  12.623 -0.8498 -0.9420  0.6262
  168MPD2    H1 2566   3.209   2.277  12.338  0.5167 -1.3094 -0.4832
  168MPD2    H2 2567   2.983   2.183  12.672  0.6074 -2.9089  1.4889
  168MPD2    H3 2568   3.030   2.317  12.461 -2.0536 -1.1863 -0.0193
  168MPD2     N 2569   3.383   2.063  12.364 -0.2848 -0.2232 -0.0956
  168MPD2    H5 2570   3.362   2.087  12.267 -1.7912 -0.6758  0.1143
  168MPD2    N1 2571   3.152   1.988  12.762  0.1193 -0.8135 -0.4899
  168MPD2    H7 2572   3.218   1.911  12.763  0.1833 -0.7541 -0.3073
  169MPD1     C 2573   2.469   1.443   9.509 -0.5817  0.2435  0.7479
  169MPD1    C1 2574   2.502   1.357   9.404 -0.2028 -0.0850  0.2619
  169MPD1    C2 2575   2.407   1.293   9.338  0.6968 -0.0354  0.3594
  169MPD1    C3 2576   2.277   1.299   9.381  0.2226 -0.8061 -0.3419
  169MPD1    C4 2577   2.246   1.376   9.492  0.2102 -0.4766 -0.5609
  169MPD1    C5 2578   2.344   1.456   9.550 -0.1912 -0.7551 -0.2760
  169MPD1     H 2579   2.436   1.227   9.257  0.0683 -0.3927  0.4267
  169MPD1    H1 2580   2.142   1.393   9.518  0.3489 -0.2866 -0.1349
  169MPD1    H2 2581   2.539   1.506   9.562 -1.3467  1.2906  0.5264
  169MPD1    H3 2582   2.325   1.529   9.627  0.8990  0.8340 -1.5199
  169MPD1     N 2583   2.177   1.226   9.312 -0.7225  0.2785  0.1267
  169MPD1    H5 2584   2.187   1.182   9.221 -2.0045 -1.3635  0.7868
  169MPD1    N1 2585   2.631   1.361   9.350  0.1045  0.5230 -0.2316
  169MPD1    H6 2586   2.649   1.275   9.300 -0.8199 -0.6610  1.4943
  169MPD1    H7 2587   2.719   1.370   9.400  0.5443 -0.6720 -0.7994
  170MPD1     C 2588   0.225   4.586  13.836 -0.0434  0.1731  0.3632
  170MPD1    C1 2589   0.181   4.494  13.931  0.2721  0.7406 -0.9647
  170MPD1    C2 2590   0.102   4.392  13.884 -0.4046 -0.2371  0.4798
  170MPD1    C3 2591   0.053   4.390  13.754  0.2047  0.2139 -0.1148
  170MPD1    C4 2592   0.103   4.476  13.658  0.2488 -0.5451 -0.0579
  170MPD1    C5 2593   0.187   4.580  13.702 -0.2566 -0.5603  0.1620
  170MPD1     H 2594   0.058   4.319  13.951 -0.5061  0.4022  1.1076
  170MPD1    H1 2595   0.080   4.459  13.553 -1.4393 -0.0788  0.2367
  170MPD1    H2 2596   0.303   4.657  13.861  0.2909 -0.6304  1.5845
  170MPD1    H3 2597   0.232   4.650  13.632 -3.4229 -0.1488 -1.4414
  170MPD1     N 2598   4.681   4.287  13.725 -0.1321  0.0893  0.0241
  170MPD1    H5 2599   4.684   4.200  13.778  1.1911 -0.8989 -1.6840
  170MPD1    N1 2600   0.217   4.509  14.070  0.2141  0.3906 -0.2449
  170MPD1    H6 2601   0.137   4.511  14.132 -0.2206  1.8458 -0.8675
  170MPD1    H7 2602   0.283   4.584  14.087 -0.7415  1.6696 -2.1713
  171MPD1     C 2603   2.384   0.619  15.943 -0.0777  0.1166  0.3388
  171MPD1    C1 2604   2.460   0.537  15.873  0.8139  0.0638  0.1208
  171MPD1    C2 2605   2.585   0.514  15.930  0.5098 -0.6153 -0.7139
  171MPD1    C3 2606   2.639   0.600  16.029  0.2614 -0.2091  0.3232
  171MPD1    C4 2607   2.550   0.678  16.097  0.7340 -0.3219  1.2282
  171MPD1    C5 2608   2.420   0.685  16.054 -0.0461 -0.4750  0.0742
  171MPD1     H 2609   2.653   0.445  15.880  0.8892  0.2726 -1.4316
  171MPD1    H1 2610   2.579   0.736  16.183  1.2975 -0.3456  1.0521
  171MPD1    H2 2611   2.286   0.645  15.907 -0.6938 -3.4123 -0.5606
  171MPD1    H3 2612   2.342   0.742  16.105  1.5345  1.1395  0.7128
  171MPD1     N 2613   2.767   0.575  16.092 -1.0184 -0.0195  1.1188
  171MPD1    H5 2614   2.780   0.622  16.181 -0.5840 -1.0448  1.6055
  171MPD1    N1 2615   2.412   0.443  15.783  0.0820 -0.3594  0.4960
  171MPD1    H6 2616   2.476   0.406  15.714  0.8010 -1.9729  2.0309
  171MPD1    H7 2617   2.342   0.486  15.723  0.6113  0.7524  0.6619
  172MPD1     C 2618   2.018   4.271   0.309 -0.2002 -0.1093  0.0360
  172MPD1    C1 2619   1.968   4.391   0.267 -0.8317 -0.9117 -0.6714
  172MPD1    C2 2620   1.986   4.503   0.342  0.0539  0.2675 -0.1785
  172MPD1    C3 2621   2.044   4.495   0.465  0.0138 -0.0616  0.0799
  172MPD1    C4 2622   2.096   4.369   0.509 -0.1653 -0.2977  0.0926
  172MPD1    C5 2623   2.075   4.255   0.436 -0.1065  0.0040 -0.0900
  172MPD1     H 2624   1.959   4.603   0.309  2.5395  0.5184 -1.4326
  172MPD1    H1 2625   2.149   4.359   0.603  0.0440 -0.0339  0.0034
  172MPD1    H2 2626   2.023   4.185   0.243  1.9354  0.9218 -1.1204
  172MPD1    H3 2627   2.114   4.159   0.468  0.5768  0.6344  0.9537
  172MPD1     N 2628   2.067   4.602   0.550  0.1656 -0.0356 -0.4951
  172MPD1    H5 2629   2.093   4.575   0.644  0.9375 -0.1275 -0.7367
  172MPD1    N1 2630   1.908   4.396   0.143 -0.6131 -0.2508 -0.6124
  172MPD1    H6 2631   1.872   4.302   0.127  2.8339 -1.9516  1.6236
  172MPD1    H7 2632   1.834   4.465   0.145  0.3654  0.7689  0.4538
  173MPD1     C 2633   3.105   3.653  14.270 -0.4873 -0.6537 -1.0555
  173MPD1    C1 2634   3.039   3.678  14.388 -0.7621  0.3138  0.4429
  173MPD1    C2 2635   3.106   3.755  14.481  0.3942 -0.1982 -0.2180
  173MPD1    C3 2636   3.232   3.801  14.457 -0.8308 -0.2046  0.0604
  173MPD1    C4 2637   3.301   3.776  14.342 -0.8886 -0.0237  1.1060
  173MPD1    C5 2638   3.237   3.699  14.246  0.2901  0.2180  0.4638
  173MPD1     H 2639   3.053   3.784  14.572  3.1640  0.0634  1.3151
  173MPD1    H1 2640   3.397   3.820  14.317 -0.9627 -0.0116  0.8508
  173MPD1    H2 2641   3.047   3.597  14.198 -1.3636  0.3792 -1.1579
  173MPD1    H3 2642   3.282   3.678  14.150  2.3954  0.4361  1.4106
  173MPD1     N 2643   3.281   3.882  14.558  0.1395 -0.2825  0.0143
  173MPD1    H5 2644   3.218   3.884  14.637  0.3435 -2.0219  0.2192
  173MPD1    N1 2645   2.902   3.640  14.401  0.1174 -0.2272 -0.0800
  173MPD1    H6 2646   2.869   3.568  14.336  0.0335  0.9233 -1.3085
  173MPD1    H7 2647   2.882   3.600  14.493  0.6008 -0.6570 -0.1633
  174MPD1     C 2648   4.205   4.138  14.823  0.3212  0.3020  0.3513
  174MPD1    C1 2649   4.138   4.121  14.941 -0.6101  0.3311  0.1824
  174MPD1    C2 2650   4.002   4.116  14.930  0.2261  0.7474 -0.4315
  174MPD1    C3 2651   3.930   4.145  14.815  0.2212  0.3078  0.0406
  174MPD1    C4 2652   4.008   4.169  14.701 -0.5013  0.1834 -0.1370
  174MPD1    C5 2653   4.145   4.161  14.703  0.0167  0.1640  0.2424
  174MPD1     H 2654   3.938   4.086  15.012 -1.6711 -1.2220 -2.6132
  174MPD1    H1 2655   3.976   4.216  14.609  0.4790  4.0281  1.4605
  174MPD1    H2 2656   4.313   4.132  14.820  0.0846 -3.5341  0.2896
  174MPD1    H3 2657   4.205   4.182  14.615  1.8846  0.9136  1.6877
  174MPD1     N 2658   3.793   4.141  14.798  0.2266 -0.4241  0.1876
  174MPD1    H5 2659   3.749   4.141  14.707  0.1569  0.0944  0.2192
  174MPD1    N1 2660   4.200   4.075  15.054 -0.6024 -0.1107  0.3226
  174MPD1    H6 2661   4.152   4.098  15.141 -0.1409  0.3746  0.4474
  174MPD1    H7 2662   4.284   4.131  15.064  0.3104 -1.3711 -0.3310
  175MPD1     C 2663   2.078   0.241  15.996  0.5819 -0.2468  1.2902
  175MPD1    C1 2664   1.952   0.187  16.011 -0.6948 -0.2646 -0.5292
  175MPD1    C2 2665   1.903   0.169  16.138 -0.1616  0.3390 -0.3577
  175MPD1    C3 2666   1.986   0.176  16.245 -0.2935 -0.4741 -0.3879
  175MPD1    C4 2667   2.124   0.197  16.223 -0.4851 -0.3588  0.3167
  175MPD1    C5 2668   2.164   0.244  16.103  0.2414 -0.2620  0.7178
  175MPD1     H 2669   1.799   0.140  16.146 -0.1541  0.6830  0.8522
  175MPD1    H1 2670   2.197   0.203  16.303 -0.9106  1.2127  0.6008
  175MPD1    H2 2671   2.104   0.284  15.900  0.2753 -0.9224  0.9089
  175MPD1    H3 2672   2.269   0.261  16.083  0.2392 -2.3428 -1.1574
  175MPD1     N 2673   1.943   0.164  16.376 -0.1586 -0.4631  0.5412
  175MPD1    H5 2674   2.014   0.152  16.448  0.0196  0.6454  0.5430
  175MPD1    N1 2675   1.859   0.178  15.901 -0.0075 -0.0326  0.2587
  175MPD1    H6 2676   1.789   0.105  15.912  1.4143 -1.6124 -1.0163
  175MPD1    H7 2677   1.916   0.155  15.820 -0.1583 -3.9156  1.2325
  176MPD1     C 2678   3.440   2.316   0.747  0.0363  0.2262  0.1988
  176MPD1    C1 2679   3.488   2.392   0.643  1.3957 -0.1556  0.4016
  176MPD1    C2 2680   3.388   2.443   0.560 -0.6796 -0.6122  0.3465
  176MPD1    C3 2681   3.256   2.390   0.561 -0.2238 -0.6651 -0.1301
  176MPD1    C4 2682   3.220   2.300   0.664  0.0233 -0.1780 -0.1059
  176MPD1    C5 2683   3.314   2.263   0.758  0.3792  0.1500  0.1847
  176MPD1     H 2684   3.417   2.511   0.481  1.5389  0.9118  2.4940
  176MPD1    H1 2685   3.124   2.250   0.669  0.4508 -0.9748  0.1552
  176MPD1    H2 2686   3.511   2.291   0.825  0.1828 -1.2481 -0.4135
  176MPD1    H3 2687   3.285   2.202   0.843  1.9651  0.1899  0.7625
  176MPD1     N 2688   3.175   2.413   0.446  0.6369 -0.1506  0.6436
  176MPD1    H5 2689   3.206   2.485   0.381  4.1314  0.0882  2.5592
  176MPD1    N1 2690   3.607   2.460   0.646  0.1128 -0.3166 -0.2709
  176MPD1    H6 2691   3.643   2.499   0.559  1.4004 -2.0173 -0.5134
  176MPD1    H7 2692   3.681   2.401   0.684  1.2008  2.1161  1.4008
  177MPD1     C 2693   2.279   2.027  10.689 -0.9065 -0.8013 -0.5257
  177MPD1    C1 2694   2.191   1.933  10.651  0.2190  0.5608  0.3350
  177MPD1    C2 2695   2.114   1.967  10.537  0.4295 -0.0621  1.0859
  177MPD1    C3 2696   2.122   2.088  10.469 -0.0238  0.2814 -0.0827
  177MPD1    C4 2697   2.215   2.178  10.508  0.0893 -0.1096  0.1850
  177MPD1    C5 2698   2.283   2.148  10.623  0.3464  0.5475  0.6007
  177MPD1     H 2699   2.034   1.907  10.494 -1.4768  2.7552  0.7335
  177MPD1    H1 2700   2.236   2.269  10.453 -0.0431 -1.7034 -2.4585
  177MPD1    H2 2701   2.343   1.999  10.773  0.4028 -0.1437 -1.2929
  177MPD1    H3 2702   2.358   2.215  10.665  0.8716 -0.9472  2.0465
  177MPD1     N 2703   2.035   2.115  10.363  0.7658  0.3443  0.4362
  177MPD1    H5 2704   1.983   2.035  10.327 -0.1747  1.9199 -1.7251
  177MPD1    N1 2705   2.199   1.802  10.700 -0.6059 -0.0139 -0.2301
  177MPD1    H6 2706   2.113   1.747  10.695 -0.1194 -0.6671 -1.4985
  177MPD1    H7 2707   2.219   1.805  10.800 -1.5275 -0.7517 -0.0168
  178MPD1     C 2708   4.680   2.189   0.370  0.0279 -0.3170  0.8554
  178MPD1    C1 2709   4.717   2.272   0.265  0.0549 -0.3469  0.1878
  178MPD1    C2 2710   4.616   2.356   0.222  0.3599 -0.0359  0.0315
  178MPD1    C3 2711   4.494   2.373   0.287 -0.5224 -0.2761 -0.6334
  178MPD1    C4 2712   4.465   2.290   0.391 -0.3697 -0.0288 -0.1234
  178MPD1    C5 2713   4.555   2.192   0.428 -0.3943  0.1327  0.2312
  178MPD1     H 2714   4.647   2.428   0.148 -0.3120 -0.0907 -0.2997
  178MPD1    H1 2715   4.375   2.297   0.451 -0.8457  0.6658 -0.9095
  178MPD1    H2 2716   0.032   2.113   0.397  0.1107  0.0173  1.5623
  178MPD1    H3 2717   4.534   2.119   0.505 -2.1073 -1.2069 -1.4834
  178MPD1     N 2718   4.411   2.475   0.270 -0.5705  0.2627  0.2099
  178MPD1    H5 2719   4.324   2.476   0.322  0.3241  0.1149  1.7301
  178MPD1    N1 2720   0.114   2.258   0.188  0.3249 -0.3483  0.1519
  178MPD1    H6 2721   0.192   2.209   0.232  1.7440  3.9183  2.3435
  178MPD1    H7 2722   0.158   2.348   0.171 -1.3863 -0.0251 -2.5562
  179MPD1     C 2723   3.780   2.054  16.282 -0.1007  0.2811  1.0237
  179MPD1    C1 2724   3.768   2.020  16.150 -0.5284 -0.2634 -0.1799
  179MPD1    C2 2725   3.761   1.883  16.124  0.1285 -1.3234 -0.1190
  179MPD1    C3 2726   3.770   1.785  16.221  0.0730 -0.2673 -0.2070
  179MPD1    C4 2727   3.768   1.825  16.354  0.0103  0.2007 -0.7536
  179MPD1    C5 2728   3.771   1.962  16.383 -0.0793 -0.0542  0.7744
  179MPD1     H 2729   3.752   1.859  16.019  0.2336 -2.4822  0.1406
  179MPD1    H1 2730   3.744   1.751  16.430  0.8130  0.1626 -0.5352
  179MPD1    H2 2731   3.789   2.156  16.315 -0.0787 -0.0733  2.1242
  179MPD1    H3 2732   3.760   1.996  16.486 -1.4452 -0.2322  0.6956
  179MPD1     N 2733   3.761   1.645  16.193 -0.0343 -0.1015 -0.3731
  179MPD1    H5 2734   3.751   1.581  16.271  2.1519 -1.2587 -1.0689
  179MPD1    N1 2735   3.735   2.119  16.055  0.4063  0.1560  0.5410
  179MPD1    H6 2736   3.783   2.207  16.075  1.2306  0.1992 -1.6051
  179MPD1    H7 2737   3.779   2.084  15.970 -2.9704  0.5616 -1.4019
  180MPD1     C 2738   3.117   3.265  15.183 -0.4223  0.3886 -0.4896
  180MPD1    C1 2739   3.251   3.264  15.149  0.6000  0.9866 -0.2148
  180MPD1    C2 2740   3.293   3.212  15.030 -0.6266  0.1110 -0.6348
  180MPD1    C3 2741   3.197   3.160  14.946 -0.0624 -0.0055  1.1343
  180MPD1    C4 2742   3.063   3.159  14.978 -0.1066 -0.7853  0.2586
  180MPD1    C5 2743   3.026   3.209  15.101  0.2675  0.4128  0.5957
  180MPD1     H 2744   3.395   3.206  14.996 -1.0287  1.2433 -2.0611
  180MPD1    H1 2745   2.982   3.123  14.915 -0.1707 -1.6137  0.8120
  180MPD1    H2 2746   3.075   3.321  15.265 -0.9183  0.0284 -0.4961
  180MPD1    H3 2747   2.923   3.224  15.133 -0.1715 -0.7148 -0.2767
  180MPD1     N 2748   3.237   3.089  14.828 -0.0001 -0.1410  0.4592
  180MPD1    H5 2749   3.335   3.083  14.802 -0.6190 -4.6516 -0.7798
  180MPD1    N1 2750   3.331   3.356  15.216 -0.0641  0.3973  0.4025
  180MPD1    H6 2751   3.427   3.324  15.221  0.5745  2.8912  3.7574
  180MPD1    H7 2752   3.293   3.364  15.310  1.9341 -1.3640  1.3728
  181MPD1     C 2753   0.068   4.699   9.237  0.3278  0.1197  0.1613
  181MPD1    C1 2754   0.175   0.053   9.209 -0.4708  0.5965  0.3752
  181MPD1    C2 2755   0.295   0.021   9.276 -0.2755  0.5108  0.2488
  181MPD1    C3 2756   0.290   4.662   9.391  0.0099  0.3909 -0.0251
  181MPD1    C4 2757   0.169   4.615   9.424 -0.5902 -0.6075  0.3579
  181MPD1    C5 2758   0.058   4.627   9.351  1.2737 -1.0833  0.0290
  181MPD1     H 2759   0.388   0.056   9.232 -0.8797 -0.5812 -1.8768
  181MPD1    H1 2760   0.162   4.558   9.516 -2.2432 -0.3971  0.3624
  181MPD1    H2 2761   4.707   4.685   9.168 -0.5112  0.3938  1.1081
  181MPD1    H3 2762   4.691   4.573   9.379 -0.0116  1.4647  0.9072
  181MPD1     N 2763   0.402   4.617   9.464  0.0443  0.3018 -0.1386
  181MPD1    H5 2764   0.391   4.558   9.545  0.7547  0.0327 -0.2396
  181MPD1    N1 2765   0.173   0.133   9.093  0.3110  0.5929 -0.3316
  181MPD1    H6 2766   0.088   0.186   9.076 -1.3929 -1.3090  2.1355
  181MPD1    H7 2767   0.242   0.202   9.065  0.6898  0.2136 -0.3422
  182MPD1     C 2768   1.280   4.109   2.133  0.0436  0.3317 -0.2065
  182MPD1    C1 2769   1.359   4.025   2.064 -0.4130  0.1923  0.0911
  182MPD1    C2 2770   1.344   4.023   1.925 -0.4660  0.8465  0.0052
  182MPD1    C3 2771   1.235   4.081   1.864 -0.5863  0.2371 -0.2878
  182MPD1    C4 2772   1.161   4.161   1.940 -0.0289 -0.6090 -0.6279
  182MPD1    C5 2773   1.179   4.174   2.070 -0.4737  0.8784 -0.2703
  182MPD1     H 2774   1.411   3.955   1.874 -1.1689 -1.4809  2.1666
  182MPD1    H1 2775   1.084   4.220   1.893  1.1299 -1.5376 -3.7572
  182MPD1    H2 2776   1.282   4.126   2.240 -0.6550 -1.7088  0.1173
  182MPD1    H3 2777   1.103   4.231   2.123  0.5798  0.4969  1.6420
  182MPD1     N 2778   1.215   4.084   1.727 -0.2172 -0.5918 -0.6665
  182MPD1    H5 2779   1.134   4.133   1.691  0.3897 -0.8761 -2.4328
  182MPD1    N1 2780   1.475   3.966   2.124 -0.0287  0.6107 -0.0390
  182MPD1    H6 2781   1.521   3.886   2.081 -3.3354 -2.4674  2.1881
  182MPD1    H7 2782   1.463   3.930   2.218  0.6100 -0.7428 -0.4827
  183MPD1     C 2783   1.423   4.656   8.920 -0.1596 -0.1378  0.4065
  183MPD1    C1 2784   1.306   4.583   8.940  0.3973  0.0470 -0.2192
  183MPD1    C2 2785   1.309   4.444   8.941  0.5667 -0.3368  1.5700
  183MPD1    C3 2786   1.429   4.387   8.958 -0.0923  0.4905  0.6704
  183MPD1    C4 2787   1.540   4.463   8.943  0.3633  0.0769 -0.7228
  183MPD1    C5 2788   1.540   4.591   8.915  0.1174 -1.2927 -0.2672
  183MPD1     H 2789   1.218   4.386   8.948  1.5912 -2.0723  0.6037
  183MPD1    H1 2790   1.637   4.415   8.951 -0.1004 -0.7331  0.0954
  183MPD1    H2 2791   1.420   0.042   8.905 -0.0928  0.2255  2.8895
  183MPD1    H3 2792   1.628   4.654   8.919  0.4868 -1.9151  1.7127
  183MPD1     N 2793   1.424   4.246   8.976  0.0252  0.3074 -0.8431
  183MPD1    H5 2794   1.342   4.196   9.008  0.9096 -0.1967  0.6497
  183MPD1    N1 2795   1.182   4.646   8.930 -0.5791  0.2176 -0.1203
  183MPD1    H6 2796   1.176   0.020   8.965  1.2482  0.3816 -0.3005
  183MPD1    H7 2797   1.122   4.593   8.994  1.1909  0.4776  1.7598
  184MPD1     C 2798   0.796   1.321   9.495 -0.2722 -0.1668 -0.2361
  184MPD1    C1 2799   0.785   1.306   9.634 -0.2889  0.1679  0.6362
  184MPD1    C2 2800   0.867   1.381   9.717 -0.1368  0.0901  0.1058
  184MPD1    C3 2801   0.944   1.484   9.660  0.1900 -0.1063 -0.5377
  184MPD1    C4 2802   0.950   1.492   9.523 -0.8698  0.6863 -0.3123
  184MPD1    C5 2803   0.878   1.415   9.437  0.0641  0.6424 -0.1734
  184MPD1     H 2804   0.856   1.377   9.824 -0.5857  3.0218  0.1878
  184MPD1    H1 2805   1.019   1.564   9.481 -2.0661  1.8985 -0.1871
  184MPD1    H2 2806   0.732   1.261   9.431 -0.9272  0.6130 -0.3095
  184MPD1    H3 2807   0.895   1.421   9.330 -0.4190 -0.6678 -0.3224
  184MPD1     N 2808   1.039   1.560   9.732  0.5711  0.8558 -0.0155
  184MPD1    H5 2809   1.087   1.623   9.668  1.7426  0.3346  0.3402
  184MPD1    N1 2810   0.683   1.222   9.684 -0.0460  0.4587  0.0706
  184MPD1    H6 2811   0.660   1.142   9.625 -0.6274  0.8945 -0.2860
  184MPD1    H7 2812   0.706   1.190   9.778 -1.2341 -0.4822  0.0324
  185MPD1     C 2813   1.681   1.853   9.327  0.2780 -1.1875  0.1511
  185MPD1    C1 2814   1.722   1.915   9.443 -0.4239 -0.4371  0.5906
  185MPD1    C2 2815   1.652   1.890   9.559  0.4878  0.8492 -0.6780
  185MPD1    C3 2816   1.559   1.786   9.565  0.0784  0.5213  0.8064
  185MPD1    C4 2817   1.542   1.708   9.451 -0.1152 -0.0339  0.9535
  185MPD1    C5 2818   1.590   1.752   9.327  0.4608 -0.5493 -0.0141
  185MPD1     H 2819   1.664   1.943   9.652 -1.7068  0.4656 -0.1583
  185MPD1    H1 2820   1.468   1.629   9.454 -2.9557  2.4956 -2.2737
  185MPD1    H2 2821   1.718   1.884   9.229 -3.3895 -1.4531 -1.3008
  185MPD1    H3 2822   1.562   1.694   9.240  0.3812  1.9271 -1.6407
  185MPD1     N 2823   1.475   1.767   9.671 -0.3759  0.6691 -0.0625
  185MPD1    H5 2824   1.418   1.683   9.667 -0.0164  0.4874 -1.2701
  185MPD1    N1 2825   1.810   2.024   9.434  0.5213 -0.1710 -0.1506
  185MPD1    H6 2826   1.871   2.039   9.515  0.5623  0.2158 -0.2517
  185MPD1    H7 2827   1.861   2.021   9.346  1.6317  0.6011  0.4526
  186MPD1     C 2828   4.097   1.341  15.728 -0.2551 -0.1969 -0.5123
  186MPD1    C1 2829   4.046   1.469  15.727  0.2609 -0.3402 -0.0063
  186MPD1    C2 2830   4.036   1.535  15.852  0.3079 -0.9785 -0.2221
  186MPD1    C3 2831   4.084   1.475  15.969 -0.2403 -0.6094  0.1657
  186MPD1    C4 2832   4.136   1.350  15.966 -0.7652 -0.0022 -0.3715
  186MPD1    C5 2833   4.141   1.281  15.843 -0.6540  0.2071  0.0676
  186MPD1     H 2834   3.991   1.633  15.862  0.2716 -1.0751  0.5680
  186MPD1    H1 2835   4.183   1.308  16.054  1.4240 -0.1926 -1.6485
  186MPD1    H2 2836   4.098   1.276  15.641  1.6740 -0.9711  0.0695
  186MPD1    H3 2837   4.176   1.179  15.853  0.1175  0.5797  1.1495
  186MPD1     N 2838   4.101   1.543  16.094 -0.1640 -0.2364 -0.5895
  186MPD1    H5 2839   4.149   1.487  16.164 -0.0281  1.6490  0.8429
  186MPD1    N1 2840   3.993   1.527  15.607 -0.0056 -0.2975  0.6478
  186MPD1    H6 2841   4.019   1.482  15.519 -0.8645 -1.5406  1.0309
  186MPD1    H7 2842   4.024   1.623  15.590 -1.8009  0.2323  0.3337
  187MPD1     C 2843   3.725   3.076   0.530 -0.1042  0.1818 -0.9858
  187MPD1    C1 2844   3.615   3.003   0.473 -0.7869 -0.1454 -0.3889
  187MPD1    C2 2845   3.534   3.056   0.376 -0.3242  0.6005 -0.1924
  187MPD1    C3 2846   3.554   3.182   0.326  0.5719 -1.1488  0.4273
  187MPD1    C4 2847   3.657   3.261   0.382 -0.2788  0.1256 -0.1082
  187MPD1    C5 2848   3.735   3.207   0.488 -0.4988 -0.6308 -0.4783
  187MPD1     H 2849   3.466   2.987   0.328 -0.6213  2.7362 -2.7525
  187MPD1    H1 2850   3.682   3.357   0.339 -0.8106  0.3832  0.1643
  187MPD1    H2 2851   3.797   3.037   0.602 -1.9401  0.4392  0.9983
  187MPD1    H3 2852   3.817   3.265   0.530 -0.8449  0.2278 -0.9979
  187MPD1     N 2853   3.480   3.237   0.219 -0.0568 -0.2506  0.4130
  187MPD1    H5 2854   3.508   3.328   0.183  0.4837 -1.7185 -2.8940
  187MPD1    N1 2855   3.611   2.868   0.509 -0.3330 -0.5056  0.4272
  187MPD1    H6 2856   3.642   2.841   0.602  2.3894 -0.3640 -0.4248
  187MPD1    H7 2857   3.516   2.833   0.498 -0.7911  0.7373  0.4368
  188MPD1     C 2858   3.672   3.739  10.390  0.3736 -0.1302 -0.4137
  188MPD1    C1 2859   3.545   3.683  10.410  0.4075  0.0584  0.2228
  188MPD1    C2 2860   3.508   3.579  10.327  0.0910 -0.1270  0.0699
  188MPD1    C3 2861   3.610   3.504  10.265 -0.6515 -0.3090  0.4532
  188MPD1    C4 2862   3.741   3.557  10.272 -0.0337  0.7552 -0.0666
  188MPD1    C5 2863   3.772   3.671  10.339 -0.1030  0.6824 -0.0140
  188MPD1     H 2864   3.402   3.561  10.314  0.6342 -1.5093 -2.3678
  188MPD1    H1 2865   3.826   3.500  10.238 -0.3963 -0.4225  0.9816
  188MPD1    H2 2866   3.708   3.825  10.445  2.5481 -0.6454 -1.0324
  188MPD1    H3 2867   3.873   3.696  10.367 -0.5197 -1.7931  3.7156
  188MPD1     N 2868   3.590   3.381  10.194  0.5232  0.2508  0.0893
  188MPD1    H5 2869   3.675   3.328  10.176  1.0549  0.5908  1.5963
  188MPD1    N1 2870   3.453   3.751  10.487 -0.5127 -0.1763 -0.2343
  188MPD1    H6 2871   3.366   3.699  10.502  0.7847 -1.4406  2.8090
  188MPD1    H7 2872   3.491   3.811  10.560 -0.3856 -2.0438  1.2069
  189MPD1     C 2873   0.969   3.751   0.456 -0.1986 -0.4404  0.4122
  189MPD1    C1 2874   0.889   3.709   0.354  0.4211 -0.1273  0.0319
  189MPD1    C2 2875   0.752   3.704   0.380 -0.3081 -0.3961  0.6283
  189MPD1    C3 2876   0.703   3.716   0.508 -0.3595 -0.4040  0.0708
  189MPD1    C4 2877   0.796   3.742   0.609  0.0364 -0.4362  0.0382
  189MPD1    C5 2878   0.927   3.765   0.582 -0.2713  0.1851  0.0168
  189MPD1     H 2879   0.691   3.693   0.291  0.4130  1.8260 -0.1375
  189MPD1    H1 2880   0.760   3.748   0.711 -3.7131  0.0497 -1.3342
  189MPD1    H2 2881   1.075   3.771   0.446 -0.2826 -0.7339 -0.9654
  189MPD1    H3 2882   0.994   3.784   0.666 -0.3517 -0.0008  0.1230
  189MPD1     N 2883   0.567   3.694   0.537 -0.4890  0.0653  0.5037
  189MPD1    H5 2884   0.510   3.706   0.454  1.2013  0.6166 -0.5964
  189MPD1    N1 2885   0.932   3.712   0.226  0.0298 -0.4545 -0.0876
  189MPD1    H6 2886   0.874   3.644   0.177  1.5582 -1.1759 -0.9015
  189MPD1    H7 2887   1.031   3.689   0.211 -0.2626 -0.0043 -2.7662
  190MPD1     C 2888   3.573   3.490  15.942  0.1676  0.6271  0.2915
  190MPD1    C1 2889   3.539   3.383  16.028  0.2681  0.2845  0.2569
  190MPD1    C2 2890   3.631   3.282  16.023  0.4034  0.0374 -0.5298
  190MPD1    C3 2891   3.718   3.273  15.924  0.1759 -0.8468  0.3996
  190MPD1    C4 2892   3.749   3.378  15.841  0.3498  0.5021  0.2740
  190MPD1    C5 2893   3.677   3.493  15.857 -0.4288 -0.2205  0.1137
  190MPD1     H 2894   3.626   3.191  16.082 -0.1552  0.6571  0.3999
  190MPD1    H1 2895   3.822   3.368  15.762 -2.4366  0.9085 -2.3570
  190MPD1    H2 2896   3.528   3.589  15.952 -0.6985  0.1500  1.1920
  190MPD1    H3 2897   3.700   3.584  15.803  0.6463 -0.8832 -0.5324
  190MPD1     N 2898   3.767   3.143  15.903 -0.1198  0.1156 -0.5345
  190MPD1    H5 2899   3.710   3.064  15.929  1.7869 -1.9772 -2.7224
  190MPD1    N1 2900   3.430   3.400  16.127  0.6282 -0.5037 -0.4172
  190MPD1    H6 2901   3.363   3.464  16.084  2.9560  0.6000 -2.4035
  190MPD1    H7 2902   3.387   3.309  16.142 -2.1384  1.0975  1.4697
  191MPD1     C 2903   3.033   4.069  12.721 -0.3537 -0.1143 -0.0928
  191MPD1    C1 2904   3.046   4.173  12.808  0.5457 -0.1326 -0.3491
  191MPD1    C2 2905   3.101   4.293  12.757 -0.2244 -0.7851 -0.3798
  191MPD1    C3 2906   3.139   4.306  12.625 -0.4959  0.1620 -0.2005
  191MPD1    C4 2907   3.114   4.202  12.543  0.2081  0.3496  0.9981
  191MPD1    C5 2908   3.057   4.086  12.588 -0.5235 -0.1945 -0.2860
  191MPD1     H 2909   3.106   4.386  12.813 -0.1405 -1.4225  0.6808
  191MPD1    H1 2910   3.137   4.208  12.437  0.9741 -3.1186  0.9647
  191MPD1    H2 2911   2.979   3.980  12.751 -0.6127  0.4167  1.0377
  191MPD1    H3 2912   3.024   4.010  12.519 -1.3149 -2.0812  2.1505
  191MPD1     N 2913   3.195   4.429  12.575  0.2501  0.7485 -0.3233
  191MPD1    H5 2914   3.203   4.505  12.642  2.8999 -0.7286  1.0080
  191MPD1    N1 2915   3.005   4.153  12.942 -0.4224  0.0593 -0.1703
  191MPD1    H6 2916   2.925   4.089  12.940 -0.6954  0.3973 -0.0243
  191MPD1    H7 2917   2.975   4.241  12.983 -2.0798 -1.0107  0.9055
  192MPD1     C 2918   3.152   0.694  12.660 -0.0959 -0.2866 -0.6352
  192MPD1    C1 2919   3.064   0.595  12.691  0.0130  0.4179 -0.1881
  192MPD1    C2 2920   3.097   0.466  12.641  0.0143 -0.0117 -0.2923
  192MPD1    C3 2921   3.216   0.449  12.565  0.3459 -0.2553  0.4579
  192MPD1    C4 2922   3.296   0.561  12.545 -0.3479  0.2914 -0.9239
  192MPD1    C5 2923   3.268   0.678  12.588 -0.0117  0.2200 -0.3360
  192MPD1     H 2924   3.020   0.389  12.649 -0.9011  0.8731 -0.6799
  192MPD1    H1 2925   3.386   0.548  12.486 -0.3564  0.5318 -0.9905
  192MPD1    H2 2926   3.118   0.793  12.687 -1.7289 -1.0964  0.3150
  192MPD1    H3 2927   3.329   0.764  12.561  0.0639 -0.0066 -0.8803
  192MPD1     N 2928   3.252   0.331  12.506  0.0479 -0.5140 -0.3919
  192MPD1    H5 2929   3.333   0.339  12.445 -1.6654  0.8621 -2.4777
  192MPD1    N1 2930   2.935   0.629  12.739  0.5238  0.4795  0.1092
  192MPD1    H6 2931   2.934   0.716  12.791  1.3667  0.4740  0.1248
  192MPD1    H7 2932   2.898   0.556  12.799 -0.1182 -0.3591 -1.3030
  193MPD1     C 2933   2.621   0.236  16.310 -0.1301  0.6164  0.0701
  193MPD1    C1 2934   2.575   0.357  16.331  0.6848  0.5356  0.0641
  193MPD1    C2 2935   2.615   0.429  16.441  0.1787  0.7740 -0.3095
  193MPD1    C3 2936   2.713   0.377  16.528 -0.7264  0.3284 -0.2976
  193MPD1    C4 2937   2.771   0.251  16.501  0.8194 -0.4986 -0.8017
  193MPD1    C5 2938   2.724   0.185  16.383 -0.5797  0.1031  0.0198
  193MPD1     H 2939   2.560   0.518  16.468 -2.0764 -0.6778 -0.1684
  193MPD1    H1 2940   2.855   0.200  16.548  1.6509  0.4864 -1.2359
  193MPD1    H2 2941   2.595   0.181  16.220  0.8123  2.9448 -1.6298
  193MPD1    H3 2942   2.764   0.090  16.347 -1.3438 -0.8734  1.7687
  193MPD1     N 2943   2.758   0.446  16.645  0.2575  0.3798  0.1478
  193MPD1    H5 2944   2.819   0.396  16.709  1.3857  0.1575 -1.1140
  193MPD1    N1 2945   2.464   0.402  16.256  0.2197  0.4974 -0.4392
  193MPD1    H6 2946   2.472   0.369  16.160  2.2592 -0.9849  0.2403
  193MPD1    H7 2947   2.457   0.503  16.245  0.9953  0.3489 -2.3733
  194MPD1     C 2948   0.409   2.672  16.907 -0.1628 -0.0093  0.4469
  194MPD1    C1 2949   0.447   2.581  16.804 -0.1474  0.2394  0.3865
  194MPD1    C2 2950   0.498   2.452  16.848  0.1238  0.7192  0.0681
  194MPD1    C3 2951   0.503   2.421  16.981 -0.3044  0.1227 -0.5674
  194MPD1    C4 2952   0.473   2.521  17.073 -0.1007 -0.4745  0.3993
  194MPD1    C5 2953   0.428   2.642  17.040  0.3458 -0.1209 -0.0046
  194MPD1     H 2954   0.535   2.381  16.775  1.0450  1.1286  0.1306
  194MPD1    H1 2955   0.476   2.490  17.177  0.7774 -2.2702 -0.1576
  194MPD1    H2 2956   0.370   2.767  16.874 -0.8414 -0.1329  0.9118
  194MPD1    H3 2957   0.390   2.711  17.115  1.8169 -0.4634  1.0687
  194MPD1     N 2958   0.546   2.290  17.027  0.6232  0.2258  0.6014
  194MPD1    H5 2959   0.539   2.279  17.128  1.9705 -1.6733  0.4963
  194MPD1    N1 2960   0.446   2.615  16.669  0.9529  0.7082 -0.1678
  194MPD1    H6 2961   0.437   2.530  16.613  2.7352  2.3215 -2.9078
  194MPD1    H7 2962   0.373   2.684  16.658 -0.6730 -0.8307  0.9679
  195MPD1     C 2963   2.676   4.180   0.118 -0.4559 -0.6964  0.1493
  195MPD1    C1 2964   2.557   4.105   0.131  0.7705  0.7478 -0.2689
  195MPD1    C2 2965   2.568   3.968   0.120  0.0817  0.6038  0.0921
  195MPD1    C3 2966   2.679   3.910   0.060 -0.0035  0.7183  1.1840
  195MPD1    C4 2967   2.790   3.984   0.048  0.7030  0.9793 -0.1756
  195MPD1    C5 2968   2.787   4.117   0.078  0.1027 -0.0941 -0.0725
  195MPD1     H 2969   2.480   3.906   0.132 -0.3363  0.9680 -1.1722
  195MPD1    H1 2970   2.886   3.952   0.009 -0.0213  1.5610 -2.4003
  195MPD1    H2 2971   2.663   4.287   0.131 -1.2224 -0.9430  1.3708
  195MPD1    H3 2972   2.877   4.174   0.063 -0.8591  1.8971  1.8435
  195MPD1     N 2973   2.694   3.775   0.040  0.1617 -0.6776  0.1041
  195MPD1    H5 2974   2.790   3.759   0.010 -0.1627 -0.9136 -0.8252
  195MPD1    N1 2975   2.438   4.169   0.174 -0.0352  0.0715 -0.0651
  195MPD1    H6 2976   2.351   4.125   0.142 -0.1316 -0.1282  0.4737
  195MPD1    H7 2977   2.423   4.266   0.148 -1.4623  0.0422  0.6223
  196MPD1     C 2978   1.833   3.147   0.391 -0.8106  0.3846 -0.1934
  196MPD1    C1 2979   1.868   3.279   0.362  0.6049  0.2511  0.4882
  196MPD1    C2 2980   1.886   3.365   0.469  0.5450  1.0558  0.7557
  196MPD1    C3 2981   1.863   3.318   0.599  0.2740  0.3822  0.6199
  196MPD1    C4 2982   1.817   3.191   0.624  0.3127  0.0430 -0.3605
  196MPD1    C5 2983   1.818   3.102   0.519  0.3112 -0.4744  0.5905
  196MPD1     H 2984   1.920   3.466   0.449  2.0305  0.0270 -1.9466
  196MPD1    H1 2985   1.804   3.159   0.727 -0.2095  0.0531 -0.4241
  196MPD1    H2 2986   1.827   3.075   0.309 -1.6217  0.0926  0.1235
  196MPD1    H3 2987   1.810   2.994   0.526  1.2929 -0.4990  1.2230
  196MPD1     N 2988   1.887   3.394   0.713 -0.2006  0.4338 -0.2240
  196MPD1    H5 2989   1.880   3.346   0.802  0.1727 -2.1521 -1.5920
  196MPD1    N1 2990   1.889   3.321   0.234 -0.2742  0.1327 -0.2363
  196MPD1    H6 2991   1.833   3.277   0.162  0.8110 -1.3599 -0.1801
  196MPD1    H7 2992   1.858   3.418   0.235  1.6796  0.7654 -0.4053
  197MPD1     C 2993   1.515   0.418   0.083 -0.1217 -0.2354 -0.2211
  197MPD1    C1 2994   1.596   0.507   0.154  0.1965  0.2915  1.4457
  197MPD1    C2 2995   1.650   0.616   0.090 -0.1908  0.2955  0.0175
  197MPD1    C3 2996   1.615   0.633  17.644 -0.2568  0.4798 -0.2239
  197MPD1    C4 2997   1.539   0.541  17.575  0.7294 -0.1675 -0.2879
  197MPD1    C5 2998   1.492   0.437  17.642 -0.7268  0.0783  0.1769
  197MPD1     H 2999   1.710   0.688   0.145  1.0818 -0.7300 -0.0360
  197MPD1    H1 3000   1.511   0.548  17.471  2.1100  1.6953 -0.5319
  197MPD1    H2 3001   1.452   0.349   0.137  1.0703 -1.3218 -0.2439
  197MPD1    H3 3002   1.436   0.363  17.585  1.1737 -1.2953  0.0873
  197MPD1     N 3003   1.650   0.745  17.571  0.0384  0.5734 -0.6266
  197MPD1    H5 3004   1.633   0.753  17.471  1.9087  1.8748 -0.8568
  197MPD1    N1 3005   1.608   0.488   0.292  0.3308 -0.5505  0.0006
  197MPD1    H6 3006   1.706   0.495   0.319  0.8341 -1.0637 -1.7246
  197MPD1    H7 3007   1.592   0.391   0.318 -0.4393 -0.4981 -0.2717
  198MPD1     C 3008   2.919   4.019  16.127  0.1730 -0.2227 -0.6684
  198MPD1    C1 3009   3.004   4.037  16.229  0.4925  0.4025 -0.2846
  198MPD1    C2 3010   3.131   4.082  16.202  0.1326  0.0337 -0.3548
  198MPD1    C3 3011   3.178   4.091  16.070 -0.0257  0.2259 -0.4743
  198MPD1    C4 3012   3.101   4.053  15.969 -0.3275 -0.4848  0.1014
  198MPD1    C5 3013   2.969   4.030  16.002 -0.0571 -0.2492 -0.5570
  198MPD1     H 3014   3.203   4.097  16.282 -0.0919  1.5861 -0.4455
  198MPD1    H1 3015   3.135   4.066  15.867  2.8910 -0.1114  1.2212
  198MPD1    H2 3016   2.815   3.995  16.145  0.0118 -0.4891 -1.9265
  198MPD1    H3 3017   2.894   4.019  15.924  0.1991 -2.7229 -0.4540
  198MPD1     N 3018   3.306   4.141  16.057 -0.2822  0.3184  0.1596
  198MPD1    H5 3019   3.363   4.149  16.140  0.7470 -1.8114 -0.3229
  198MPD1    N1 3020   2.963   4.032  16.368  0.1575  0.1267 -0.2264
  198MPD1    H6 3021   2.881   3.977  16.395  0.1955  0.5103  0.6666
  198MPD1    H7 3022   3.036   4.022  16.438 -0.3455 -0.3188  0.2347
  199MPD1     C 3023   0.964   4.274   9.524 -0.3130 -0.2007 -0.1960
  199MPD1    C1 3024   1.093   4.287   9.550  0.5830 -0.0463  0.1249
  199MPD1    C2 3025   1.150   4.390   9.484 -0.7146 -0.8793  0.1328
  199MPD1    C3 3026   1.082   4.468   9.397 -0.5366  0.3438  0.6431
  199MPD1    C4 3027   0.952   4.447   9.374  0.0267 -0.0011  0.1359
  199MPD1    C5 3028   0.892   4.351   9.443  0.3141 -0.2830 -0.2111
  199MPD1     H 3029   1.253   4.414   9.510 -1.5948  0.8295  2.0683
  199MPD1    H1 3030   0.907   4.498   9.289 -1.8421 -0.8508  0.6137
  199MPD1    H2 3031   0.908   4.194   9.573 -1.0524 -0.0957 -0.8722
  199MPD1    H3 3032   0.789   4.330   9.416 -0.1810 -0.3554  1.7057
  199MPD1     N 3033   1.140   4.579   9.324  0.3718 -0.1337  0.4100
  199MPD1    H5 3034   1.074   4.646   9.286  1.5233  0.0022 -1.3187
  199MPD1    N1 3035   1.173   4.195   9.620 -0.8735  0.6662 -0.4038
  199MPD1    H6 3036   1.117   4.138   9.683  0.4376 -0.0688  0.1008
  199MPD1    H7 3037   1.243   4.242   9.678  0.0382 -0.1842 -0.8140
  200MPD1     C 3038   0.395   0.214  16.024 -0.0560  0.3738  0.2445
  200MPD1    C1 3039   0.312   0.284  15.945  0.2139  0.1618 -0.1084
  200MPD1    C2 3040   0.183   0.237  15.925 -0.1766 -0.3591 -0.8203
  200MPD1    C3 3041   0.145   0.120  15.992  1.0213 -0.4986 -0.0115
  200MPD1    C4 3042   0.230   0.043  16.061 -0.6444 -0.6014 -0.2111
  200MPD1    C5 3043   0.357   0.094  16.090  0.1723 -0.0710  0.2647
  200MPD1     H 3044   0.114   0.293  15.863 -0.7899  0.1973  0.3580
  200MPD1    H1 3045   0.199   4.677  16.116 -4.5201  0.6249 -0.4276
  200MPD1    H2 3046   0.492   0.260  16.036  0.5221 -0.9738  0.7527
  200MPD1    H3 3047   0.422   0.051  16.165  1.3505  0.6513 -0.3619
  200MPD1     N 3048   0.008   0.069  15.979  0.2290  0.6637  0.3477
  200MPD1    H5 3049   4.714   4.698  16.016 -1.5897  0.0749 -1.9126
  200MPD1    N1 3050   0.343   0.421  15.917 -0.4215  0.0899 -0.2358
  200MPD1    H6 3051   0.443   0.436  15.906 -0.1837 -1.6211 -0.4387
  200MPD1    H7 3052   0.294   0.444  15.830 -1.7377 -1.3010  0.1332
  201MPD1     C 3053   1.936   4.077  13.452 -0.6009 -0.2296 -1.0836
  201MPD1    C1 3054   1.913   3.944  13.471  0.6000  0.5157 -0.1097
  201MPD1    C2 3055   2.002   3.857  13.407 -0.3921 -0.1141  1.0159
  201MPD1    C3 3056   2.101   3.894  13.323 -1.1346 -0.3705 -0.3230
  201MPD1    C4 3057   2.110   4.030  13.299 -0.4238 -0.3419  0.2702
  201MPD1    C5 3058   2.029   4.119  13.363 -0.0603 -0.0786  0.1321
  201MPD1     H 3059   1.990   3.751  13.429 -2.4582 -0.1988 -0.5294
  201MPD1    H1 3060   2.184   4.073  13.233 -2.7039  1.5418 -1.0326
  201MPD1    H2 3061   1.874   4.151  13.502  1.5081  0.6396  0.2615
  201MPD1    H3 3062   2.052   4.222  13.338 -0.8832  0.1136  0.1693
  201MPD1     N 3063   2.193   3.797  13.281  0.8278  0.1559 -0.4580
  201MPD1    H5 3064   2.179   3.701  13.308 -0.9281  0.1958 -1.2530
  201MPD1    N1 3065   1.829   3.906  13.582  0.3680  0.0311  0.5084
  201MPD1    H6 3066   1.764   3.980  13.609 -0.3128 -0.7106  0.9064
  201MPD1    H7 3067   1.783   3.820  13.553 -0.0489  0.3761  0.1546
  202MPD1     C 3068   1.421   3.005   9.507  1.0075  0.3383 -0.5904
  202MPD1    C1 3069   1.499   2.894   9.525  0.1309  1.0324 -0.5320
  202MPD1    C2 3070   1.632   2.924   9.500  0.3953 -0.5475  0.0034
  202MPD1    C3 3071   1.684   3.060   9.509 -0.9325  0.4145 -0.6198
  202MPD1    C4 3072   1.594   3.163   9.521 -0.1757  0.4211 -0.0908
  202MPD1    C5 3073   1.460   3.134   9.522  0.9125 -0.0426 -1.2263
  202MPD1     H 3074   1.704   2.844   9.486 -0.6834 -1.5174  0.0306
  202MPD1    H1 3075   1.628   3.266   9.523 -0.4164  0.5022 -0.1231
  202MPD1    H2 3076   1.313   3.000   9.497  1.2786 -0.1968 -3.0402
  202MPD1    H3 3077   1.387   3.215   9.525  1.8854  0.8223 -0.8408
  202MPD1     N 3078   1.819   3.087   9.498  0.3345 -0.1231  0.5600
  202MPD1    H5 3079   1.839   3.185   9.512 -0.4760  0.3084 -1.2058
  202MPD1    N1 3080   1.454   2.767   9.491 -0.1681 -0.1386 -0.1688
  202MPD1    H6 3081   1.508   2.693   9.536  0.3377 -0.2493 -0.9592
  202MPD1    H7 3082   1.355   2.762   9.511 -0.4749  2.2507 -1.0415
  203MPD1     C 3083   1.534   0.395  12.635  0.2048  0.0235 -0.8033
  203MPD1    C1 3084   1.444   0.334  12.554  0.0878 -0.4991  0.4597
  203MPD1    C2 3085   1.440   0.197  12.543  0.2577  0.2604 -0.1588
  203MPD1    C3 3086   1.517   0.118  12.630  0.0080 -0.0596  0.0582
  203MPD1    C4 3087   1.599   0.184  12.725 -0.2153  0.0272 -0.2052
  203MPD1    C5 3088   1.602   0.320  12.726 -0.5691 -0.2952 -0.3210
  203MPD1     H 3089   1.372   0.150  12.473  0.0340  1.9462 -1.0854
  203MPD1    H1 3090   1.673   0.131  12.784 -0.8098 -0.4654  0.1048
  203MPD1    H2 3091   1.522   0.502  12.644 -1.3913 -0.3469  1.4224
  203MPD1    H3 3092   1.662   0.365  12.805 -0.6255 -0.9869  0.1200
  203MPD1     N 3093   1.502   4.698  12.628  0.2181 -0.3426 -0.5208
  203MPD1    H5 3094   1.451   4.662  12.548 -0.2088 -0.9581  0.0331
  203MPD1    N1 3095   1.367   0.412  12.465 -0.1582 -0.5865 -0.2663
  203MPD1    H6 3096   1.283   0.368  12.427 -0.8071  0.0169  0.4760
  203MPD1    H7 3097   1.355   0.509  12.495  0.0227 -0.1580 -1.5574
  204MPD1     C 3098   0.609   4.179   0.346 -0.1955 -0.1074  0.6956
  204MPD1    C1 3099   0.672   4.252   0.249 -0.2915 -0.1790 -0.1582
  204MPD1    C2 3100   0.599   4.361   0.197  0.5186  1.0202  0.7302
  204MPD1    C3 3101   0.482   4.402   0.252  0.5373  0.1509  0.3586
  204MPD1    C4 3102   0.431   4.337   0.359 -0.3246 -0.0848  0.3400
  204MPD1    C5 3103   0.495   4.224   0.404  0.5333 -0.1465  0.1531
  204MPD1     H 3104   0.633   4.409   0.106  3.4404 -2.6775 -0.1614
  204MPD1    H1 3105   0.331   4.357   0.398  0.3095  3.9674 -0.1034
  204MPD1    H2 3106   0.648   4.085   0.383 -0.4298 -0.0708  1.0402
  204MPD1    H3 3107   0.438   4.157   0.467 -1.1848  3.2033  2.1661
  204MPD1     N 3108   0.425   4.516   0.206  0.5376  0.4199 -0.6897
  204MPD1    H5 3109   0.474   4.564   0.131  0.3387  0.9482 -0.4872
  204MPD1    N1 3110   0.788   4.209   0.170  0.3225 -0.8880  0.0927
  204MPD1    H6 3111   0.860   4.158   0.221  2.0121 -0.4326 -1.8591
  204MPD1    H7 3112   0.826   4.287   0.118 -2.5087  2.7813  3.5198
  205MPD1     C 3113   0.566   3.383  17.003 -0.2290  0.0888  0.3256
  205MPD1    C1 3114   0.622   3.394  17.131 -0.4670  0.2114  0.1723
  205MPD1    C2 3115   0.552   3.473  17.220 -0.3549 -0.3675  0.2566
  205MPD1    C3 3116   0.426   3.525  17.190  0.2846  0.6627 -0.7588
  205MPD1    C4 3117   0.376   3.503  17.063  0.8299  0.6789 -0.0880
  205MPD1    C5 3118   0.437   3.430  16.962  0.6562  0.4830  0.5427
  205MPD1     H 3119   0.596   3.488  17.318 -1.5549 -1.1948  0.9332
  205MPD1    H1 3120   0.279   3.540  17.031  1.3290  2.2400  0.1751
  205MPD1    H2 3121   0.611   3.322  16.925  0.1108 -0.0974  0.6725
  205MPD1    H3 3122   0.398   3.415  16.862  0.3987  0.6407  0.6179
  205MPD1     N 3123   0.333   3.589  17.284 -0.2437 -0.0784 -0.3832
  205MPD1    H5 3124   0.243   3.616  17.245 -1.3649 -2.9360  0.1952
  205MPD1    N1 3125   0.742   3.327  17.152  0.4379 -0.3386  0.7511
  205MPD1    H6 3126   0.758   3.326  17.252  0.9542 -0.5161  0.6633
  205MPD1    H7 3127   0.740   3.234  17.111  0.9680 -0.8169  1.8375
  206MPD1     C 3128   1.541   2.138  15.526  0.3807  0.3833 -0.4360
  206MPD1    C1 3129   1.450   2.215  15.465  0.8254 -0.6550  0.2225
  206MPD1    C2 3130   1.324   2.237  15.524  0.2871  0.4184 -0.3476
  206MPD1    C3 3131   1.286   2.160  15.635 -0.4113  0.5911 -0.1628
  206MPD1    C4 3132   1.368   2.068  15.682 -0.0257  0.0834  0.5378
  206MPD1    C5 3133   1.497   2.065  15.627 -0.6056 -0.3672  0.1865
  206MPD1     H 3134   1.257   2.313  15.485 -0.5361  0.8197  1.7903
  206MPD1    H1 3135   1.347   2.009  15.770 -2.2060  0.2398  0.1190
  206MPD1    H2 3136   1.644   2.126  15.497  1.2310  1.9195  1.9543
  206MPD1    H3 3137   1.567   1.989  15.658  1.2316  1.5218  0.6833
  206MPD1     N 3138   1.157   2.146  15.675 -0.0541  0.6750  0.4878
  206MPD1    H5 3139   1.138   2.083  15.753 -2.2833 -2.6655 -2.7248
  206MPD1    N1 3140   1.496   2.293  15.358 -0.1253 -0.5876  0.1400
  206MPD1    H6 3141   1.563   2.245  15.299 -1.5016 -2.3508  0.0319
  206MPD1    H7 3142   1.429   2.345  15.301  1.0673 -0.4719 -1.1512
  207MPD1     C 3143   3.805   3.808  10.009  0.0122 -0.0967 -0.6631
  207MPD1    C1 3144   3.710   3.891  10.066  0.4568 -0.5921  0.0034
  207MPD1    C2 3145   3.754   4.001  10.132 -0.6204 -0.4575  0.6496
  207MPD1    C3 3146   3.887   4.010  10.170 -0.1270  0.2670 -0.4290
  207MPD1    C4 3147   3.984   3.922  10.125  0.2210 -0.2275  0.1459
  207MPD1    C5 3148   3.941   3.827  10.034  0.2543 -0.2615 -0.7032
  207MPD1     H 3149   3.683   4.075  10.168 -2.2929 -1.3657 -0.8141
  207MPD1    H1 3150   4.085   3.926  10.165  0.2625 -0.5172  0.0731
  207MPD1    H2 3151   3.774   3.743   9.927 -1.7086  0.0046 -0.0923
  207MPD1    H3 3152   4.022   3.765   9.996 -0.0597 -1.0330 -0.1287
  207MPD1     N 3153   3.932   4.104  10.266 -0.0543  0.1115 -0.3698
  207MPD1    H5 3154   4.026   4.088  10.301 -0.8469 -1.1163  1.1836
  207MPD1    N1 3155   3.575   3.886  10.022 -0.2263 -0.1283  0.8756
  207MPD1    H6 3156   3.536   3.792  10.020 -2.3782  0.7502  1.7008
  207MPD1    H7 3157   3.514   3.935  10.087 -2.0352 -2.0125  0.5932
  208MPD1     C 3158   1.325   3.559   0.101 -0.2708 -0.0450 -0.4459
  208MPD1    C1 3159   1.343   3.597   0.235  0.5789  0.2586 -0.7472
  208MPD1    C2 3160   1.262   3.557   0.334  0.0026  0.0998 -0.6009
  208MPD1    C3 3161   1.161   3.468   0.306  0.0884  0.1758 -0.1357
  208MPD1    C4 3162   1.151   3.418   0.179  0.1229 -0.2212 -0.2489
  208MPD1    C5 3163   1.219   3.474   0.075 -0.0185 -0.1448 -0.2636
  208MPD1     H 3164   1.280   3.581   0.439 -1.2507  0.5630 -0.4955
  208MPD1    H1 3165   1.069   3.349   0.165  0.9327 -1.0404 -1.0006
  208MPD1    H2 3166   1.388   3.585   0.016 -0.0874  2.3057  0.4097
  208MPD1    H3 3167   1.213   3.440  17.662 -0.3888 -0.5356 -0.1114
  208MPD1     N 3168   1.091   3.423   0.422 -0.1972  0.2042 -0.5465
  208MPD1    H5 3169   1.109   3.480   0.504 -1.7584 -0.1141  0.0241
  208MPD1    N1 3170   1.435   3.689   0.268 -0.4079  0.0455 -0.6591
  208MPD1    H6 3171   1.513   3.691   0.203 -0.5376 -0.8526 -0.8506
  208MPD1    H7 3172   1.485   3.664   0.353 -1.9831  1.6678  0.7227
  209MPD1     C 3173   4.154   3.159  11.364  0.4449  0.0565  0.5551
  209MPD1    C1 3174   4.146   3.235  11.243 -0.0301 -0.7445 -0.2444
  209MPD1    C2 3175   4.132   3.372  11.255  0.0000 -0.2660  0.2120
  209MPD1    C3 3176   4.147   3.430  11.382  0.4681  0.0348 -0.2874
  209MPD1    C4 3177   4.154   3.353  11.492 -0.0958 -0.2810 -0.4950
  209MPD1    C5 3178   4.168   3.218  11.482 -0.4321  0.0985  0.9839
  209MPD1     H 3179   4.120   3.436  11.169 -0.1273 -1.1736 -0.4499
  209MPD1    H1 3180   4.150   3.395  11.592 -1.0438  1.1283 -1.1226
  209MPD1    H2 3181   4.169   3.052  11.358 -0.7100 -0.1313  0.9237
  209MPD1    H3 3182   4.192   3.158  11.569  1.4827  0.0566  0.4372
  209MPD1     N 3183   4.137   3.569  11.387 -0.0343 -0.3381 -0.5485
  209MPD1    H5 3184   4.133   3.622  11.300  1.1346  1.2470  0.3646
  209MPD1    N1 3185   4.097   3.163  11.125  0.0267 -0.1106  0.8218
  209MPD1    H6 3186   4.148   3.076  11.113 -0.5241 -0.0793 -1.6413
  209MPD1    H7 3187   4.108   3.221  11.042 -1.0346 -0.1668  0.6424
  210MPD1     C 3188   4.019   4.596  11.784  0.1627 -0.4021 -0.4767
  210MPD1    C1 3189   3.939   4.487  11.811  0.6685 -0.5145  0.4005
  210MPD1    C2 3190   3.972   4.363  11.751  0.5599  0.3429 -0.7952
  210MPD1    C3 3191   4.085   4.354  11.674  0.0766  0.2354  0.5664
  210MPD1    C4 3192   4.147   4.465  11.635 -0.9472 -0.0171 -0.4736
  210MPD1    C5 3193   4.121   4.591  11.697  0.5171 -0.1946  0.1251
  210MPD1     H 3194   3.903   4.280  11.757  0.5965  0.3788  0.1849
  210MPD1    H1 3195   4.229   4.462  11.564 -0.8824 -1.5851 -0.3302
  210MPD1    H2 3196   4.002   4.692  11.832  0.0363  0.0828 -1.4776
  210MPD1    H3 3197   4.173   4.678  11.658  0.8802 -0.0278  0.9871
  210MPD1     N 3198   4.123   4.230  11.607 -0.0949 -0.2872 -0.6148
  210MPD1    H5 3199   4.189   4.245  11.532 -0.9900  1.2038 -1.0945
  210MPD1    N1 3200   3.827   4.495  11.899  0.1810 -0.3948  0.6403
  210MPD1    H6 3201   3.739   4.447  11.876  0.2176 -0.5206  0.7627
  210MPD1    H7 3202   3.800   4.590  11.922 -2.7966 -0.9925 -0.3603
  211MPD1     C 3203   1.473   3.750  16.005 -0.4076 -0.1444 -0.1254
  211MPD1    C1 3204   1.465   3.880  15.968 -0.2354  0.1620  0.3972
  211MPD1    C2 3205   1.352   3.946  16.008  0.5525  1.0529 -0.3857
  211MPD1    C3 3206   1.242   3.876  16.066  0.1907 -0.2476 -0.0002
  211MPD1    C4 3207   1.253   3.740  16.088  0.1383  0.0473 -0.0710
  211MPD1    C5 3208   1.371   3.677  16.058  0.6926  0.1414 -0.2793
  211MPD1     H 3209   1.339   4.054  16.004 -0.4580  0.9459  0.0305
  211MPD1    H1 3210   1.175   3.678  16.133  1.0691  0.3455  1.9793
  211MPD1    H2 3211   1.561   3.695  15.973 -1.0451 -2.2307  1.7125
  211MPD1    H3 3212   1.386   3.570  16.067 -1.2097 -0.2970 -2.2412
  211MPD1     N 3213   1.142   3.959  16.120  0.2818 -0.1260  0.0384
  211MPD1    H5 3214   1.150   4.055  16.089  3.3614 -0.2408  0.3991
  211MPD1    N1 3215   1.575   3.945  15.901  0.3576 -0.2832  0.3933
  211MPD1    H6 3216   1.628   3.907  15.823  0.1039  0.2590 -0.0448
  211MPD1    H7 3217   1.550   4.037  15.864 -0.7798 -0.7466 -0.0080
  212MPD1     C 3218   0.046   2.639  16.610 -0.2853 -0.2028  0.3062
  212MPD1    C1 3219   0.040   2.679  16.744  0.4268 -0.1952 -0.4904
  212MPD1    C2 3220   0.071   2.585  16.842  0.6706 -0.5688  0.0702
  212MPD1    C3 3221   0.138   2.463  16.808  0.1947 -0.0936 -0.5333
  212MPD1    C4 3222   0.169   2.443  16.675  0.1231 -0.0475 -0.1140
  212MPD1    C5 3223   0.112   2.522  16.575 -0.0106  0.0145 -0.2408
  212MPD1     H 3224   0.043   2.611  16.943  0.3025  0.9593 -0.4363
  212MPD1    H1 3225   0.223   2.350  16.659  0.2971  0.0876 -0.3229
  212MPD1    H2 3226   0.006   2.701  16.530 -1.7103 -1.2749  0.1934
  212MPD1    H3 3227   0.140   2.501  16.472  0.1896  1.0021 -0.3930
  212MPD1     N 3228   0.157   2.359  16.900 -0.1934 -0.6289  0.6345
  212MPD1    H5 3229   0.208   2.276  16.872  1.5443  0.4536  0.6105
  212MPD1    N1 3230   4.701   2.801  16.779 -0.4791 -0.1792 -0.2924
  212MPD1    H6 3231   4.720   2.827  16.876  1.4944 -3.8057  0.3132
  212MPD1    H7 3232   0.007   2.879  16.720 -2.5260  0.8501  0.1322
  213MPD1     C 3233   3.076   2.647  16.237  0.2250 -0.3565 -0.4992
  213MPD1    C1 3234   2.970   2.702  16.316 -0.1085 -0.0068  0.0575
  213MPD1    C2 3235   2.939   2.836  16.283  0.0073  0.3497 -0.4889
  213MPD1    C3 3236   3.026   2.925  16.221 -0.1095 -0.1062  0.3440
  213MPD1    C4 3237   3.149   2.875  16.185 -0.0513  0.2392 -0.2045
  213MPD1    C5 3238   3.169   2.740  16.188 -0.4489 -0.8303 -0.0701
  213MPD1     H 3239   2.844   2.871  16.323 -0.0729  1.4324 -1.6123
  213MPD1    H1 3240   3.232   2.926  16.137 -0.2333  0.7561  0.0341
  213MPD1    H2 3241   3.102   2.542  16.246 -1.4989 -0.8290 -0.9851
  213MPD1    H3 3242   3.259   2.696  16.146  0.3825 -0.2924  1.1370
  213MPD1     N 3243   2.982   3.054  16.181 -0.3000  0.0663 -0.0795
  213MPD1    H5 3244   2.883   3.075  16.184 -0.6346 -1.3418 -1.0867
  213MPD1    N1 3245   2.866   2.614  16.354 -0.0277  0.3473 -0.4694
  213MPD1    H6 3246   2.811   2.651  16.431 -2.2333 -2.2014 -0.8184
  213MPD1    H7 3247   2.914   2.534  16.395 -1.3763  1.0280  2.4259
  214MPD1     C 3248   2.640   3.000  15.343 -0.0196 -0.0768 -0.4628
  214MPD1    C1 3249   2.563   3.049  15.445  0.5792 -0.4130 -0.0107
  214MPD1    C2 3250   2.623   3.115  15.544  0.0976 -0.2162  0.2128
  214MPD1    C3 3251   2.756   3.162  15.536  0.1629 -0.1983  0.4120
  214MPD1    C4 3252   2.826   3.134  15.424 -0.2366  0.2393  0.1781
  214MPD1    C5 3253   2.770   3.050  15.333 -0.9183 -0.6080 -0.6470
  214MPD1     H 3254   2.556   3.128  15.629  1.3485 -3.3779  1.7119
  214MPD1    H1 3255   2.927   3.173  15.414 -0.5273  0.6565 -1.0998
  214MPD1    H2 3256   2.607   2.929  15.268  1.2481 -1.2736  0.1123
  214MPD1    H3 3257   2.832   3.031  15.245  0.4699  2.7332 -0.3887
  214MPD1     N 3258   2.823   3.222  15.647 -0.2221  0.6369  0.1747
  214MPD1    H5 3259   2.920   3.249  15.634  0.0444  0.1962  1.2187
  214MPD1    N1 3260   2.441   2.985  15.463 -0.1523 -0.5369 -0.4901
  214MPD1    H6 3261   2.370   3.037  15.515  0.7290 -0.7309  0.9192
  214MPD1    H7 3262   2.407   2.939  15.378 -1.2682 -1.3670  0.4010
  215MPD1     C 3263   4.238   3.299  10.741  0.0022 -0.1527  0.6195
  215MPD1    C1 3264   4.152   3.360  10.648  0.3143  0.1522  0.0705
  215MPD1    C2 3265   4.101   3.484  10.683  0.8965 -0.1218 -0.4308
  215MPD1    C3 3266   4.119   3.541  10.811  0.3244  0.0352 -0.8607
  215MPD1    C4 3267   4.213   3.486  10.895  0.1580  0.1095 -0.3409
  215MPD1    C5 3268   4.266   3.362  10.857  0.0758  0.2076 -0.3277
  215MPD1     H 3269   4.027   3.532  10.619  0.1371 -1.7169 -0.7507
  215MPD1    H1 3270   4.243   3.538  10.985  0.2472  0.2811 -0.4688
  215MPD1    H2 3271   4.294   3.209  10.718 -1.3472 -0.6400 -0.7890
  215MPD1    H3 3272   4.337   3.309  10.920  0.3153 -0.4917 -1.1969
  215MPD1     N 3273   4.048   3.658  10.850  0.2314 -0.3125 -0.3569
  215MPD1    H5 3274   3.983   3.701  10.784  0.8235  0.1070 -0.6644
  215MPD1    N1 3275   4.102   3.288  10.536  0.4508 -0.3854  0.2397
  215MPD1    H6 3276   4.153   3.206  10.503 -1.4568 -1.5826  0.2932
  215MPD1    H7 3277   4.081   3.339  10.450 -1.5007  1.6057  1.9066
  216MPD1     C 3278   0.192   1.252  16.867 -0.4015  0.5622 -0.3195
  216MPD1    C1 3279   0.124   1.218  16.981 -0.0598 -0.0918  0.0727
  216MPD1    C2 3280   0.194   1.131  17.065 -0.4455 -0.3639 -0.3807
  216MPD1    C3 3281   0.332   1.110  17.046 -0.3229 -0.4073 -1.0261
  216MPD1    C4 3282   0.388   1.137  16.926  0.4100  0.7812 -0.5732
  216MPD1    C5 3283   0.320   1.216  16.838 -0.0342  0.4505 -0.2013
  216MPD1     H 3284   0.150   1.112  17.162 -2.1777  0.4267 -1.0030
  216MPD1    H1 3285   0.490   1.114  16.895  0.8490  0.4225  1.1451
  216MPD1    H2 3286   0.139   1.309  16.792  0.3430  0.6912 -0.7552
  216MPD1    H3 3287   0.359   1.247  16.742 -1.4249  1.8292 -0.3279
  216MPD1     N 3288   0.402   1.055  17.154  0.0557 -0.9055 -0.7468
  216MPD1    H5 3289   0.350   1.030  17.237  0.8075 -2.6647 -0.7876
  216MPD1    N1 3290   4.710   1.235  17.003 -0.3867 -0.2490  0.0418
  216MPD1    H6 3291   4.684   1.233  17.101 -1.1386 -0.1096 -0.1510
  216MPD1    H7 3292   4.682   1.332  16.986 -2.7756 -0.9158  0.1899
  217MPD1     C 3293   1.526   2.492   9.922 -0.3181  0.3308 -0.4428
  217MPD1    C1 3294   1.632   2.551   9.863 -0.4434 -1.4979  0.1176
  217MPD1    C2 3295   1.624   2.687   9.850  0.8638 -0.1239 -0.0197
  217MPD1    C3 3296   1.513   2.767   9.884 -0.7648 -0.3885 -0.1327
  217MPD1    C4 3297   1.401   2.696   9.929 -0.3632 -0.6976 -0.0841
  217MPD1    C5 3298   1.412   2.564   9.951 -0.8323 -0.2080 -0.2009
  217MPD1     H 3299   1.713   2.737   9.814  0.7883  0.3791  0.4967
  217MPD1    H1 3300   1.308   2.746   9.952 -0.7400 -0.9326 -1.1161
  217MPD1    H2 3301   1.524   2.391   9.961  0.8343 -0.1933 -1.7311
  217MPD1    H3 3302   1.331   2.515  10.004 -0.0363 -0.4620  0.7913
  217MPD1     N 3303   1.525   2.907   9.876 -0.3081 -0.2215 -0.3677
  217MPD1    H5 3304   1.616   2.946   9.853 -0.6739  0.5588 -0.4966
  217MPD1    N1 3305   1.748   2.479   9.835  0.2227 -0.3973  0.4966
  217MPD1    H6 3306   1.794   2.516   9.752 -2.7064  1.8232 -0.1456
  217MPD1    H7 3307   1.730   2.380   9.822 -1.7723 -0.0420  0.5721
  218MPD1     C 3308   1.631   3.374  13.183 -0.4620 -0.2186 -0.1628
  218MPD1    C1 3309   1.644   3.501  13.237  0.1129 -1.3912 -0.6198
  218MPD1    C2 3310   1.733   3.589  13.174 -0.2292 -0.0612 -0.1002
  218MPD1    C3 3311   1.803   3.551  13.061  1.0531  0.2569 -0.5208
  218MPD1    C4 3312   1.770   3.432  13.003 -0.0942 -0.5678  0.1932
  218MPD1    C5 3313   1.698   3.335  13.072 -0.0813  0.0372  0.3156
  218MPD1     H 3314   1.745   3.690  13.213  3.7522 -0.3354 -0.5841
  218MPD1    H1 3315   1.814   3.407  12.907 -0.4467  0.5794 -0.2678
  218MPD1    H2 3316   1.582   3.292  13.234 -0.1651 -1.9316 -2.6193
  218MPD1    H3 3317   1.683   3.239  13.023  1.0813 -0.0201  0.0883
  218MPD1     N 3318   1.896   3.628  12.991  0.8765  0.4363  0.4994
  218MPD1    H5 3319   1.929   3.601  12.899  2.4120 -1.7103  1.6783
  218MPD1    N1 3320   1.580   3.541  13.357 -0.5187 -0.6018 -0.1334
  218MPD1    H6 3321   1.545   3.464  13.415  0.7862  1.8083  3.8472
  218MPD1    H7 3322   1.626   3.607  13.419  0.1429 -0.7606 -0.4635
  219MPD1     C 3323   2.303   4.618  12.761 -0.4364 -0.2293  0.0091
  219MPD1    C1 3324   2.285   4.566  12.891 -0.5212 -0.9012  0.7185
  219MPD1    C2 3325   2.270   4.427  12.892  0.2777 -0.0414 -0.2056
  219MPD1    C3 3326   2.240   4.349  12.782  0.4128 -0.1543  0.9493
  219MPD1    C4 3327   2.259   4.407  12.655 -0.2524 -0.1860 -0.1875
  219MPD1    C5 3328   2.292   4.538  12.648  0.0748 -0.1550  0.0056
  219MPD1     H 3329   2.269   4.377  12.988 -0.9285  0.3810  0.0003
  219MPD1    H1 3330   2.259   4.343  12.568 -0.2451  0.3892 -0.6095
  219MPD1    H2 3331   2.326   4.721  12.734  0.3510 -0.1586  0.9139
  219MPD1    H3 3332   2.301   4.583  12.550  2.2435  0.5065  0.5199
  219MPD1     N 3333   2.220   4.212  12.791  0.7694 -0.0396  0.1999
  219MPD1    H5 3334   2.227   4.162  12.703 -0.9697 -0.5059  0.3301
  219MPD1    N1 3335   2.310   4.631  13.015 -0.8803 -0.7238 -0.0391
  219MPD1    H6 3336   2.295   0.010  13.015  2.2897 -0.2739  0.2881
  219MPD1    H7 3337   2.249   4.592  13.088 -1.1680 -1.1434 -0.5042
  220MPD1     C 3338   3.553   0.141   9.652 -0.2581 -0.3243 -0.1274
  220MPD1    C1 3339   3.650   0.099   9.732  0.1819 -0.3271  0.6274
  220MPD1    C2 3340   3.608   0.043   9.849 -0.5110  0.5701 -0.1975
  220MPD1    C3 3341   3.478   0.013   9.881 -0.2916  0.1452 -0.0283
  220MPD1    C4 3342   3.383   0.066   9.799 -0.2719 -0.4033 -0.6243
  220MPD1    C5 3343   3.420   0.133   9.685 -0.5397 -0.4553 -0.0109
  220MPD1     H 3344   3.679   0.026   9.929 -0.7328  0.6857  0.0212
  220MPD1    H1 3345   3.278   0.071   9.827  0.0501 -0.7599  0.6346
  220MPD1    H2 3346   3.593   0.180   9.559  0.8259 -1.8995 -0.3208
  220MPD1    H3 3347   3.340   0.175   9.624  0.3801  0.8266 -0.3311
  220MPD1     N 3348   3.449   4.682  10.008 -0.3729 -0.4048  0.6981
  220MPD1    H5 3349   3.526   4.660  10.072  0.2846  0.5408  0.2321
  220MPD1    N1 3350   3.784   0.146   9.717 -0.1368  0.1754  0.0922
  220MPD1    H6 3351   3.819   0.152   9.621 -0.9466 -0.7073 -0.2668
  220MPD1    H7 3352   3.841   0.074   9.761 -0.3622 -1.2944 -2.0035
  221MPD1     C 3353   4.541   4.235  17.004  0.9370 -0.0833  0.9029
  221MPD1    C1 3354   4.561   4.107  16.953  1.0931 -0.2159 -0.4850
  221MPD1    C2 3355   4.689   4.058  16.931  0.0492  0.5925 -0.3498
  221MPD1    C3 3356   0.074   4.145  16.928  0.4848 -0.6038 -0.2583
  221MPD1    C4 3357   0.053   4.278  16.961 -0.9340 -0.1210 -0.1048
  221MPD1    C5 3358   4.649   4.317  17.003 -0.0594  0.1825 -0.3171
  221MPD1     H 3359   4.708   3.952  16.914 -0.4439  0.0950  2.1562
  221MPD1    H1 3360   0.140   4.343  16.969 -0.5127 -1.0226  2.5541
  221MPD1    H2 3361   4.444   4.281  17.017  1.5688  1.0834  1.4242
  221MPD1    H3 3362   4.642   4.420  17.037 -0.7442  0.3979 -1.0925
  221MPD1     N 3363   0.204   4.103  16.896 -0.7231 -0.6184  0.1838
  221MPD1    H5 3364   0.267   4.182  16.883 -1.4621  0.1704  1.3732
  221MPD1    N1 3365   4.454   4.014  16.948 -0.1362 -0.1637  0.4210
  221MPD1    H6 3366   4.459   3.951  16.868  0.5166  1.4449 -0.8078
  221MPD1    H7 3367   4.361   4.054  16.941  0.3015  0.7343 -0.2760
  222MPD1     C 3368   1.156   2.607  17.272 -0.4707  0.3148 -0.5316
  222MPD1    C1 3369   1.183   2.582  17.404 -0.2770  0.0501  0.6904
  222MPD1    C2 3370   1.085   2.544  17.493  0.4695  0.5563  0.6587
  222MPD1    C3 3371   0.953   2.528  17.451 -0.1361 -0.4262  0.3230
  222MPD1    C4 3372   0.929   2.566  17.320  0.3346 -0.4548 -0.0674
  222MPD1    C5 3373   1.023   2.612  17.230  0.1050  0.8204 -0.3519
  222MPD1     H 3374   1.109   2.531  17.598 -0.7729 -0.1557  0.8655
  222MPD1    H1 3375   0.832   2.555  17.275  0.7305 -0.4834 -0.9058
  222MPD1    H2 3376   1.231   2.634  17.198 -0.2576  0.2346 -0.3446
  222MPD1    H3 3377   0.998   2.635  17.127 -0.7018  0.0162 -0.3348
  222MPD1     N 3378   0.846   2.481  17.530  0.1377 -0.3890 -0.8989
  222MPD1    H5 3379   0.755   2.490  17.488  0.2142 -0.3523 -1.0550
  222MPD1    N1 3380   1.322   2.572  17.438  0.2043  0.1055  0.7609
  222MPD1    H6 3381   1.336   2.570  17.539 -0.4721  0.1185  0.8552
  222MPD1    H7 3382   1.387   2.640  17.399 -1.5253  1.5694  0.4141
  223MPD1     C 3383   0.482   1.709  17.440 -0.3123  0.6658 -0.4692
  223MPD1    C1 3384   0.606   1.727  17.504  0.1094 -0.7780  0.0059
  223MPD1    C2 3385   0.603   1.844  17.575 -0.8641  0.5821  0.5351
  223MPD1    C3 3386   0.522   1.951  17.539  0.0370 -0.8085 -0.2128
  223MPD1    C4 3387   0.416   1.930  17.452 -0.2470  0.6285 -0.3389
  223MPD1    C5 3388   0.390   1.804  17.420 -1.0076 -0.3994  0.5776
  223MPD1     H 3389   0.678   1.857  17.652 -0.1507  0.1900 -0.0990
  223MPD1    H1 3390   0.358   2.017  17.421 -0.6880  0.5379  0.2240
  223MPD1    H2 3391   0.460   1.612  17.397  0.8717  0.1867 -0.0102
  223MPD1    H3 3392   0.301   1.770  17.369  0.5865 -2.7982 -0.6062
  223MPD1     N 3393   0.549   2.074  17.611 -0.4424  0.6752  0.2800
  223MPD1    H5 3394   0.636   2.065  17.662 -1.2055  0.6090  1.5608
  223MPD1    N1 3395   0.684   1.613  17.542  0.4723  0.1517 -0.1385
  223MPD1    H6 3396   0.692   1.540  17.471  2.1087 -0.0720  0.2965
  223MPD1    H7 3397   0.768   1.624  17.597  0.1635 -0.9872  0.5632
  224MPD1     C 3398   1.014   2.962   9.459  0.4552 -0.7348 -0.1420
  224MPD1    C1 3399   0.976   3.013   9.581 -0.3646 -0.0362  0.7697
  224MPD1    C2 3400   1.017   3.137   9.616 -0.9274 -0.4992 -0.2221
  224MPD1    C3 3401   1.068   3.225   9.524  0.2857 -0.3997  0.0808
  224MPD1    C4 3402   1.109   3.171   9.399 -0.2223  0.0212 -0.4037
  224MPD1    C5 3403   1.082   3.039   9.372 -0.7016  0.8563 -0.0616
  224MPD1     H 3404   0.999   3.168   9.719 -0.9457 -0.6750 -0.1718
  224MPD1    H1 3405   1.159   3.223   9.318 -2.7120  1.2468 -1.1829
  224MPD1    H2 3406   0.996   2.860   9.428 -1.1568 -0.7210  0.7360
  224MPD1    H3 3407   1.108   2.995   9.277 -1.1888  0.1329  0.1473
  224MPD1     N 3408   1.094   3.365   9.546  0.2318  1.0212  0.2219
  224MPD1    H5 3409   1.145   3.417   9.475 -1.0029 -0.6001 -1.8648
  224MPD1    N1 3410   0.923   2.930   9.675 -0.1950  0.1894  0.2197
  224MPD1    H6 3411   0.853   2.862   9.644 -0.9005  2.5042 -3.2706
  224MPD1    H7 3412   0.866   2.991   9.733  0.5891  1.1349  0.0052
  225MPD1     C 3413   3.511   0.624  12.225  0.4074 -0.2811 -0.3816
  225MPD1    C1 3414   3.467   0.497  12.195  0.2568 -0.3447 -0.0253
  225MPD1    C2 3415   3.334   0.484  12.177 -0.1120 -0.0207  0.2055
  225MPD1    C3 3416   3.244   0.586  12.192  0.2863 -0.3403  0.4345
  225MPD1    C4 3417   3.292   0.705  12.236 -0.3887  0.0273 -0.7374
  225MPD1    C5 3418   3.422   0.716  12.258  0.6351 -0.1035 -0.2488
  225MPD1     H 3419   3.305   0.381  12.156  1.1494 -0.7763  2.1247
  225MPD1    H1 3420   3.229   0.792  12.250  1.1859  1.1738 -0.8684
  225MPD1    H2 3421   3.614   0.655  12.238  0.6916 -1.8233  0.9860
  225MPD1    H3 3422   3.454   0.815  12.289 -0.4540  0.1627  0.0077
  225MPD1     N 3423   3.100   0.579  12.173 -0.0542  0.0835  0.1093
  225MPD1    H5 3424   3.044   0.656  12.208 -0.7111 -0.0794 -0.5731
  225MPD1    N1 3425   3.553   0.386  12.201  0.0834  0.1921 -0.3270
  225MPD1    H6 3426   3.647   0.406  12.167  0.4471 -0.3891  0.3252
  225MPD1    H7 3427   3.518   0.310  12.142 -1.7601  0.3909  0.5161
  226MPD1     C 3428   0.614   3.186  10.278 -0.5500 -0.5709 -0.8434
  226MPD1    C1 3429   0.541   3.292  10.225  0.3480  0.3376  0.4787
  226MPD1    C2 3430   0.535   3.321  10.089 -0.0785  0.0155  0.0453
  226MPD1    C3 3431   0.614   3.241   9.999  0.1307 -0.6022  0.1410
  226MPD1    C4 3432   0.683   3.127  10.057  0.6963 -0.0657  0.0148
  226MPD1    C5 3433   0.689   3.115  10.195 -0.2110 -0.3578 -0.1063
  226MPD1     H 3434   0.488   3.410  10.048 -2.4945 -0.8314  0.9513
  226MPD1    H1 3435   0.757   3.077   9.996  0.2479  0.6688 -1.1364
  226MPD1    H2 3436   0.614   3.170  10.385  0.1772 -0.0967 -0.7679
  226MPD1    H3 3437   0.766   3.050  10.234 -0.3446 -0.5581 -0.1809
  226MPD1     N 3438   0.620   3.286   9.867 -0.0444  0.4879  0.1654
  226MPD1    H5 3439   0.565   3.370   9.850  0.2224  0.0821 -2.6954
  226MPD1    N1 3440   0.496   3.393  10.318  0.1476 -0.1124 -0.0507
  226MPD1    H6 3441   0.418   3.447  10.281 -1.2836 -0.1890  2.8406
  226MPD1    H7 3442   0.472   3.356  10.410  2.5807  0.6861  0.8977
  227MPD1     C 3443   0.824   2.905   8.845 -0.1466 -0.1032  0.1915
  227MPD1    C1 3444   0.903   3.019   8.860  0.1978 -0.3275 -0.0316
  227MPD1    C2 3445   0.889   3.101   8.974  0.0335  0.1442 -0.9668
  227MPD1    C3 3446   0.793   3.067   9.069  0.3238  0.0714 -0.4023
  227MPD1    C4 3447   0.705   2.961   9.044 -0.3077 -0.2460  0.3943
  227MPD1    C5 3448   0.722   2.884   8.928  0.6705  0.3700 -0.3263
  227MPD1     H 3449   0.954   3.184   8.996 -1.5725  0.3773  2.8552
  227MPD1    H1 3450   0.630   2.939   9.119 -1.4152  0.0702 -0.6023
  227MPD1    H2 3451   0.836   2.840   8.760 -2.1378 -0.3951  0.1418
  227MPD1    H3 3452   0.655   2.800   8.918  1.1231  0.0969 -1.0761
  227MPD1     N 3453   0.776   3.155   9.179  0.0278 -0.1474  0.3807
  227MPD1    H5 3454   0.825   3.244   9.177 -1.3945  0.5897 -1.6394
  227MPD1    N1 3455   1.017   3.041   8.777 -0.0248  0.4367 -0.1190
  227MPD1    H6 3456   1.017   2.996   8.686 -2.0146 -0.3572  0.2649
  227MPD1    H7 3457   1.041   3.139   8.772  1.6474 -0.0129 -0.6881
  228MPD1     C 3458   0.152   2.201  12.541 -0.2162  0.1309 -0.2755
  228MPD1    C1 3459   0.152   2.341  12.560  1.0587  1.1216 -0.1293
  228MPD1    C2 3460   0.028   2.397  12.572 -0.2073  0.4651 -0.0254
  228MPD1    C3 3461   4.635   2.325  12.582  0.4047  0.2131 -0.0020
  228MPD1    C4 3462   4.641   2.185  12.582  0.4761  0.0194  0.0854
  228MPD1    C5 3463   0.042   2.123  12.560 -0.5027  0.3214 -0.6259
  228MPD1     H 3464   0.019   2.504  12.560 -0.3880  0.5234  0.6366
  228MPD1    H1 3465   4.553   2.121  12.588  1.1630 -0.8087  1.2859
  228MPD1    H2 3466   0.245   2.153  12.513  0.0293  0.6657 -0.3631
  228MPD1    H3 3467   0.045   2.015  12.554 -1.6618  0.2513  0.1622
  228MPD1     N 3468   4.511   2.399  12.584  0.0843 -0.3016  0.0859
  228MPD1    H5 3469   4.518   2.500  12.579 -2.0989 -0.3499 -3.5623
  228MPD1    N1 3470   0.268   2.417  12.527 -0.7096 -0.0189  0.6194
  228MPD1    H6 3471   0.355   2.367  12.543 -0.7576  0.0366  1.0549
  228MPD1    H7 3472   0.275   2.514  12.557 -0.8555  0.0531  0.4168
  229MPD1     C 3473   0.790   1.130  14.541  0.3036 -0.5887 -0.3625
  229MPD1    C1 3474   0.767   1.258  14.594 -0.0187 -0.2485  0.2028
  229MPD1    C2 3475   0.652   1.275  14.667  0.8469  1.0162 -0.2167
  229MPD1    C3 3476   0.555   1.171  14.667  0.4118 -0.2841 -0.0457
  229MPD1    C4 3477   0.576   1.053  14.604 -0.0933 -0.1974  0.5469
  229MPD1    C5 3478   0.698   1.030  14.546 -0.0532 -0.3527  0.0764
  229MPD1     H 3479   0.635   1.368  14.720 -2.0481  0.4173 -0.0612
  229MPD1    H1 3480   0.509   0.968  14.603 -1.6857  1.0630 -0.3603
  229MPD1    H2 3481   0.875   1.105  14.479  0.6569  2.4345 -1.0897
  229MPD1    H3 3482   0.721   0.927  14.521 -0.5235 -0.5655  0.5238
  229MPD1     N 3483   0.428   1.180  14.732  0.1853 -0.3165 -0.1824
  229MPD1    H5 3484   0.378   1.093  14.746 -0.3876 -0.1914 -1.4942
  229MPD1    N1 3485   0.885   1.350  14.597 -0.3849  0.2818 -0.4302
  229MPD1    H6 3486   0.938   1.346  14.510  0.1391 -1.5702 -0.0118
  229MPD1    H7 3487   0.863   1.449  14.609  0.8898  0.3564  1.3465
  230MPD1     C 3488   4.261   1.551  15.263  0.3859  0.3578  0.4119
  230MPD1    C1 3489   4.335   1.461  15.339 -0.4766 -0.2047 -0.5658
  230MPD1    C2 3490   4.443   1.399  15.273 -0.0146  0.2699 -1.0107
  230MPD1    C3 3491   4.478   1.431  15.143  0.3143 -0.2410 -0.2865
  230MPD1    C4 3492   4.411   1.539  15.080  0.2940  0.1131 -0.2911
  230MPD1    C5 3493   4.307   1.598  15.141 -0.3132  0.3523  0.8673
  230MPD1     H 3494   4.490   1.317  15.326  1.5041  1.2798 -0.7983
  230MPD1    H1 3495   4.434   1.572  14.979  2.1175 -1.7714 -0.4961
  230MPD1    H2 3496   4.172   1.602  15.297 -0.7823 -1.5859  0.3017
  230MPD1    H3 3497   4.266   1.688  15.096  1.7392 -0.0749 -1.8145
  230MPD1     N 3498   4.592   1.366  15.094 -0.0050  0.0390 -0.1593
  230MPD1    H5 3499   4.635   1.302  15.161  0.1565  0.5669  0.2457
  230MPD1    N1 3500   4.285   1.419  15.464  0.3224  0.7673  0.7954
  230MPD1    H6 3501   4.240   1.503  15.499 -0.1516  0.3921  1.0994
  230MPD1    H7 3502   4.350   1.380  15.532  1.1102 -0.7706 -0.8382
  231MPD1     C 3503   2.043   3.116  15.726  0.0914 -0.3899 -0.1415
  231MPD1    C1 3504   2.036   3.128  15.591  0.1720 -0.9235 -0.4281
  231MPD1    C2 3505   2.143   3.184  15.525 -0.3782  0.5607 -0.3498
  231MPD1    C3 3506   2.240   3.256  15.591  0.1619  0.2079 -0.1225
  231MPD1    C4 3507   2.239   3.250  15.726 -0.6997 -0.1035 -0.1206
  231MPD1    C5 3508   2.147   3.173  15.789  0.3447  0.0420 -0.3508
  231MPD1     H 3509   2.143   3.188  15.417 -2.6824  2.1089 -0.2777
  231MPD1    H1 3510   2.317   3.300  15.783 -0.7985  1.5726 -1.4567
  231MPD1    H2 3511   1.980   3.053  15.788 -0.0010 -1.6545 -1.5129
  231MPD1    H3 3512   2.141   3.166  15.897 -1.9042 -0.9112 -0.5437
  231MPD1     N 3513   2.339   3.321  15.510 -0.3127 -0.2097 -0.1509
  231MPD1    H5 3514   2.331   3.325  15.408 -0.8187  0.2352 -0.0976
  231MPD1    N1 3515   1.935   3.054  15.529  0.3072  0.4160 -0.3983
  231MPD1    H6 3516   1.920   3.099  15.440 -0.5331 -0.2476 -0.6031
  231MPD1    H7 3517   1.848   3.055  15.583 -0.6325  1.3596 -1.9608
  232MPD1     C 3518   4.452   0.287  17.531 -0.3822 -0.2051 -0.1539
  232MPD1    C1 3519   4.453   0.247  17.662  0.7660 -1.0279  0.7393
  232MPD1    C2 3520   4.334   0.255   0.043  0.3160 -0.4669 -0.5824
  232MPD1    C3 3521   4.213   0.293  17.677 -0.3437  0.3693  0.2373
  232MPD1    C4 3522   4.213   0.331  17.547 -0.0677  0.1398  0.2567
  232MPD1    C5 3523   4.329   0.324  17.473  0.8399 -0.1827  0.0861
  232MPD1     H 3524   4.333   0.223   0.147  1.4774 -1.4643 -0.8634
  232MPD1    H1 3525   4.124   0.355  17.490 -0.2897  0.8857  0.9108
  232MPD1    H2 3526   4.540   0.281  17.468  0.7666  0.3786  1.3998
  232MPD1    H3 3527   4.329   0.373  17.377  0.7347  0.2303  0.2954
  232MPD1     N 3528   4.098   0.303   0.079  0.3483 -0.4425 -0.6407
  232MPD1    H5 3529   4.108   0.278   0.177  0.0109 -0.4836 -0.6190
  232MPD1    N1 3530   4.574   0.194   0.027 -0.4947 -0.1422 -0.3821
  232MPD1    H6 3531   4.582   0.097  17.685 -2.5729 -0.4622  0.1008
  232MPD1    H7 3532   4.581   0.190   0.128 -0.4774  2.1166 -0.3040
  233MPD1     C 3533   4.413   4.659   0.930  0.4655  0.3696 -0.3845
  233MPD1    C1 3534   4.539   4.677   0.870  0.8395 -0.2674  0.1794
  233MPD1    C2 3535   4.638   4.619   0.940 -0.0996 -0.0437 -0.1456
  233MPD1    C3 3536   4.626   4.531   1.042 -0.1402  0.1571 -0.0096
  233MPD1    C4 3537   4.497   4.496   1.085 -0.1702  0.4200  0.0551
  233MPD1    C5 3538   4.388   4.573   1.032  0.3172 -0.3925  0.5060
  233MPD1     H 3539   0.011   4.618   0.887  0.0986 -0.3917  0.2176
  233MPD1    H1 3540   4.481   4.420   1.161 -0.0584  0.1304 -0.2074
  233MPD1    H2 3541   4.328   4.710   0.887  0.3854  0.4899 -0.0811
  233MPD1    H3 3542   4.287   4.551   1.065  0.0188 -0.0159 -0.1739
  233MPD1     N 3543   0.016   4.472   1.105 -0.4723  0.0198 -0.2000
  233MPD1    H5 3544   4.716   4.394   1.165 -0.2397 -1.9484 -2.6522
  233MPD1    N1 3545   4.567   0.049   0.771 -0.2112 -0.3992  0.1485
  233MPD1    H6 3546   4.658   0.037   0.728 -0.1814  2.6722 -0.6109
  233MPD1    H7 3547   4.499   0.063   0.697 -1.3314 -2.7440  0.7495
  234MPD1     C 3548   2.650   4.088   8.802  0.1679  0.2656  0.3659
  234MPD1    C1 3549   2.550   4.173   8.852  0.8172 -0.5559 -0.6196
  234MPD1    C2 3550   2.458   4.118   8.937  0.0732 -1.0974  0.0187
  234MPD1    C3 3551   2.476   3.999   8.999  0.1049  0.3359 -0.5940
  234MPD1    C4 3552   2.581   3.919   8.967 -0.2406  0.6088 -0.0024
  234MPD1    C5 3553   2.662   3.967   8.863 -0.4947  0.1066  0.1768
  234MPD1     H 3554   2.365   4.172   8.953  0.6939 -0.4237  1.3526
  234MPD1    H1 3555   2.597   3.820   9.008  0.5115  0.3565 -0.9072
  234MPD1    H2 3556   2.716   4.114   8.720 -1.2867 -0.0666 -0.9147
  234MPD1    H3 3557   2.732   3.900   8.816 -0.7189  0.6726 -0.9622
  234MPD1     N 3558   2.381   3.965   9.096  0.2627 -0.1033  0.4455
  234MPD1    H5 3559   2.318   4.039   9.123  0.5862  1.3329 -2.7987
  234MPD1    N1 3560   2.532   4.308   8.792  0.7356 -0.1092 -0.1727
  234MPD1    H6 3561   2.465   4.367   8.840  0.9027  1.6042 -2.0531
  234MPD1    H7 3562   2.616   4.359   8.767  1.5009 -2.5308 -2.5230
  235MPD1     C 3563   2.608   1.232   9.762  0.6293  0.7046  0.0641
  235MPD1    C1 3564   2.581   1.122   9.841 -0.2858  0.7878  0.0766
  235MPD1    C2 3565   2.682   1.051   9.899  0.8184  0.4347  0.5920
  235MPD1    C3 3566   2.812   1.093   9.865 -0.3365  0.2887  0.6905
  235MPD1    C4 3567   2.837   1.195   9.770 -0.0416  0.7206  0.0122
  235MPD1    C5 3568   2.733   1.279   9.740 -0.0528 -0.0305 -0.6710
  235MPD1     H 3569   2.666   0.958   9.952  1.8121 -0.3001 -0.3949
  235MPD1    H1 3570   2.935   1.229   9.740  1.0128 -0.0214  2.6272
  235MPD1    H2 3571   2.526   1.287   9.716 -0.8113 -0.2767  1.5025
  235MPD1    H3 3572   2.764   1.359   9.674 -2.1191  0.4241 -1.0822
  235MPD1     N 3573   2.919   1.013   9.917 -0.4582 -0.2745  0.2133
  235MPD1    H5 3574   2.889   0.930   9.968  0.8151 -1.0130 -0.2369
  235MPD1    N1 3575   2.457   1.056   9.828  0.0012  0.7646  0.2990
  235MPD1    H6 3576   2.382   1.118   9.798  0.3111  0.3822 -1.2397
  235MPD1    H7 3577   2.414   1.020   9.914 -0.8359 -1.5106 -1.0851
  236MPD1     C 3578   2.188   1.601   9.863  0.0802 -0.7651  0.0826
  236MPD1    C1 3579   2.284   1.696   9.833  0.2067 -0.2393  0.5556
  236MPD1    C2 3580   2.417   1.662   9.872  0.2021  0.1957  0.7853
  236MPD1    C3 3581   2.456   1.542   9.929 -0.2228  0.7483 -0.4365
  236MPD1    C4 3582   2.356   1.450   9.952 -0.2113 -0.1737 -0.1324
  236MPD1    C5 3583   2.225   1.480   9.917 -0.5080  0.5338  0.4217
  236MPD1     H 3584   2.485   1.742   9.846 -0.2931 -0.1087 -1.3914
  236MPD1    H1 3585   2.373   1.361  10.010 -0.9228 -0.1806  0.0662
  236MPD1    H2 3586   2.081   1.614   9.853 -0.1912 -1.2542  2.3910
  236MPD1    H3 3587   2.144   1.412   9.940 -0.0119 -0.7268 -1.5425
  236MPD1     N 3588   2.592   1.521   9.981 -0.9382 -0.3426  0.1012
  236MPD1    H5 3589   2.617   1.429  10.017  0.6389 -0.2542 -0.8025
  236MPD1    N1 3590   2.234   1.816   9.794 -0.1016 -0.0134 -0.1305
  236MPD1    H6 3591   2.287   1.868   9.725 -1.8877  0.5857 -1.0458
  236MPD1    H7 3592   2.140   1.809   9.755  0.5599  1.4436 -1.9915
  237MPD1     C 3593   2.503   4.145  15.648 -0.1062 -0.8925 -0.1187
  237MPD1    C1 3594   2.396   4.159  15.733 -0.1453 -0.0024 -0.4911
  237MPD1    C2 3595   2.276   4.186  15.669 -0.1793 -0.4388  0.2119
  237MPD1    C3 3596   2.257   4.193  15.528  0.7313 -0.3602  0.1390
  237MPD1    C4 3597   2.370   4.171  15.456 -0.0580 -0.0174 -0.5737
  237MPD1    C5 3598   2.494   4.152  15.512  0.0015 -0.3703 -0.4115
  237MPD1     H 3599   2.194   4.210  15.737 -0.7921  0.6168 -0.9144
  237MPD1    H1 3600   2.374   4.170  15.348 -3.2512 -0.1544 -0.6683
  237MPD1    H2 3601   2.599   4.118  15.690 -0.8757 -0.0935  2.1461
  237MPD1    H3 3602   2.582   4.141  15.450 -0.8938 -1.2997 -1.5126
  237MPD1     N 3603   2.141   4.216  15.461 -0.0250 -0.6607  0.5310
  237MPD1    H5 3604   2.151   4.244  15.364  0.0192  2.0511  1.3147
  237MPD1    N1 3605   2.405   4.186  15.869 -0.4230 -0.3691 -0.2029
  237MPD1    H6 3606   2.488   4.147  15.914  1.8057  2.5390 -1.8536
  237MPD1    H7 3607   2.321   4.168  15.925 -0.5919  1.3935  0.1002
  238MPD1     C 3608   4.701   3.253  15.195 -0.0142 -0.5722  0.3475
  238MPD1    C1 3609   4.602   3.213  15.287  0.1480  0.6694 -0.0406
  238MPD1    C2 3610   4.471   3.244  15.259 -0.1033 -1.0115 -0.3737
  238MPD1    C3 3611   4.436   3.318  15.143 -0.8639 -0.0024 -0.6105
  238MPD1    C4 3612   4.533   3.364  15.064  0.0072 -0.0228  0.0639
  238MPD1    C5 3613   4.666   3.326  15.090  0.2629 -0.2806  0.5910
  238MPD1     H 3614   4.394   3.192  15.316  0.9628 -0.4948  1.5338
  238MPD1    H1 3615   4.529   3.435  14.982 -1.0176 -0.0105  0.1226
  238MPD1    H2 3616   0.085   3.239  15.218  0.3387  1.2373 -0.2143
  238MPD1    H3 3617   0.025   3.365  15.030 -0.4940  2.5584  1.4129
  238MPD1     N 3618   4.304   3.342  15.097  0.3852  0.8700  0.0636
  238MPD1    H5 3619   4.296   3.391  15.008 -0.1228 -3.0913 -2.0619
  238MPD1    N1 3620   4.637   3.131  15.394  0.2838 -0.4141 -0.1727
  238MPD1    H6 3621   0.002   3.166  15.433  0.3042 -1.4898  0.7182
  238MPD1    H7 3622   4.564   3.137  15.465  1.6061  0.1508  1.1367
  239MPD1     C 3623   4.360   4.126  15.553 -0.2851  0.0042  0.1563
  239MPD1    C1 3624   4.289   4.243  15.567 -0.1587  0.8414 -0.5201
  239MPD1    C2 3625   4.274   4.330  15.461 -0.3778  0.4007 -0.2536
  239MPD1    C3 3626   4.338   4.296  15.342  0.6289  0.1004 -0.1870
  239MPD1    C4 3627   4.408   4.178  15.330  0.3665 -0.6378  0.3528
  239MPD1    C5 3628   4.424   4.091  15.432 -0.1454  1.1546 -0.2072
  239MPD1     H 3629   4.223   4.425  15.471 -1.1384 -0.0507  0.1532
  239MPD1    H1 3630   4.452   4.151  15.235  2.0420 -0.2151  1.0201
  239MPD1    H2 3631   4.369   4.050  15.629 -1.3321 -1.5442 -1.2659
  239MPD1    H3 3632   4.480   4.000  15.421  1.6208  2.1200  0.7872
  239MPD1     N 3633   4.328   4.375  15.221  0.4061  0.2637  0.6140
  239MPD1    H5 3634   4.369   4.334  15.138 -2.7873 -0.4454 -0.6271
  239MPD1    N1 3635   4.227   4.264  15.689  0.2077 -0.1406 -0.5310
  239MPD1    H6 3636   4.201   4.183  15.745 -0.1285  0.3879  0.0680
  239MPD1    H7 3637   4.150   4.330  15.685  0.6298  0.4334  0.6381
  240MPD1     C 3638   3.854   3.969  13.986 -0.6207  0.3146 -0.2177
  240MPD1    C1 3639   3.733   3.917  14.015  0.1643  0.4712 -0.0239
  240MPD1    C2 3640   3.720   3.877  14.146 -0.1395 -0.1680  0.5138
  240MPD1    C3 3641   3.822   3.877  14.238 -1.2006 -0.2267 -0.2898
  240MPD1    C4 3642   3.946   3.910  14.202 -0.3776  0.1280  0.6134
  240MPD1    C5 3643   3.957   3.961  14.075  0.6625  0.1151  0.6809
  240MPD1     H 3644   3.625   3.849  14.190  0.0558 -2.2941 -0.3732
  240MPD1    H1 3645   4.031   3.895  14.269  0.2778 -1.9719 -0.6755
  240MPD1    H2 3646   3.871   4.030  13.898 -0.3459  0.8311  0.1946
  240MPD1    H3 3647   4.055   3.999  14.048  0.5522 -0.5427 -0.6223
  240MPD1     N 3648   3.789   3.838  14.367  0.3535 -0.1591  0.0387
  240MPD1    H5 3649   3.693   3.809  14.381  0.7155  0.1537  3.2415
  240MPD1    N1 3650   3.617   3.928  13.938  0.2195 -0.0511 -0.0340
  240MPD1    H6 3651   3.640   3.943  13.840 -1.3802  0.1173 -0.3774
  240MPD1    H7 3652   3.551   3.850  13.945  1.9003 -1.3962  0.9392
  241MPD1     C 3653   3.841   3.545  15.443  0.0245 -0.0853 -0.0025
  241MPD1    C1 3654   3.935   3.549  15.353 -0.6338  0.1764  0.2057
  241MPD1    C2 3655   3.916   3.599  15.219  0.2732 -0.3641  0.2811
  241MPD1    C3 3656   3.790   3.648  15.187  0.0834  0.2261  0.1533
  241MPD1    C4 3657   3.691   3.633  15.285  0.6508  0.0400 -0.7846
  241MPD1    C5 3658   3.720   3.590  15.413 -0.8819  0.1610  0.4650
  241MPD1     H 3659   3.994   3.614  15.146  1.4365 -0.3432  1.5359
  241MPD1    H1 3660   3.592   3.663  15.254 -0.9625 -3.0778  1.2592
  241MPD1    H2 3661   3.865   3.504  15.541  0.1507 -1.6798 -0.7070
  241MPD1    H3 3662   3.640   3.577  15.486 -1.7258 -1.8974 -0.7979
  241MPD1     N 3663   3.767   3.706  15.064 -0.1117  0.2089 -0.8362
  241MPD1    H5 3664   3.681   3.761  15.059 -0.6614 -0.4954  0.8027
  241MPD1    N1 3665   4.061   3.516  15.386 -0.0578 -0.2434 -0.3999
  241MPD1    H6 3666   4.123   3.504  15.306 -1.8264  0.2827 -1.8572
  241MPD1    H7 3667   4.064   3.433  15.445 -1.9607  0.5676  0.8292
  242MPD1     C 3668   3.032   2.142  16.019 -0.1704 -0.2571  0.0742
  242MPD1    C1 3669   3.005   2.230  15.918 -0.3190 -0.0278  0.6223
  242MPD1    C2 3670   3.080   2.205  15.802 -0.1085 -0.4036  0.3340
  242MPD1    C3 3671   3.158   2.091  15.782  0.6694  0.0472  0.4173
  242MPD1    C4 3672   3.160   1.999  15.878  0.6467  0.3373 -0.2087
  242MPD1    C5 3673   3.107   2.030  16.002  0.1318 -0.5312  0.2790
  242MPD1     H 3674   3.090   2.284  15.729  2.3761  0.1747  1.3048
  242MPD1    H1 3675   3.221   1.909  15.883 -0.2722 -0.4010 -2.2044
  242MPD1    H2 3676   2.988   2.151  16.118  0.3880 -1.6692  0.4375
  242MPD1    H3 3677   3.130   1.960  16.082  1.4869  1.5407  1.7255
  242MPD1     N 3678   3.240   2.063  15.671  0.1030 -0.1977 -0.6929
  242MPD1    H5 3679   3.307   1.987  15.675  0.4643  0.1863  0.5028
  242MPD1    N1 3680   2.939   2.352  15.942  0.0422  0.4133 -0.5781
  242MPD1    H6 3681   2.889   2.396  15.865 -1.7696  1.2054  1.0395
  242MPD1    H7 3682   2.867   2.346  16.014 -0.0305 -1.0045 -0.7549
  243MPD1     C 3683   1.309   4.636  17.486  0.3216  0.6445  0.5543
  243MPD1    C1 3684   1.361   0.037  17.438  0.9032  0.1908  0.2832
  243MPD1    C2 3685   1.270   0.142  17.439 -0.6485  0.1503 -0.2981
  243MPD1    C3 3686   1.137   0.121  17.475 -0.1749 -0.3522  1.0189
  243MPD1    C4 3687   1.090   4.720  17.520  0.0800 -0.3199 -1.4017
  243MPD1    C5 3688   1.176   4.611  17.526 -0.5931 -0.1822  0.0897
  243MPD1     H 3689   1.297   0.244  17.415  1.5339 -0.3778 -0.1193
  243MPD1    H1 3690   0.987   4.710  17.551  1.1889  1.7133  2.9534
  243MPD1    H2 3691   1.369   4.546  17.497 -1.1476 -0.4738 -0.5923
  243MPD1    H3 3692   1.149   4.509  17.549 -0.6700 -0.2760 -0.4228
  243MPD1     N 3693   1.050   0.237  17.472  0.7332  0.6667 -0.1090
  243MPD1    H5 3694   1.097   0.326  17.456  1.4949  0.1497 -0.7717
  243MPD1    N1 3695   1.501   0.055  17.445 -0.9681  0.2564 -0.0768
  243MPD1    H6 3696   1.539   0.115  17.373 -1.4189  2.5242  1.5925
  243MPD1    H7 3697   1.540   4.685  17.425  0.4361  1.0319 -0.8566
  244MPD1     C 3698   0.222   0.322   0.301 -0.0750 -0.3734  0.3669
  244MPD1    C1 3699   0.340   0.372   0.352  0.9753 -0.0502  0.2114
  244MPD1    C2 3700   0.436   0.405   0.258 -0.2799  0.6786  0.8244
  244MPD1    C3 3701   0.413   0.404   0.117  0.2086  0.5734 -0.4397
  244MPD1    C4 3702   0.291   0.351   0.073 -0.3295 -0.6749  0.4681
  244MPD1    C5 3703   0.199   0.317   0.172 -0.0713  0.3577 -0.2757
  244MPD1     H 3704   0.535   0.441   0.281  0.7253 -0.6663 -1.3730
  244MPD1    H1 3705   0.275   0.332  17.656  1.1331 -1.2107  0.3371
  244MPD1    H2 3706   0.139   0.281   0.358  1.1581 -1.9528  1.0321
  244MPD1    H3 3707   0.100   0.281   0.146 -0.2423  0.7331 -0.1449
  244MPD1     N 3708   0.524   0.444   0.034  0.0655 -0.1589  0.1990
  244MPD1    H5 3709   0.613   0.462   0.079  0.3619  0.7614 -0.7683
  244MPD1    N1 3710   0.370   0.352   0.487 -0.1378  0.1281 -0.0684
  244MPD1    H6 3711   0.441   0.414   0.526  0.6057 -0.5743 -0.2994
  244MPD1    H7 3712   0.286   0.353   0.544  0.4814 -1.1062  0.8841
  245MPD1     C 3713   2.240   1.145  13.429  0.1888 -0.1681  0.0758
  245MPD1    C1 3714   2.157   1.210  13.523  0.0100  0.0215  0.3026
  245MPD1    C2 3715   2.172   1.351  13.535 -0.3696  0.8203 -0.8519
  245MPD1    C3 3716   2.277   1.416  13.478 -0.8065 -0.0471  0.2926
  245MPD1    C4 3717   2.372   1.350  13.403 -0.1068 -0.0434  0.7805
  245MPD1    C5 3718   2.345   1.217  13.370  0.5602  0.4990 -0.2782
  245MPD1     H 3719   2.109   1.410  13.601 -0.5111  0.5214 -0.7233
  245MPD1    H1 3720   2.462   1.397  13.365 -0.7458  1.4477  1.1372
  245MPD1    H2 3721   2.227   1.040  13.409  2.4745  0.0690 -2.7040
  245MPD1    H3 3722   2.418   1.165  13.308 -0.8009 -2.5799  0.7097
  245MPD1     N 3723   2.291   1.552  13.515  0.4790  0.4287  0.2774
  245MPD1    H5 3724   2.222   1.592  13.578  1.6199 -0.2702  1.9798
  245MPD1    N1 3725   2.051   1.150  13.581 -0.1882 -0.0317  0.6206
  245MPD1    H6 3726   2.084   1.054  13.589  1.2070  0.2992 -1.0202
  245MPD1    H7 3727   2.041   1.175  13.679  1.5439  2.6950  0.1142
  246MPD1     C 3728   3.459   3.421   9.743  0.1370 -0.3052 -1.0017
  246MPD1    C1 3729   3.590   3.407   9.788 -0.3747 -0.0868  0.1272
  246MPD1    C2 3730   3.661   3.292   9.761  0.5791 -0.2763 -0.4232
  246MPD1    C3 3731   3.602   3.184   9.695  0.4211  0.3858  0.2944
  246MPD1    C4 3732   3.479   3.203   9.647  0.2743 -0.1477  0.2752
  246MPD1    C5 3733   3.407   3.318   9.681 -0.3933  0.4734 -0.0579
  246MPD1     H 3734   3.760   3.283   9.803 -0.0394  0.4223  1.1864
  246MPD1    H1 3735   3.428   3.122   9.595 -0.6754  2.4377 -2.8378
  246MPD1    H2 3736   3.397   3.508   9.757  3.0277  1.2709  2.0571
  246MPD1    H3 3737   3.304   3.325   9.648 -0.3798  0.6745 -0.0571
  246MPD1     N 3738   3.670   3.063   9.674 -0.5255  0.1865  0.0920
  246MPD1    H5 3739   3.761   3.054   9.718  0.1918  1.4474 -1.1321
  246MPD1    N1 3740   3.655   3.508   9.854  0.3369 -0.1832 -0.2534
  246MPD1    H6 3741   3.599   3.564   9.918 -0.3554  0.2524 -1.2311
  246MPD1    H7 3742   3.730   3.466   9.908 -0.9827 -0.8536  1.0555
  247MPD1     C 3743   1.181   0.530  16.121  0.7150 -0.3989  0.5929
  247MPD1    C1 3744   1.222   0.559  16.249  0.0240  0.2888 -0.5599
  247MPD1    C2 3745   1.363   0.556  16.273 -0.0652  0.5362 -0.5284
  247MPD1    C3 3746   1.451   0.514  16.175  0.3565  0.0559 -0.4782
  247MPD1    C4 3747   1.395   0.459  16.057 -0.2260 -0.2740  0.1194
  247MPD1    C5 3748   1.265   0.472  16.029 -0.2953 -0.7248 -0.0522
  247MPD1     H 3749   1.408   0.587  16.366 -2.4655  0.5140  0.6224
  247MPD1    H1 3750   1.452   0.406  15.982 -1.4658 -0.6420 -0.5631
  247MPD1    H2 3751   1.080   0.552  16.091  0.0679 -2.3844  1.3338
  247MPD1    H3 3752   1.218   0.438  15.937 -2.3708  0.8132  0.4450
  247MPD1     N 3753   1.590   0.497  16.200 -0.2510 -0.6773 -0.2519
  247MPD1    H5 3754   1.646   0.475  16.118  1.1179  0.2559  0.4182
  247MPD1    N1 3755   1.132   0.612  16.346 -0.2136  0.0052  0.7606
  247MPD1    H6 3756   1.039   0.575  16.325 -0.8319  1.0130  1.7149
  247MPD1    H7 3757   1.156   0.581  16.440 -1.6842 -2.4015  0.3523
  248MPD1     C 3758   2.906   0.170   1.001  0.7009  0.2703 -0.6339
  248MPD1    C1 3759   2.943   0.261   1.092 -0.9255  0.3391  0.2801
  248MPD1    C2 3760   2.844   0.351   1.132  0.0059  0.4658 -0.0067
  248MPD1    C3 3761   2.713   0.337   1.093  0.0571  0.6339 -0.4027
  248MPD1    C4 3762   2.685   0.229   1.010 -0.3077 -0.3856  0.4503
  248MPD1    C5 3763   2.784   0.151   0.957 -0.8801 -0.9460  0.2504
  248MPD1     H 3764   2.883   0.435   1.188  1.7080 -2.0379  2.5724
  248MPD1    H1 3765   2.586   0.213   0.969  0.7307  0.2222 -2.3236
  248MPD1    H2 3766   2.982   0.114   0.947  0.5406  0.4712 -1.0708
  248MPD1    H3 3767   2.767   0.081   0.876  1.3890 -0.3466 -0.7390
  248MPD1     N 3768   2.620   0.422   1.153  0.2096  0.1662 -0.1236
  248MPD1    H5 3769   2.650   0.490   1.222 -1.0101 -1.0448  1.5982
  248MPD1    N1 3770   3.080   0.292   1.121 -0.9269  0.2535 -0.3561
  248MPD1    H6 3771   3.145   0.214   1.125  0.3986  1.3636 -0.1223
  248MPD1    H7 3772   3.085   0.331   1.215  2.5103  0.6930 -0.7210
  249MPD1     C 3773   4.620   0.276   9.939  0.3753 -0.5106 -0.0495
  249MPD1    C1 3774   4.715   0.356   9.878  0.0808  0.1059 -0.1424
  249MPD1    C2 3775   0.116   0.364   9.934  0.1784 -0.3663  0.1682
  249MPD1    C3 3776   0.151   0.275  10.036 -0.2854  0.5554  0.4158
  249MPD1    C4 3777   0.060   0.189  10.089 -0.0153 -1.0133 -0.1586
  249MPD1    C5 3778   4.658   0.188  10.039  0.1521 -0.2659 -0.2251
  249MPD1     H 3779   0.192   0.427   9.889  0.7951 -0.8611  0.5309
  249MPD1    H1 3780   0.083   0.115  10.166 -1.0737 -1.9511 -0.7425
  249MPD1    H2 3781   4.520   0.268   9.899  1.3204  0.5344 -2.5882
  249MPD1    H3 3782   4.591   0.117  10.086  3.1068 -2.0425  1.3099
  249MPD1     N 3783   0.285   0.293  10.087 -0.5677  0.0707 -0.0723
  249MPD1    H5 3784   0.341   0.364  10.042 -0.5439 -0.4721 -0.8850
  249MPD1    N1 3785   4.669   0.443   9.780 -0.2599 -0.3230  0.5034
  249MPD1    H6 3786   4.583   0.404   9.741  1.3273 -1.7695 -1.5782
  249MPD1    H7 3787   0.022   0.479   9.721 -1.5551 -1.1439 -1.6439
  250MPD2     C 3788   0.220   4.442  13.056 -0.2061  0.4483 -0.5866
  250MPD2    C1 3789   0.270   4.514  12.945  0.6325 -0.6294  0.8610
  250MPD2    C2 3790   0.303   4.431  12.841  0.4092 -0.4828  0.6131
  250MPD2    C3 3791   0.305   4.290  12.847  0.3547 -0.5122  0.0300
  250MPD2    C4 3792   0.266   4.228  12.957 -0.4174  0.0069  0.0718
  250MPD2    C5 3793   0.221   4.304  13.064 -0.3580 -0.0246  0.1757
  250MPD2     H 3794   0.334   4.475  12.747 -0.0840  2.3437  1.7786
  250MPD2    H1 3795   0.280   4.121  12.959  0.0350  0.0314 -1.5627
  250MPD2    H2 3796   0.196   4.500  13.144  1.4916  0.0474  0.1430
  250MPD2    H3 3797   0.196   4.255  13.158 -0.8576 -2.4946 -1.2507
  250MPD2     N 3798   0.347   4.205  12.738  0.0711 -0.3222  0.0049
  250MPD2    H5 3799   0.348   4.105  12.752  0.0146 -0.5214 -1.4378
  250MPD2    N1 3800   0.269   4.657  12.945 -0.3638  0.5156  0.1136
  250MPD2    H7 3801   0.232   4.711  13.022 -0.0324 -0.6505  1.0725
  251TMC3    C1 3802   0.309   0.159  12.857 -0.2071  0.4103 -0.0974
  251TMC3    C2 3803   0.229   0.218  12.954 -0.4507 -0.8769 -0.3363
  251TMC3    C3 3804   0.270   0.332  13.009  0.2023  0.5348  0.4468
  251TMC3    C4 3805   0.422   0.225  12.821  0.0364  0.6517  0.4147
  251TMC3    C5 3806   0.461   0.342  12.877 -0.2124  0.3485 -0.1579
  251TMC3    C6 3807   0.381   0.394  12.969  0.3054 -0.1732  0.3402
  251TMC3     C 3808   0.306   0.014  12.836  0.1490  0.7492  0.2659
  251TMC3     O 3809   0.331   4.712  12.716 -0.7442  0.1361  0.4350
  251TMC3     H 3810   0.133   0.178  12.983 -0.3447 -1.7030 -1.1419
  251TMC3    H1 3811   0.500   0.182  12.759 -2.3587 -1.8307 -0.8853
  251TMC3    H2 3812   0.406   0.489  13.014  0.2839 -0.7907  1.6569
  251TMC3    C7 3813   0.601   0.365  12.898  1.1275  0.5316  0.6724
  251TMC3    C8 3814   0.229   0.354  13.147 -0.1571 -0.5826  0.0319
  251TMC3    O1 3815   0.684   0.327  12.821  0.0329  0.4630  0.2111
  251TMC3    O2 3816   0.312   0.337  13.235 -0.4251  0.3922 -0.8612
  252TMC3    C1 3817   1.986   1.118   9.272  0.4418 -0.0241 -0.3398
  252TMC3    C2 3818   1.851   1.115   9.300  0.2835  0.0898  0.4293
  252TMC3    C3 3819   1.771   1.025   9.225 -1.1702  0.0245  0.0925
  252TMC3    C4 3820   2.037   1.027   9.187 -0.4167 -0.6172  1.5059
  252TMC3    C5 3821   1.952   0.948   9.118  0.1417 -0.4394 -0.1037
  252TMC3    C6 3822   1.811   0.955   9.122  0.0622  0.2398 -0.1820
  252TMC3     C 3823   2.052   1.199   9.365 -0.3330  0.0993 -0.2591
  252TMC3     O 3824   1.994   1.232   9.468 -0.4651  0.1194 -0.2778
  252TMC3     H 3825   1.811   1.195   9.362 -1.2314  1.1478 -1.8862
  252TMC3    H1 3826   2.141   0.997   9.189  0.8256  3.3075 -2.6324
  252TMC3    H2 3827   1.748   0.903   9.051 -0.8656 -1.4629  1.8731
  252TMC3    C7 3828   2.001   0.815   9.092  0.0568 -0.9007  0.6352
  252TMC3    C8 3829   1.646   0.976   9.279  0.2194 -0.6681 -0.3544
  252TMC3    O1 3830   2.117   0.794   9.056  0.6279 -0.4345 -0.2031
  252TMC3    O2 3831   1.586   0.892   9.212  0.0166  0.1304  0.2826
  253MPD2     C 3832   1.977   4.525  15.522  0.6615  0.3759  0.6391
  253MPD2    C1 3833   1.843   4.525  15.551  0.6648 -0.7123 -0.1476
  253MPD2    C2 3834   1.785   4.509  15.676 -0.0069 -0.3039  0.2196
  253MPD2    C3 3835   1.868   4.501  15.788 -0.2455  0.1512 -0.0084
  253MPD2    C4 3836   2.000   4.502  15.762 -0.2398  0.5576 -0.0425
  253MPD2    C5 3837   2.055   4.521  15.635 -0.1897 -0.2103  0.0335
  253MPD2     H 3838   1.678   4.518  15.693 -0.2771 -0.5016 -1.3710
  253MPD2    H1 3839   2.069   4.499  15.846  1.8961 -0.2059 -1.8428
  253MPD2    H2 3840   2.024   4.539  15.425  1.1481  1.3119  1.0145
  253MPD2    H3 3841   2.162   4.535  15.620 -0.5442  0.7131 -1.6201
  253MPD2     N 3842   1.829   4.521  15.923  0.4226  0.3828 -0.0791
  253MPD2    H5 3843   1.902   4.533  15.992  0.5308 -0.9254  0.0258
  253MPD2    N1 3844   1.747   4.544  15.450 -0.0339  0.1516 -0.2293
  253MPD2    H7 3845   1.652   4.562  15.479 -0.6278 -2.9849 -0.2470
  254TMC3    C1 3846   1.696   4.526  16.122 -0.5887 -0.8942 -0.4023
  254TMC3    C2 3847   1.571   4.550  16.169 -0.0600 -0.5914  0.2985
  254TMC3    C3 3848   1.561   4.556  16.302 -0.1647 -0.6832  0.6474
  254TMC3    C4 3849   1.813   4.524  16.200  0.3419  0.1898 -0.6551
  254TMC3    C5 3850   1.785   4.523  16.333 -0.4973 -0.0080 -0.6336
  254TMC3    C6 3851   1.663   4.538  16.390  0.0202 -0.4199  0.4411
  254TMC3     C 3852   1.700   4.506  15.979  0.0293  0.2876  1.0846
  254TMC3     O 3853   1.596   4.512  15.915 -0.0113  0.2095 -0.0153
  254TMC3     H 3854   1.488   4.561  16.100  0.1103 -0.7089  0.0756
  254TMC3    H1 3855   1.904   4.475  16.167 -1.2576 -0.8778 -3.4421
  254TMC3    H2 3856   1.643   4.543  16.496  0.5770  0.0794  0.5226
  254TMC3    C7 3857   1.898   4.517  16.427 -0.2198 -0.2738 -0.7296
  254TMC3    C8 3858   1.422   4.569  16.360  1.0683 -0.9418  1.2147
  254TMC3    O1 3859   1.871   4.495  16.543  0.1308 -0.0965  0.1498
  254TMC3    O2 3860   1.414   4.523  16.476  1.0723 -0.0313  0.5755
  255MPD2     C 3861   0.191   2.573  10.684 -0.1061 -0.5279 -0.4777
  255MPD2    C1 3862   0.233   2.701  10.717  0.2711 -0.9566 -0.7467
  255MPD2    C2 3863   0.328   2.724  10.814 -0.1658 -0.4502 -0.2967
  255MPD2    C3 3864   0.389   2.613  10.869 -0.2849  0.0260 -0.3538
  255MPD2    C4 3865   0.343   2.486  10.838 -0.6951 -0.1879 -0.7917
  255MPD2    C5 3866   0.246   2.463  10.742 -0.3447 -0.3160 -0.3956
  255MPD2     H 3867   0.376   2.817  10.843 -0.7139  0.1849 -1.4167
  255MPD2    H1 3868   0.380   2.397  10.887  0.8825  0.8198 -0.1445
  255MPD2    H2 3869   0.114   2.549  10.611 -0.0244  0.6495 -0.9612
  255MPD2    H3 3870   0.203   2.367  10.716 -1.6152 -0.2050  1.2359
  255MPD2     N 3871   0.488   2.639  10.970 -0.3851  0.3939  0.1603
  255MPD2    H5 3872   0.514   2.737  10.971 -0.3233  0.4146 -1.9774
  255MPD2    N1 3873   0.167   2.804  10.650  0.3856 -0.8157 -0.1338
  255MPD2    H7 3874   0.094   2.779  10.585  0.8695  0.3157 -1.1153
  256TMC3    C1 3875   0.088   3.007  10.572 -0.4299  0.6665 -0.2198
  256TMC3    C2 3876   0.089   3.146  10.580 -0.5378  0.3501  0.5953
  256TMC3    C3 3877   4.702   3.220  10.574  0.2742 -0.5401  0.1191
  256TMC3    C4 3878   4.688   2.947  10.539  0.3248  0.1855  0.4734
  256TMC3    C5 3879   4.575   3.031  10.532 -0.1401  0.0881 -0.0809
  256TMC3    C6 3880   4.578   3.164  10.564 -0.1681  0.5164 -0.4406
  256TMC3     C 3881   0.186   2.939  10.653 -0.1675  0.4059  0.3970
  256TMC3     O 3882   0.271   3.007  10.708 -0.3176 -0.5636  0.2016
  256TMC3     H 3883   0.186   3.195  10.587 -1.0223  1.2547  1.0289
  256TMC3    H1 3884   4.675   2.839  10.542 -0.8544  0.2419 -2.6761
  256TMC3    H2 3885   4.489   3.226  10.566  0.4487  1.4500 -1.4237
  256TMC3    C7 3886   4.475   3.006  10.431 -0.2286 -0.3017  0.2842
  256TMC3    C8 3887   4.706   3.345  10.502 -0.2351  0.5786 -0.0853
  256TMC3    O1 3888   4.384   3.085  10.422  0.2019  1.0400 -0.0154
  256TMC3    O2 3889   4.599   3.380  10.445  0.1440 -0.3233 -0.2263
  257MPD2     C 3890   3.994   4.316  12.944 -0.8684  0.6531 -0.5088
  257MPD2    C1 3891   4.118   4.375  12.957  0.2865  0.0133 -0.0694
  257MPD2    C2 3892   4.206   4.342  13.059 -0.0582  0.2029 -0.1772
  257MPD2    C3 3893   4.167   4.236  13.142 -0.1375 -0.7059  0.6573
  257MPD2    C4 3894   4.037   4.179  13.127  0.3466  0.5191  0.2774
  257MPD2    C5 3895   3.954   4.214  13.026  0.0933 -0.0347  0.6883
  257MPD2     H 3896   4.302   4.391  13.066  0.0337  0.0388 -0.2907
  257MPD2    H1 3897   4.010   4.115  13.210 -1.0661  0.2438 -0.4086
  257MPD2    H2 3898   3.927   4.345  12.864  0.3025  1.2220 -1.2799
  257MPD2    H3 3899   3.858   4.164  13.017 -1.2305  2.5786  0.3622
  257MPD2     N 3900   4.257   4.194  13.253  0.6312 -0.1910 -0.4463
  257MPD2    H5 3901   4.325   4.262  13.283 -0.7911  0.7008  0.7516
  257MPD2    N1 3902   4.157   4.450  12.843  0.3891 -0.3179 -0.2724
  257MPD2    H7 3903   4.082   4.453  12.774 -0.5742 -1.5065  0.7102
  258TMC3    C1 3904   4.332   4.088  13.459 -0.5056  0.7333 -0.1400
  258TMC3    C2 3905   4.412   4.197  13.481 -0.0722  0.1260  0.1247
  258TMC3    C3 3906   4.511   4.177  13.575  0.2675  0.4511 -0.1114
  258TMC3    C4 3907   4.347   3.968  13.522  0.3980  0.4483  0.2437
  258TMC3    C5 3908   4.448   3.956  13.616  0.0412 -0.4302 -0.0585
  258TMC3    C6 3909   4.530   4.058  13.644 -0.0894 -0.1916 -0.4382
  258TMC3     C 3910   4.240   4.089  13.341  0.4975  0.2888 -0.3345
  258TMC3     O 3911   4.161   3.992  13.325 -0.4535 -0.0315 -0.5801
  258TMC3     H 3912   4.388   4.298  13.448  0.8525  0.4803  0.5427
  258TMC3    H1 3913   4.295   3.879  13.486  1.4055  0.0053 -0.1062
  258TMC3    H2 3914   4.619   4.035  13.701 -0.4384 -0.4402  0.0009
  258TMC3    C7 3915   4.449   3.834  13.691 -0.0840  0.2327 -0.6214
  258TMC3    C8 3916   4.583   4.301  13.627  0.2784 -0.1955 -0.5362
  258TMC3    O1 3917   4.401   3.728  13.650 -0.3758 -0.3411 -0.6801
  258TMC3    O2 3918   4.540   4.412  13.595 -0.0817  0.1733 -0.2514
  259MPD2     C 3919   3.613   1.392   1.653 -0.2187  0.0271  0.3854
  259MPD2    C1 3920   3.550   1.272   1.681  0.2795  1.0864 -0.2802
  259MPD2    C2 3921   3.605   1.153   1.647  0.2810  0.3230  0.3606
  259MPD2    C3 3922   3.715   1.160   1.565  0.0246  0.6856 -0.0540
  259MPD2    C4 3923   3.771   1.279   1.528 -0.0379 -0.1037 -0.0938
  259MPD2    C5 3924   3.716   1.397   1.567  0.7047  0.1231 -0.1041
  259MPD2     H 3925   3.559   1.055   1.659  1.9544 -0.5538 -0.4766
  259MPD2    H1 3926   3.852   1.283   1.456  1.6380  0.8031  1.8434
  259MPD2    H2 3927   3.561   1.483   1.681  0.3569  0.7257 -0.7990
  259MPD2    H3 3928   3.756   1.496   1.547 -0.2507  0.6043  0.3436
  259MPD2     N 3929   3.742   1.039   1.494  0.3549 -0.1791 -0.1188
  259MPD2    H5 3930   3.679   0.963   1.518 -0.8742  0.5886 -0.9599
  259MPD2    N1 3931   3.424   1.280   1.753  0.3391  0.0904  0.0818
  259MPD2    H7 3932   3.394   1.377   1.761 -1.2496 -0.6382  2.6889
  260TMC3    C1 3933   3.849   0.897   1.334  0.6140 -0.0269  1.1421
  260TMC3    C2 3934   3.922   0.900   1.214 -0.4390  0.1293 -0.0895
  260TMC3    C3 3935   3.876   0.812   1.121  0.2463 -0.3369  0.6969
  260TMC3    C4 3936   3.745   0.812   1.367  0.0554  0.0868 -0.4969
  260TMC3    C5 3937   3.709   0.728   1.263 -0.1696  0.6462 -0.7348
  260TMC3    C6 3938   3.772   0.729   1.143 -0.0129 -0.4003  0.3092
  260TMC3     C 3939   3.854   1.020   1.418  0.5732  0.1582  0.4565
  260TMC3     O 3940   3.947   1.091   1.387 -0.3933  0.1215 -0.2818
  260TMC3     H 3941   3.990   0.980   1.185  0.1000  0.1725  1.3322
  260TMC3    H1 3942   3.688   0.811   1.459 -0.5064 -1.0732 -0.8604
  260TMC3    H2 3943   3.745   0.656   1.068 -1.8306  0.3896  0.2174
  260TMC3    C7 3944   3.569   0.701   1.264  0.7683 -0.5485 -0.1163
  260TMC3    C8 3945   3.930   0.837   0.981 -0.2994  0.4088 -0.2823
  260TMC3    O1 3946   3.519   0.649   1.360  0.2045  0.1999  0.1396
  260TMC3    O2 3947   4.006   0.930   0.958 -0.2257  0.0931 -0.8611
  261MPD2     C 3948   0.367   4.190  11.898 -0.9720 -0.5625 -0.6508
  261MPD2    C1 3949   0.332   4.251  12.019  0.3974 -0.1070  0.1630
  261MPD2    C2 3950   0.331   4.391  12.030  0.1765 -0.2464 -0.1511
  261MPD2    C3 3951   0.369   4.472  11.924  0.0497 -0.7184  0.7351
  261MPD2    C4 3952   0.380   4.405  11.805 -0.4077 -0.1113  0.8038
  261MPD2    C5 3953   0.382   4.273  11.789 -0.0499  0.4546 -0.9421
  261MPD2     H 3954   0.311   4.433  12.128  2.0361 -0.7154  0.4203
  261MPD2    H1 3955   0.388   4.452  11.707 -0.2953  1.0854  1.3883
  261MPD2    H2 3956   0.369   4.082  11.892 -2.1717 -0.7127  1.7472
  261MPD2    H3 3957   0.415   4.233  11.694  0.6643  0.4240 -0.6804
  261MPD2     N 3958   0.396   4.608  11.943 -0.3057  0.2442  0.3307
  261MPD2    H5 3959   0.375   4.653  12.031  0.1193 -1.0428  1.0818
  261MPD2    N1 3960   0.327   4.184  12.142  0.8220 -0.1651  0.7637
  261MPD2    H7 3961   0.297   4.245  12.218  0.1406  0.6573 -0.1810
  262TMC3    C1 3962   0.512   0.096  11.922 -0.5295  0.2274  0.2618
  262TMC3    C2 3963   0.419   0.172  11.993  0.2205  0.9638  0.3255
  262TMC3    C3 3964   0.461   0.290  12.046  0.2603 -0.2551  0.3717
  262TMC3    C4 3965   0.642   0.135  11.919  0.6841  0.2767 -0.7528
  262TMC3    C5 3966   0.681   0.251  11.977  0.6120  0.5899 -0.1870
  262TMC3    C6 3967   0.594   0.335  12.046  0.3149  0.2545  0.4256
  262TMC3     C 3968   0.480   4.681  11.867 -0.0269 -0.2449  0.5432
  262TMC3     O 3969   0.542   4.641  11.769 -0.3378 -0.0671  0.2908
  262TMC3     H 3970   0.317   0.137  11.992  0.5687  0.0078 -2.8179
  262TMC3    H1 3971   0.713   0.071  11.867 -0.1626 -0.2516 -1.2598
  262TMC3    H2 3972   0.628   0.425  12.097 -0.3195  0.7144  0.0394
  262TMC3    C7 3973   0.783   0.317  11.904 -0.2473 -0.7165 -0.1869
  262TMC3    C8 3974   0.369   0.402  12.054 -0.2746  0.1359  0.4051
  262TMC3    O1 3975   0.872   0.247  11.860  0.1405 -0.0872  0.1911
  262TMC3    O2 3976   0.421   0.509  12.074 -0.0632 -0.0592  0.7221
  263MPD2     C 3977   1.286   3.713  11.154  0.1329 -0.0758 -0.0636
  263MPD2    C1 3978   1.286   3.845  11.204  0.0211 -0.2631  0.2001
  263MPD2    C2 3979   1.275   3.944  11.110  0.9590  0.2261  0.2933
  263MPD2    C3 3980   1.262   3.917  10.975 -0.3228  0.9217  0.4517
  263MPD2    C4 3981   1.230   3.787  10.932  0.5848  0.1711  0.1787
  263MPD2    C5 3982   1.250   3.686  11.023 -0.0173 -0.3383  0.1346
  263MPD2     H 3983   1.275   4.049  11.138 -4.2570  0.2556  0.1782
  263MPD2    H1 3984   1.198   3.752  10.835 -1.1838 -0.0052  0.8431
  263MPD2    H2 3985   1.296   3.624  11.216 -2.4242 -0.3243 -0.0170
  263MPD2    H3 3986   1.244   3.582  10.991  0.5375  0.0022 -1.0705
  263MPD2     N 3987   1.271   4.025  10.879 -0.5413  0.1300 -0.5200
  263MPD2    H5 3988   1.287   4.117  10.919  0.5680 -0.4630  0.3952
  263MPD2    N1 3989   1.312   3.863  11.344  0.0143  0.1330 -0.1346
  263MPD2    H7 3990   1.334   3.784  11.403 -0.7612  0.8920  1.1855
  264TMC3    C1 3991   1.303   4.138  10.680  0.3698 -0.0545  0.2117
  264TMC3    C2 3992   1.268   4.256  10.740 -0.7969  0.2318  0.1073
  264TMC3    C3 3993   1.299   4.374  10.675 -0.5183 -1.1450 -0.6099
  264TMC3    C4 3994   1.380   4.133  10.566 -1.0909 -0.2385  0.2219
  264TMC3    C5 3995   1.422   4.258  10.517  0.4989 -0.4950  0.4649
  264TMC3    C6 3996   1.378   4.374  10.561  0.1084 -0.2824  0.0646
  264TMC3     C 3997   1.273   4.013  10.743  0.2111 -0.1491  0.1706
  264TMC3     O 3998   1.278   3.917  10.671 -0.2900  0.1329  0.9156
  264TMC3     H 3999   1.201   4.257  10.825 -1.1287  0.5543 -0.1526
  264TMC3    H1 4000   1.423   4.042  10.525 -0.0424 -0.9832  2.9661
  264TMC3    H2 4001   1.397   4.469  10.513 -1.0342 -0.1191 -0.0625
  264TMC3    C7 4002   1.565   4.261  10.498  0.5940 -0.1587  0.1935
  264TMC3    C8 4003   1.339   4.484  10.760  0.2916 -1.0770 -0.3926
  264TMC3    O1 4004   1.619   4.162  10.450  0.3495 -0.2748  0.0062
  264TMC3    O2 4005   1.443   4.537  10.717  0.2810 -0.5174  0.0265
  265MPD2     C 4006   2.977   4.547  16.111 -0.1107  0.0850 -0.3463
  265MPD2    C1 4007   3.020   4.642  16.022 -0.2423 -0.1987 -0.2554
  265MPD2    C2 4008   3.050   4.608  15.892 -0.1130 -0.3162  0.1109
  265MPD2    C3 4009   3.040   4.477  15.848 -0.5174 -0.2484 -0.0050
  265MPD2    C4 4010   2.996   4.385  15.938 -0.1521 -0.3412  0.1214
  265MPD2    C5 4011   2.959   4.418  16.068 -0.2112 -0.4860  0.2442
  265MPD2     H 4012   3.069   4.686  15.819 -0.5964  0.7829  1.1626
  265MPD2    H1 4013   2.980   4.280  15.915 -0.2875 -0.5284  1.0480
  265MPD2    H2 4014   2.958   4.559  16.217  2.2354 -1.7949  0.2808
  265MPD2    H3 4015   2.933   4.342  16.140  1.3886 -1.6712 -0.4258
  265MPD2     N 4016   3.081   4.424  15.717  0.2712 -0.2295 -0.0237
  265MPD2    H5 4017   3.076   4.323  15.715 -0.0369 -0.1929 -1.2687
  265MPD2    N1 4018   3.049   0.057  16.060 -0.0278 -0.5687  0.2480
  265MPD2    H7 4019   3.080   0.129  15.996 -0.9258  0.0585  0.5188
  266TMC3    C1 4020   3.060   0.251  16.190  0.0004 -0.3434  0.2605
  266TMC3    C2 4021   3.081   0.305  16.312 -0.3597  0.0891 -0.3838
  266TMC3    C3 4022   3.036   0.433  16.336  0.4033  0.1078  0.6622
  266TMC3    C4 4023   3.000   0.324  16.095  0.9162  0.2016 -0.3749
  266TMC3    C5 4024   2.966   0.457  16.121 -0.5417 -0.5649  0.4851
  266TMC3    C6 4025   2.980   0.514  16.242  0.0246  0.0244 -0.0985
  266TMC3     C 4026   3.051   0.108  16.187  0.0318  0.5135  0.7431
  266TMC3     O 4027   3.025   0.052  16.291 -0.3894  0.4577  0.3017
  266TMC3     H 4028   3.124   0.239  16.386 -0.3728  1.0528  0.4797
  266TMC3    H1 4029   2.991   0.289  15.992  0.5739  0.0205 -0.2821
  266TMC3    H2 4030   2.958   0.620  16.250 -1.4744 -0.3868  1.3687
  266TMC3    C7 4031   2.864   0.505  16.029 -0.2250 -0.2384 -0.2364
  266TMC3    C8 4032   3.087   0.494  16.458  0.3529  1.0791  0.1850
  266TMC3    O1 4033   2.874   0.451  15.920  0.2842 -0.3427  0.8123
  266TMC3    O2 4034   3.167   0.421  16.519 -0.5427 -0.4659 -0.4806
  267MPD2     C 4035   1.188   1.419  17.398  0.0296  0.4050  0.5814
  267MPD2    C1 4036   1.155   1.350  17.511 -0.2805  0.1794 -0.3416
  267MPD2    C2 4037   1.071   1.236  17.506 -0.6115 -0.2646  0.3075
  267MPD2    C3 4038   1.015   1.191  17.383 -1.0445  0.1828  0.1120
  267MPD2    C4 4039   1.034   1.274  17.274 -0.9889  0.4006  0.2841
  267MPD2    C5 4040   1.119   1.384  17.285 -0.2827 -0.1827 -0.5045
  267MPD2     H 4041   1.052   1.183  17.599  0.2334  0.2777  0.7835
  267MPD2    H1 4042   0.983   1.262  17.179  2.0037 -0.2659 -1.2114
  267MPD2    H2 4043   1.251   1.507  17.395 -0.4267  0.8013  2.2812
  267MPD2    H3 4044   1.135   1.440  17.194  1.3660  1.3726  0.7411
  267MPD2     N 4045   0.926   1.080  17.369 -0.1368 -0.0875  0.4059
  267MPD2    H5 4046   0.877   1.073  17.281  0.2202 -1.0248  0.2864
  267MPD2    N1 4047   1.222   1.394  17.625 -0.1056  0.0639 -0.8171
  267MPD2    H7 4048   1.278   1.477  17.611  2.4271 -1.5819 -0.4040
  268TMC3    C1 4049   1.257   1.448   0.145  0.3560  0.3267  0.8443
  268TMC3    C2 4050   1.208   1.569   0.122 -0.8889 -0.2317 -0.1109
  268TMC3    C3 4051   1.250   1.667   0.205  0.3827 -0.2678  0.3626
  268TMC3    C4 4052   1.345   1.418   0.243 -0.4739 -0.0193 -0.2695
  268TMC3    C5 4053   1.391   1.521   0.319 -0.2299 -0.1189 -0.9505
  268TMC3    C6 4054   1.339   1.651   0.306 -0.4723 -0.4165 -0.4579
  268TMC3     C 4055   1.206   1.347   0.063  0.1469 -0.0206  0.4323
  268TMC3     O 4056   1.162   1.241   0.114 -0.1724 -0.1075 -0.2495
  268TMC3     H 4057   1.128   1.582   0.050 -1.5154  3.0226  1.1909
  268TMC3    H1 4058   1.388   1.321   0.263 -1.0973 -0.7251 -2.4238
  268TMC3    H2 4059   1.355   1.729   0.379  0.1218 -1.5927  0.6579
  268TMC3    C7 4060   1.438   1.492   0.451  0.4640 -0.2490  1.0116
  268TMC3    C8 4061   1.210   1.807   0.191 -0.4147 -0.1509 -0.4336
  268TMC3    O1 4062   1.426   1.381   0.496  0.2866 -0.1763  0.5819
  268TMC3    O2 4063   1.278   1.901   0.239  0.2372 -0.7970  0.1121
  269MPD2     C 4064   0.650   0.114  15.621 -0.1875 -0.9874 -0.2810
  269MPD2    C1 4065   0.516   0.126  15.645  0.4481  0.7468  0.6579
  269MPD2    C2 4066   0.460   0.255  15.626  0.1912 -0.0617 -0.5648
  269MPD2    C3 4067   0.531   0.368  15.582 -0.5517  0.1962  0.1608
  269MPD2    C4 4068   0.660   0.352  15.547  0.7698  0.6835  0.0436
  269MPD2    C5 4069   0.717   0.226  15.569 -0.4533 -0.1923 -0.1648
  269MPD2     H 4070   0.355   0.269  15.652  0.2129  0.4199 -0.7440
  269MPD2    H1 4071   0.722   0.433  15.509  0.6724  0.7643  0.0569
  269MPD2    H2 4072   0.700   0.018  15.633 -0.7659 -1.2624 -0.0577
  269MPD2    H3 4073   0.820   0.213  15.537 -0.2959  0.7934 -0.0680
  269MPD2     N 4074   0.460   0.492  15.568 -0.2568  0.7237 -0.1844
  269MPD2    H5 4075   0.367   0.490  15.607  0.0813 -2.4680  0.4576
  269MPD2    N1 4076   0.445   0.009  15.683 -0.3383 -0.0819 -0.3152
  269MPD2    H7 4077   0.504   4.650  15.698  0.5811  0.3337 -1.6996
  270TMC3    C1 4078   0.262   4.597  15.759  0.1500 -0.0858  0.1908
  270TMC3    C2 4079   0.155   4.537  15.699  0.3665  0.7823  0.3138
  270TMC3    C3 4080   0.124   4.409  15.732  0.7646 -0.8480  0.8037
  270TMC3    C4 4081   0.340   4.536  15.849 -0.5968 -0.3881  0.4706
  270TMC3    C5 4082   0.288   4.423  15.904  0.1034 -0.0504  0.0955
  270TMC3    C6 4083   0.190   4.356  15.839  0.0279 -0.0948 -0.2844
  270TMC3     C 4084   0.307   4.721  15.695  0.2092 -0.3283  0.0415
  270TMC3     O 4085   0.226   0.056  15.624  0.1646  0.2349 -0.2698
  270TMC3     H 4086   0.094   4.583  15.621  0.2144  0.9044  0.5031
  270TMC3    H1 4087   0.428   4.577  15.898  0.0430  0.2626 -1.2542
  270TMC3    H2 4088   0.185   4.253  15.869  1.7643 -0.4163 -1.0798
  270TMC3    C7 4089   0.392   4.325  15.945 -0.4697  0.2710  0.2862
  270TMC3    C8 4090   0.134   4.329  15.616 -0.0533  0.0564 -0.0448
  270TMC3    O1 4091   0.505   4.346  15.904  0.0071 -0.0154 -0.3507
  270TMC3    O2 4092   0.183   4.382  15.521 -0.0905 -0.1167 -0.3363
  271MPD2     C 4093   4.635   0.053  14.710 -0.3481 -0.0422 -0.6050
  271MPD2    C1 4094   4.646   0.008  14.582  0.4238 -0.3033 -0.7923
  271MPD2    C2 4095   4.575   0.068  14.482 -0.5828 -0.3365  0.0235
  271MPD2    C3 4096   4.477   0.160  14.506 -0.1974  0.1340  0.2477
  271MPD2    C4 4097   4.471   0.205  14.638  0.4855  0.3064 -0.3016
  271MPD2    C5 4098   4.545   0.151  14.735 -0.3961 -0.0111  0.0732
  271MPD2     H 4099   4.589   0.030  14.382 -2.5953 -0.6185 -0.1418
  271MPD2    H1 4100   4.394   0.276  14.666 -0.1912 -0.3255 -0.5694
  271MPD2    H2 4101   4.686   0.011  14.796 -0.7785  1.6630  0.4886
  271MPD2    H3 4102   4.531   0.182  14.838  0.2493 -3.0068  1.0463
  271MPD2     N 4103   4.392   0.221  14.411  0.0766  0.3365  0.0106
  271MPD2    H5 4104   4.327   0.287  14.451 -1.3347 -0.7353 -0.5019
  271MPD2    N1 4105   0.005   4.619  14.556 -0.0095  0.2770  0.5911
  271MPD2    H7 4106   0.049   4.586  14.642 -0.5258  0.8873  1.0966
  272TMC3    C1 4107   0.099   4.430  14.453 -0.2601  0.0914  0.6703
  272TMC3    C2 4108   0.218   4.392  14.399  0.1041 -0.1939 -0.0497
  272TMC3    C3 4109   0.273   4.270  14.434  0.0890  0.0729  0.1232
  272TMC3    C4 4110   0.046   4.350  14.554 -0.4607  0.2995 -0.0839
  272TMC3    C5 4111   0.088   4.222  14.570 -0.5362 -0.0999  0.1124
  272TMC3    C6 4112   0.205   4.179  14.515 -0.3433  0.2879 -0.0895
  272TMC3     C 4113   0.041   4.566  14.434 -0.1036 -0.2605  0.4119
  272TMC3     O 4114   0.040   4.619  14.323 -0.7026  0.1465 -0.0200
  272TMC3     H 4115   0.269   4.458  14.330  2.7993 -2.0358  0.2089
  272TMC3    H1 4116   4.673   4.372  14.601 -1.1870 -1.6531 -0.6179
  272TMC3    H2 4117   0.247   4.082  14.540  2.7197  2.3789  3.0030
  272TMC3    C7 4118   0.042   4.156  14.692 -0.0577  0.0512 -0.0463
  272TMC3    C8 4119   0.420   4.259  14.432  0.1305 -0.4847  0.4158
  272TMC3    O1 4120   4.713   4.043  14.683 -0.1837 -0.5945 -0.0514
  272TMC3    O2 4121   0.480   4.342  14.367  0.0829 -0.1050 -0.1549
  273MPD2     C 4122   1.591   2.440  12.028  0.0699  0.2009  0.0466
  273MPD2    C1 4123   1.684   2.523  12.073 -0.0027 -0.1145 -0.2486
  273MPD2    C2 4124   1.744   2.619  11.991  0.2917  0.1417  0.0403
  273MPD2    C3 4125   1.683   2.637  11.867  0.5051 -0.3503 -0.0384
  273MPD2    C4 4126   1.583   2.544  11.825 -0.3219  0.2348 -0.3083
  273MPD2    C5 4127   1.533   2.447  11.908  0.1877 -0.1630  0.5704
  273MPD2     H 4128   1.831   2.672  12.028  1.0198 -2.1212  1.5352
  273MPD2    H1 4129   1.537   2.557  11.727 -2.6479 -0.5500  0.6713
  273MPD2    H2 4130   1.555   2.358  12.089 -0.3633 -0.2300 -0.7955
  273MPD2    H3 4131   1.462   2.373  11.874 -0.4835  0.5513  0.4231
  273MPD2     N 4132   1.727   2.739  11.774 -0.1600  0.4774  0.0466
  273MPD2    H5 4133   1.672   2.748  11.689 -2.6060  1.5464  1.7246
  273MPD2    N1 4134   1.722   2.493  12.206  0.9277 -0.0816  0.3881
  273MPD2    H7 4135   1.710   2.399  12.241 -3.3046  0.4825  0.4766
  274TMC3    C1 4136   1.813   2.950  11.723 -0.1457  1.0101  0.2851
  274TMC3    C2 4137   1.785   2.916  11.593 -0.0281 -0.0319 -0.7305
  274TMC3    C3 4138   1.774   3.017  11.509  0.2625 -0.1675  0.3137
  274TMC3    C4 4139   1.860   3.070  11.756  0.5789  0.3501  0.9541
  274TMC3    C5 4140   1.869   3.167  11.664 -0.2526  0.5634  0.4831
  274TMC3    C6 4141   1.838   3.138  11.537 -0.2479  0.0759  0.3681
  274TMC3     C 4142   1.812   2.843  11.816 -0.0328  0.0288  0.0674
  274TMC3     O 4143   1.838   2.885  11.928 -0.0750 -0.3505  0.0867
  274TMC3     H 4144   1.746   2.822  11.555  2.4653 -1.6499  0.7199
  274TMC3    H1 4145   1.879   3.084  11.862  1.0952 -2.7444  1.2979
  274TMC3    H2 4146   1.847   3.228  11.477  1.4437 -0.5579 -0.3545
  274TMC3    C7 4147   1.820   3.299  11.706 -0.2109  0.8051  0.0110
  274TMC3    C8 4148   1.729   2.984  11.375 -0.5418  0.4495 -0.2564
  274TMC3    O1 4149   1.750   3.366  11.633  0.4758  0.7841 -0.1238
  274TMC3    O2 4150   1.642   2.898  11.356  0.1570  0.0854  0.0405
  275MPD2     C 4151   1.657   0.459  14.369  0.1447 -0.1779 -0.1022
  275MPD2    C1 4152   1.589   0.545  14.444  0.0513  0.3391 -0.0046
  275MPD2    C2 4153   1.462   0.518  14.481 -0.5052 -0.5937 -0.1571
  275MPD2    C3 4154   1.402   0.399  14.456 -0.3755  0.1859  0.2728
  275MPD2    C4 4155   1.472   0.314  14.379 -0.3730  0.1022 -0.5620
  275MPD2    C5 4156   1.592   0.344  14.329  0.3969 -0.1284 -0.5381
  275MPD2     H 4157   1.413   0.587  14.549 -0.1995  0.1848 -0.7420
  275MPD2    H1 4158   1.428   0.218  14.356 -0.0628 -0.6312  1.8657
  275MPD2    H2 4159   1.758   0.481  14.335 -0.5500  0.7755 -1.5352
  275MPD2    H3 4160   1.645   0.269  14.272  1.8174  0.8325 -0.4870
  275MPD2     N 4161   1.274   0.370  14.506 -0.2404  0.3931  0.1760
  275MPD2    H5 4162   1.247   0.274  14.488  0.5531  0.3085 -0.5367
  275MPD2    N1 4163   1.640   0.663  14.499 -0.2029 -0.2312 -0.6645
  275MPD2    H7 4164   1.578   0.721  14.555  0.4175 -0.1295 -0.0815
  276TMC3    C1 4165   1.792   0.813  14.588 -0.1563  0.3510  0.0812
  276TMC3    C2 4166   1.679   0.839  14.656 -0.3977 -0.0016 -0.5164
  276TMC3    C3 4167   1.677   0.792  14.792  0.5102 -0.3017  0.3725
  276TMC3    C4 4168   1.906   0.773  14.664  0.3940  0.3703 -0.3249
  276TMC3    C5 4169   1.906   0.760  14.797 -0.5905  0.0040  0.3842
  276TMC3    C6 4170   1.788   0.754  14.865  0.1084  0.2845  0.4525
  276TMC3     C 4171   1.772   0.702  14.495 -0.2932 -0.1218  0.4306
  276TMC3     O 4172   1.866   0.649  14.444 -0.3945  0.2753  0.4193
  276TMC3     H 4173   1.585   0.870  14.611  0.3832  3.2787  0.1791
  276TMC3    H1 4174   1.996   0.737  14.617  1.3846 -0.5312  2.2753
  276TMC3    H2 4175   1.787   0.737  14.972  1.1175 -0.8275  0.2939
  276TMC3    C7 4176   2.020   0.807  14.875 -0.2838 -0.8909 -0.2946
  276TMC3    C8 4177   1.553   0.733  14.830 -1.0390 -0.2665  0.3734
  276TMC3    O1 4178   2.017   0.797  14.995  0.1127 -0.3076 -0.2215
  276TMC3    O2 4179   1.456   0.776  14.770 -0.2193 -0.0124  0.2052
  277MPD2     C 4180   3.646   0.108  13.185  0.3608  0.1768  0.3061
  277MPD2    C1 4181   3.543   0.060  13.109  0.1520 -0.6634  0.2565
  277MPD2    C2 4182   3.454   4.694  13.167 -0.2240  0.0788  0.5296
  277MPD2    C3 4183   3.471   4.641  13.293 -0.1560 -0.1468  0.0150
  277MPD2    C4 4184   3.586   4.671  13.359 -0.0549  0.0941  0.2730
  277MPD2    C5 4185   3.667   0.048  13.309 -0.4530  0.1297  0.2150
  277MPD2     H 4186   3.380   4.649  13.102  0.0825  1.3233 -0.6713
  277MPD2    H1 4187   3.588   4.643  13.464 -0.5016  1.1631  0.5739
  277MPD2    H2 4188   3.721   0.177  13.150  0.5124 -0.0946  0.0944
  277MPD2    H3 4189   3.738   0.087  13.380 -0.9002  0.3973  0.5152
  277MPD2     N 4190   3.369   4.560  13.346 -0.3291  0.3098 -0.8917
  277MPD2    H5 4191   3.288   4.535  13.291  0.1345  1.2377 -2.0096
  277MPD2    N1 4192   3.518   0.127  12.986 -0.0679 -0.0174  0.1620
  277MPD2    H7 4193   3.586   0.197  12.956 -1.4586  1.1813 -0.2072
  278TMC3    C1 4194   3.225   4.461  13.493 -0.2306  0.2595  0.0897
  278TMC3    C2 4195   3.205   4.354  13.576 -1.3663 -0.0434  0.2208
  278TMC3    C3 4196   3.080   4.317  13.597 -0.1125 -0.4286 -1.2602
  278TMC3    C4 4197   3.119   4.523  13.423  0.5217 -0.4896  0.1886
  278TMC3    C5 4198   2.997   4.474  13.442 -0.5026  0.0799 -0.1478
  278TMC3    C6 4199   2.972   4.371  13.536  0.0791  0.2704  0.0455
  278TMC3     C 4200   3.362   4.496  13.470  0.2427 -0.3011  0.6870
  278TMC3     O 4201   3.442   4.498  13.562  0.0436 -0.2953  0.5493
  278TMC3     H 4202   3.286   4.301  13.626 -0.0133  0.4416 -1.4596
  278TMC3    H1 4203   3.126   4.610  13.359  0.3925  0.0335  0.8773
  278TMC3    H2 4204   2.872   4.353  13.574  0.0758 -2.6054 -1.3366
  278TMC3    C7 4205   2.889   4.554  13.396 -0.3675  1.2609  0.2700
  278TMC3    C8 4206   3.057   4.181  13.657 -0.3454 -0.5792 -0.0710
  278TMC3    O1 4207   2.910   4.636  13.306 -0.0942 -0.1833 -0.0296
  278TMC3    O2 4208   3.098   4.151  13.770 -0.4042  0.4069 -0.2098
  279MPD2     C 4209   2.519   0.552   0.787  0.2058  0.0314 -0.1020
  279MPD2    C1 4210   2.467   0.453   0.701  1.1806  0.1498  0.3413
  279MPD2    C2 4211   2.440   0.484   0.568  0.4644 -0.3604 -0.2094
  279MPD2    C3 4212   2.461   0.611   0.525  0.4557  0.1975 -0.2704
  279MPD2    C4 4213   2.510   0.707   0.610  0.2315  0.1522  0.0128
  279MPD2    C5 4214   2.550   0.678   0.740 -0.7389  0.3765  0.1276
  279MPD2     H 4215   2.384   0.409   0.512 -2.7561  0.1836  2.2775
  279MPD2    H1 4216   2.509   0.813   0.586 -0.9497 -0.2567 -1.7369
  279MPD2    H2 4217   2.548   0.530   0.889 -1.3383 -1.4674  0.0065
  279MPD2    H3 4218   2.588   0.751   0.811  1.8029  1.0260 -1.8931
  279MPD2     N 4219   2.419   0.665   0.398 -0.2935  0.1236  0.0408
  279MPD2    H5 4220   2.434   0.765   0.383 -1.5120  0.5660  1.7947
  279MPD2    N1 4221   2.448   0.326   0.760  0.4116  0.2308 -0.6483
  279MPD2    H7 4222   2.436   0.328   0.861 -1.1731  1.1217 -0.8451
  280TMC3    C1 4223   2.273   0.175   0.730  0.5691 -0.4587 -0.3881
  280TMC3    C2 4224   2.208   0.079   0.655  0.3938 -0.5905 -0.3002
  280TMC3    C3 4225   2.073   0.091   0.636  0.4344  0.3090 -0.2534
  280TMC3    C4 4226   2.194   0.263   0.799  0.8188  0.3909  0.2530
  280TMC3    C5 4227   2.063   0.281   0.766 -0.0335  0.4985  0.2347
  280TMC3    C6 4228   2.003   0.197   0.679 -0.9122 -0.0704  0.3087
  280TMC3     C 4229   2.403   0.220   0.684  0.0575  0.1910  0.5194
  280TMC3     O 4230   2.434   0.184   0.572 -0.0869 -0.0092 -0.1540
  280TMC3     H 4231   2.260   4.721   0.602  0.9039 -0.3216 -0.2074
  280TMC3    H1 4232   2.241   0.337   0.863 -1.2197  0.4000  1.7408
  280TMC3    H2 4233   1.898   0.203   0.652 -0.1403 -0.6867 -2.8284
  280TMC3    C7 4234   1.993   0.390   0.819 -0.2755  0.1742 -0.1377
  280TMC3    C8 4235   2.026   0.007   0.532  0.2943 -0.2260  0.4131
  280TMC3    O1 4236   2.041   0.436   0.922 -0.5022 -0.3436 -0.6594
  280TMC3    O2 4237   1.947   0.063   0.456 -0.4150  0.1945  0.0556
  281TMC3    C1 4238   0.817   0.574  13.829  0.6363  0.9765  0.2987
  281TMC3    C2 4239   0.796   0.568  13.689  0.0309  0.2409 -0.2034
  281TMC3    C3 4240   0.701   0.481  13.644 -0.0011 -0.2517  0.5484
  281TMC3    C4 4241   0.727   0.512  13.917 -0.0885 -0.6188  0.1365
  281TMC3    C5 4242   0.630   0.432  13.862  0.0000 -0.3310 -0.8358
  281TMC3    C6 4243   0.618   0.409  13.727  0.1703  0.0917 -0.0840
  281TMC3     C 4244   0.939   0.630  13.887  0.0441 -0.1869  0.5556
  281TMC3     O 4245   1.006   0.556  13.963 -0.4189 -0.6230 -0.4693
  281TMC3     H 4246   0.856   0.622  13.617 -1.9424 -2.6807 -4.0022
  281TMC3    H1 4247   0.733   0.528  14.024  1.5941 -2.8646  0.3839
  281TMC3    H2 4248   0.550   0.331  13.696 -1.8489  1.2847  1.3095
  281TMC3    C7 4249   0.583   0.329  13.955 -0.2684 -0.1737  0.5380
  281TMC3    C8 4250   0.718   0.417  13.520 -0.0308  0.2900 -0.2799
  281TMC3    O1 4251   0.570   0.362  14.070  0.1535  0.4301  0.0636
  281TMC3    O2 4252   0.625   0.343  13.490  0.3354 -0.4202  0.6989
  282MPD2     C 4253   3.256   1.756  15.400  0.0676  0.0255  0.0509
  282MPD2    C1 4254   3.132   1.805  15.392  0.0866  0.6316  0.6560
  282MPD2    C2 4255   3.081   1.856  15.271  0.2278 -0.5871 -0.1436
  282MPD2    C3 4256   3.153   1.834  15.153  0.6448 -0.5266 -0.1278
  282MPD2    C4 4257   3.283   1.788  15.162 -0.2738 -0.3661 -0.5487
  282MPD2    C5 4258   3.332   1.758  15.287  0.3945 -0.6199 -0.1798
  282MPD2     H 4259   2.978   1.888  15.268 -0.0496 -1.6434 -1.8967
  282MPD2    H1 4260   3.351   1.788  15.077 -1.2537  0.7969 -1.3248
  282MPD2    H2 4261   3.293   1.725  15.497  1.3411  0.9168 -0.1412
  282MPD2    H3 4262   3.435   1.724  15.287  0.2268 -1.1204 -1.0415
  282MPD2     N 4263   3.090   1.863  15.024 -0.4311  0.0484  0.3437
  282MPD2    H5 4264   3.003   1.915  15.028 -0.0807  0.5065  1.9049
  282MPD2    N1 4265   3.043   1.816  15.498 -0.6099  0.0562 -0.4759
  282MPD2    H7 4266   2.965   1.880  15.487  0.7203  1.7788  0.2865
  283TMC3    C1 4267   2.942   1.757  15.702  0.3992  0.4990  0.9561
  283TMC3    C2 4268   2.899   1.888  15.721  0.2373  0.0163  0.0604
  283TMC3    C3 4269   2.805   1.910  15.817  0.3876 -0.4104 -0.1166
  283TMC3    C4 4270   2.901   1.644  15.768 -0.1480  0.6366 -0.4432
  283TMC3    C5 4271   2.798   1.676  15.863 -0.3477 -0.0209  0.8039
  283TMC3    C6 4272   2.761   1.804  15.889  0.2119  0.4202  0.2705
  283TMC3     C 4273   3.056   1.743  15.613 -0.6297  0.3270 -0.2775
  283TMC3     O 4274   3.147   1.674  15.654 -0.3783  0.4554 -0.2720
  283TMC3     H 4275   2.941   1.970  15.664 -0.4202  0.5522  0.3494
  283TMC3    H1 4276   2.931   1.546  15.733  3.8131  1.7375 -0.1197
  283TMC3    H2 4277   2.691   1.825  15.969 -0.2150  2.8205 -0.7414
  283TMC3    C7 4278   2.732   1.569  15.924 -0.0469 -0.4202 -0.5502
  283TMC3    C8 4279   2.726   2.040  15.822 -0.2738 -0.8119  0.5194
  283TMC3    O1 4280   2.701   1.595  16.039 -0.0812 -0.5424 -0.3458
  283TMC3    O2 4281   2.635   2.054  15.907  0.1574 -0.4585 -0.1472
  284MPD2     C 4282   1.304   0.863  11.404  0.0982  0.2910 -0.2772
  284MPD2    C1 4283   1.348   0.970  11.482 -0.0410 -0.2357  0.1067
  284MPD2    C2 4284   1.349   0.963  11.619  0.2959  1.0479 -0.0770
  284MPD2    C3 4285   1.313   0.851  11.680 -0.4895  0.8149 -0.3538
  284MPD2    C4 4286   1.269   0.743  11.606 -0.0778  0.1403 -0.0814
  284MPD2    C5 4287   1.257   0.753  11.469 -0.6822 -0.2147 -0.0755
  284MPD2     H 4288   1.390   1.049  11.671  1.2754  0.8883 -0.5799
  284MPD2    H1 4289   1.238   0.647  11.645 -0.7468  0.1512 -0.5873
  284MPD2    H2 4290   1.289   0.864  11.297  2.3308 -0.6438 -0.5981
  284MPD2    H3 4291   1.218   0.665  11.418  1.0973 -0.5942 -0.7960
  284MPD2     N 4292   1.341   0.848  11.817 -0.8086 -0.2199 -0.1267
  284MPD2    H5 4293   1.386   0.934  11.848  0.8801 -2.0924  2.6252
  284MPD2    N1 4294   1.403   1.080  11.405 -0.2017  0.5769  0.5316
  284MPD2    H7 4295   1.407   1.080  11.304 -0.5923 -1.1754  0.5145
  285TMC3    C1 4296   1.603   1.198  11.375 -0.8922  0.5003  0.2252
  285TMC3    C2 4297   1.659   1.071  11.354 -0.0856 -0.1377 -0.0176
  285TMC3    C3 4298   1.791   1.053  11.362  0.3896  0.9166  0.2975
  285TMC3    C4 4299   1.684   1.299  11.420  0.4148  0.0414  0.3046
  285TMC3    C5 4300   1.818   1.273  11.420  0.1708  0.5286  0.6295
  285TMC3    C6 4301   1.878   1.157  11.378 -0.0688  0.0501  0.0331
  285TMC3     C 4302   1.487   1.179  11.461  0.2909  0.6702 -0.1989
  285TMC3     O 4303   1.505   1.211  11.579  0.2460 -0.1895  0.4333
  285TMC3     H 4304   1.600   0.986  11.322  2.2063 -1.2534 -1.3038
  285TMC3    H1 4305   1.638   1.383  11.470 -0.0698  0.5083 -0.9083
  285TMC3    H2 4306   1.984   1.146  11.358 -0.1155 -0.8079  0.2575
  285TMC3    C7 4307   1.894   1.383  11.473  0.2315 -0.0265  0.5538
  285TMC3    C8 4308   1.840   0.918  11.389 -0.9464  0.3383 -0.1500
  285TMC3    O1 4309   1.838   1.490  11.460 -0.1520  0.0123 -0.3754
  285TMC3    O2 4310   1.764   0.831  11.362  0.5924 -0.1813  0.4511
  286MPD2     C 4311   1.249   4.497   1.764 -0.3265 -0.0466 -0.5309
  286MPD2    C1 4312   1.248   4.488   1.623 -0.0730 -0.7384 -0.3995
  286MPD2    C2 4313   1.355   4.425   1.557  0.4414 -0.2165 -0.0121
  286MPD2    C3 4314   1.450   4.350   1.623  0.0447 -0.3124  0.8550
  286MPD2    C4 4315   1.445   4.355   1.761 -0.2108 -0.4127  0.0024
  286MPD2    C5 4316   1.351   4.430   1.825  0.2785 -0.3795  0.4769
  286MPD2     H 4317   1.336   4.419   1.451 -1.4044 -0.4527  0.3369
  286MPD2    H1 4318   1.521   4.309   1.824 -1.5919 -0.3920  1.6679
  286MPD2    H2 4319   1.172   4.552   1.818  0.3153  0.3110  0.0162
  286MPD2    H3 4320   1.367   4.447   1.931 -0.8856 -1.4123  0.8158
  286MPD2     N 4321   1.543   4.264   1.565 -0.2131 -0.1920 -0.2039
  286MPD2    H5 4322   1.587   4.199   1.629  0.0927  1.4769  1.2845
  286MPD2    N1 4323   1.149   4.555   1.552 -0.4467 -0.2180 -0.4500
  286MPD2    H7 4324   1.155   4.562   1.451 -1.0164  0.0106 -0.4686
  287TMC3    C1 4325   1.617   4.111   1.420 -0.3304 -0.4281  0.0011
  287TMC3    C2 4326   1.597   4.050   1.298 -0.3573 -0.3822  0.6198
  287TMC3    C3 4327   1.652   3.931   1.272  0.1897  0.2081 -0.1923
  287TMC3    C4 4328   1.692   4.055   1.517 -0.4668  0.0350  0.6443
  287TMC3    C5 4329   1.764   3.944   1.480  0.6987 -0.5781  0.1144
  287TMC3    C6 4330   1.738   3.875   1.363 -0.1625  0.4426 -0.1567
  287TMC3     C 4331   1.549   4.243   1.429  0.4839 -0.3144 -0.7066
  287TMC3     O 4332   1.487   4.296   1.335  0.6845 -0.3926 -0.3937
  287TMC3     H 4333   1.537   4.100   1.222  1.1464 -0.3691 -0.5409
  287TMC3    H1 4334   1.729   4.111   1.602 -0.5670 -1.5501  1.7368
  287TMC3    H2 4335   1.792   3.781   1.350  1.6024  1.4112  0.1360
  287TMC3    C7 4336   1.886   3.913   1.555  0.3931 -0.0834  0.6613
  287TMC3    C8 4337   1.617   3.850   1.161 -0.0687  0.4474 -0.0620
  287TMC3    O1 4338   1.881   3.948   1.673 -0.5449 -0.1030 -0.2442
  287TMC3    O2 4339   1.629   3.730   1.173  0.6036  0.1534  0.2152
  288TMC3    C1 4340   3.568   4.094  14.855  0.2729  0.1233  0.0220
  288TMC3    C2 4341   3.464   4.118  14.932 -0.2489 -0.3461 -0.2168
  288TMC3    C3 4342   3.347   4.064  14.901 -0.6058  0.2939 -0.1549
  288TMC3    C4 4343   3.549   4.034  14.732  0.2759 -0.5515  0.1624
  288TMC3    C5 4344   3.419   4.011  14.690 -0.1932 -0.2438 -0.0099
  288TMC3    C6 4345   3.314   4.013  14.780 -0.1156  0.1527 -0.0638
  288TMC3     C 4346   3.699   4.138  14.898 -0.1176  0.4623  0.3582
  288TMC3     O 4347   3.717   4.153  15.018  0.1256 -0.7149 -0.5080
  288TMC3     H 4348   3.478   4.168  15.027  1.9636 -0.6260 -0.4086
  288TMC3    H1 4349   3.629   4.025  14.660  1.6077  2.5806  1.2175
  288TMC3    H2 4350   3.209   3.994  14.762 -0.0764 -1.2229  1.1317
  288TMC3    C7 4351   3.404   3.928  14.570  0.2056 -0.3623  0.4417
  288TMC3    C8 4352   3.241   4.102  14.984 -0.8317 -0.0545  0.0642
  288TMC3    O1 4353   3.488   3.930  14.485  0.1735  0.1955 -0.2853
  288TMC3    O2 4354   3.246   4.209  15.042  0.4337  0.5259 -0.0330
  289MPD2     C 4355   3.385   3.328  14.430  0.4949 -0.7898  0.1915
  289MPD2    C1 4356   3.378   3.406  14.542 -0.1766  0.3633 -0.1868
  289MPD2    C2 4357   3.255   3.422  14.608  0.3705  0.3357 -0.6669
  289MPD2    C3 4358   3.140   3.358  14.556 -0.1003 -0.3127 -0.3675
  289MPD2    C4 4359   3.156   3.271  14.453 -0.3865  0.1807 -0.4521
  289MPD2    C5 4360   3.279   3.253  14.390  0.3895 -0.1593  0.6193
  289MPD2     H 4361   3.252   3.476  14.702  1.9244  1.7650 -1.4465
  289MPD2    H1 4362   3.070   3.226  14.404 -0.4040  1.3591 -1.5147
  289MPD2    H2 4363   3.471   3.328  14.364  1.1257  0.3203  1.0206
  289MPD2    H3 4364   3.283   3.192  14.301 -2.3517  1.9970 -0.9677
  289MPD2     N 4365   3.013   3.366  14.610  0.7073 -0.3622  0.2197
  289MPD2    H5 4366   2.947   3.300  14.570  0.8281 -0.3515  0.0056
  289MPD2    N1 4367   3.500   3.475  14.572 -0.2492 -0.1885  0.3805
  289MPD2    H7 4368   3.575   3.464  14.503 -2.2041  2.0947 -2.1163
  290TMC3    C1 4369   2.840   3.460  14.738 -0.2003 -0.0829 -0.1587
  290TMC3    C2 4370   2.791   3.579  14.778  0.3263  1.5136  0.1792
  290TMC3    C3 4371   2.660   3.595  14.776  0.0914 -0.1541  0.4076
  290TMC3    C4 4372   2.762   3.360  14.687  0.0374 -0.2216  0.3326
  290TMC3    C5 4373   2.627   3.395  14.671  0.2420  0.5849  0.3774
  290TMC3    C6 4374   2.573   3.511  14.712 -0.9422  0.3350  0.4642
  290TMC3     C 4375   2.975   3.463  14.702  0.4640 -0.0601  0.3222
  290TMC3     O 4376   3.042   3.561  14.737 -0.0569 -0.2880 -0.7820
  290TMC3     H 4377   2.850   3.650  14.835  1.6279  0.3921  0.2129
  290TMC3    H1 4378   2.797   3.260  14.664 -3.1491 -1.0824 -0.7030
  290TMC3    H2 4379   2.466   3.528  14.708 -1.1564 -1.0858  0.1622
  290TMC3    C7 4380   2.538   3.277  14.670 -0.1262  0.3934  0.6255
  290TMC3    C8 4381   2.600   3.694  14.862  0.2593 -0.0569 -0.0797
  290TMC3    O1 4382   2.438   3.277  14.741 -0.4078  0.0658  0.1547
  290TMC3    O2 4383   2.483   3.674  14.899  0.2151  0.2249  0.3746
  291MPD2     C 4384   3.354   3.443   0.470 -0.0977 -0.7312  0.3898
  291MPD2    C1 4385   3.259   3.341   0.465 -0.0358 -0.2531  0.3801
  291MPD2    C2 4386   3.154   3.351   0.372 -0.2520  0.9113  0.4016
  291MPD2    C3 4387   3.144   3.469   0.298 -0.0788 -0.0380 -0.6404
  291MPD2    C4 4388   3.236   3.569   0.313 -0.4411  0.7238  0.3917
  291MPD2    C5 4389   3.341   3.550   0.390 -0.4461  0.5442  0.0249
  291MPD2     H 4390   3.086   3.268   0.360  0.6002  0.2957 -0.0836
  291MPD2    H1 4391   3.239   3.658   0.252  2.1715  0.6675  0.4503
  291MPD2    H2 4392   3.442   3.425   0.530 -0.5377 -0.6389  1.0577
  291MPD2    H3 4393   3.423   3.618   0.370 -0.0519 -0.0755 -0.4584
  291MPD2     N 4394   3.041   3.484   0.202  0.7703  0.1088  0.6046
  291MPD2    H5 4395   3.024   3.577   0.163  2.4088  0.2551  0.2389
  291MPD2    N1 4396   3.260   3.239   0.565  0.6907 -0.3193  0.6521
  291MPD2    H7 4397   3.205   3.157   0.542 -0.0417  1.1859 -2.9481
  292TMC3    C1 4398   3.334   3.107   0.739 -0.8298 -0.7004 -0.4614
  292TMC3    C2 4399   3.347   3.122   0.876  0.4611 -0.3393  0.7743
  292TMC3    C3 4400   3.328   3.002   0.949 -0.1360  0.1075  0.7152
  292TMC3    C4 4401   3.299   2.994   0.672 -0.0941  0.0299  0.5623
  292TMC3    C5 4402   3.291   2.879   0.746  0.6333 -0.5031 -0.8044
  292TMC3    C6 4403   3.310   2.883   0.880 -0.4619  0.6077  0.1747
  292TMC3     C 4404   3.335   3.240   0.678 -0.4096  0.0943 -0.1940
  292TMC3     O 4405   3.384   3.340   0.735 -0.6600 -0.3473  0.3334
  292TMC3     H 4406   3.354   3.215   0.931 -3.5750  0.4942 -0.1638
  292TMC3    H1 4407   3.290   2.996   0.564  2.2108 -1.3508  0.3509
  292TMC3    H2 4408   3.302   2.794   0.941  1.1908  0.2223 -0.1773
  292TMC3    C7 4409   3.162   2.799   0.729 -0.2532  0.1685  0.9559
  292TMC3    C8 4410   3.248   3.014   1.068 -0.0753 -0.4052  0.1802
  292TMC3    O1 4411   3.119   2.756   0.835 -0.3460 -0.1709  0.0552
  292TMC3    O2 4412   3.269   3.124   1.119 -0.0883  0.0303  0.2647
  293MPD2     C 4413   4.565   4.713  13.123 -0.2568  0.4887 -0.6485
  293MPD2    C1 4414   4.579   4.586  13.185 -0.4545  0.2840  0.9037
  293MPD2    C2 4415   4.588   4.585  13.324 -0.2357 -0.1123  0.1028
  293MPD2    C3 4416   4.591   4.695  13.405 -0.3724 -0.3166  0.1609
  293MPD2    C4 4417   4.598   0.088  13.337  0.1694 -0.0949  0.3738
  293MPD2    C5 4418   4.580   0.103  13.198  0.7220 -0.7473  0.4961
  293MPD2     H 4419   4.588   4.494  13.383  0.0919 -0.1087  0.1064
  293MPD2    H1 4420   4.602   0.183  13.389  1.8209 -0.8029  1.5354
  293MPD2    H2 4421   4.543   0.009  13.018 -1.0244 -0.2758 -0.6174
  293MPD2    H3 4422   4.578   0.202  13.154  0.9139 -0.8692  0.2100
  293MPD2     N 4423   4.585   4.687  13.544 -0.5239 -0.0047 -0.4580
  293MPD2    H5 4424   4.578   4.594  13.583 -0.1054 -0.1244 -0.6704
  293MPD2    N1 4425   4.575   4.471  13.118  0.5784 -0.5388  0.4814
  293MPD2    H7 4426   4.545   4.471  13.021 -3.6457  1.2372  1.7832
  294TMC3    C1 4427   4.581   4.238  13.084  0.1107  0.0266  0.6986
  294TMC3    C2 4428   4.606   4.115  13.139  0.2157 -0.1996  0.2268
  294TMC3    C3 4429   4.556   4.007  13.067  0.5458  0.7783 -0.5650
  294TMC3    C4 4430   4.538   4.250  12.959 -0.4111 -0.6420  0.7158
  294TMC3    C5 4431   4.479   4.143  12.898 -0.4351  0.5073  0.0276
  294TMC3    C6 4432   4.490   4.013  12.946 -0.5806 -0.2524  0.1832
  294TMC3     C 4433   4.612   4.351  13.171 -1.2941  0.0860  0.1543
  294TMC3     O 4434   4.660   4.326  13.284  0.0783 -0.0379  0.2208
  294TMC3     H 4435   4.636   4.102  13.242 -2.0354 -0.5682  0.8341
  294TMC3    H1 4436   4.548   4.347  12.911 -3.2397 -0.6196  0.1817
  294TMC3    H2 4437   4.442   3.929  12.899 -1.3611  2.0486 -3.0954
  294TMC3    C7 4438   4.391   4.147  12.787  0.1028 -0.5075  0.1607
  294TMC3    C8 4439   4.527   3.895  13.146  0.4996 -0.2336  0.1094
  294TMC3    O1 4440   4.306   4.060  12.779  0.1867 -0.2504 -0.6823
  294TMC3    O2 4441   4.528   3.894  13.267  0.2765  0.3483  0.5372
  295MPD2     C 4442   4.651   2.635   1.285 -0.1290 -1.0649  0.3205
  295MPD2    C1 4443   0.037   2.639   1.200  0.7808 -0.0889  0.0634
  295MPD2    C2 4444   0.147   2.566   1.239  0.0760 -0.0108 -0.0865
  295MPD2    C3 4445   0.142   2.496   1.354 -0.1818 -0.8194 -0.5273
  295MPD2    C4 4446   0.024   2.479   1.420  0.1227 -0.7865 -0.1982
  295MPD2    C5 4447   4.637   2.545   1.387  0.0021 -0.0551  0.2905
  295MPD2     H 4448   0.235   2.574   1.177 -0.3770  2.8517 -0.3405
  295MPD2    H1 4449   0.023   2.415   1.507 -0.0111  0.5241  0.7615
  295MPD2    H2 4450   4.561   2.693   1.268  0.1973 -0.0899  1.9103
  295MPD2    H3 4451   4.547   2.538   1.447 -1.5399 -1.8043 -2.2508
  295MPD2     N 4452   0.253   2.421   1.405  0.2991  0.4180  0.0820
  295MPD2    H5 4453   0.233   2.358   1.482 -0.8058  0.1005 -0.4674
  295MPD2    N1 4454   0.049   2.717   1.079  0.1895  0.3230  0.4930
  295MPD2    H7 4455   0.135   2.704   1.028 -1.6411 -0.5793 -2.3760
  296TMC3    C1 4456   0.470   2.318   1.419 -0.0904  0.6033  0.4851
  296TMC3    C2 4457   0.608   2.308   1.380  0.2576  0.1682  0.4282
  296TMC3    C3 4458   0.686   2.212   1.443  0.6303 -0.2016 -0.1218
  296TMC3    C4 4459   0.420   2.222   1.499  0.0369 -0.0923  0.5767
  296TMC3    C5 4460   0.498   2.120   1.546  0.2065  0.4167  0.6419
  296TMC3    C6 4461   0.627   2.112   1.511  0.4894 -0.5240 -0.5784
  296TMC3     C 4462   0.383   2.413   1.353 -0.1335 -0.1080 -0.4725
  296TMC3     O 4463   0.433   2.469   1.253 -0.8175  0.1291  0.6125
  296TMC3     H 4464   0.649   2.390   1.322  0.8022 -0.5337 -0.1819
  296TMC3    H1 4465   0.321   2.219   1.542 -0.7455  2.6399 -1.0214
  296TMC3    H2 4466   0.701   2.049   1.558 -1.3946 -2.3199 -0.0224
  296TMC3    C7 4467   0.453   2.031   1.646  0.0863  0.4011  0.1419
  296TMC3    C8 4468   0.834   2.234   1.453  0.3198  0.5187 -0.2474
  296TMC3    O1 4469   0.541   1.977   1.710 -0.4522 -0.2777 -0.0358
  296TMC3    O2 4470   0.901   2.133   1.469 -0.2796  0.0789 -0.0737
  297MPD2     C 4471   2.126   0.439  17.038 -0.3727 -0.3167  0.2329
  297MPD2    C1 4472   2.146   0.427  16.903 -0.5683  0.4190  0.5369
  297MPD2    C2 4473   2.225   0.520  16.839  0.4892 -0.4777  0.6222
  297MPD2    C3 4474   2.266   0.638  16.904  0.3826 -0.3808  0.3515
  297MPD2    C4 4475   2.232   0.653  17.037  0.4871 -0.4648 -0.1559
  297MPD2    C5 4476   2.166   0.551  17.096 -0.1213  0.7367  0.7773
  297MPD2     H 4477   2.233   0.511  16.732  1.0670  0.5995  0.5756
  297MPD2    H1 4478   2.251   0.743  17.095 -0.7814 -1.3357  1.6326
  297MPD2    H2 4479   2.072   0.367  17.099  0.1183 -2.0979 -1.4702
  297MPD2    H3 4480   2.148   0.565  17.202  1.8402 -0.1264  1.2091
  297MPD2     N 4481   2.330   0.736  16.829  0.9231  0.4936 -0.1292
  297MPD2    H5 4482   2.354   0.715  16.732  1.7032  0.7755  0.0027
  297MPD2    N1 4483   2.093   0.326  16.824  0.0083  0.3157  0.6687
  297MPD2    H7 4484   2.095   0.357  16.727  1.5525 -2.7973 -0.2739
  298TMC3    C1 4485   1.907   0.189  16.788  0.3189  0.8007 -0.1188
  298TMC3    C2 4486   1.920   0.155  16.656  0.3983  0.2439 -0.3361
  298TMC3    C3 4487   1.810   0.177  16.570 -0.1201 -0.1507  0.2666
  298TMC3    C4 4488   1.788   0.242  16.839  0.2797 -0.2560 -0.4077
  298TMC3    C5 4489   1.676   0.239  16.754  0.0903  0.0073 -0.3065
  298TMC3    C6 4490   1.692   0.222  16.618 -0.1413 -0.5826 -0.1740
  298TMC3     C 4491   2.030   0.214  16.867 -0.3217 -0.3292  0.3281
  298TMC3     O 4492   2.035   0.151  16.972 -0.5805  0.1461 -0.0396
  298TMC3     H 4493   2.011   0.106  16.623  0.9582 -0.2186  1.8867
  298TMC3    H1 4494   1.782   0.273  16.943 -0.5882  0.0678 -0.5554
  298TMC3    H2 4495   1.611   0.239  16.549  1.0448  1.4210 -1.0589
  298TMC3    C7 4496   1.589   0.351  16.786  0.1037 -0.4446  0.0143
  298TMC3    C8 4497   1.820   0.157  16.426 -0.1841  0.4655  0.5401
  298TMC3    O1 4498   1.638   0.452  16.836  0.1255  1.0964 -0.7603
  298TMC3    O2 4499   1.718   0.177  16.356  0.1097 -0.4772 -0.5756
  299MPD2     C 4500   3.425   4.432  10.914 -0.6538  0.4664  0.1692
  299MPD2    C1 4501   3.372   4.548  10.864  1.0837 -0.6556  0.4598
  299MPD2    C2 4502   3.262   4.538  10.781 -0.9118 -0.0970 -0.6654
  299MPD2    C3 4503   3.205   4.417  10.742  0.1881 -0.0606 -0.0320
  299MPD2    C4 4504   3.271   4.307  10.778 -0.0220 -0.6984 -0.6149
  299MPD2    C5 4505   3.374   4.314  10.865 -0.7456 -0.1374 -0.4599
  299MPD2     H 4506   3.224   4.636  10.755 -3.0030 -1.0568 -1.2052
  299MPD2    H1 4507   3.217   4.216  10.753 -0.0175 -0.7014 -0.6137
  299MPD2    H2 4508   3.501   4.409  10.988 -1.9532 -3.0999  0.3935
  299MPD2    H3 4509   3.421   4.223  10.901 -0.8068  0.7417  1.7999
  299MPD2     N 4510   3.077   4.402  10.677 -0.0781  0.1296 -0.3752
  299MPD2    H5 4511   3.034   4.310  10.686 -1.9089  0.7248 -2.9764
  299MPD2    N1 4512   3.426   4.670  10.911  0.0990 -0.4338  0.0612
  299MPD2    H7 4513   3.497   4.667  10.984  0.6805  3.6978 -0.3402
  300TMC3    C1 4514   2.881   4.487  10.578 -0.2257 -0.5637 -0.1796
  300TMC3    C2 4515   2.827   4.592  10.501 -0.4918  0.5047  0.4238
  300TMC3    C3 4516   2.693   4.607  10.504  0.2544 -0.2802  0.5766
  300TMC3    C4 4517   2.806   4.412  10.661  0.2995  0.8449 -0.2063
  300TMC3    C5 4518   2.668   4.438  10.666  0.7802  0.0417 -0.4306
  300TMC3    C6 4519   2.614   4.545  10.594 -0.4370 -0.2821  0.0448
  300TMC3     C 4520   3.016   4.505  10.615 -0.6292 -0.1775 -0.8111
  300TMC3     O 4521   3.063   4.613  10.579 -0.0184 -0.3021  1.0016
  300TMC3     H 4522   2.888   4.652  10.434  0.5174 -1.8882 -0.8262
  300TMC3    H1 4523   2.843   4.338  10.731  0.0697  1.1160  0.2068
  300TMC3    H2 4524   2.508   4.570  10.601 -0.4423 -0.0024 -0.9701
  300TMC3    C7 4525   2.596   4.374  10.776  0.9598  0.6948 -0.1983
  300TMC3    C8 4526   2.648   0.018  10.456  0.6419  0.3328  0.2731
  300TMC3    O1 4527   2.639   4.267  10.816  0.0141  0.3509 -0.0467
  300TMC3    O2 4528   2.729   0.109  10.466  0.0571 -0.0622  0.0597
  301MPD2     C 4529   0.520   1.407   2.070 -0.6047 -0.0607  0.3383
  301MPD2    C1 4530   0.432   1.353   1.983 -0.3107 -0.7451  0.7815
  301MPD2    C2 4531   0.369   1.232   2.010  0.3740  0.1819  0.2446
  301MPD2    C3 4532   0.406   1.152   2.117  0.0634  0.2177  0.0950
  301MPD2    C4 4533   0.504   1.207   2.197 -0.3255 -0.8594  0.1413
  301MPD2    C5 4534   0.559   1.330   2.179 -0.0244  0.2761  0.3681
  301MPD2     H 4535   0.309   1.187   1.931 -0.1079  1.9051 -0.3531
  301MPD2    H1 4536   0.538   1.147   2.281  1.0583  0.8593  0.8154
  301MPD2    H2 4537   0.563   1.505   2.053 -0.2666  0.0085  1.5743
  301MPD2    H3 4538   0.630   1.359   2.255  0.9408 -1.5938  0.2030
  301MPD2     N 4539   0.365   1.019   2.143  0.6265 -0.2230  0.8007
  301MPD2    H5 4540   0.401   0.971   2.225  1.1949 -0.9172  0.1482
  301MPD2    N1 4541   0.395   1.409   1.862  0.9168  0.4964  0.5431
  301MPD2    H7 4542   0.323   1.356   1.814 -0.5123 -0.1611  3.3942
  302TMC3    C1 4543   0.274   0.816   2.106 -0.1043 -0.3173 -0.0789
  302TMC3    C2 4544   0.384   0.753   2.147  0.0956  0.0668  0.4215
  302TMC3    C3 4545   0.383   0.616   2.150 -0.4926  0.7273  0.2932
  302TMC3    C4 4546   0.166   0.751   2.058 -0.6240  0.3604  0.2666
  302TMC3    C5 4547   0.169   0.617   2.071  0.0947 -0.7500  0.5605
  302TMC3    C6 4548   0.274   0.545   2.119  0.3486  0.1949  0.3803
  302TMC3     C 4549   0.275   0.950   2.069 -0.3674 -0.7737 -0.1750
  302TMC3     O 4550   0.208   0.985   1.972  0.5919 -0.0045  0.6803
  302TMC3     H 4551   0.479   0.804   2.157 -0.1956  0.7926 -0.5324
  302TMC3    H1 4552   0.072   0.801   2.037 -0.3301  0.0964 -1.6055
  302TMC3    H2 4553   0.280   0.439   2.100 -1.1575 -0.1899  2.0334
  302TMC3    C7 4554   0.069   0.534   2.001 -1.1899  0.7372  0.5808
  302TMC3    C8 4555   0.501   0.554   2.136  0.2132  0.2088  0.3799
  302TMC3    O1 4556   0.090   0.414   1.993 -0.2844  0.2196 -0.0304
  302TMC3    O2 4557   0.592   0.613   2.086  0.4449  0.2942 -0.2444
  303MPD2     C 4558   0.637   4.583  10.123 -0.5642 -0.9665  0.0342
  303MPD2    C1 4559   0.539   4.520  10.046  0.0674 -0.3092  0.4500
  303MPD2    C2 4560   0.493   4.600   9.942  0.0655 -0.4076  0.5809
  303MPD2    C3 4561   0.528   0.008   9.914  0.1032  0.4085  0.1829
  303MPD2    C4 4562   0.622   0.065   9.994 -0.0974  0.6031  0.0507
  303MPD2    C5 4563   0.670   4.710  10.101  0.4473  0.5465  1.1735
  303MPD2     H 4564   0.422   4.556   9.872 -0.6228  0.4009  0.7723
  303MPD2    H1 4565   0.661   0.166   9.984  0.8194  0.1032 -1.3963
  303MPD2    H2 4566   0.687   4.530  10.203 -1.3330  0.1078  1.2328
  303MPD2    H3 4567   0.741   0.033  10.169 -0.5866 -0.1853  2.7346
  303MPD2     N 4568   0.470   0.080   9.811 -0.1972 -0.2644 -0.1150
  303MPD2    H5 4569   0.517   0.167   9.788 -0.5804 -0.7860 -2.8978
  303MPD2    N1 4570   0.490   4.387  10.069 -0.3253 -0.0809  0.3877
  303MPD2    H7 4571   0.527   4.349  10.155  0.0685  0.2939  0.3826
  304TMC3    C1 4572   0.327   4.228  10.104  0.0727  0.6913  0.7328
  304TMC3    C2 4573   0.309   4.272  10.234 -0.6609  0.5824 -0.3811
  304TMC3    C3 4574   0.212   4.214  10.306 -0.6698 -0.9621  0.3012
  304TMC3    C4 4575   0.268   4.118  10.057 -0.0479 -0.5395  0.0938
  304TMC3    C5 4576   0.179   4.053  10.138  0.3497  0.3213 -0.4176
  304TMC3    C6 4577   0.155   4.093  10.266 -0.6293  0.7245  0.0266
  304TMC3     C 4578   0.386   4.326  10.010  0.0887  0.0664  0.6998
  304TMC3     O 4579   0.313   4.355   9.915  0.5913 -0.4538  0.0506
  304TMC3     H 4580   0.327   4.377  10.249  0.3265 -0.2083  4.0426
  304TMC3    H1 4581   0.270   4.093   9.952 -0.5301  0.4252 -0.1399
  304TMC3    H2 4582   0.082   4.042  10.328 -0.0066 -0.8852 -0.5655
  304TMC3    C7 4583   0.070   3.996  10.069  0.6335  0.0323  0.0168
  304TMC3    C8 4584   0.098   4.305  10.334 -0.7849  0.6298 -0.8082
  304TMC3    O1 4585   0.091   3.923   9.976 -0.0293  0.0450  0.4341
  304TMC3    O2 4586   4.709   4.262  10.302 -0.4900 -0.0156  0.1784
  305MPD2     C 4587   2.834   1.772  14.021  0.1294  0.2127 -0.8339
  305MPD2    C1 4588   2.966   1.776  13.981 -0.4134  0.3718  0.4933
  305MPD2    C2 4589   3.006   1.725  13.859 -0.5260 -0.3505  0.3985
  305MPD2    C3 4590   2.910   1.664  13.781 -0.0819 -0.2516  0.0591
  305MPD2    C4 4591   2.774   1.646  13.826  0.2536  0.1650  0.1247
  305MPD2    C5 4592   2.740   1.713  13.939 -0.3599 -0.3476 -0.1605
  305MPD2     H 4593   3.105   1.745  13.819 -1.1114  1.3998 -0.1746
  305MPD2    H1 4594   2.703   1.598  13.760  0.8898 -1.5197  0.6584
  305MPD2    H2 4595   2.789   1.823  14.105  0.2630 -0.9544 -0.0488
  305MPD2    H3 4596   2.636   1.698  13.967 -0.1910  0.3775  0.8223
  305MPD2     N 4597   2.941   1.599  13.662  1.4809  0.0862 -0.3363
  305MPD2    H5 4598   2.870   1.591  13.590  1.1575  0.3307 -0.0418
  305MPD2    N1 4599   3.049   1.839  14.079  0.5937 -0.3055  0.0442
  305MPD2    H7 4600   3.006   1.890  14.156 -0.5105  0.1410 -0.8764
  306TMC3    C1 4601   3.250   1.930  14.171  0.8365 -0.2743  0.0168
  306TMC3    C2 4602   3.391   1.930  14.178  0.0012 -0.1813 -0.2637
  306TMC3    C3 4603   3.460   1.996  14.278 -0.4089 -0.1475 -0.0908
  306TMC3    C4 4604   3.178   1.989  14.267  0.2157 -0.8450  0.0017
  306TMC3    C5 4605   3.251   2.053  14.367 -0.3739  0.6539 -0.1160
  306TMC3    C6 4606   3.386   2.058  14.376  0.1049  0.7274  0.1458
  306TMC3     C 4607   3.184   1.837  14.075  0.5322  0.2767  0.2821
  306TMC3     O 4608   3.256   1.759  14.014  0.2987 -0.2670 -0.4595
  306TMC3     H 4609   3.441   1.873  14.101 -0.8863 -1.0667 -0.1885
  306TMC3    H1 4610   3.071   2.004  14.266  0.1933 -1.1311 -2.1544
  306TMC3    H2 4611   3.443   2.123  14.442  0.9280 -1.0077  1.1386
  306TMC3    C7 4612   3.176   2.127  14.467  0.3705 -0.0302  0.2623
  306TMC3    C8 4613   3.598   1.952  14.303 -0.1836 -0.2161  0.1981
  306TMC3    O1 4614   3.059   2.141  14.438 -0.4968  0.3637  0.0066
  306TMC3    O2 4615   3.632   1.972  14.421 -0.4764 -0.1307 -0.1967
  307MPD2     C 4616   1.657   4.251   0.436 -0.0304  0.0047 -0.1991
  307MPD2    C1 4617   1.537   4.185   0.404  0.4228  0.3098  0.3022
  307MPD2    C2 4618   1.425   4.222   0.471 -0.5494 -0.2040  0.5625
  307MPD2    C3 4619   1.429   4.319   0.570 -0.4698  0.3259  0.3209
  307MPD2    C4 4620   1.540   4.386   0.598 -0.1830  0.0196  0.1366
  307MPD2    C5 4621   1.658   4.342   0.539  0.6051 -0.4960  0.1098
  307MPD2     H 4622   1.329   4.181   0.442  0.0056 -1.7322  0.8695
  307MPD2    H1 4623   1.547   4.465   0.672 -1.3883 -0.4461  0.7511
  307MPD2    H2 4624   1.753   4.216   0.399 -0.1614  0.1714 -0.6905
  307MPD2    H3 4625   1.756   4.379   0.565 -0.1666  1.8462 -0.3487
  307MPD2     N 4626   1.304   4.357   0.623 -1.0597 -0.3608  0.2899
  307MPD2    H5 4627   1.223   4.299   0.602 -1.3318  0.2253 -0.2853
  307MPD2    N1 4628   1.527   4.094   0.295 -0.6605 -0.2797 -0.5602
  307MPD2    H7 4629   1.432   4.065   0.275 -0.5958 -0.5784 -0.4415
  308TMC3    C1 4630   0.945   4.349   0.687 -0.1595  0.1482 -0.1477
  308TMC3    C2 4631   0.914   4.429   0.578 -0.4450 -0.5434 -0.1487
  308TMC3    C3 4632   0.979   4.554   0.568  0.2950 -0.9658  0.4583
  308TMC3    C4 4633   1.065   4.361   0.746 -0.5129 -0.2791 -0.0586
  308TMC3    C5 4634   1.139   4.474   0.722  0.0929  0.1241  0.0998
  308TMC3    C6 4635   1.096   4.576   0.643 -0.0748 -0.5892  0.2963
  308TMC3     C 4636   0.845   4.263   0.746  0.4178  0.2166 -0.5971
  308TMC3     O 4637   0.886   4.169   0.810  0.1833 -0.2109  0.1538
  308TMC3     H 4638   0.819   4.408   0.531 -0.2126  0.2736 -0.9977
  308TMC3    H1 4639   1.098   4.289   0.821 -1.1099  0.8344  1.2750
  308TMC3    H2 4640   1.153   4.668   0.644  0.4656 -0.9238  0.3341
  308TMC3    C7 4641   1.283   4.459   0.716  0.1421  0.1028 -1.4780
  308TMC3    C8 4642   0.943   4.648   0.469 -0.7381 -0.3063  0.0141
  308TMC3    O1 4643   1.349   4.566   0.735 -0.0326 -0.4327  0.1494
  308TMC3    O2 4644   0.957   0.047   0.483 -0.3932  0.5649  0.9186
  309MPD2     C 4645   0.211   4.529  17.195  0.5761  0.1485  0.5640
  309MPD2    C1 4646   0.156   4.647  17.151 -0.1685 -0.0921  0.1158
  309MPD2    C2 4647   0.027   4.683  17.198 -0.5693  0.4086 -0.1580
  309MPD2    C3 4648   4.671   4.595  17.270  0.1661  0.7243  0.3782
  309MPD2    C4 4649   0.005   4.480  17.309  0.9589  0.4474  0.6173
  309MPD2    C5 4650   0.134   4.458  17.282 -0.2354 -1.2305  0.2793
  309MPD2     H 4651   4.718   0.064  17.177 -0.8269  0.1337 -1.1478
  309MPD2    H1 4652   4.677   4.408  17.372 -0.8860 -0.0543 -1.4014
  309MPD2    H2 4653   0.314   4.498  17.183  0.7987  0.4454  1.6640
  309MPD2    H3 4654   0.181   4.371  17.327 -0.1067 -1.2656  0.0737
  309MPD2     N 4655   4.540   4.622  17.317  0.1695 -0.5006  0.6117
  309MPD2    H5 4656   4.501   4.542  17.366  1.2702 -1.8744 -0.7649
  309MPD2    N1 4657   0.213   0.011  17.055  0.1253  0.4636  0.1462
  309MPD2    H7 4658   0.161   0.096  17.034 -0.9660  0.0394  1.0933
  310TMC3    C1 4659   0.356   0.073  16.873  0.4623 -0.3140  0.1563
  310TMC3    C2 4660   0.254   0.157  16.824  0.2676 -0.1494  0.7373
  310TMC3    C3 4661   0.258   0.197  16.696  0.6839  0.1226  0.2201
  310TMC3    C4 4662   0.451   0.023  16.793 -0.4801 -0.2080 -0.7641
  310TMC3    C5 4663   0.446   0.051  16.657 -0.4199  0.6420 -0.3000
  310TMC3    C6 4664   0.347   0.141  16.611  0.0932  0.4113  0.1971
  310TMC3     C 4665   0.333   4.706  16.990 -0.1441  0.6566  0.3795
  310TMC3     O 4666   0.402   4.607  17.003  0.1442 -0.1438 -0.6907
  310TMC3     H 4667   0.184   0.211  16.887 -1.7236 -1.7461 -0.1079
  310TMC3    H1 4668   0.528   4.680  16.834  0.3202  1.1408 -0.1254
  310TMC3    H2 4669   0.328   0.164  16.507  0.0621 -2.3858 -0.4296
  310TMC3    C7 4670   0.557   0.003  16.576  0.7928  0.0588 -0.5030
  310TMC3    C8 4671   0.166   0.293  16.649  0.8080 -0.6772  0.7766
  310TMC3    O1 4672   0.630   4.639  16.624 -0.4637  0.5024 -0.0517
  310TMC3    O2 4673   0.057   0.291  16.709  0.4582 -0.0212 -0.3725
  311MPD2     C 4674   2.332   0.964  12.936 -0.1835 -0.1436 -0.0780
  311MPD2    C1 4675   2.323   1.086  13.001 -0.4044 -0.0022 -1.6764
  311MPD2    C2 4676   2.213   1.100  13.087  0.4242 -0.8873  0.3381
  311MPD2    C3 4677   2.134   0.993  13.124  0.0170 -0.4928 -0.1139
  311MPD2    C4 4678   2.159   0.870  13.068  0.5003  0.5191 -0.0002
  311MPD2    C5 4679   2.255   0.850  12.976  0.8003  0.3870  0.5014
  311MPD2     H 4680   2.195   1.197  13.133  1.1274 -0.9888  0.8374
  311MPD2    H1 4681   2.091   0.790  13.092 -0.9665  0.7066 -3.4982
  311MPD2    H2 4682   2.404   0.941  12.859  0.3998 -2.0365  1.0303
  311MPD2    H3 4683   2.265   0.758  12.920  0.3032  0.6913 -0.0838
  311MPD2     N 4684   2.023   1.020  13.202  0.6400  0.0904  0.2664
  311MPD2    H5 4685   1.987   1.114  13.207 -2.0581 -1.0200  1.7512
  311MPD2    N1 4686   2.407   1.193  12.975  0.6281 -0.0076  0.5329
  311MPD2    H7 4687   2.392   1.278  13.028 -1.0979 -0.9189  1.4968
  312TMC3    C1 4688   1.819   0.979  13.306  0.5072 -0.3962  0.3128
  312TMC3    C2 4689   1.698   0.913  13.287 -0.0257 -0.1202 -0.5429
  312TMC3    C3 4690   1.577   0.972  13.327 -0.6394 -0.4728 -1.0249
  312TMC3    C4 4691   1.818   1.108  13.355  0.0046  0.0962  0.2517
  312TMC3    C5 4692   1.692   1.154  13.383  0.0598  0.1765  0.0623
  312TMC3    C6 4693   1.576   1.097  13.377  0.0714  0.3298 -0.8685
  312TMC3     C 4694   1.938   0.919  13.251  0.2191 -0.6953  0.0645
  312TMC3     O 4695   1.948   0.798  13.255 -0.1482 -0.5885  0.3340
  312TMC3     H 4696   1.709   0.810  13.258 -2.0910 -0.6904  0.6998
  312TMC3    H1 4697   1.908   1.163  13.379  1.3114 -1.2925 -1.4311
  312TMC3    H2 4698   1.481   1.144  13.399  0.2718 -0.5303  1.8750
  312TMC3    C7 4699   1.690   1.289  13.430  0.1444 -0.2903  0.4231
  312TMC3    C8 4700   1.468   0.918  13.250  0.6012  0.4276 -0.3820
  312TMC3    O1 4701   1.586   1.344  13.403  0.2048  0.1043 -0.2638
  312TMC3    O2 4702   1.358   0.968  13.283 -0.0863  0.4520  0.4429
  313MPD2     C 4703   2.132   0.216  10.750 -0.5164  0.2181  0.0540
  313MPD2    C1 4704   2.009   0.273  10.761  0.7247 -0.6383  0.8996
  313MPD2    C2 4705   1.905   0.223  10.686  0.1124  0.0027 -0.6274
  313MPD2    C3 4706   1.925   0.110  10.601  0.3649 -0.8085  0.1859
  313MPD2    C4 4707   2.048   0.051  10.594 -0.5508  0.1908  0.1963
  313MPD2    C5 4708   2.149   0.108  10.667  0.1391 -0.0452  0.6579
  313MPD2     H 4709   1.809   0.269  10.703  2.0262  3.9818 -0.6820
  313MPD2    H1 4710   2.063   4.683  10.535  0.8682 -0.3352  1.3649
  313MPD2    H2 4711   2.215   0.252  10.810  0.0803 -0.3923 -0.4115
  313MPD2    H3 4712   2.248   0.064  10.665  0.1074 -0.0977  0.2933
  313MPD2     N 4713   1.808   0.067  10.528 -0.5540  0.3483  0.4744
  313MPD2    H5 4714   1.718   0.098  10.562  0.3486  2.8255  0.6412
  313MPD2    N1 4715   1.985   0.392  10.838  0.1472 -0.0977 -0.0951
  313MPD2    H7 4716   1.897   0.442  10.833  0.0829 -0.0514  1.6451
  314TMC3    C1 4717   2.022   0.574  10.978  0.2885  0.1267  1.3295
  314TMC3    C2 4718   2.103   0.684  11.013 -0.3017 -0.2280 -0.6176
  314TMC3    C3 4719   2.029   0.795  11.050 -0.2253 -0.0175 -0.1665
  314TMC3    C4 4720   1.894   0.559  11.020 -0.3455 -0.4102 -0.5437
  314TMC3    C5 4721   1.830   0.674  11.059 -0.8762 -0.3187 -0.1382
  314TMC3    C6 4722   1.893   0.798  11.064  0.2425  0.2383 -0.1090
  314TMC3     C 4723   2.077   0.460  10.915 -0.6717  0.8560 -0.5499
  314TMC3     O 4724   2.197   0.449  10.921  0.7666 -0.3883 -0.1411
  314TMC3     H 4725   2.206   0.681  10.981 -0.3922  2.4542 -1.1430
  314TMC3    H1 4726   1.849   0.460  11.015 -1.0168 -0.1188 -0.2156
  314TMC3    H2 4727   1.839   0.888  11.090 -1.2401 -0.1195 -1.9555
  314TMC3    C7 4728   1.691   0.667  11.045 -1.0121 -0.1673  0.0740
  314TMC3    C8 4729   2.096   0.915  11.098 -0.6486  0.1557 -0.3320
  314TMC3    O1 4730   1.639   0.554  11.064 -0.6259  0.0814 -0.1608
  314TMC3    O2 4731   2.018   1.007  11.123  0.3672  0.4806  0.6935
  315MPD2     C 4732   1.071   0.225   0.195 -0.6161 -0.3254 -0.7307
  315MPD2    C1 4733   1.188   0.235   0.270 -0.4847 -0.0135 -0.3419
  315MPD2    C2 4734   1.236   0.361   0.287 -0.0618 -0.0628 -0.3031
  315MPD2    C3 4735   1.183   0.477   0.226 -0.0444 -0.3377  0.2799
  315MPD2    C4 4736   1.066   0.461   0.156  0.3017 -0.0057  0.1007
  315MPD2    C5 4737   1.010   0.336   0.151 -0.1732  0.3022  0.0450
  315MPD2     H 4738   1.327   0.381   0.342  0.5384 -0.3686 -1.1886
  315MPD2    H1 4739   1.023   0.551   0.115 -0.5283  0.1224  1.2504
  315MPD2    H2 4740   1.027   0.127   0.181 -3.2451  0.7225  0.1430
  315MPD2    H3 4741   0.924   0.319   0.088  0.2417  0.8852 -0.6695
  315MPD2     N 4742   1.256   0.600   0.231  0.0356 -0.2440 -0.1542
  315MPD2    H5 4743   1.340   0.584   0.286 -0.2088  1.6365  0.7742
  315MPD2    N1 4744   1.265   0.125   0.303 -0.2943  0.1801 -0.3439
  315MPD2    H7 4745   1.333   0.138   0.377  1.3182  1.4190 -2.0449
  316TMC3    C1 4746   1.342   0.810   0.200 -0.3742  0.2550  0.1126
  316TMC3    C2 4747   1.428   0.784   0.302  0.0654  0.2755 -0.4807
  316TMC3    C3 4748   1.509   0.887   0.344  0.6014 -0.6830  0.2359
  316TMC3    C4 4749   1.361   0.921   0.118  0.0697  0.8790 -0.2112
  316TMC3    C5 4750   1.447   1.017   0.153 -0.1233 -0.0678  0.2977
  316TMC3    C6 4751   1.514   1.004   0.272 -0.1759 -0.2715  0.0255
  316TMC3     C 4752   1.243   0.716   0.156  0.5640  0.1195 -0.5755
  316TMC3     O 4753   1.166   0.743   0.060 -0.1510 -0.3053  0.2857
  316TMC3     H 4754   1.432   0.698   0.368 -1.3606  0.4200 -0.2027
  316TMC3    H1 4755   1.293   0.936   0.035 -0.4916  0.2380  0.1345
  316TMC3    H2 4756   1.594   1.075   0.292  0.3433 -1.4593  2.1895
  316TMC3    C7 4757   1.485   1.128   0.066 -0.8848 -0.4003 -0.4059
  316TMC3    C8 4758   1.602   0.883   0.456  0.2857  0.4001 -0.3886
  316TMC3    O1 4759   1.545   1.217   0.126 -0.4698 -0.2791  0.3325
  316TMC3    O2 4760   1.656   0.987   0.489 -0.1273  0.7666  0.5483
  317MPD2     C 4761   3.379   3.011  12.163 -0.1011 -0.4692  0.2969
  317MPD2    C1 4762   3.504   3.037  12.204  0.3936 -0.1143 -0.2794
  317MPD2    C2 4763   3.540   3.007  12.341  0.1198 -0.0697 -0.4415
  317MPD2    C3 4764   3.447   2.937  12.426 -0.0007  0.7464  1.0294
  317MPD2    C4 4765   3.326   2.913  12.374 -0.5860  0.1235  0.6548
  317MPD2    C5 4766   3.298   2.936  12.240  0.5569 -0.0368  0.5297
  317MPD2     H 4767   3.642   3.035  12.366 -0.5496  1.5384  0.4954
  317MPD2    H1 4768   3.256   2.861  12.439 -0.5041 -3.4036 -2.0804
  317MPD2    H2 4769   3.362   3.013  12.056 -3.1265  0.4307  0.7890
  317MPD2    H3 4770   3.207   2.895  12.199  0.3352 -0.0165  1.0080
  317MPD2     N 4771   3.497   2.910  12.557 -0.1876  0.1110 -0.0527
  317MPD2    H5 4772   3.598   2.917  12.561 -0.2164  1.0747 -0.9809
  317MPD2    N1 4773   3.601   3.101  12.127  0.3092 -0.4216  0.4227
  317MPD2    H7 4774   3.697   3.101  12.159  1.2353  0.3290 -2.3246
  318TMC3    C1 4775   3.499   2.859  12.787 -0.0682  0.2471 -0.3284
  318TMC3    C2 4776   3.456   2.763  12.878 -0.7770 -0.1995 -0.7302
  318TMC3    C3 4777   3.541   2.718  12.975  0.4697  0.6314  0.8938
  318TMC3    C4 4778   3.627   2.900  12.793 -0.0930 -0.0291  0.1071
  318TMC3    C5 4779   3.709   2.855  12.891 -0.2881 -0.5349 -0.0129
  318TMC3    C6 4780   3.665   2.763  12.982  0.5204 -0.3728  0.6008
  318TMC3     C 4781   3.422   2.884  12.666 -0.0498  0.9265 -0.5823
  318TMC3     O 4782   3.298   2.895  12.674  0.4707  0.3376  0.4587
  318TMC3     H 4783   3.358   2.716  12.871  0.0165 -1.8727 -0.5605
  318TMC3    H1 4784   3.669   2.978  12.730 -0.7716 -1.0595 -1.6113
  318TMC3    H2 4785   3.733   2.726  13.059  1.8788 -0.2984 -0.5571
  318TMC3    C7 4786   3.850   2.879  12.873 -0.6533 -0.1591  0.1582
  318TMC3    C8 4787   3.492   2.656  13.098  0.0611 -0.1030 -0.2517
  318TMC3    O1 4788   3.887   2.920  12.762 -1.4533 -0.4986  0.7037
  318TMC3    O2 4789   3.581   2.622  13.175  0.0539 -0.2541 -0.4742
  319MPD2     C 4790   3.822   4.168  17.351 -0.2972  0.0284  0.3071
  319MPD2    C1 4791   3.764   4.292  17.362 -0.5523  0.5815 -0.1005
  319MPD2    C2 4792   3.704   4.350  17.250  0.2760  0.0623  0.1033
  319MPD2    C3 4793   3.699   4.285  17.128  0.1244 -0.0236  0.0372
  319MPD2    C4 4794   3.746   4.152  17.123 -0.0817  0.3152  0.2890
  319MPD2    C5 4795   3.808   4.094  17.233  0.3206  0.7555  0.2597
  319MPD2     H 4796   3.644   4.437  17.273 -0.1269  0.4012 -2.2960
  319MPD2    H1 4797   3.738   4.091  17.034  0.5801 -0.8036  0.9874
  319MPD2    H2 4798   3.872   4.117  17.433  0.5766  0.5778  0.1119
  319MPD2    H3 4799   3.851   3.995  17.232 -0.6432  0.3384  0.0147
  319MPD2     N 4800   3.650   4.339  17.004  0.7563  0.4089 -0.1002
  319MPD2    H5 4801   3.640   4.272  16.928 -0.2799  1.0971 -0.5614
  319MPD2    N1 4802   3.766   4.360  17.490  0.2370  0.1903  0.4702
  319MPD2    H7 4803   3.716   4.448  17.487  0.7190  0.5317  2.2432
  320TMC3    C1 4804   3.528   4.465  16.858 -0.1325  0.0536  0.3829
  320TMC3    C2 4805   3.535   4.573  16.777  0.4754  0.2040 -0.0081
  320TMC3    C3 4806   3.488   4.554  16.645  0.2887 -0.5125 -0.6567
  320TMC3    C4 4807   3.466   4.345  16.819  1.2815 -0.3005 -0.3618
  320TMC3    C5 4808   3.406   4.343  16.695 -0.0015 -0.9491 -0.7210
  320TMC3    C6 4809   3.430   4.437  16.594 -0.2902 -0.4673 -0.0871
  320TMC3     C 4810   3.610   4.464  16.979  0.6289  0.4324  0.1798
  320TMC3     O 4811   3.642   4.568  17.028 -0.2688 -0.1414 -0.4997
  320TMC3     H 4812   3.569   4.673  16.803  2.0060 -0.0434 -1.0623
  320TMC3    H1 4813   3.460   4.252  16.874 -0.8184  1.1306  1.8365
  320TMC3    H2 4814   3.375   4.435  16.501  0.4687  0.6919 -0.5611
  320TMC3    C7 4815   3.331   4.227  16.652 -0.2884 -0.0394  0.3014
  320TMC3    C8 4816   3.466   4.672  16.561 -0.9251  0.1574 -0.4308
  320TMC3    O1 4817   3.317   4.206  16.531  0.5588 -0.1942  0.5741
  320TMC3    O2 4818   3.418   0.054  16.605  0.5494 -0.0726 -0.4366
  321TMC3    C1 4819   3.795   4.391   0.028 -0.5748  0.0518 -0.0795
  321TMC3    C2 4820   3.673   4.358   0.078 -0.4357  0.0492  0.1260
  321TMC3    C3 4821   3.650   4.344   0.209  0.4022  0.3307  0.0964
  321TMC3    C4 4822   3.894   4.423   0.114  0.2835 -0.0444 -0.5280
  321TMC3    C5 4823   3.871   4.429   0.250 -1.1652 -0.2664 -0.0995
  321TMC3    C6 4824   3.742   4.399   0.296  0.6095 -0.2079  0.0691
  321TMC3     C 4825   3.836   4.319  17.599 -0.2403  0.8510 -0.3548
  321TMC3     O 4826   3.926   4.234  17.610 -0.1511  0.1720 -0.1837
  321TMC3     H 4827   3.606   4.307   0.009  1.8843 -0.1362 -1.9969
  321TMC3    H1 4828   3.991   4.437   0.069  1.4763 -1.1282  1.7226
  321TMC3    H2 4829   3.730   4.400   0.404 -0.2954 -1.9134 -0.0233
  321TMC3    C7 4830   3.949   4.336   0.326  0.3534 -0.0690 -0.1224
  321TMC3    C8 4831   3.573   4.224   0.248 -0.2328  0.8780  0.8177
  321TMC3    O1 4832   3.894   4.264   0.401  0.3097 -0.5873  0.3028
  321TMC3    O2 4833   3.477   4.187   0.182 -0.3314 -0.0486  0.9882
  322MPD2     C 4834   3.332   1.157  13.570 -0.4321 -0.0341  0.3029
  322MPD2    C1 4835   3.282   1.136  13.698 -0.6968  0.6601  0.4593
  322MPD2    C2 4836   3.214   1.019  13.722 -0.0906  0.0509 -0.8570
  322MPD2    C3 4837   3.233   0.907  13.636 -0.5463 -0.0266  0.1672
  322MPD2    C4 4838   3.292   0.925  13.511  0.0644 -0.1582  0.3387
  322MPD2    C5 4839   3.337   1.054  13.482 -0.0358 -0.7597 -0.0442
  322MPD2     H 4840   3.170   1.007  13.820  1.1623 -0.2228 -0.3219
  322MPD2    H1 4841   3.312   0.848  13.437  2.2770 -0.7170  1.5018
  322MPD2    H2 4842   3.379   1.251  13.541 -1.7154  1.2076  2.2274
  322MPD2    H3 4843   3.387   1.061  13.385 -1.0134 -0.1049 -0.5020
  322MPD2     N 4844   3.185   0.780  13.685  0.3536  0.5185 -0.2636
  322MPD2    H5 4845   3.148   0.782  13.780  1.8412 -0.0394  0.3396
  322MPD2    N1 4846   3.291   1.246  13.790  0.5374  0.1129 -0.0059
  322MPD2    H7 4847   3.365   1.315  13.786 -3.2559  4.1267 -0.5292
  323TMC3    C1 4848   3.239   1.345  14.001  0.6176  1.1882  0.4478
  323TMC3    C2 4849   3.349   1.427  13.995  0.0138  0.5618 -0.4708
  323TMC3    C3 4850   3.392   1.486  14.111  0.3316 -0.0258  0.1797
  323TMC3    C4 4851   3.180   1.320  14.122 -0.2936  0.1174  0.5585
  323TMC3    C5 4852   3.227   1.386  14.236  0.2368  0.2181 -0.3191
  323TMC3    C6 4853   3.334   1.468  14.235  0.1682 -0.7455 -0.0099
  323TMC3     C 4854   3.204   1.254  13.897  0.4281  0.2651  0.5329
  323TMC3     O 4855   3.094   1.200  13.899  0.8303  0.1246  0.0852
  323TMC3     H 4856   3.397   1.438  13.899  0.4598 -0.5714 -0.3808
  323TMC3    H1 4857   3.090   1.259  14.133  0.3657 -1.0002 -0.1995
  323TMC3    H2 4858   3.386   1.492  14.327 -2.6886  1.6711  1.0093
  323TMC3    C7 4859   3.200   1.309  14.360 -0.3616  0.1636  0.2585
  323TMC3    C8 4860   3.534   1.517  14.116 -0.5249  0.2285  0.3733
  323TMC3    O1 4861   3.208   1.189  14.349 -1.3443  0.6192  0.7309
  323TMC3    O2 4862   3.596   1.499  14.219 -0.5968  0.3320  0.0379
  324MPD2     C 4863   0.155   1.913  14.561  0.1554 -0.0991 -0.2437
  324MPD2    C1 4864   0.184   2.049  14.561  0.1037  0.1193 -0.1975
  324MPD2    C2 4865   0.077   2.140  14.542 -0.1141  0.5421 -0.0403
  324MPD2    C3 4866   4.673   2.083  14.521  0.2093 -0.1499  0.3487
  324MPD2    C4 4867   4.652   1.952  14.525  0.5788 -0.2013 -0.3388
  324MPD2    C5 4868   0.032   1.863  14.543 -0.2492  0.6130  0.7780
  324MPD2     H 4869   0.088   2.248  14.537  0.2796  0.5124  0.1938
  324MPD2    H1 4870   4.553   1.909  14.519 -0.3380  1.3968  3.7936
  324MPD2    H2 4871   0.228   1.833  14.570  1.3240  0.9627 -0.2708
  324MPD2    H3 4872   0.002   1.759  14.538  0.6034  0.4418 -0.7603
  324MPD2     N 4873   4.556   2.159  14.502 -0.4953 -0.2545 -0.5031
  324MPD2    H5 4874   4.470   2.113  14.471 -1.3082 -1.3437  3.3582
  324MPD2    N1 4875   0.315   2.098  14.564 -0.1414 -0.6547 -0.0938
  324MPD2    H7 4876   0.321   2.198  14.548  0.4661 -0.2412  2.7005
  325TMC3    C1 4877   4.412   2.348  14.501  0.8562  0.3761 -0.8168
  325TMC3    C2 4878   4.354   2.290  14.397  0.2158  0.6621 -0.3267
  325TMC3    C3 4879   4.229   2.344  14.364  0.4718 -0.1781 -0.4154
  325TMC3    C4 4880   4.365   2.449  14.573  0.3495  0.9948 -0.6741
  325TMC3    C5 4881   4.243   2.506  14.531  0.0672  0.4575 -0.5793
  325TMC3    C6 4882   4.171   2.458  14.422 -0.2300 -0.3033  0.5124
  325TMC3     C 4883   4.543   2.298  14.530  0.3290  0.6592  1.0641
  325TMC3     O 4884   4.618   2.371  14.592  0.0719 -0.3845  0.1547
  325TMC3     H 4885   4.412   2.230  14.329  0.0101  1.8261 -1.5284
  325TMC3    H1 4886   4.427   2.493  14.650 -1.4471 -1.5722  2.2457
  325TMC3    H2 4887   4.079   2.503  14.386  0.0973 -0.7219 -0.8518
  325TMC3    C7 4888   4.203   2.626  14.601 -0.0440  0.6368  0.8151
  325TMC3    C8 4889   4.155   2.268  14.264  0.0610 -0.5632  0.0029
  325TMC3    O1 4890   4.291   2.675  14.675  0.1322  0.3305 -0.0764
  325TMC3    O2 4891   4.217   2.183  14.204 -0.0135 -0.0856  0.6519
  326MPD2     C 4892   1.319   3.073  11.413 -0.3727 -0.0415 -0.0190
  326MPD2    C1 4893   1.327   3.158  11.303 -0.0505  0.1105  0.6514
  326MPD2    C2 4894   1.412   3.262  11.320  0.1196  0.1923  0.2623
  326MPD2    C3 4895   1.474   3.291  11.434 -0.5472 -0.4815  0.2648
  326MPD2    C4 4896   1.457   3.215  11.546 -0.0357  0.2942 -0.2501
  326MPD2    C5 4897   1.374   3.105  11.538 -0.1165  0.2138  1.0494
  326MPD2     H 4898   1.411   3.332  11.238  1.2912  0.3330  0.3679
  326MPD2    H1 4899   1.505   3.234  11.641 -0.2655  1.6340 -0.4029
  326MPD2    H2 4900   1.246   2.992  11.417 -3.4086  2.7324  0.7998
  326MPD2    H3 4901   1.367   3.043  11.627 -1.3391  0.1291  0.8999
  326MPD2     N 4902   1.566   3.393  11.437  0.0725  0.4218 -0.1420
  326MPD2    H5 4903   1.619   3.410  11.522  0.3045 -2.6310  0.3139
  326MPD2    N1 4904   1.254   3.150  11.183  0.1232 -0.5363  0.3932
  326MPD2    H7 4905   1.266   3.225  11.117 -2.0647  2.1836  3.1005
  327TMC3    C1 4906   1.164   3.042  11.005  0.3770  0.4163  0.4603
  327TMC3    C2 4907   1.119   3.162  10.964  0.7090 -0.3295  0.2678
  327TMC3    C3 4908   1.146   3.205  10.830  0.1102 -0.0052  0.7973
  327TMC3    C4 4909   1.259   2.979  10.929 -0.0098 -0.0330 -0.1155
  327TMC3    C5 4910   1.285   3.020  10.805  0.5163 -0.2898 -0.6378
  327TMC3    C6 4911   1.228   3.131  10.748  0.5785 -0.0064 -0.2144
  327TMC3     C 4912   1.183   3.036  11.144  0.3151 -0.4130 -0.0611
  327TMC3     O 4913   1.181   2.926  11.202 -0.3962 -0.3933 -0.3340
  327TMC3     H 4914   1.069   3.223  11.038 -0.3677  0.2747 -0.9390
  327TMC3    H1 4915   1.300   2.884  10.960 -2.3132 -1.6363 -1.9089
  327TMC3    H2 4916   1.242   3.168  10.647 -2.1691 -0.4353 -0.7645
  327TMC3    C7 4917   1.433   3.034  10.786 -1.1527 -0.9351  0.2584
  327TMC3    C8 4918   1.088   3.320  10.767  0.1042  0.3812  0.0153
  327TMC3    O1 4919   1.467   3.105  10.691 -0.4799  0.1586  0.3154
  327TMC3    O2 4920   1.129   3.357  10.660 -1.1416  0.0667 -0.6692
  328MPD2     C 4921   3.297   2.520  17.383 -0.1074 -0.5788 -0.1276
  328MPD2    C1 4922   3.176   2.576  17.425  0.2505  0.7370  0.1115
  328MPD2    C2 4923   3.109   2.663  17.341 -0.1202 -0.2483  0.3135
  328MPD2    C3 4924   3.178   2.737  17.243 -0.2723 -0.3568  0.2591
  328MPD2    C4 4925   3.315   2.708  17.233 -0.3733  0.3371 -0.3400
  328MPD2    C5 4926   3.362   2.585  17.276 -0.2711  0.2014  0.3024
  328MPD2     H 4927   3.014   2.697  17.379  0.5775 -0.7914  2.5519
  328MPD2    H1 4928   3.376   2.748  17.153  1.4952 -0.7096  0.5539
  328MPD2    H2 4929   3.355   2.444  17.435 -0.2968  0.5620  1.7790
  328MPD2    H3 4930   3.453   2.549  17.230 -1.2457  1.5312 -2.6883
  328MPD2     N 4931   3.125   2.838  17.154 -0.0788 -0.0968  0.6182
  328MPD2    H5 4932   3.185   2.897  17.097 -0.6839 -0.3375 -0.2792
  328MPD2    N1 4933   3.118   2.538  17.551  0.6431 -0.6893 -0.3915
  328MPD2    H7 4934   3.031   2.587  17.567 -0.0525 -1.6541 -1.2035
  329TMC3    C1 4935   3.058   2.441   0.060  0.4357  0.1721  0.2138
  329TMC3    C2 4936   2.925   2.459   0.037  0.5266 -0.1386 -0.6239
  329TMC3    C3 4937   2.837   2.441   0.136 -1.0091 -0.7574 -0.4797
  329TMC3    C4 4938   3.100   2.414   0.187 -0.5059  1.0831 -0.2887
  329TMC3    C5 4939   3.003   2.392   0.281 -0.3112 -0.1721 -0.0925
  329TMC3    C6 4940   2.870   2.412   0.261 -0.1766 -0.3336  0.7475
  329TMC3     C 4941   3.156   2.444  17.643  0.2845  0.2425 -0.3184
  329TMC3     O 4942   3.250   2.366  17.635  0.1392  0.0460 -0.1043
  329TMC3     H 4943   2.886   2.474  17.626 -1.3861  0.4830  0.2146
  329TMC3    H1 4944   3.204   2.389   0.205 -0.3900  0.7215 -1.4874
  329TMC3    H2 4945   2.803   2.412   0.347 -1.9725 -0.3471 -0.6535
  329TMC3    C7 4946   3.048   2.359   0.413 -0.4448 -0.0407 -0.4734
  329TMC3    C8 4947   2.704   2.496   0.109  0.4974 -0.1459  0.8197
  329TMC3    O1 4948   2.975   2.287   0.479 -0.5667  0.5111 -0.0238
  329TMC3    O2 4949   2.601   2.461   0.171 -0.8990  0.3907 -0.0798
  330TMC3    C1 4950   1.681   2.319  10.215 -0.0815  0.8449  0.1487
  330TMC3    C2 4951   1.639   2.191  10.194 -0.5516  0.0520 -0.1992
  330TMC3    C3 4952   1.735   2.096  10.166  0.6191 -0.1742 -0.1316
  330TMC3    C4 4953   1.811   2.351  10.230  0.2505  1.4933 -0.0331
  330TMC3    C5 4954   1.902   2.253  10.217 -0.3697 -0.7330  0.8743
  330TMC3    C6 4955   1.870   2.128  10.161  0.1455  0.8164 -0.9292
  330TMC3     C 4956   1.592   2.405  10.291 -0.0143 -0.3168 -0.0291
  330TMC3     O 4957   1.633   2.496  10.362 -0.0676 -0.4191  0.4910
  330TMC3     H 4958   1.538   2.153  10.202  0.2958 -1.9183  1.3144
  330TMC3    H1 4959   1.846   2.449  10.260 -0.3567  1.3347  1.1656
  330TMC3    H2 4960   1.950   2.059  10.138 -0.4722  0.1202 -1.0058
  330TMC3    C7 4961   2.007   2.245  10.317 -0.0439 -0.3875 -0.0680
  330TMC3    C8 4962   1.693   1.967  10.119 -0.2397  0.1369 -0.3846
  330TMC3    O1 4963   2.057   2.348  10.356 -0.4167 -0.2128 -0.0557
  330TMC3    O2 4964   1.592   1.923  10.174 -0.0578 -0.3107 -0.4975
  331MPD2     C 4965   4.118   1.797  12.457  0.8045  0.5282  0.4025
  331MPD2    C1 4966   4.246   1.817  12.406 -0.1051 -0.2634 -0.6620
  331MPD2    C2 4967   4.331   1.710  12.372 -0.2016 -0.1869  0.4276
  331MPD2    C3 4968   4.293   1.590  12.408  0.2684 -0.8011  0.1987
  331MPD2    C4 4969   4.169   1.570  12.468 -0.4602  0.6055 -0.5995
  331MPD2    C5 4970   4.074   1.672  12.485  0.7745 -0.5847 -1.2680
  331MPD2     H 4971   4.420   1.740  12.317 -0.4010  0.5325  0.5082
  331MPD2    H1 4972   4.133   1.471  12.495 -0.3832  0.6504 -0.3361
  331MPD2    H2 4973   4.054   1.884  12.469  0.5699  0.4240 -0.0990
  331MPD2    H3 4974   3.978   1.647  12.528 -0.1620  0.4470 -2.7512
  331MPD2     N 4975   4.373   1.475  12.376 -0.0041 -0.2973 -0.5671
  331MPD2    H5 4976   4.461   1.494  12.329  0.7858 -1.5167  0.4371
  331MPD2    N1 4977   4.277   1.951  12.379 -0.1428 -0.4518 -0.1796
  331MPD2    H7 4978   4.198   2.014  12.374 -0.1818 -0.4267  0.7067
  332TMC3    C1 4979   4.443   1.258  12.321 -0.2725  0.7362 -0.1218
  332TMC3    C2 4980   4.512   1.301  12.210 -0.0946 -0.0496  0.1888
  332TMC3    C3 4981   4.619   1.232  12.170  0.3234  0.4484 -0.1039
  332TMC3    C4 4982   4.474   1.137  12.379 -1.0061  0.2478  0.6496
  332TMC3    C5 4983   4.588   1.077  12.335  0.7512  0.0530  0.5986
  332TMC3    C6 4984   4.668   1.121  12.236 -0.3246  0.3593 -0.1817
  332TMC3     C 4985   4.341   1.343  12.396  0.1215  0.0248 -0.7958
  332TMC3     O 4986   4.250   1.291  12.463  0.0504 -0.4028 -0.1267
  332TMC3     H 4987   4.484   1.396  12.166  0.9364 -0.4137 -1.2489
  332TMC3    H1 4988   4.413   1.101  12.462 -1.0708  0.2795  0.6158
  332TMC3    H2 4989   0.045   1.078  12.221 -0.4004  0.3274 -0.5913
  332TMC3    C7 4990   4.631   0.968  12.424 -0.0078 -0.9102 -0.9096
  332TMC3    C8 4991   4.702   1.293  12.073 -0.1905 -0.4267  0.2347
  332TMC3    O1 4992   4.541   0.913  12.489 -0.5407 -0.3545  0.2073
  332TMC3    O2 4993   0.100   1.265  12.075  0.4771 -0.1127 -0.2870
  333MPD2     C 4994   4.396   1.689  11.122  0.4488 -0.0087 -0.3421
  333MPD2    C1 4995   4.432   1.602  11.025  0.1592  0.1924  0.0765
  333MPD2    C2 4996   4.411   1.466  11.042  0.4642 -0.0724 -0.2665
  333MPD2    C3 4997   4.359   1.427  11.162 -0.3059 -0.7656  0.0077
  333MPD2    C4 4998   4.341   1.516  11.261  0.1339 -0.1624 -0.2452
  333MPD2    C5 4999   4.354   1.643  11.245  0.7371  0.6934 -0.1586
  333MPD2     H 5000   4.433   1.392  10.966 -0.8744 -0.1808 -0.5630
  333MPD2    H1 5001   4.301   1.492  11.359 -2.5675  2.8882 -0.6053
  333MPD2    H2 5002   4.417   1.796  11.115 -2.9995  0.7008  0.0559
  333MPD2    H3 5003   4.337   1.718  11.322 -0.4674  1.4262 -1.1155
  333MPD2     N 5004   4.332   1.284  11.179 -0.4064 -0.2709  0.3075
  333MPD2    H5 5005   4.352   1.213  11.109 -0.3463 -1.5820  1.6628
  333MPD2    N1 5006   4.503   1.660  10.914  0.0208  0.4644  0.6149
  333MPD2    H7 5007   4.518   1.760  10.913 -1.0917  0.5939 -3.7704
  334TMC3    C1 5008   4.648   1.680  10.731 -0.4394  0.5609 -0.2051
  334TMC3    C2 5009   0.040   1.633  10.665 -0.3826 -0.2850 -0.0851
  334TMC3    C3 5010   0.155   1.710  10.654  0.2459 -0.1274  0.3562
  334TMC3    C4 5011   4.650   1.811  10.771 -0.4479 -0.6422  0.2967
  334TMC3    C5 5012   0.047   1.885  10.757 -0.1647  0.4556  0.0856
  334TMC3    C6 5013   0.167   1.833  10.712  0.4389 -0.1603 -0.6771
  334TMC3     C 5014   4.553   1.595  10.805 -0.1258  0.0665 -0.1938
  334TMC3     O 5015   4.558   1.472  10.785  0.1040 -0.3176  0.2480
  334TMC3     H 5016   0.048   1.529  10.635 -2.8756 -1.1634  2.3354
  334TMC3    H1 5017   4.562   1.865  10.803  0.7888  1.5089  0.0952
  334TMC3    H2 5018   0.249   1.901  10.690 -0.5002  0.7007 -1.5203
  334TMC3    C7 5019   0.048   2.031  10.770  0.3875  0.2805  0.7641
  334TMC3    C8 5020   0.272   1.626  10.646  0.7943 -0.1646  0.5411
  334TMC3    O1 5021   0.149   2.095  10.778  0.3733 -0.1384 -0.7595
  334TMC3    O2 5022   0.272   1.545  10.559 -0.9023  0.2216  0.1003
  335TMC3    C1 5023   4.327   2.671   0.181 -0.5928  0.5115  0.0880
  335TMC3    C2 5024   4.200   2.619   0.155 -0.8843 -0.0147 -0.1221
  335TMC3    C3 5025   4.101   2.712   0.147 -0.4796 -0.6366  0.1095
  335TMC3    C4 5026   4.355   2.809   0.185  0.3535  0.5877  0.7132
  335TMC3    C5 5027   4.247   2.896   0.175 -0.1669  0.0491 -0.7801
  335TMC3    C6 5028   4.123   2.848   0.153 -0.3932  0.1713  0.2081
  335TMC3     C 5029   4.436   2.582   0.191  0.0122 -0.1510  0.4897
  335TMC3     O 5030   4.547   2.624   0.153  0.3936 -0.0454  0.4528
  335TMC3     H 5031   4.196   2.511   0.145 -1.2350  0.1209 -1.3629
  335TMC3    H1 5032   4.456   2.842   0.204  1.7546 -2.2937 -1.7499
  335TMC3    H2 5033   4.043   2.918   0.132 -0.8350 -0.5938 -0.6403
  335TMC3    C7 5034   4.280   3.013   0.098 -0.2665 -0.3742 -0.3880
  335TMC3    C8 5035   3.998   2.681   0.048 -0.0335  0.2580  0.0466
  335TMC3    O1 5036   4.370   2.987   0.019 -0.4721 -0.2669 -0.1651
  335TMC3    O2 5037   3.965   2.770  17.661 -0.2222  0.6792  0.3152
  336MPD2     C 5038   3.960   1.034  16.574  0.0351  0.1851 -0.3949
  336MPD2    C1 5039   3.893   0.992  16.466  0.0781  0.1215 -0.1273
  336MPD2    C2 5040   3.872   0.850  16.448 -0.4687  0.4249 -0.2451
  336MPD2    C3 5041   3.909   0.756  16.550 -0.4297 -0.8805  0.8871
  336MPD2    C4 5042   3.967   0.812  16.664 -0.3733 -0.7923 -0.5646
  336MPD2    C5 5043   4.000   0.946  16.671  0.1627  0.2582  0.0915
  336MPD2     H 5044   3.819   0.819  16.359  0.3790 -0.3490 -0.4902
  336MPD2    H1 5045   3.996   0.748  16.747  0.9566 -1.2977 -1.4195
  336MPD2    H2 5046   3.962   1.138  16.605  1.2272  0.0985 -0.2159
  336MPD2    H3 5047   4.052   0.975  16.761 -0.0843 -2.2637  1.0416
  336MPD2     N 5048   3.878   0.618  16.538  0.5502 -0.0964  0.1016
  336MPD2    H5 5049   3.901   0.558  16.616 -0.4849 -2.0386 -1.1058
  336MPD2    N1 5050   3.840   1.074  16.362 -0.3159 -0.5130  0.0525
  336MPD2    H7 5051   3.787   1.021  16.294  1.1742  0.7734 -2.1025
  337TMC3    C1 5052   3.774   1.260  16.236 -0.9457 -0.0088  0.7887
  337TMC3    C2 5053   3.656   1.204  16.186  0.3255  0.3339 -0.4022
  337TMC3    C3 5054   3.590   1.270  16.090  0.2837 -0.0744  0.3552
  337TMC3    C4 5055   3.808   1.380  16.187  0.1615  0.2868 -0.4423
  337TMC3    C5 5056   3.738   1.445  16.090 -0.6851  0.6508 -0.5351
  337TMC3    C6 5057   3.633   1.393  16.026 -0.1487 -0.0365 -0.0818
  337TMC3     C 5058   3.835   1.210  16.356 -0.6361  0.8246 -0.3112
  337TMC3     O 5059   3.901   1.295  16.418 -0.0772 -0.0461 -0.1999
  337TMC3     H 5060   3.621   1.108  16.223  1.6295 -0.9330 -2.4443
  337TMC3    H1 5061   3.891   1.435  16.230  2.5301 -3.3715 -0.2979
  337TMC3    H2 5062   3.575   1.456  15.959  0.5324 -0.3405 -0.9616
  337TMC3    C7 5063   3.758   1.588  16.072  0.3321 -0.1205  0.3073
  337TMC3    C8 5064   3.457   1.227  16.068 -0.4278  0.3527  0.2932
  337TMC3    O1 5065   3.705   1.636  15.973  0.3705  0.2163  0.0607
  337TMC3    O2 5066   3.400   1.163  16.151  0.0320  0.0387  0.1699
  338MPD2     C 5067   4.309   4.074   1.037 -0.1887  0.0071 -0.5668
  338MPD2    C1 5068   4.266   4.166   0.943 -0.2891 -0.1131  0.2197
  338MPD2    C2 5069   4.128   4.190   0.938  0.3332 -0.0159 -0.7295
  338MPD2    C3 5070   4.041   4.112   1.017  0.1798 -0.6721 -0.1570
  338MPD2    C4 5071   4.088   4.021   1.103 -0.3688 -0.3098 -0.5902
  338MPD2    C5 5072   4.224   3.991   1.109 -0.1452  0.1945  0.5969
  338MPD2     H 5073   4.086   4.267   0.876 -0.2085  1.0903  1.0085
  338MPD2    H1 5074   4.023   3.960   1.164 -1.9322  0.6524 -1.2868
  338MPD2    H2 5075   4.414   4.046   1.045 -0.2095  0.1048  0.0019
  338MPD2    H3 5076   4.253   3.913   1.179  0.4730 -0.4543 -0.3914
  338MPD2     N 5077   3.904   4.141   1.002  0.3047  0.6391  0.1177
  338MPD2    H5 5078   3.885   4.226   0.950 -0.2980  0.1174 -0.5251
  338MPD2    N1 5079   4.353   4.238   0.856  0.0233 -0.0765  0.2005
  338MPD2    H7 5080   4.303   4.293   0.787  0.0005  0.3811  0.5757
  339TMC3    C1 5081   3.675   4.128   1.000  0.4438 -0.1705 -0.1267
  339TMC3    C2 5082   3.558   4.101   1.064  0.8907  0.0495 -0.4318
  339TMC3    C3 5083   3.441   4.151   1.016 -0.3089  0.0082  0.2407
  339TMC3    C4 5084   3.678   4.189   0.877 -0.1027  0.3672 -0.1602
  339TMC3    C5 5085   3.557   4.232   0.827 -0.2593 -0.5529 -0.1419
  339TMC3    C6 5086   3.444   4.229   0.908 -0.2079 -0.2544  0.0224
  339TMC3     C 5087   3.799   4.071   1.053 -0.1036  0.6502 -0.3853
  339TMC3     O 5088   3.796   3.968   1.117  0.1613 -0.0920 -0.1594
  339TMC3     H 5089   3.569   4.052   1.161  0.9605 -0.4244 -0.6794
  339TMC3    H1 5090   3.763   4.186   0.809 -1.0113  0.6336 -1.3005
  339TMC3    H2 5091   3.348   4.265   0.873  0.4025 -0.8313 -2.2923
  339TMC3    C7 5092   3.561   4.327   0.716  0.5609  0.3441 -0.2129
  339TMC3    C8 5093   3.338   4.188   1.115 -0.3322  0.0813 -0.3256
  339TMC3    O1 5094   3.676   4.355   0.693 -0.4899  0.4731 -0.2261
  339TMC3    O2 5095   3.271   4.289   1.098  0.5515 -0.0684  0.2064
  340MPD2     C 5096   4.289   2.734  10.038 -0.6610 -0.0526 -0.8564
  340MPD2    C1 5097   4.413   2.680  10.076 -0.3103  0.3602  0.3848
  340MPD2    C2 5098   4.480   2.733  10.187  0.0561  0.5390 -0.6099
  340MPD2    C3 5099   4.428   2.833  10.262 -0.4268  0.0706  0.3557
  340MPD2    C4 5100   4.296   2.874  10.231  0.1730 -0.0619 -0.5529
  340MPD2    C5 5101   4.233   2.826  10.119 -0.2300  0.3546 -0.4653
  340MPD2     H 5102   4.574   2.699  10.226  0.3931  0.7457 -1.2396
  340MPD2    H1 5103   4.242   2.939  10.300 -0.4504 -0.1362 -0.9689
  340MPD2    H2 5104   4.225   2.681   9.969 -1.1990  0.4764 -0.7619
  340MPD2    H3 5105   4.131   2.848  10.091  0.0080 -0.9539 -2.3576
  340MPD2     N 5106   4.507   2.887  10.368 -0.0650 -0.2071 -0.1671
  340MPD2    H5 5107   4.594   2.839  10.386  0.5515  0.6904 -0.7366
  340MPD2    N1 5108   4.463   2.579   9.998  0.2755  0.3282 -0.2899
  340MPD2    H7 5109   4.409   2.544   9.920 -1.7760  1.9094  0.4284
  341TMC3    C1 5110   4.629   2.454   9.901  0.8982 -0.1587 -0.2042
  341TMC3    C2 5111   4.550   2.355   9.855  0.6172 -1.0555 -0.1781
  341TMC3    C3 5112   4.615   2.240   9.816  0.2220  0.6237 -0.7802
  341TMC3    C4 5113   0.047   2.436   9.909  0.3508  0.0457  0.3356
  341TMC3    C5 5114   0.107   2.320   9.885 -0.3123 -0.2906 -0.4239
  341TMC3    C6 5115   0.030   2.218   9.836  0.2814 -0.8584 -0.7941
  341TMC3     C 5116   4.588   2.534  10.008 -0.3567  0.3832  0.9786
  341TMC3     O 5117   4.683   2.581  10.075 -0.1557 -0.2278  0.4711
  341TMC3     H 5118   4.442   2.361   9.859  0.4807 -2.9517 -0.6848
  341TMC3    H1 5119   0.113   2.520   9.928 -1.5754  1.7224 -0.3986
  341TMC3    H2 5120   0.073   2.118   9.841  3.6646  0.5514 -1.6829
  341TMC3    C7 5121   0.203   2.273   9.990  0.0074 -0.0849 -0.0010
  341TMC3    C8 5122   4.530   2.121   9.812 -0.2680 -0.5573  0.4948
  341TMC3    O1 5123   0.220   2.153  10.010 -0.6552 -0.0782  0.1482
  341TMC3    O2 5124   4.449   2.116   9.906  0.0308 -0.5529  0.0858
  342MPD2     C 5125   2.394   1.411   0.608  0.8968  0.2898 -0.1246
  342MPD2    C1 5126   2.418   1.495   0.498  0.4633  0.1136  0.5223
  342MPD2    C2 5127   2.465   1.628   0.519  0.3791  0.0273 -0.4236
  342MPD2    C3 5128   2.492   1.670   0.647 -0.0811 -0.2415  0.4109
  342MPD2    C4 5129   2.466   1.588   0.752 -0.3968  0.0751  0.3491
  342MPD2    C5 5130   2.411   1.462   0.734  0.7595 -0.4532 -0.2852
  342MPD2     H 5131   2.493   1.685   0.431 -3.0638 -0.7484 -1.9934
  342MPD2    H1 5132   2.492   1.611   0.855  0.3615  0.9474 -0.0438
  342MPD2    H2 5133   2.356   1.310   0.602 -0.9459  1.1199 -2.7340
  342MPD2    H3 5134   2.392   1.388   0.810  0.2745 -0.2105 -0.1758
  342MPD2     N 5135   2.553   1.793   0.680 -0.0141 -0.1195  0.1340
  342MPD2    H5 5136   2.583   1.803   0.777  0.9473  2.0793 -0.3913
  342MPD2    N1 5137   2.397   1.452   0.364  0.3762 -0.1073  0.0643
  342MPD2    H7 5138   2.386   1.531   0.301  0.8029 -0.8368 -0.9323
  343TMC3    C1 5139   2.320   1.318   0.186 -0.4683  0.1554  0.2689
  343TMC3    C2 5140   2.404   1.367   0.092 -0.6670 -0.0880  0.2964
  343TMC3    C3 5141   2.419   1.303  17.663  0.2772  0.2972  0.0958
  343TMC3    C4 5142   2.246   1.202   0.165 -0.6171  0.4020  0.9411
  343TMC3    C5 5143   2.258   1.143   0.037  0.6096 -0.2921  0.7270
  343TMC3    C6 5144   2.351   1.188  17.636 -0.5154  0.0124  0.8425
  343TMC3     C 5145   2.356   1.331   0.326  0.0597 -0.6901 -0.4504
  343TMC3     O 5146   2.365   1.228   0.389 -0.3166 -0.3226 -0.5017
  343TMC3     H 5147   2.478   1.445   0.108  0.6610 -1.7499  2.2932
  343TMC3    H1 5148   2.185   1.162   0.245  1.4779 -0.4992  2.0886
  343TMC3    H2 5149   2.353   1.140  17.538 -1.4447  2.2809 -0.2845
  343TMC3    C7 5150   2.212   1.007   0.014 -0.7103 -0.1629 -0.7418
  343TMC3    C8 5151   2.505   1.349  17.554 -0.4127 -1.0073 -0.0488
  343TMC3    O1 5152   2.225   0.965  17.593  0.2492  0.1877 -0.1557
  343TMC3    O2 5153   2.540   1.466  17.557 -0.2218  0.4039  0.0141
  344MPD2     C 5154   3.274   0.610  10.592  0.6038 -0.5547  0.2737
  344MPD2    C1 5155   3.347   0.637  10.705 -0.4612  0.4077  0.3505
  344MPD2    C2 5156   3.421   0.753  10.707 -0.3945  0.0404 -0.2945
  344MPD2    C3 5157   3.416   0.843  10.601  1.0253  0.3951  0.1727
  344MPD2    C4 5158   3.344   0.817  10.485 -0.2396  0.1090 -0.4072
  344MPD2    C5 5159   3.279   0.695  10.486  0.0971 -0.3430  0.4584
  344MPD2     H 5160   3.480   0.784  10.792 -2.4282  2.1750  0.3215
  344MPD2    H1 5161   3.339   0.881  10.398 -3.7595  2.0993  1.2606
  344MPD2    H2 5162   3.219   0.517  10.589  1.8464 -1.2508 -0.7788
  344MPD2    H3 5163   3.215   0.666  10.403 -1.3944  0.7333  1.2486
  344MPD2     N 5164   3.483   0.970  10.595  0.4655  0.3910  0.1850
  344MPD2    H5 5165   3.471   1.031  10.515 -0.2651  0.3774  0.2859
  344MPD2    N1 5166   3.350   0.536  10.803  0.7698 -0.1721  0.5093
  344MPD2    H7 5167   3.303   0.449  10.780 -0.8780  1.0641 -0.8356
  345TMC3    C1 5168   3.604   1.165  10.651  0.8684  0.6320 -0.2516
  345TMC3    C2 5169   3.686   1.236  10.736 -0.9110  0.4149  0.8037
  345TMC3    C3 5170   3.755   1.346  10.693 -0.5301  0.1169 -0.3704
  345TMC3    C4 5171   3.594   1.209  10.520  0.2665 -0.4120  0.8368
  345TMC3    C5 5172   3.667   1.325  10.481  0.3641 -0.4060  0.2458
  345TMC3    C6 5173   3.747   1.387  10.566  0.8087 -0.3021  0.3070
  345TMC3     C 5174   3.557   1.032  10.691 -0.0584 -0.1421 -0.0379
  345TMC3     O 5175   3.603   0.983  10.792 -0.1370 -0.5193  0.6769
  345TMC3     H 5176   3.703   1.204  10.838 -1.6717 -0.3570  0.6855
  345TMC3    H1 5177   3.540   1.163  10.438 -0.8666  1.1628  0.6856
  345TMC3    H2 5178   3.792   1.480  10.530  0.6906 -0.0247  0.8767
  345TMC3    C7 5179   3.639   1.403  10.362 -0.0130  0.4314  0.0721
  345TMC3    C8 5180   3.817   1.442  10.780  0.0844  0.3952  0.0146
  345TMC3    O1 5181   3.707   1.504  10.341 -0.4380  0.2242  0.3457
  345TMC3    O2 5182   3.889   1.520  10.723  0.3886 -0.0005 -0.2365
  346MPD2     C 5183   3.121   2.531  13.875 -0.8763  0.0436  0.4549
  346MPD2    C1 5184   3.250   2.583  13.891  0.1874  0.1340 -0.0034
  346MPD2    C2 5185   3.281   2.660  14.000  0.0589 -0.4230  0.9911
  346MPD2    C3 5186   3.182   2.699  14.089  0.0170 -0.1478  0.2209
  346MPD2    C4 5187   3.054   2.659  14.073 -0.5815  0.5039 -0.2342
  346MPD2    C5 5188   3.028   2.575  13.964  0.0992  0.2425  0.0442
  346MPD2     H 5189   3.384   2.693  14.009 -0.2540  1.3350 -1.7915
  346MPD2    H1 5190   2.976   2.679  14.146 -0.3969  0.3070  0.0132
  346MPD2    H2 5191   3.094   2.457  13.801  2.9816  1.4114 -2.3511
  346MPD2    H3 5192   2.926   2.548  13.937  0.4752 -1.4938  0.3607
  346MPD2     N 5193   3.229   2.775  14.199 -0.0102  0.4882 -0.5859
  346MPD2    H5 5194   3.325   2.806  14.190  0.5328 -1.3254 -1.2118
  346MPD2    N1 5195   3.360   2.551  13.802 -0.1951  0.6960 -0.6856
  346MPD2    H7 5196   3.452   2.572  13.839 -0.4009 -0.1264  0.3007
  347TMC3    C1 5197   3.229   2.865  14.412 -0.5483  0.2939 -0.0559
  347TMC3    C2 5198   3.353   2.822  14.439  0.7386 -0.1343  0.2781
  347TMC3    C3 5199   3.420   2.857  14.550 -0.4641 -1.0183  0.2509
  347TMC3    C4 5200   3.163   2.940  14.507 -0.0108 -0.3608  0.0083
  347TMC3    C5 5201   3.227   2.972  14.626  0.0106 -0.1515  0.2222
  347TMC3    C6 5202   3.356   2.929  14.651 -0.4170  0.2402 -0.4798
  347TMC3     C 5203   3.150   2.814  14.305 -0.2355  0.9861 -0.1091
  347TMC3     O 5204   3.028   2.817  14.314 -0.0167 -0.0104 -0.3920
  347TMC3     H 5205   3.411   2.765  14.366  3.5460  0.6663  1.8596
  347TMC3    H1 5206   3.061   2.977  14.494 -0.1200  0.3168  2.7977
  347TMC3    H2 5207   3.415   2.946  14.740 -0.7975 -1.1540  0.0434
  347TMC3    C7 5208   3.147   3.045  14.727  0.3523  1.1370  0.4432
  347TMC3    C8 5209   3.563   2.816  14.568  0.2939 -0.1625  0.1387
  347TMC3    O1 5210   3.026   3.055  14.708 -0.0987 -0.4353  0.1717
  347TMC3    O2 5211   3.598   2.722  14.497  0.7273 -0.6650  0.2288
  348MPD2     C 5212   1.975   1.746  12.338  0.2792 -0.6576 -0.8660
  348MPD2    C1 5213   2.021   1.868  12.393  0.5173 -0.7968  0.8931
  348MPD2    C2 5214   1.996   1.983  12.324  0.3571 -0.1601  0.7776
  348MPD2    C3 5215   1.941   1.984  12.196 -0.7152 -0.3593  1.0592
  348MPD2    C4 5216   1.894   1.867  12.145  0.0959 -0.3280 -0.7875
  348MPD2    C5 5217   1.909   1.751  12.217 -0.2758 -0.6487 -0.5987
  348MPD2     H 5218   2.045   2.067  12.371  1.2713  0.4471 -1.2560
  348MPD2    H1 5219   1.837   1.880  12.054 -4.2632 -1.0984  1.8279
  348MPD2    H2 5220   1.982   1.642  12.370  0.8844 -0.1928  0.5064
  348MPD2    H3 5221   1.871   1.656  12.180 -4.0438  0.2047  1.1017
  348MPD2     N 5222   1.931   2.095  12.117 -0.2630  0.7618 -0.1256
  348MPD2    H5 5223   1.880   2.085  12.029  1.8116  0.2247 -1.2630
  348MPD2    N1 5224   2.111   1.881  12.510 -0.1891 -0.2878  0.4954
  348MPD2    H7 5225   2.154   1.971  12.522  0.4578 -0.4337 -0.7228
  349TMC3    C1 5226   2.305   1.755  12.586 -0.3115 -0.3726  0.6031
  349TMC3    C2 5227   2.347   1.626  12.587 -0.4655  0.5212  0.1775
  349TMC3    C3 5228   2.435   1.588  12.491  0.1552 -0.6224 -0.5608
  349TMC3    C4 5229   2.374   1.851  12.517 -0.2359  0.5073 -0.6894
  349TMC3    C5 5230   2.460   1.815  12.417 -0.0504  0.5456 -0.7096
  349TMC3    C6 5231   2.487   1.680  12.400  0.4310 -0.1028  1.0951
  349TMC3     C 5232   2.160   1.761  12.566  0.0481  0.4002 -0.4308
  349TMC3     O 5233   2.096   1.654  12.573 -0.4201 -0.4798 -0.3722
  349TMC3     H 5234   2.289   1.554  12.645 -0.9776  0.6472 -0.1838
  349TMC3    H1 5235   2.358   1.957  12.534  0.1598  0.1109  2.1599
  349TMC3    H2 5236   2.562   1.650  12.328 -2.1344  0.3049 -1.7414
  349TMC3    C7 5237   2.451   1.898  12.293  0.0897  0.2208  0.0680
  349TMC3    C8 5238   2.496   1.458  12.518  0.1587  0.0889 -0.0282
  349TMC3    O1 5239   2.451   1.837  12.187  0.2250  0.2508  0.3170
  349TMC3    O2 5240   2.471   1.407  12.628 -0.1837 -0.2621  0.4949
  350MPD2     C 5241   1.222   0.147   9.643 -0.8655 -0.7485  0.1418
  350MPD2    C1 5242   1.171   0.031   9.705  0.6713  0.4990 -0.2847
  350MPD2    C2 5243   1.252   4.701   9.805  0.1261 -0.4775  0.3495
  350MPD2    C3 5244   1.377   0.020   9.840 -0.2521  0.7778 -0.1714
  350MPD2    C4 5245   1.424   0.132   9.773  0.5600  0.2626 -0.0532
  350MPD2    C5 5246   1.350   0.191   9.674  0.3703  0.6213  0.5864
  350MPD2     H 5247   1.205   4.637   9.879 -0.3700  0.7013  1.0542
  350MPD2    H1 5248   1.523   0.168   9.800  0.9476  0.8258 -2.2789
  350MPD2    H2 5249   1.161   0.202   9.572  2.1351  2.4863  0.0589
  350MPD2    H3 5250   1.376   0.288   9.634 -0.3322  0.0201 -1.3728
  350MPD2     N 5251   1.441   4.681   9.949 -0.2686  0.3649 -0.3085
  350MPD2    H5 5252   1.395   4.607  10.000 -0.4166  1.2587  0.8429
  350MPD2    N1 5253   1.042   4.700   9.685 -0.1335 -0.3104  0.2129
  350MPD2    H7 5254   1.019   4.613   9.733 -1.0301 -0.3759 -0.3555
  351TMC3    C1 5255   0.826   4.679   9.620  0.1232  0.3591 -0.4588
  351TMC3    C2 5256   0.803   4.596   9.720  0.8777 -0.0203  0.0423
  351TMC3    C3 5257   0.697   4.511   9.703 -0.0423  0.5344  0.2029
  351TMC3    C4 5258   0.744   4.693   9.512  0.0533 -0.7678 -0.2987
  351TMC3    C5 5259   0.638   4.608   9.507  1.3787  0.1040  0.7537
  351TMC3    C6 5260   0.611   4.514   9.597  0.1436  1.2778  0.7470
  351TMC3     C 5261   0.947   0.036   9.612  0.3193  0.5740  0.0113
  351TMC3     O 5262   0.948   0.116   9.517 -0.1352  0.2425  0.0392
  351TMC3     H 5263   0.859   4.590   9.812 -0.5016 -0.2690  0.8625
  351TMC3    H1 5264   0.761   0.040   9.430  0.3919 -3.1914 -2.2703
  351TMC3    H2 5265   0.532   4.444   9.570  0.1944  1.9530 -1.1423
  351TMC3    C7 5266   0.530   4.658   9.426  0.6399  0.2564 -0.3027
  351TMC3    C8 5267   0.706   4.372   9.757  0.4467 -0.7014 -0.6687
  351TMC3    O1 5268   0.569   0.011   9.340  0.5925  0.2343 -0.5453
  351TMC3    O2 5269   0.795   4.336   9.836 -0.4475 -0.0475 -0.0467
  352MPD2     C 5270   0.774   1.976   1.130 -0.1257  0.1067  0.0247
  352MPD2    C1 5271   0.646   2.023   1.131  0.4439  0.4448  0.3619
  352MPD2    C2 5272   0.555   1.960   1.219  0.2667  0.2876  0.9112
  352MPD2    C3 5273   0.602   1.865   1.303  0.7510  0.2236  0.9877
  352MPD2    C4 5274   0.737   1.832   1.310 -0.1525 -0.1501 -0.5347
  352MPD2    C5 5275   0.818   1.894   1.221 -0.1926 -0.3582 -0.5790
  352MPD2     H 5276   0.450   1.983   1.225 -0.2147 -1.5782 -0.5665
  352MPD2    H1 5277   0.777   1.757   1.377 -2.7762  0.4798  1.7659
  352MPD2    H2 5278   0.841   2.013   1.054  2.2930 -1.2643  1.4792
  352MPD2    H3 5279   0.917   1.852   1.204 -0.8412 -2.3659  0.5375
  352MPD2     N 5280   0.524   1.791   1.395 -0.2565 -0.3282 -0.2492
  352MPD2    H5 5281   0.572   1.738   1.468 -1.2887 -0.1985  0.5334
  352MPD2    N1 5282   0.625   2.117   1.029 -0.6540  0.4276 -0.1364
  352MPD2    H7 5283   0.697   2.153   0.967  1.4144 -1.0248  1.4329
  353TMC3    C1 5284   0.330   1.692   1.503 -0.5882 -0.4409  0.5124
  353TMC3    C2 5285   0.409   1.640   1.603  0.2198 -0.0917  0.2281
  353TMC3    C3 5286   0.357   1.554   1.692  0.6561  0.1332  0.1032
  353TMC3    C4 5287   0.195   1.661   1.495  0.1622 -0.5892  0.0423
  353TMC3    C5 5288   0.146   1.576   1.592 -0.1721 -0.7596 -0.0355
  353TMC3    C6 5289   0.224   1.518   1.696 -0.7579  0.4960  0.1888
  353TMC3     C 5290   0.387   1.778   1.397 -0.1337  0.5520  0.2678
  353TMC3     O 5291   0.307   1.821   1.317  0.2248  0.2210 -0.3554
  353TMC3     H 5292   0.507   1.686   1.608  1.5582 -2.7922 -0.8570
  353TMC3    H1 5293   0.132   1.701   1.416 -0.3654 -0.1900  0.6665
  353TMC3    H2 5294   0.182   1.444   1.763 -1.8437  0.8146 -0.1356
  353TMC3    C7 5295   4.721   1.540   1.592 -0.0025  0.1164  0.2539
  353TMC3    C8 5296   0.432   1.525   1.803  0.4248 -0.9410 -0.1173
  353TMC3    O1 5297   4.664   1.550   1.486  0.0567 -0.2670 -0.2116
  353TMC3    O2 5298   0.512   1.610   1.840 -0.2007 -0.2041 -0.1252
  354TMC3    C1 5299   1.149   3.414  13.330  0.2899  0.1645 -0.1115
  354TMC3    C2 5300   1.193   3.550  13.327  0.2315  0.1510 -0.0081
  354TMC3    C3 5301   1.274   3.581  13.218  0.3211  0.2329 -0.1129
  354TMC3    C4 5302   1.169   3.322  13.232  0.7343  0.1323  0.3045
  354TMC3    C5 5303   1.248   3.369  13.133  0.0143 -0.1763 -0.0786
  354TMC3    C6 5304   1.283   3.497  13.111  0.5157  0.4957 -0.1440
  354TMC3     C 5305   1.110   3.347  13.454 -1.0142 -0.1510  0.3010
  354TMC3     O 5306   1.057   3.234  13.452 -0.2898 -0.3439 -0.2656
  354TMC3     H 5307   1.163   3.616  13.408 -0.6384 -0.9765  0.5801
  354TMC3    H1 5308   1.146   3.217  13.242 -1.7196  0.6511  0.2301
  354TMC3    H2 5309   1.353   3.517  13.030  2.1152  0.8934  1.3236
  354TMC3    C7 5310   1.316   3.269  13.055  0.0458  0.6006 -0.2592
  354TMC3    C8 5311   1.289   3.719  13.181  0.6663 -0.4523  0.0182
  354TMC3    O1 5312   1.353   3.165  13.110 -0.4495 -0.1942  0.0224
  354TMC3    O2 5313   1.316   3.742  13.066 -0.3924  0.5121  0.0121
  355MPD2     C 5314   1.390   4.426  11.935 -0.0467  0.3576  0.2738
  355MPD2    C1 5315   1.431   4.428  11.802 -1.1616 -0.2646 -0.2242
  355MPD2    C2 5316   1.566   4.413  11.778  0.1728 -0.2670  0.4310
  355MPD2    C3 5317   1.658   4.410  11.880 -0.4313 -0.2780  0.5502
  355MPD2    C4 5318   1.614   4.409  12.013 -0.1560 -0.3084 -0.3718
  355MPD2    C5 5319   1.471   4.412  12.036 -0.3451 -0.1637 -0.2417
  355MPD2     H 5320   1.592   4.407  11.673  1.4648  0.8630  0.6875
  355MPD2    H1 5321   1.678   4.390  12.098 -1.2306  1.0535  0.7376
  355MPD2    H2 5322   1.284   4.441  11.953 -0.6574 -2.5635 -0.9066
  355MPD2    H3 5323   1.438   4.400  12.138  3.1803  0.8711  1.0349
  355MPD2     N 5324   1.797   4.394  11.865  0.7533 -0.3985 -0.3326
  355MPD2    H5 5325   1.861   4.409  11.943 -3.5308  0.2118  3.0339
  355MPD2    N1 5326   1.344   4.448  11.695  0.2458 -0.1399  0.0611
  355MPD2    H7 5327   1.250   4.416  11.714  0.7512 -1.2352  0.6812
  356TMC3    C1 5328   2.002   4.413  11.744 -0.0336 -0.2662  0.0443
  356TMC3    C2 5329   2.061   4.464  11.629  0.0476  0.4336 -0.3433
  356TMC3    C3 5330   2.192   4.498  11.637  0.2588 -0.0460  0.1903
  356TMC3    C4 5331   2.074   4.389  11.859  0.6856  0.2053 -0.3370
  356TMC3    C5 5332   2.205   4.421  11.863 -0.7129  0.3035 -0.0794
  356TMC3    C6 5333   2.268   4.478  11.749 -0.7714 -0.0725 -0.3302
  356TMC3     C 5334   1.862   4.401  11.746  0.3983  0.0990 -0.0498
  356TMC3     O 5335   1.815   4.393  11.635  0.6458 -0.2121 -0.9793
  356TMC3     H 5336   2.013   4.457  11.532 -0.1875 -1.4559 -0.0896
  356TMC3    H1 5337   2.034   4.336  11.944  0.7299 -0.5189 -0.7603
  356TMC3    H2 5338   2.376   4.488  11.759 -1.0349  1.1050  1.3090
  356TMC3    C7 5339   2.263   4.441  11.997 -0.6367 -0.1353  0.4077
  356TMC3    C8 5340   2.262   4.516  11.515  0.4410 -0.5370  0.0908
  356TMC3    O1 5341   2.222   4.374  12.092 -0.6799  0.4927 -0.4690
  356TMC3    O2 5342   2.221   4.462  11.414  0.3661 -0.4631 -0.1521
  357MPD2     C 5343   1.060   4.557   1.037  0.2597 -0.3272 -0.1203
  357MPD2    C1 5344   1.022   4.443   1.109  0.3114  0.0579  0.3821
  357MPD2    C2 5345   0.892   4.406   1.116 -0.4508  0.2455 -0.2279
  357MPD2    C3 5346   0.790   4.476   1.059  0.7391  0.4173  0.4311
  357MPD2    C4 5347   0.830   4.587   0.983 -0.2440  0.6112 -0.2322
  357MPD2    C5 5348   0.960   4.628   0.969 -0.0670 -0.2093  0.7138
  357MPD2     H 5349   0.868   4.310   1.159 -0.1120  0.2771  0.0282
  357MPD2    H1 5350   0.763   4.633   0.911 -1.0384 -1.0075 -0.5127
  357MPD2    H2 5351   1.164   4.587   1.034  0.0626  0.3191 -0.4877
  357MPD2    H3 5352   0.981   4.714   0.906 -0.5168 -0.8965 -0.3810
  357MPD2     N 5353   0.655   4.447   1.068  0.0631  0.5769 -0.1765
  357MPD2    H5 5354   0.590   4.518   1.036 -0.9210  0.2935  1.2209
  357MPD2    N1 5355   1.121   4.381   1.185  0.5010  0.2362 -0.0421
  357MPD2    H7 5356   1.215   4.392   1.148  0.1346 -0.0542 -1.0489
  358TMC3    C1 5357   1.187   4.207   1.332  1.1615 -0.6425  0.3405
  358TMC3    C2 5358   1.207   4.113   1.233 -0.8871  0.5014 -0.6088
  358TMC3    C3 5359   1.235   3.980   1.259 -0.1319  0.7936  0.0779
  358TMC3    C4 5360   1.196   4.170   1.457 -0.3616 -0.5513  0.2933
  358TMC3    C5 5361   1.233   4.042   1.492 -0.0239 -0.0247 -0.4774
  358TMC3    C6 5362   1.258   3.943   1.396  0.1475  0.2070 -0.4062
  358TMC3     C 5363   1.085   4.305   1.296  0.2112 -0.3855  0.0829
  358TMC3     O 5364   0.993   4.310   1.379 -0.3269  0.1507 -0.1021
  358TMC3     H 5365   1.188   4.151   1.133 -3.1468 -2.4564 -1.2683
  358TMC3    H1 5366   1.173   4.241   1.537 -2.6854 -0.2444 -0.6319
  358TMC3    H2 5367   1.264   3.840   1.431 -0.7413  0.0523 -0.6938
  358TMC3    C7 5368   1.282   4.010   1.631  0.0942 -0.5566  0.1957
  358TMC3    C8 5369   1.161   3.880   1.184  0.2509  0.1671 -0.3997
  358TMC3    O1 5370   1.388   3.943   1.631  0.3021  0.1073 -0.8049
  358TMC3    O2 5371   1.208   3.774   1.158  0.4261  0.5433  0.1008
  359MPD2     C 5372   1.266   3.050  12.237  0.0409  0.3691  0.3772
  359MPD2    C1 5373   1.298   2.941  12.315 -0.3124 -0.2307 -0.2263
  359MPD2    C2 5374   1.201   2.873  12.379  0.5931 -0.0834  0.1991
  359MPD2    C3 5375   1.070   2.925  12.376 -0.6590 -0.5494 -0.0980
  359MPD2    C4 5376   1.036   3.035  12.303 -0.3927 -0.0974  0.4029
  359MPD2    C5 5377   1.136   3.096  12.230 -0.7714  0.3629  0.3197
  359MPD2     H 5378   1.235   2.787  12.435 -0.8313  0.5143  2.0009
  359MPD2    H1 5379   0.935   3.073  12.307 -0.2564  0.8600 -4.6592
  359MPD2    H2 5380   1.337   3.099  12.172 -1.3745 -0.8045 -2.0361
  359MPD2    H3 5381   1.117   3.184  12.171  0.4104 -0.6365 -1.5436
  359MPD2     N 5382   0.963   2.871  12.440 -0.3638  0.0615 -0.3399
  359MPD2    H5 5383   0.873   2.903  12.408 -0.6615  0.0795  0.5102
  359MPD2    N1 5384   1.437   2.890  12.329 -0.2088  0.2344 -0.1932
  359MPD2    H7 5385   1.456   2.806  12.383  1.3325  0.7691  0.0920
  360TMC3    C1 5386   1.669   2.904  12.298  0.1226 -0.4100  0.4310
  360TMC3    C2 5387   1.788   2.977  12.304 -0.4084  0.5455  0.0530
  360TMC3    C3 5388   1.910   2.907  12.294 -0.1980  0.0204  0.3013
  360TMC3    C4 5389   1.673   2.766  12.287 -0.4008  0.2938  0.7636
  360TMC3    C5 5390   1.794   2.707  12.282 -0.8515 -0.4912 -0.2204
  360TMC3    C6 5391   1.916   2.767  12.296  0.1900  0.6066 -0.9989
  360TMC3     C 5392   1.545   2.971  12.303  0.1868 -0.4563  0.2660
  360TMC3     O 5393   1.548   3.092  12.288 -0.5231 -0.9851  0.5456
  360TMC3     H 5394   1.789   3.084  12.286  0.9224  0.1939 -1.9202
  360TMC3    H1 5395   1.579   2.711  12.288 -0.1078 -0.2197  0.1473
  360TMC3    H2 5396   2.003   2.703  12.283 -2.1258 -2.7837  0.3778
  360TMC3    C7 5397   1.804   2.565  12.282 -0.1686 -0.3176  0.3082
  360TMC3    C8 5398   2.027   2.989  12.273 -0.7764 -0.6903  0.1737
  360TMC3    O1 5399   1.879   2.518  12.369 -0.3854 -0.1233  0.3570
  360TMC3    O2 5400   2.022   3.110  12.304 -0.6627  0.2873 -0.6273
  361MPD2     C 5401   3.575   1.702  17.119 -0.3404  0.2712  0.1140
  361MPD2    C1 5402   3.508   1.683  17.240 -0.0665  0.0328  0.2544
  361MPD2    C2 5403   3.526   1.562  17.313 -0.3025 -0.2643 -0.3299
  361MPD2    C3 5404   3.604   1.465  17.253  0.0202 -0.3779  0.4783
  361MPD2    C4 5405   3.667   1.477  17.130 -0.0769 -0.2576  0.5626
  361MPD2    C5 5406   3.650   1.596  17.065 -0.1573  0.0069  0.1024
  361MPD2     H 5407   3.471   1.545  17.405 -0.1009  0.6275 -0.0401
  361MPD2    H1 5408   3.727   1.400  17.084  2.3389  2.0170 -0.1122
  361MPD2    H2 5409   3.565   1.793  17.061 -0.4090  0.1146 -0.1207
  361MPD2    H3 5410   3.694   1.611  16.967 -1.6169  1.4498 -0.3276
  361MPD2     N 5411   3.636   1.343  17.317  0.3087  0.1760  0.0778
  361MPD2    H5 5412   3.667   1.270  17.254 -0.0404 -1.4435  1.7748
  361MPD2    N1 5413   3.419   1.787  17.286  0.5601  0.4307 -0.0470
  361MPD2    H7 5414   3.390   1.861  17.224 -0.6476  0.5146  0.6265
  362TMC3    C1 5415   3.277   1.916  17.432 -0.3077  0.8477 -0.0878
  362TMC3    C2 5416   3.247   1.957  17.561 -0.4776  0.3438 -0.0162
  362TMC3    C3 5417   3.162   2.064  17.573 -0.6306 -0.3806 -0.0844
  362TMC3    C4 5418   3.221   1.976  17.323  0.7793 -0.5014 -0.4780
  362TMC3    C5 5419   3.147   2.089  17.343 -0.4066  0.0248 -0.1337
  362TMC3    C6 5420   3.123   2.142  17.467  0.9157  0.0220  0.0520
  362TMC3     C 5421   3.370   1.797  17.419 -0.5891  0.1832  0.1988
  362TMC3     O 5422   3.398   1.735  17.520  0.0043  0.3762  0.0318
  362TMC3     H 5423   3.304   1.911  17.641 -0.9692  0.7115  0.5478
  362TMC3    H1 5424   3.225   1.928  17.226  0.5434 -1.0351 -0.2200
  362TMC3    H2 5425   3.058   2.229  17.469 -0.0494 -0.6888 -0.2887
  362TMC3    C7 5426   3.044   2.122  17.239  0.0174 -0.5904  0.5426
  362TMC3    C8 5427   3.078   2.067  17.687  0.8608 -0.2091  0.1824
  362TMC3    O1 5428   2.926   2.125  17.275 -0.0897 -0.4088  0.2454
  362TMC3    O2 5429   3.113   2.011   0.099  0.7377 -0.2877 -0.9885
  363TMC3    C1 5430   1.507   4.030   8.984 -0.0259 -0.3088 -0.4164
  363TMC3    C2 5431   1.613   3.960   9.006  0.1715  0.4672  0.3987
  363TMC3    C3 5432   1.598   3.835   9.056  0.2991 -0.0544  0.3165
  363TMC3    C4 5433   1.379   3.998   9.036 -0.3916  0.5999 -0.0132
  363TMC3    C5 5434   1.369   3.867   9.079 -0.1617 -0.6725 -0.2998
  363TMC3    C6 5435   1.477   3.787   9.102  0.4805  0.3095  0.5285
  363TMC3     C 5436   1.536   4.175   8.984 -0.2099  0.1922 -0.1948
  363TMC3     O 5437   1.653   4.205   8.986  0.2628  0.1510  0.6125
  363TMC3     H 5438   1.714   3.997   8.996 -0.2123  1.1785 -0.8266
  363TMC3    H1 5439   1.294   4.054   8.999 -1.4916  2.1751  4.8803
  363TMC3    H2 5440   1.460   3.688   9.142 -0.6225  0.5823  0.7255
  363TMC3    C7 5441   1.247   3.810   9.123 -1.3187  0.0370  0.1271
  363TMC3    C8 5442   1.710   3.761   9.108 -1.0843 -0.2661 -0.0457
  363TMC3    O1 5443   1.229   3.690   9.123 -0.2457 -0.5850 -0.2268
  363TMC3    O2 5444   1.688   3.676   9.197 -0.0820 -0.3733  0.0202
  364MPD2     C 5445   0.871   3.784  10.812 -0.2599  0.2746 -0.4442
  364MPD2    C1 5446   0.948   3.739  10.712  0.4616 -0.2520 -0.7157
  364MPD2    C2 5447   0.982   3.605  10.720 -0.0392 -0.3870 -0.4188
  364MPD2    C3 5448   0.953   3.529  10.836 -0.0982 -0.1700 -0.2593
  364MPD2    C4 5449   0.874   3.582  10.934  0.6530  0.2524 -1.0088
  364MPD2    C5 5450   0.837   3.713  10.921  0.7014 -0.2263 -0.4854
  364MPD2     H 5451   1.041   3.568  10.637 -1.1919  1.6141 -2.1349
  364MPD2    H1 5452   0.846   3.536  11.028 -0.1128 -0.1018 -1.4106
  364MPD2    H2 5453   0.837   3.886  10.811  1.1198  0.7115 -2.2394
  364MPD2    H3 5454   0.779   3.757  11.000 -0.2062 -2.4498  0.0714
  364MPD2     N 5455   1.010   3.400  10.854  1.0525  0.2424  0.3492
  364MPD2    H5 5456   0.976   3.356  10.939  1.0388  1.2470  0.8613
  364MPD2    N1 5457   0.983   3.818  10.603  0.3224 -0.6373 -0.2437
  364MPD2    H7 5458   0.991   3.917  10.625  1.1398 -0.7240 -0.1792
  365TMC3    C1 5459   1.118   3.878  10.425 -0.3241  0.4892  0.7120
  365TMC3    C2 5460   1.226   3.820  10.363  0.0039 -0.6425  0.7686
  365TMC3    C3 5461   1.303   3.907  10.289  0.3452 -0.7978 -0.1799
  365TMC3    C4 5462   1.084   4.009  10.418 -0.0695  0.5125  0.1396
  365TMC3    C5 5463   1.162   4.089  10.343  0.1182  0.4193 -0.0331
  365TMC3    C6 5464   1.275   4.043  10.279 -0.5215 -0.0732  0.1942
  365TMC3     C 5465   1.033   3.775  10.485 -0.2237 -0.2218  0.3402
  365TMC3     O 5466   1.031   3.660  10.438 -0.1635 -0.6125 -0.5937
  365TMC3     H 5467   1.253   3.716  10.374 -0.9374 -1.2312 -2.5044
  365TMC3    H1 5468   0.986   4.031  10.458 -0.0391 -1.4777  1.3459
  365TMC3    H2 5469   1.357   4.107  10.248 -0.1449 -0.5486  0.2077
  365TMC3    C7 5470   1.137   4.231  10.329  0.6219 -0.2950  0.5529
  365TMC3    C8 5471   1.427   3.860  10.240  1.4003 -0.9857  0.1732
  365TMC3    O1 5472   1.220   4.282  10.255  0.5055  0.2217  0.1110
  365TMC3    O2 5473   1.509   3.944  10.204 -0.3084  0.2782  0.1861
  366MPD2     C 5474   3.348   4.701  15.858  0.1993 -0.0585  0.0990
  366MPD2    C1 5475   3.371   0.071  15.760  0.0907 -0.3872  0.7627
  366MPD2    C2 5476   3.438   0.026  15.645  0.7039 -0.5117 -0.1446
  366MPD2    C3 5477   3.477   4.608  15.629  0.1745  0.7026  0.1622
  366MPD2    C4 5478   3.446   4.521  15.729 -0.1270 -0.1851  0.2055
  366MPD2    C5 5479   3.383   4.570  15.836 -0.0302 -0.7107 -0.3068
  366MPD2     H 5480   3.463   0.094  15.565  3.5273  1.0232  2.0488
  366MPD2    H1 5481   3.456   4.413  15.722 -0.9459 -0.1850 -1.0535
  366MPD2    H2 5482   3.286   4.720  15.945  1.0193  0.1006  0.6379
  366MPD2    H3 5483   3.359   4.490  15.906  0.5387  0.0984  0.8136
  366MPD2     N 5484   3.540   4.574  15.510  0.3100 -0.4331  0.5361
  366MPD2    H5 5485   3.556   4.650  15.445  3.3540 -2.0698 -0.6357
  366MPD2    N1 5486   3.344   0.209  15.757 -0.0488 -0.2183  0.6614
  366MPD2    H7 5487   3.382   0.255  15.675 -3.0282  1.2660  0.1365
  367TMC3    C1 5488   3.299   0.423  15.822 -0.3419 -0.7565 -0.0309
  367TMC3    C2 5489   3.359   0.490  15.919 -0.0547 -0.9174 -0.2868
  367TMC3    C3 5490   3.406   0.617  15.889  0.2116 -0.4411  0.4676
  367TMC3    C4 5491   3.309   0.453  15.695 -0.0751 -0.1735 -0.1384
  367TMC3    C5 5492   3.369   0.574  15.672 -0.9621  0.6302 -0.3580
  367TMC3    C6 5493   3.399   0.666  15.766  0.1815  0.0273 -0.1304
  367TMC3     C 5494   3.288   0.283  15.856  0.6223 -0.0025  0.6839
  367TMC3     O 5495   3.247   0.252  15.963 -0.1848  0.1199 -0.4324
  367TMC3     H 5496   3.370   0.448  16.018  0.0206  0.8126  0.4390
  367TMC3    H1 5497   3.258   0.396  15.619 -0.4572  0.4229 -0.3341
  367TMC3    H2 5498   3.452   0.758  15.744 -1.0952  0.8460  0.2163
  367TMC3    C7 5499   3.353   0.634  15.541 -0.0313 -0.3388  0.0994
  367TMC3    C8 5500   3.530   0.646  15.957 -0.0761  0.8130 -0.8357
  367TMC3    O1 5501   3.387   0.752  15.543  0.1276  0.6519  0.3696
  367TMC3    O2 5502   3.561   0.559  16.039 -0.3276  0.1404  0.1739
  368MPD2     C 5503   0.249   1.748  12.725  0.2398  0.3327  0.6822
  368MPD2    C1 5504   0.335   1.854  12.761 -0.1069 -0.4982 -0.5213
  368MPD2    C2 5505   0.471   1.838  12.740  0.6126 -0.0278 -0.3871
  368MPD2    C3 5506   0.523   1.728  12.682 -0.2672  0.7059  0.6964
  368MPD2    C4 5507   0.441   1.631  12.640  0.4105 -0.3206  0.3877
  368MPD2    C5 5508   0.301   1.638  12.655  0.4198 -0.6056  0.0561
  368MPD2     H 5509   0.533   1.919  12.775 -0.0467 -0.4051  1.6598
  368MPD2    H1 5510   0.488   1.547  12.591 -1.0998 -0.8482 -0.1712
  368MPD2    H2 5511   0.143   1.746  12.746  0.0830  0.9858 -0.0553
  368MPD2    H3 5512   0.232   1.569  12.608  0.7333 -1.1663  0.4125
  368MPD2     N 5513   0.660   1.719  12.641  0.1825  0.4935  0.0680
  368MPD2    H5 5514   0.695   1.650  12.575 -0.8641  1.1226 -1.1529
  368MPD2    N1 5515   0.279   1.975  12.814 -0.6669 -0.2751 -0.1155
  368MPD2    H7 5516   0.184   1.965  12.850 -0.8892  1.8835 -0.1068
  369TMC3    C1 5517   0.256   2.202  12.883 -0.1992  0.1166 -0.3889
  369TMC3    C2 5518   0.313   2.332  12.903 -0.6265 -0.7455 -0.1187
  369TMC3    C3 5519   0.229   2.438  12.924  0.3047  0.1479  0.3373
  369TMC3    C4 5520   0.122   2.186  12.912  0.4922  0.0787  0.3094
  369TMC3    C5 5521   0.045   2.295  12.939 -0.1320  0.2717 -0.0674
  369TMC3    C6 5522   0.096   2.421  12.947 -0.1293  0.1008 -0.2563
  369TMC3     C 5523   0.347   2.099  12.831 -0.1492 -0.0668  0.0237
  369TMC3     O 5524   0.462   2.127  12.796  0.2528  0.1375 -0.3332
  369TMC3     H 5525   0.415   2.347  12.869  0.0506 -2.5835  1.0931
  369TMC3    H1 5526   0.079   2.086  12.920  1.1835 -0.3232 -1.1187
  369TMC3    H2 5527   0.043   2.511  12.976 -0.0844  0.0516 -0.0222
  369TMC3    C7 5528   4.619   2.275  12.964  0.1511 -0.7955 -0.4686
  369TMC3    C8 5529   0.294   2.565  12.959 -0.0272 -0.0304 -0.1914
  369TMC3    O1 5530   4.589   2.158  12.978  0.0213  0.3930 -0.5918
  369TMC3    O2 5531   0.223   2.661  12.937 -0.2524  0.1509 -0.0519
  370TMC3    C1 5532   4.108   2.747  16.348 -0.3521  0.0200  1.0046
  370TMC3    C2 5533   4.047   2.668  16.443 -0.3564 -0.1225 -0.2951
  370TMC3    C3 5534   4.070   2.533  16.442 -0.2889 -0.1976  0.2416
  370TMC3    C4 5535   4.173   2.697  16.239  0.0141 -0.3904 -0.0668
  370TMC3    C5 5536   4.182   2.561  16.243  0.5313 -0.3187  0.1254
  370TMC3    C6 5537   4.136   2.472  16.338 -0.3115 -0.1871  0.6785
  370TMC3     C 5538   4.055   2.883  16.334 -0.3025 -0.0594  0.1457
  370TMC3     O 5539   3.935   2.896  16.350 -0.6394 -0.3354  0.1524
  370TMC3     H 5540   3.987   2.718  16.519 -0.0483 -0.7263  0.3465
  370TMC3    H1 5541   4.217   2.762  16.164  1.2917 -1.0979  0.0675
  370TMC3    H2 5542   4.140   2.364  16.338  0.8862 -0.1454  2.4203
  370TMC3    C7 5543   4.242   2.506  16.119  0.2976  0.1330  0.4354
  370TMC3    C8 5544   4.048   2.461  16.569  0.7314  1.0244 -0.3575
  370TMC3    O1 5545   4.271   2.585  16.034  0.2508 -0.2821 -0.7921
  370TMC3    O2 5546   4.044   2.335  16.550  0.8927  0.0537  0.0969
  371TMC3    C1 5547   0.403   0.707  15.488  0.0884  0.1110 -0.4641
  371TMC3    C2 5548   0.340   0.739  15.600 -0.2014  0.2395  0.5994
  371TMC3    C3 5549   0.287   0.866  15.610  0.9055  0.4290  0.3385
  371TMC3    C4 5550   0.418   0.802  15.386 -0.0666  0.6451 -0.0111
  371TMC3    C5 5551   0.369   0.928  15.399 -0.9968 -0.7042  0.4078
  371TMC3    C6 5552   0.300   0.961  15.510  0.3863 -0.1611 -0.2993
  371TMC3     C 5553   0.502   0.604  15.505 -0.3645  0.0686 -0.1843
  371TMC3     O 5554   0.605   0.613  15.434 -0.7435 -0.2957  0.1386
  371TMC3     H 5555   0.358   0.679  15.688 -0.8975 -0.2206  0.4314
  371TMC3    H1 5556   0.468   0.775  15.294 -1.7350  0.5923 -0.8888
  371TMC3    H2 5557   0.254   1.058  15.525  0.4049 -0.4119  1.2943
  371TMC3    C7 5558   0.427   1.035  15.315  0.1978 -0.3682  0.7839
  371TMC3    C8 5559   0.241   0.899  15.740 -0.3900 -0.0484 -0.4698
  371TMC3    O1 5560   0.443   1.145  15.371 -0.2021 -0.2922  0.0417
  371TMC3    O2 5561   0.209   0.799  15.802  0.6095 -0.6338 -0.0610
  372MPD2     C 5562   4.683   2.425  13.322 -0.3389  0.3268  0.0845
  372MPD2    C1 5563   0.092   2.370  13.350  0.1833 -0.4644  0.3225
  372MPD2    C2 5564   0.108   2.236  13.380  0.0283 -0.1158  0.0577
  372MPD2    C3 5565   4.715   2.152  13.382  0.5204  0.0383 -0.0068
  372MPD2    C4 5566   4.596   2.197  13.356  0.5298 -0.3395  0.1651
  372MPD2    C5 5567   4.582   2.333  13.317  0.3300  0.0868  0.1319
  372MPD2     H 5568   0.202   2.190  13.410 -0.6595 -2.2007 -1.0121
  372MPD2    H1 5569   4.503   2.144  13.373  0.2042 -0.9885 -3.7155
  372MPD2    H2 5570   4.663   2.530  13.301 -0.2151 -0.3704 -3.4278
  372MPD2    H3 5571   4.481   2.365  13.299 -0.2810 -1.8282  0.1352
  372MPD2     N 5572   0.019   2.017  13.431  0.3615  0.5767  0.0756
  372MPD2    H5 5573   0.110   1.985  13.464  0.5235 -0.0680 -1.0051
  372MPD2    N1 5574   0.197   2.466  13.354 -0.7351  0.1127  0.1813
  372MPD2    H7 5575   0.289   2.434  13.384 -1.0167 -1.0257 -0.1696
  373TMC3    C1 5576   4.689   1.797  13.507  0.7492  0.2608 -0.1641
  373TMC3    C2 5577   4.599   1.714  13.568 -0.3944  0.7922  0.2267
  373TMC3    C3 5578   4.653   1.602  13.617  0.2008  0.4208  0.6087
  373TMC3    C4 5579   0.087   1.751  13.462 -0.9987  0.5991  0.9380
  373TMC3    C5 5580   0.131   1.632  13.509  0.2717 -0.0965  0.4911
  373TMC3    C6 5581   0.047   1.551  13.573 -0.4996  0.3338  0.0498
  373TMC3     C 5582   4.643   1.923  13.447  1.2778 -0.0954 -0.1586
  373TMC3     O 5583   4.527   1.922  13.413 -0.6970 -0.4887  0.5967
  373TMC3     H 5584   4.506   1.759  13.600 -0.1794  0.8357  0.8022
  373TMC3    H1 5585   0.137   1.797  13.377 -0.1840 -1.8923  0.0891
  373TMC3    H2 5586   0.093   1.466  13.622  0.1311  0.2079 -0.7654
  373TMC3    C7 5587   0.268   1.588  13.485  0.2300 -0.8403 -0.9007
  373TMC3    C8 5588   4.668   1.607  13.765  0.6761  0.5616 -0.0213
  373TMC3    O1 5589   0.290   1.472  13.505  0.1534 -0.2988 -0.1073
  373TMC3    O2 5590   0.059   1.589  13.809 -0.1122  0.0530 -0.1089
  374TMC3    C1 5591   1.161   1.655   9.916  0.6202 -0.5481  0.4038
  374TMC3    C2 5592   1.146   1.705  10.042  0.1425 -0.6690 -0.7281
  374TMC3    C3 5593   1.237   1.796  10.080  0.7051  0.1478  0.2838
  374TMC3    C4 5594   1.253   1.695   9.830 -0.5438  0.6324 -0.4654
  374TMC3    C5 5595   1.346   1.789   9.873 -0.0856  1.1919 -0.5774
  374TMC3    C6 5596   1.340   1.846   9.999  0.1081 -0.1628 -0.3837
  374TMC3     C 5597   1.057   1.565   9.866 -0.0673  1.4430 -0.5098
  374TMC3     O 5598   0.994   1.506   9.953  0.0343 -0.6519 -0.5070
  374TMC3     H 5599   1.075   1.666  10.114 -0.6386  1.1902 -0.5017
  374TMC3    H1 5600   1.249   1.662   9.727 -0.7687  4.0294 -1.5545
  374TMC3    H2 5601   1.420   1.919  10.012 -0.8328  0.7597  0.1603
  374TMC3    C7 5602   1.439   1.852   9.778  0.5765  0.6604 -0.2575
  374TMC3    C8 5603   1.209   1.874  10.196 -0.4588 -0.8000  0.3321
  374TMC3    O1 5604   1.484   1.963   9.801  0.2576  0.0790  0.6431
  374TMC3    O2 5605   1.092   1.865  10.233 -0.2009 -0.1190  0.2590
  375MPD2     C 5606   0.376   3.171  17.335 -0.0611  0.6483  0.3222
  375MPD2    C1 5607   0.304   3.181  17.218  0.6154 -0.0124  0.2204
  375MPD2    C2 5608   0.360   3.128  17.096  0.0347  0.6397 -0.6881
  375MPD2    C3 5609   0.481   3.062  17.102 -1.0166  0.9175  0.3633
  375MPD2    C4 5610   0.541   3.043  17.226 -0.1353  0.3808  0.2519
  375MPD2    C5 5611   0.487   3.091  17.345  0.4389  0.3774  0.7766
  375MPD2     H 5612   0.305   3.131  17.003  2.1679 -1.3025 -2.0020
  375MPD2    H1 5613   0.636   2.991  17.218  0.4794  1.8104 -1.7619
  375MPD2    H2 5614   0.338   3.221  17.423  2.0906  2.0790  0.4384
  375MPD2    H3 5615   0.531   3.078  17.443  1.0659  0.7239  0.5402
  375MPD2     N 5616   0.549   2.999  16.993  0.8192  0.1851 -0.2766
  375MPD2    H5 5617   0.642   2.964  17.014  0.1008 -1.6161 -0.1381
  375MPD2    N1 5618   0.183   3.251  17.202  0.5946  0.0759 -0.3267
  375MPD2    H7 5619   0.155   3.250  17.104 -0.6059 -1.1128  0.0229
  376TMC3    C1 5620   0.594   2.947  16.767  0.4502  0.6374 -0.5430
  376TMC3    C2 5621   0.712   2.889  16.808  0.0252  0.4062 -0.3824
  376TMC3    C3 5622   0.775   2.804  16.718 -0.3204  0.5430 -0.0782
  376TMC3    C4 5623   0.568   2.958  16.636 -0.2738  0.9135 -0.2501
  376TMC3    C5 5624   0.648   2.894  16.542 -0.6530 -0.3850 -0.4554
  376TMC3    C6 5625   0.746   2.815  16.585  0.4799 -0.0316  0.3394
  376TMC3     C 5626   0.504   3.002  16.866 -0.4618  0.0740  0.5409
  376TMC3     O 5627   0.399   3.047  16.825  0.0469  0.0422 -0.1286
  376TMC3     H 5628   0.755   2.887  16.908 -2.7978  0.8162  0.8539
  376TMC3    H1 5629   0.488   3.016  16.593 -1.2675  0.8373  1.4795
  376TMC3    H2 5630   0.820   2.776  16.516  0.3447  0.7273 -0.2327
  376TMC3    C7 5631   0.592   2.865  16.409  0.9273  0.1183  0.3210
  376TMC3    C8 5632   0.895   2.728  16.755 -0.2087  0.4010  0.4101
  376TMC3    O1 5633   0.669   2.829  16.320 -0.3516  0.5417  0.0522
  376TMC3    O2 5634   0.894   2.680  16.867 -0.5398 -0.0290  0.8298
  377MPD2     C 5635   3.492   2.586  12.138  0.6575 -0.2742  0.5356
  377MPD2    C1 5636   3.589   2.523  12.206 -0.8985  0.1935  0.5346
  377MPD2    C2 5637   3.552   2.470  12.330  0.1031  0.0019  0.0712
  377MPD2    C3 5638   3.425   2.497  12.380 -0.3677  0.0918  0.1205
  377MPD2    C4 5639   3.325   2.560  12.307 -0.8891 -0.3706  0.1241
  377MPD2    C5 5640   3.363   2.601  12.184  0.6870 -0.0809  0.0145
  377MPD2     H 5641   3.628   2.411  12.379 -1.5765 -0.4004  2.2069
  377MPD2    H1 5642   3.234   2.593  12.357 -0.4502 -0.3688  0.9136
  377MPD2    H2 5643   3.513   2.629  12.041 -3.8577  1.0617  0.1659
  377MPD2    H3 5644   3.297   2.660  12.121  0.9692 -1.3773 -1.4804
  377MPD2     N 5645   3.389   2.460  12.513  0.0718  0.2824 -0.2356
  377MPD2    H5 5646   3.301   2.500  12.543  0.0662 -0.7488  1.1542
  377MPD2    N1 5647   3.721   2.525  12.150 -0.2843  0.2416  0.5120
  377MPD2    H7 5648   3.733   2.570  12.060 -0.7249  0.1048  0.3845
  378TMC3    C1 5649   4.051   2.596  11.921  0.4595  0.2362 -0.4599
  378TMC3    C2 5650   3.943   2.546  11.983  0.1141 -0.8325 -0.2225
  378TMC3    C3 5651   3.959   2.498  12.111  0.2885 -0.2012 -0.2307
  378TMC3    C4 5652   4.176   2.602  11.986  0.5613  0.0464  0.4201
  378TMC3    C5 5653   4.185   2.529  12.106 -0.1083  0.4448 -0.5360
  378TMC3    C6 5654   4.078   2.476  12.173 -0.5748 -0.3462 -0.5074
  378TMC3     C 5655   4.058   2.647  11.786 -0.2927 -0.3115  0.2240
  378TMC3     O 5656   4.164   2.652  11.725  0.0546 -0.3144 -0.0790
  378TMC3     H 5657   3.846   2.543  11.936  0.5269 -0.6170 -1.0990
  378TMC3    H1 5658   4.259   2.641  11.929  0.8700  0.9198  1.4938
  378TMC3    H2 5659   4.088   2.447  12.277  0.6334  0.3133 -0.4410
  378TMC3    C7 5660   4.324   2.517  12.155  0.4826 -0.2561  0.1402
  378TMC3    C8 5661   3.841   2.476  12.200 -0.0291 -0.0324 -0.4970
  378TMC3    O1 5662   4.321   2.493  12.276 -0.4798  0.3858  0.3184
  378TMC3    O2 5663   3.861   2.406  12.299 -0.2634  0.6819 -0.3513
  379MPD2     C 5664   4.719   0.688  16.375 -0.7344  0.5230  0.6928
  379MPD2    C1 5665   4.653   0.593  16.443  0.7590  0.2907 -0.8333
  379MPD2    C2 5666   4.716   0.495  16.512 -0.5349  0.0385 -0.0829
  379MPD2    C3 5667   0.134   0.490  16.509  0.4622  0.4366 -0.0724
  379MPD2    C4 5668   0.203   0.583  16.430  0.7142  0.0455 -0.7896
  379MPD2    C5 5669   0.133   0.681  16.363  1.1103  0.2510  0.3140
  379MPD2     H 5670   4.667   0.423  16.576  1.5747 -0.2782  1.1899
  379MPD2    H1 5671   0.311   0.579  16.427  0.7045 -0.5654 -0.1928
  379MPD2    H2 5672   4.680   0.764  16.308 -0.6129  0.4333  0.5227
  379MPD2    H3 5673   0.189   0.753  16.306  1.2806 -1.7477 -2.0517
  379MPD2     N 5674   0.217   0.394  16.571  0.1016  0.2408  0.1346
  379MPD2    H5 5675   0.314   0.390  16.541 -0.2192  3.1573 -1.3708
  379MPD2    N1 5676   4.509   0.603  16.444 -0.8296 -0.6354  0.8449
  379MPD2    H7 5677   4.467   0.666  16.377 -0.4439 -1.5400 -0.2379
  380TMC3    C1 5678   4.294   0.525  16.458  0.3543  0.0136  0.1211
  380TMC3    C2 5679   4.242   0.402  16.424  0.0738  0.6510  0.6858
  380TMC3    C3 5680   4.148   0.397  16.320  0.5254 -0.3349  0.7482
  380TMC3    C4 5681   4.257   0.633  16.382  0.1153 -0.0980  0.2449
  380TMC3    C5 5682   4.154   0.620  16.293  0.3463 -1.0055  0.2180
  380TMC3    C6 5683   4.085   0.505  16.268 -0.4172 -0.4266  0.9538
  380TMC3     C 5684   4.427   0.514  16.511 -0.4513 -0.1821  0.1855
  380TMC3     O 5685   4.436   0.435  16.606  0.0010 -0.1731  0.1845
  380TMC3     H 5686   4.271   0.312  16.477 -1.2314 -1.0053 -1.4057
  380TMC3    H1 5687   4.294   0.734  16.396 -2.8634  0.8047  1.5640
  380TMC3    H2 5688   4.021   0.482  16.183 -1.0948  2.9460  0.5440
  380TMC3    C7 5689   4.110   0.747  16.237  0.3168 -0.3251  0.1296
  380TMC3    C8 5690   4.212   0.305  16.223  0.3437  0.4744  0.2625
  380TMC3    O1 5691   4.182   0.846  16.234  0.1557  0.3219  0.0106
  380TMC3    O2 5692   4.199   0.340  16.105 -0.3675 -0.0690 -0.3170
  381TMC3    C1 5693   4.111   1.725  16.244  0.3101  0.1122 -0.5424
  381TMC3    C2 5694   4.179   1.843  16.258  0.1825 -0.2234 -0.2302
  381TMC3    C3 5695   4.242   1.862  16.376 -1.1260 -0.0870 -0.0944
  381TMC3    C4 5696   4.088   1.648  16.353 -0.2032  0.4271 -0.1705
  381TMC3    C5 5697   4.146   1.678  16.472  0.5424  1.2051  0.0929
  381TMC3    C6 5698   4.241   1.776  16.482 -0.5508  0.1689  1.0432
  381TMC3     C 5699   4.093   1.680  16.107  0.2626 -0.1409 -0.3589
  381TMC3     O 5700   4.097   1.766  16.018 -1.0430  0.1803  0.4990
  381TMC3     H 5701   4.194   1.914  16.177  2.1087  0.6645  0.9069
  381TMC3    H1 5702   4.017   1.566  16.345 -0.3719  0.3474  2.0493
  381TMC3    H2 5703   4.295   1.794  16.574 -0.6644 -1.1135  1.3555
  381TMC3    C7 5704   4.146   1.578  16.571 -0.8440 -0.1367  0.4360
  381TMC3    C8 5705   4.351   1.950  16.367  0.7136  0.9452  0.4419
  381TMC3    O1 5706   4.186   1.463  16.547 -0.2134  0.5238  0.0980
  381TMC3    O2 5707   4.426   1.922  16.277  0.6869  0.1898  0.4712
  382MPD2     C 5708   3.455   4.006  17.292 -0.1458  0.7391 -0.0722
  382MPD2    C1 5709   3.417   4.017  17.421 -0.7271 -0.9923 -0.0475
  382MPD2    C2 5710   3.399   3.895  17.490  0.1088  0.5725 -0.3478
  382MPD2    C3 5711   3.392   3.773  17.427  0.5106 -0.1484  0.2221
  382MPD2    C4 5712   3.433   3.768  17.294  0.1214 -0.0862 -0.6588
  382MPD2    C5 5713   3.466   3.882  17.228 -0.1244  0.0976 -0.1820
  382MPD2     H 5714   3.354   3.899  17.589 -1.8890 -0.3919 -1.1981
  382MPD2    H1 5715   3.440   3.677  17.236  0.7258 -0.2740 -0.2904
  382MPD2    H2 5716   3.483   4.089  17.229 -0.4257  0.9395  0.0683
  382MPD2    H3 5717   3.507   3.869  17.129 -2.1458  0.0017 -1.0035
  382MPD2     N 5718   3.345   3.651  17.481 -0.2085 -0.7766  0.1351
  382MPD2    H5 5719   3.314   3.581  17.414 -0.4006  2.7507 -3.4497
  382MPD2    N1 5720   3.401   4.140  17.490 -0.1999  0.3782 -0.1726
  382MPD2    H7 5721   3.390   4.137  17.591 -0.0862 -0.5767 -0.1873
  383TMC3    C1 5722   3.293   3.496  17.639 -0.5959 -0.1183 -0.0487
  383TMC3    C2 5723   3.207   3.449  17.549 -0.4719 -0.6587  0.9615
  383TMC3    C3 5724   3.174   3.315  17.562  0.3081  0.4116 -0.3752
  383TMC3    C4 5725   3.346   3.417   0.054  0.5859 -0.7933 -0.2271
  383TMC3    C5 5726   3.321   3.284   0.062  0.0911 -0.4092  0.6069
  383TMC3    C6 5727   3.227   3.235  17.663  0.2407  0.1072  0.1853
  383TMC3     C 5728   3.350   3.622  17.612 -0.6218 -0.7261  0.7808
  383TMC3     O 5729   3.388   3.688   0.015 -0.8106  0.0813  0.2227
  383TMC3     H 5730   3.151   3.509  17.478  2.1849  0.5163 -0.1353
  383TMC3    H1 5731   3.404   3.465   0.132  1.6437 -1.3263 -0.6915
  383TMC3    H2 5732   3.180   3.140  17.688  0.6575  0.3934  2.0636
  383TMC3    C7 5733   3.364   3.187   0.159 -0.0051  0.6294  0.2522
  383TMC3    C8 5734   3.042   3.282  17.509  0.2346  0.6746 -0.2701
  383TMC3    O1 5735   3.321   3.072   0.166  0.3023 -0.4951 -0.2385
  383TMC3    O2 5736   2.962   3.374  17.490 -0.0968 -0.6577  0.2719
  384MPD2     C 5737   0.823   0.664  12.194  0.4805 -0.3203  0.1849
  384MPD2    C1 5738   0.862   0.550  12.252  0.6628  0.2678 -0.6567
  384MPD2    C2 5739   0.963   0.477  12.194  0.1052 -0.2263  0.1291
  384MPD2    C3 5740   1.015   0.514  12.073 -0.2461  0.1524 -0.0417
  384MPD2    C4 5741   0.966   0.626  12.012  0.5227  0.1342 -0.0012
  384MPD2    C5 5742   0.876   0.704  12.072  0.4685 -0.2517  0.5237
  384MPD2     H 5743   0.988   0.381  12.238 -1.9203 -1.7501 -2.0149
  384MPD2    H1 5744   1.005   0.667  11.920  0.7692  0.3025  0.1743
  384MPD2    H2 5745   0.740   0.725  12.228  0.7997  0.6124 -0.6800
  384MPD2    H3 5746   0.837   0.792  12.021  1.3625 -0.5877 -0.7393
  384MPD2     N 5747   1.111   0.438  12.001  0.2864 -0.5274  0.0660
  384MPD2    H5 5748   1.141   0.479  11.913  0.6749  1.8277  1.2888
  384MPD2    N1 5749   0.798   0.495  12.368 -0.3603 -0.7631  0.8824
  384MPD2    H7 5750   0.829   0.401  12.393  0.4055 -0.5116  0.8781
  385TMC3    C1 5751   1.231   0.247  11.926  0.4018  0.4787 -0.5548
  385TMC3    C2 5752   1.222   0.292  11.797  0.1952 -0.1876  0.5764
  385TMC3    C3 5753   1.195   0.204  11.697  0.2016 -0.4178  0.0922
  385TMC3    C4 5754   1.232   0.110  11.942  0.3441  0.2579  0.3719
  385TMC3    C5 5755   1.189   0.028  11.841 -0.3846  0.0087 -1.1864
  385TMC3    C6 5756   1.168   0.074  11.714 -0.0239 -0.0546  0.0401
  385TMC3     C 5757   1.143   0.304  12.027 -0.5071 -0.4536 -0.2377
  385TMC3     O 5758   1.106   0.229  12.122 -0.0104  0.8349 -0.3990
  385TMC3     H 5759   1.233   0.397  11.773 -0.6814 -0.4813 -1.1361
  385TMC3    H1 5760   1.249   0.060  12.036  1.4144 -0.7222 -0.3368
  385TMC3    H2 5761   1.152   0.011  11.628 -0.8451 -1.6384  1.3658
  385TMC3    C7 5762   1.082   4.661  11.882  0.5183  0.5125 -0.1030
  385TMC3    C8 5763   1.182   0.258  11.564  0.1675  0.1445 -1.3458
  385TMC3    O1 5764   1.048   4.565  11.809 -0.6196 -0.2459 -0.3584
  385TMC3    O2 5765   1.253   0.358  11.542 -0.6223 -0.4928  0.1193
  386TMC3    C1 5766   1.127   2.611  12.021 -0.5283 -0.1452 -0.3763
  386TMC3    C2 5767   1.098   2.529  11.910  0.3294 -0.3207  0.0288
  386TMC3    C3 5768   1.006   2.581  11.822  0.2964  0.1555  0.2802
  386TMC3    C4 5769   1.065   2.727  12.054  0.7429 -0.2412 -0.2653
  386TMC3    C5 5770   0.962   2.770  11.974 -0.2579  0.0928  0.2236
  386TMC3    C6 5771   0.934   2.699  11.856  0.0327  0.4496 -0.5847
  386TMC3     C 5772   1.228   2.572  12.116 -0.4830 -0.2533 -0.4471
  386TMC3     O 5773   1.302   2.665  12.146  0.1453  0.2575 -0.7703
  386TMC3     H 5774   1.147   2.434  11.892 -2.0854 -1.4845 -0.4346
  386TMC3    H1 5775   1.086   2.775  12.149 -0.1207  0.1661 -0.2763
  386TMC3    H2 5776   0.856   2.738  11.791  1.0689 -1.7592 -3.1633
  386TMC3    C7 5777   0.866   2.857  12.044 -1.0567  0.3271 -0.4163
  386TMC3    C8 5778   0.959   2.492  11.715 -0.2104 -0.0270  0.4859
  386TMC3    O1 5779   0.849   2.833  12.164 -0.3671 -0.5196  0.1827
  386TMC3    O2 5780   1.006   2.381  11.706  0.2363  0.2112 -0.2670
  387MPD2     C 5781   3.036   2.743   9.867 -0.0993 -0.0543 -0.7635
  387MPD2    C1 5782   3.158   2.726   9.921 -0.2044 -0.2698 -0.0272
  387MPD2    C2 5783   3.213   2.605   9.927 -1.2498 -0.4369 -0.0117
  387MPD2    C3 5784   3.168   2.496   9.860 -0.3147 -0.7619  0.1142
  387MPD2    C4 5785   3.038   2.501   9.818  0.1621 -0.3148 -0.4058
  387MPD2    C5 5786   2.972   2.627   9.830 -0.8145  0.3303  0.3998
  387MPD2     H 5787   3.309   2.588   9.974 -1.3835 -1.6514 -0.1605
  387MPD2    H1 5788   2.979   2.422   9.772 -1.2217  0.9038 -0.7356
  387MPD2    H2 5789   2.990   2.841   9.869 -0.3809 -0.1770 -1.4775
  387MPD2    H3 5790   2.871   2.642   9.794 -0.5107 -0.7797 -0.9074
  387MPD2     N 5791   3.242   2.379   9.869 -0.1141 -0.3912  0.2848
  387MPD2    H5 5792   3.325   2.389   9.925 -0.4783 -1.4852  1.0122
  387MPD2    N1 5793   3.240   2.833   9.978  0.2132 -0.1332  0.5881
  387MPD2    H7 5794   3.326   2.811  10.027 -0.6287 -0.6857  1.8201
  388TMC3    C1 5795   3.353   3.031  10.003  0.0695  0.9642  0.1803
  388TMC3    C2 5796   3.354   3.146  10.084  0.0777 -0.3077  0.3391
  388TMC3    C3 5797   3.473   3.198  10.119  0.2547  0.5128 -0.0796
  388TMC3    C4 5798   3.468   2.968   9.971  0.6934  0.1177  0.1276
  388TMC3    C5 5799   3.583   3.007  10.035 -0.1801 -0.1789  0.1868
  388TMC3    C6 5800   3.592   3.125  10.103  0.7534 -0.5003  0.6088
  388TMC3     C 5801   3.227   2.966   9.974  0.0539 -0.3190  0.0914
  388TMC3     O 5802   3.129   3.022   9.924 -0.0776  0.8166  0.4341
  388TMC3     H 5803   3.259   3.190  10.111  0.9702  1.5395  0.4241
  388TMC3    H1 5804   3.467   2.893   9.894 -0.5240 -0.8477  1.0875
  388TMC3    H2 5805   3.690   3.170  10.112  0.3236  0.8229 -1.3575
  388TMC3    C7 5806   3.702   2.924  10.032  0.3878 -0.0746  0.1209
  388TMC3    C8 5807   3.463   3.328  10.179  0.0084  0.0336 -0.2049
  388TMC3    O1 5808   3.816   2.971  10.023 -0.0028 -0.0293  0.1055
  388TMC3    O2 5809   3.349   3.376  10.201 -0.4277 -0.5540 -0.6307
  389MPD2     C 5810   2.882   0.882  11.171 -0.3002 -0.1528  0.6501
  389MPD2    C1 5811   2.784   0.790  11.148 -0.1377  0.0299  0.0387
  389MPD2    C2 5812   2.725   0.728  11.253  0.4616  0.3630  0.1351
  389MPD2    C3 5813   2.763   0.761  11.378  0.0088  0.2330  1.2295
  389MPD2    C4 5814   2.850   0.862  11.406 -0.1062  0.0579 -0.8356
  389MPD2    C5 5815   2.910   0.927  11.297  0.2358 -0.0161  0.3035
  389MPD2     H 5816   2.641   0.664  11.229 -1.1999  2.4364  0.4831
  389MPD2    H1 5817   2.882   0.900  11.503 -0.2217  0.3240 -0.9032
  389MPD2    H2 5818   2.932   0.936  11.091  0.3911 -2.3273 -0.3990
  389MPD2    H3 5819   2.987   1.003  11.312  0.4826 -0.1370 -0.3295
  389MPD2     N 5820   2.705   0.703  11.497 -0.5606  0.0150 -0.5390
  389MPD2    H5 5821   2.728   0.729  11.592  0.2834 -1.6343 -0.2898
  389MPD2    N1 5822   2.738   0.780  11.012  0.1670  0.2278  0.4661
  389MPD2    H7 5823   2.778   0.844  10.944 -2.0804  2.0594  0.8429
  390TMC3    C1 5824   2.564   0.565  11.626  0.2337 -0.4194 -0.7997
  390TMC3    C2 5825   2.502   0.450  11.641 -0.0264  0.2080  0.7554
  390TMC3    C3 5826   2.413   0.440  11.745 -0.6797 -1.0789  0.2952
  390TMC3    C4 5827   2.542   0.675  11.709  0.0339 -1.2818  1.1040
  390TMC3    C5 5828   2.451   0.663  11.813 -0.4185  0.0357 -0.4889
  390TMC3    C6 5829   2.378   0.545  11.822  0.4843  0.0080  0.5403
  390TMC3     C 5830   2.626   0.592  11.492  0.0084 -1.0772  0.0420
  390TMC3     O 5831   2.599   0.523  11.398 -0.3991  0.1328 -0.1349
  390TMC3     H 5832   2.520   0.365  11.576  0.5000 -0.0431  1.2330
  390TMC3    H1 5833   2.585   0.772  11.687  1.3229 -2.4268 -1.4635
  390TMC3    H2 5834   2.296   0.528  11.889  0.0058  2.3175  0.5630
  390TMC3    C7 5835   2.407   0.788  11.872 -0.3576 -0.3115 -0.1217
  390TMC3    C8 5836   2.321   0.328  11.740 -0.3148  0.0321  0.3097
  390TMC3    O1 5837   2.459   0.898  11.841 -0.0815 -0.6582 -0.2086
  390TMC3    O2 5838   2.317   0.265  11.638  0.3133  0.1379 -0.4313
  391MPD2     C 5839   1.627   2.078  11.585  0.2149  0.1360 -0.1159
  391MPD2    C1 5840   1.726   2.168  11.568  0.2291 -0.8250 -0.2796
  391MPD2    C2 5841   1.763   2.195  11.439 -0.3692  0.3199  1.1445
  391MPD2    C3 5842   1.697   2.141  11.332 -0.0451  0.6918  0.1638
  391MPD2    C4 5843   1.586   2.056  11.352 -0.2022 -0.6975  0.3206
  391MPD2    C5 5844   1.560   2.027  11.479 -0.9826  0.1894 -0.6986
  391MPD2     H 5845   1.853   2.253  11.419 -0.6737 -0.7085 -3.2360
  391MPD2    H1 5846   1.543   1.996  11.273 -0.5233  0.2057 -0.1919
  391MPD2    H2 5847   1.593   2.041  11.681  0.1999 -0.3707 -0.3159
  391MPD2    H3 5848   1.490   1.949  11.503  0.8633 -1.4963 -0.8065
  391MPD2     N 5849   1.754   2.177  11.202 -0.1604  0.3340  0.1590
  391MPD2    H5 5850   1.842   2.229  11.196 -0.5792  0.9703 -0.4499
  391MPD2    N1 5851   1.803   2.207  11.674  0.6516  0.0503  0.3837
  391MPD2    H7 5852   1.784   2.161  11.762  1.5008 -1.8885 -0.4630
  392TMC3    C1 5853   1.767   2.170  10.963 -0.1682 -0.3912  0.0415
  392TMC3    C2 5854   1.685   2.162  10.852  0.5381  0.6053 -0.2773
  392TMC3    C3 5855   1.747   2.185  10.733  0.4729 -0.4284  0.4589
  392TMC3    C4 5856   1.888   2.224  10.964  0.7808  0.3024  0.3344
  392TMC3    C5 5857   1.936   2.257  10.838 -0.1144  0.3908  0.4972
  392TMC3    C6 5858   1.883   2.216  10.718 -0.0106  0.6596  0.4337
  392TMC3     C 5859   1.685   2.150  11.088  0.3449  0.3866 -0.5504
  392TMC3     O 5860   1.565   2.142  11.082 -0.2713  0.3303 -0.2318
  392TMC3     H 5861   1.589   2.113  10.857  1.4931 -1.0996  1.8313
  392TMC3    H1 5862   1.946   2.240  11.055 -0.2148  2.2052  0.6338
  392TMC3    H2 5863   1.917   2.237  10.617 -1.5894 -0.6291 -0.3579
  392TMC3    C7 5864   2.042   2.360  10.838 -0.1485  0.4355 -0.4951
  392TMC3    C8 5865   1.666   2.146  10.614  0.5131 -1.0229  0.4973
  392TMC3    O1 5866   2.085   2.401  10.948 -0.5183  0.3644  0.3640
  392TMC3    O2 5867   1.728   2.089  10.523  0.2391  0.1148  0.4880
  393TMC3    C1 5868   0.840   0.744  10.414 -0.2038  0.3139  0.8696
  393TMC3    C2 5869   0.708   0.705  10.421 -0.1342  0.3552 -0.6200
  393TMC3    C3 5870   0.672   0.657  10.547 -0.2064 -0.8496  0.7567
  393TMC3    C4 5871   0.934   0.705  10.501  0.4031  0.1277  0.6737
  393TMC3    C5 5872   0.888   0.651  10.616  0.6943 -0.4061 -0.5060
  393TMC3    C6 5873   0.760   0.628  10.646 -0.2597 -0.6237  0.7096
  393TMC3     C 5874   0.875   0.822  10.300 -0.0657 -0.0038  0.4135
  393TMC3     O 5875   0.808   0.807  10.199  0.1544 -0.6211  0.1342
  393TMC3     H 5876   0.629   0.726  10.350 -2.1354 -0.4331  1.3547
  393TMC3    H1 5877   1.038   0.726  10.479  0.3145 -1.4842 -1.2794
  393TMC3    H2 5878   0.737   0.587  10.743 -1.8420  1.0553  1.0301
  393TMC3    C7 5879   0.990   0.583  10.696 -0.1880 -0.3585  0.5196
  393TMC3    C8 5880   0.530   0.666  10.591  0.3391  0.4938 -0.9291
  393TMC3    O1 5881   0.986   0.604  10.815 -0.2532  0.4333 -0.2627
  393TMC3    O2 5882   0.499   0.687  10.709  0.0534  0.6924 -0.0754
  394TMC3    C1 5883   2.600   0.719  10.822 -0.3171 -0.2444 -0.4711
  394TMC3    C2 5884   2.500   0.643  10.776  0.1476  0.1557 -0.4645
  394TMC3    C3 5885   2.410   0.692  10.687 -0.4172  0.4095 -0.0066
  394TMC3    C4 5886   2.616   0.844  10.771  0.4718 -0.1662 -0.9094
  394TMC3    C5 5887   2.536   0.888  10.675  0.0260 -0.4249  0.4766
  394TMC3    C6 5888   2.434   0.809  10.629  0.6365  0.6817 -0.0524
  394TMC3     C 5889   2.651   0.685  10.959  0.9268 -0.0917  0.5835
  394TMC3     O 5890   2.601   0.588  11.015  0.2724 -0.6357 -0.0963
  394TMC3     H 5891   2.486   0.550  10.831  1.2746 -0.5126 -1.3122
  394TMC3    H1 5892   2.692   0.911  10.809 -1.3665  0.3343  1.8340
  394TMC3    H2 5893   2.385   0.828  10.535 -0.8234 -0.6206  0.4408
  394TMC3    C7 5894   2.586   0.950  10.560 -0.2807  0.2877  0.2221
  394TMC3    C8 5895   2.363   0.597  10.593  0.7219 -0.0636  0.3541
  394TMC3    O1 5896   2.508   1.011  10.491  0.2793 -0.0482 -0.0682
  394TMC3    O2 5897   2.269   0.644  10.534 -0.3433 -0.2229  0.9689
  395TMC3    C1 5898   2.109   2.501  15.125  0.6160 -0.1440  0.1815
  395TMC3    C2 5899   2.063   2.466  15.000  0.4445 -0.3053 -0.2369
  395TMC3    C3 5900   2.136   2.516  14.896 -0.2465  0.7174 -0.4413
  395TMC3    C4 5901   2.217   2.582  15.153  0.3170 -0.7350  0.1250
  395TMC3    C5 5902   2.280   2.628  15.037 -0.0739  0.4003 -0.2862
  395TMC3    C6 5903   2.240   2.594  14.914 -0.4593  0.3568 -0.2160
  395TMC3     C 5904   2.016   2.488  15.234  0.1399 -0.8101 -0.0359
  395TMC3     O 5905   1.965   2.591  15.280  0.4093  0.0490 -0.9268
  395TMC3     H 5906   1.982   2.396  14.985 -0.6099  0.8981 -0.1529
  395TMC3    H1 5907   2.259   2.609  15.249  1.5834 -0.9465 -0.3621
  395TMC3    H2 5908   2.282   2.643  14.827 -2.0935  1.6559 -0.2709
  395TMC3    C7 5909   2.342   2.754  15.048  0.3555  0.4450  0.1898
  395TMC3    C8 5910   2.078   2.517  14.761 -0.4748 -0.6958 -0.1960
  395TMC3    O1 5911   2.311   2.814  15.149  0.2379 -0.3110  0.1543
  395TMC3    O2 5912   2.114   2.599  14.679  0.3869 -0.0457  0.0189
  396MPD2     C 5913   1.902   3.937  17.514  0.0697  0.0218 -0.0027
  396MPD2    C1 5914   1.950   3.906  17.395 -0.5556  1.3785  0.2552
  396MPD2    C2 5915   1.995   4.017  17.309 -0.2552  0.8637  0.4117
  396MPD2    C3 5916   2.000   4.146  17.359  0.1968 -0.5439  0.3549
  396MPD2    C4 5917   1.946   4.176  17.478 -0.0469 -0.1308 -0.1292
  396MPD2    C5 5918   1.904   4.068  17.557  0.5627 -0.0253  0.2081
  396MPD2     H 5919   2.027   4.003  17.206 -0.0274  1.8672  0.3438
  396MPD2    H1 5920   1.932   4.276  17.517  0.1874  0.3450 -1.2864
  396MPD2    H2 5921   1.878   3.863  17.589 -0.6124 -1.2499 -1.4480
  396MPD2    H3 5922   1.860   4.079  17.655 -0.9185  0.8962 -0.5721
  396MPD2     N 5923   2.067   4.250  17.277 -0.2025 -0.3737  0.0753
  396MPD2    H5 5924   2.095   4.218  17.184  0.2219 -1.4197  0.5540
  396MPD2    N1 5925   1.956   3.766  17.367  0.3661  0.2947  0.0338
  396MPD2    H7 5926   1.941   3.699  17.442  2.4793  0.1490  0.3209
  397TMC3    C1 5927   1.978   3.562  17.248 -0.9542 -0.3458 -0.3454
  397TMC3    C2 5928   1.988   3.539  17.112 -0.5938  0.0174  0.2365
  397TMC3    C3 5929   1.896   3.458  17.042  0.3078  0.2864  0.2786
  397TMC3    C4 5930   1.864   3.511  17.309  0.1883 -0.3255  0.1636
  397TMC3    C5 5931   1.775   3.442  17.238  0.1760 -0.0883  0.5190
  397TMC3    C6 5932   1.791   3.401  17.106 -0.4631 -0.4069  0.5152
  397TMC3     C 5933   1.981   3.707  17.245 -0.1490 -0.0525  0.3346
  397TMC3     O 5934   1.996   3.757  17.134  0.3802 -0.1768 -0.1646
  397TMC3     H 5935   2.084   3.550  17.062 -0.2475 -2.0968  0.4413
  397TMC3    H1 5936   1.853   3.525  17.416 -1.9530 -1.6295  0.1178
  397TMC3    H2 5937   1.732   3.320  17.066 -1.7659 -0.6281  2.9222
  397TMC3    C7 5938   1.715   3.337  17.313 -0.1140  0.8804 -0.2441
  397TMC3    C8 5939   1.869   3.508  16.907 -0.0069  0.0898  0.8668
  397TMC3    O1 5940   1.695   3.235  17.247 -0.3012  0.0419  0.1740
  397TMC3    O2 5941   1.783   3.454  16.839 -0.3642 -0.4760 -0.4224
  398MPD2     C 5942   0.066   4.096   0.336  0.1791 -0.7923  0.1630
  398MPD2    C1 5943   0.153   4.001   0.286 -0.5654  1.0509  0.0941
  398MPD2    C2 5944   0.230   4.025   0.179 -0.0079  0.2555  0.6356
  398MPD2    C3 5945   0.218   4.146   0.113 -0.6878 -0.3698  0.2776
  398MPD2    C4 5946   0.134   4.247   0.168  1.2714  0.2134 -0.3697
  398MPD2    C5 5947   0.061   4.214   0.279 -0.0351 -0.8134 -0.1703
  398MPD2     H 5948   0.302   3.948   0.155 -0.5393 -0.6780  2.0322
  398MPD2    H1 5949   0.127   4.350   0.136 -2.8554  0.0096 -0.0513
  398MPD2    H2 5950   0.010   4.080   0.427  2.2214 -1.4111  1.3241
  398MPD2    H3 5951   0.003   4.296   0.319  1.5443  1.5092 -2.6667
  398MPD2     N 5952   0.305   4.162   0.002 -0.3880 -0.0872 -0.2805
  398MPD2    H5 5953   0.377   4.092  17.674  0.7776  0.2080  3.5527
  398MPD2    N1 5954   0.178   3.883   0.362  0.5010 -0.2828  0.6269
  398MPD2    H7 5955   0.256   3.820   0.344  1.4884  2.0020 -3.1396
  399TMC3    C1 5956   0.186   3.736   0.549 -0.3778 -0.0118 -0.4362
  399TMC3    C2 5957   0.320   3.743   0.549  0.7922  0.2988  0.3176
  399TMC3    C3 5958   0.372   3.682   0.661  0.4593 -0.3084 -0.0232
  399TMC3    C4 5959   0.104   3.657   0.634  0.0416  0.4289  0.1734
  399TMC3    C5 5960   0.168   3.607   0.741 -0.3161 -0.2415  0.2756
  399TMC3    C6 5961   0.304   3.609   0.754 -0.3355 -1.1735 -0.5063
  399TMC3     C 5962   0.110   3.839   0.475  0.3835  0.4608 -0.1845
  399TMC3     O 5963   4.718   3.871   0.516 -0.0741 -0.0798  0.0302
  399TMC3     H 5964   0.377   3.810   0.486 -0.9730 -1.4577 -3.1035
  399TMC3    H1 5965   4.721   3.641   0.613  0.5760 -2.3918 -0.3095
  399TMC3    H2 5966   0.358   3.572   0.841  2.3047  0.9992 -1.2113
  399TMC3    C7 5967   0.102   3.504   0.813 -0.4293  0.5142  0.4899
  399TMC3    C8 5968   0.513   3.677   0.664  0.2699 -0.3980  0.5564
  399TMC3    O1 5969   4.702   3.505   0.834 -0.1963 -0.3749 -0.1694
  399TMC3    O2 5970   0.564   3.658   0.774 -0.1503  0.3308 -0.0077
  400TMC3    C1 5971   2.958   2.964  17.041 -0.3530 -0.0739 -0.1233
  400TMC3    C2 5972   2.841   2.949  16.986 -0.0677 -0.2218  0.2039
  400TMC3    C3 5973   2.753   3.057  16.991 -0.3123 -0.5175 -0.0803
  400TMC3    C4 5974   2.991   3.085  17.109  0.0953  0.0462  0.7706
  400TMC3    C5 5975   2.901   3.188  17.103  0.2686  0.4155  1.0490
  400TMC3    C6 5976   2.788   3.183  17.029 -0.3739  0.1459 -0.4118
  400TMC3     C 5977   2.991   2.844  17.121  0.3584 -0.2098  0.1132
  400TMC3     O 5978   2.903   2.762  17.142  0.5117 -0.0331  0.8358
  400TMC3     H 5979   2.803   2.853  16.953  1.5918 -0.9058  0.2995
  400TMC3    H1 5980   3.077   3.093  17.175 -0.5900 -1.2325  1.7963
  400TMC3    H2 5981   2.727   3.272  17.024  0.7613  1.1614  3.6144
  400TMC3    C7 5982   2.960   3.311  17.134  0.0392  0.0258 -0.2555
  400TMC3    C8 5983   2.612   3.040  16.963  1.2692 -0.2203 -0.3588
  400TMC3    O1 5984   3.081   3.321  17.134 -0.2251 -0.2771  0.5548
  400TMC3    O2 5985   2.549   3.137  16.934 -0.0481 -0.3459  0.2991
  401MPD2     C 5986   2.272   2.178   0.726 -0.3762 -0.0893  0.4677
  401MPD2    C1 5987   2.306   2.121   0.851 -0.1566  0.3700 -0.3998
  401MPD2    C2 5988   2.270   1.989   0.871 -0.4683  0.3565  0.2976
  401MPD2    C3 5989   2.185   1.921   0.778  0.0059 -0.6105 -0.2116
  401MPD2    C4 5990   2.148   1.988   0.662 -0.3549  0.8528  0.2743
  401MPD2    C5 5991   2.198   2.110   0.632 -0.3173 -0.0164 -0.1926
  401MPD2     H 5992   2.300   1.938   0.962 -0.8697  0.6979  0.6194
  401MPD2    H1 5993   2.107   1.933   0.579 -0.7336 -1.6408  2.0911
  401MPD2    H2 5994   2.306   2.275   0.692 -1.9719  0.1874 -0.3660
  401MPD2    H3 5995   2.172   2.161   0.540  1.2836  1.1252 -0.0174
  401MPD2     N 5996   2.135   1.789   0.801 -0.2236 -0.0053  0.3120
  401MPD2    H5 5997   2.163   1.743   0.887  1.6325 -1.0923 -0.8678
  401MPD2    N1 5998   2.373   2.191   0.953  0.0375  0.2050 -0.1518
  401MPD2    H7 5999   2.391   2.138   1.037 -0.7442  0.7167  0.3435
  402TMC3    C1 6000   2.008   1.588   0.774 -0.1028 -0.1491 -0.0339
  402TMC3    C2 6001   2.000   1.568   0.911  0.8170  0.2256 -0.9033
  402TMC3    C3 6002   1.949   1.451   0.955 -0.1498  0.6116  0.3608
  402TMC3    C4 6003   1.978   1.483   0.691  0.6389 -0.0435  0.1949
  402TMC3    C5 6004   1.932   1.362   0.741  0.6289 -0.0621  0.3506
  402TMC3    C6 6005   1.903   1.355   0.874 -0.3206  0.1380 -0.0509
  402TMC3     C 6006   2.049   1.717   0.723 -0.3661  0.1458  0.8969
  402TMC3     O 6007   2.022   1.740   0.605 -0.2332  0.4277  0.3702
  402TMC3     H 6008   2.019   1.656   0.972  1.9794 -1.0761  0.6047
  402TMC3    H1 6009   1.975   1.495   0.583  1.7034  0.2357  0.1947
  402TMC3    H2 6010   1.855   1.270   0.921  2.1424 -0.4591  1.3938
  402TMC3    C7 6011   1.982   1.243   0.674 -0.5849  0.8257 -0.5639
  402TMC3    C8 6012   1.993   1.393   1.085  0.4593  0.3849  0.6470
  402TMC3    O1 6013   1.998   1.235   0.552 -0.4580  0.1519 -0.0156
  402TMC3    O2 6014   2.034   1.273   1.078 -0.3148 -0.6533  0.5501
  403MPD2     C 6015   0.068   0.309  14.360  0.4799  0.4668  0.4411
  403MPD2    C1 6016   0.129   0.282  14.242 -0.2231  0.1124  0.1094
  403MPD2    C2 6017   0.256   0.331  14.220 -0.5241 -0.3645 -0.4470
  403MPD2    C3 6018   0.320   0.413  14.305  0.3132 -0.1369 -0.0616
  403MPD2    C4 6019   0.261   0.434  14.425 -0.3109  0.6571  0.0041
  403MPD2    C5 6020   0.137   0.385  14.454 -0.2867  0.4567  0.3539
  403MPD2     H 6021   0.317   0.314  14.131 -0.4759 -1.3038 -0.2329
  403MPD2    H1 6022   0.315   0.499  14.492 -1.8362  0.3746  1.5164
  403MPD2    H2 6023   4.689   0.277  14.385  0.5418 -0.8445 -0.9556
  403MPD2    H3 6024   0.089   0.410  14.548  1.6807 -1.4708  1.8544
  403MPD2     N 6025   0.448   0.460  14.277  0.1948 -0.0969  0.6728
  403MPD2    H5 6026   0.499   0.426  14.196 -0.5954 -1.0828  0.5943
  403MPD2    N1 6027   0.054   0.205  14.154  0.0678 -0.3221 -0.2134
  403MPD2    H7 6028   4.682   0.182  14.186  0.9535 -1.6356  1.4707
  404TMC3    C1 6029   4.709   0.102  13.969 -0.4576  0.2170  0.1717
  404TMC3    C2 6030   4.659   4.719  14.036 -0.1471  0.9107 -0.8469
  404TMC3    C3 6031   4.572   4.640  13.967 -0.0227  0.4134  0.7699
  404TMC3    C4 6032   4.689   0.119  13.833 -0.0913 -0.3708  0.2689
  404TMC3    C5 6033   4.619   0.029  13.766  0.0158 -0.0333 -0.1958
  404TMC3    C6 6034   4.550   4.649  13.828  1.0893 -0.5892  0.1906
  404TMC3     C 6035   0.091   0.181  14.026  0.2170 -0.5596  0.0163
  404TMC3     O 6036   0.190   0.202  13.962 -0.2637  0.0040 -0.3478
  404TMC3     H 6037   4.687   4.700  14.139 -1.0982  0.9130 -0.5934
  404TMC3    H1 6038   0.032   0.192  13.785  1.4083 -2.4711 -0.9066
  404TMC3    H2 6039   4.490   4.578  13.773  2.1741 -0.6064 -0.9709
  404TMC3    C7 6040   4.607   0.069  13.627 -0.2887  0.7395  0.2767
  404TMC3    C8 6041   4.531   4.518  14.030 -0.8516 -0.8600 -0.0672
  404TMC3    O1 6042   4.645   0.187  13.599 -0.1401  0.2214  0.3627
  404TMC3    O2 6043   4.510   4.411  13.968 -0.7316  0.0247  0.1812
  405MPD2     C 6044   4.561   4.590  15.387 -0.3143 -0.5193 -0.0272
  405MPD2    C1 6045   4.468   4.681  15.440  0.1017 -0.0850  0.0502
  405MPD2    C2 6046   4.438   0.069  15.364  0.4235 -0.0753 -0.3954
  405MPD2    C3 6047   4.504   0.090  15.247 -0.6757  0.1114 -0.0264
  405MPD2    C4 6048   4.597   4.720  15.198 -0.6383 -0.6247 -0.6623
  405MPD2    C5 6049   4.606   4.598  15.259 -0.8333  0.0421 -0.0850
  405MPD2     H 6050   4.379   0.155  15.395 -0.1482 -1.0980  1.3730
  405MPD2    H1 6051   4.649   0.011  15.104 -1.8815  0.9373 -1.1334
  405MPD2    H2 6052   4.581   4.495  15.436  0.0489 -1.2864 -1.6602
  405MPD2    H3 6053   4.656   4.509  15.222 -0.5244 -0.7659  2.2432
  405MPD2     N 6054   4.494   0.228  15.204  0.2395  0.0118 -0.6991
  405MPD2    H5 6055   4.424   0.284  15.252  1.0077  1.6679 -1.5017
  405MPD2    N1 6056   4.407   4.670  15.573  0.4901  0.2443  0.8005
  405MPD2    H7 6057   4.333   0.014  15.596 -2.1414 -0.8696 -4.2893
  406TMC3    C1 6058   4.506   0.659  15.004 -0.0864  1.1710  0.4933
  406TMC3    C2 6059   4.442   0.711  15.114 -0.8168  0.9342 -0.6285
  406TMC3    C3 6060   4.430   0.620  15.216  0.3966  0.1303  0.3653
  406TMC3    C4 6061   4.552   0.527  15.001  0.1300 -0.3734 -0.2255
  406TMC3    C5 6062   4.535   0.445  15.108  0.0730 -0.9429 -0.3801
  406TMC3    C6 6063   4.482   0.488  15.220  0.7207 -0.0265  0.2389
  406TMC3     C 6064   4.561   0.749  14.900  0.2636  0.5543  0.0113
  406TMC3     O 6065   4.662   0.703  14.844 -0.3202 -0.6401  0.1796
  406TMC3     H 6066   4.418   0.817  15.121 -0.1347  0.9566  1.1792
  406TMC3    H1 6067   4.594   0.490  14.908 -1.0337  0.6703 -1.1684
  406TMC3    H2 6068   4.491   0.440  15.317  0.0803 -0.2860  0.1717
  406TMC3    C7 6069   4.554   0.299  15.098  0.0232 -0.7283  0.3260
  406TMC3    C8 6070   4.382   0.673  15.347 -0.1907 -0.0480  0.3003
  406TMC3    O1 6071   4.647   0.261  15.024  0.2430 -0.0630 -0.4848
  406TMC3    O2 6072   4.385   0.794  15.363 -0.4812 -0.5277  0.0975
  407MPD2     C 6073   2.667   1.999   9.749 -0.7097 -0.0928  0.0698
  407MPD2    C1 6074   2.785   2.069   9.767  0.2386  0.1257 -1.0158
  407MPD2    C2 6075   2.790   2.175   9.857  0.9468 -0.0249  0.0123
  407MPD2    C3 6076   2.681   2.218   9.929 -0.1426 -0.7824 -0.1222
  407MPD2    C4 6077   2.564   2.149   9.898 -0.1744  0.1148 -0.5243
  407MPD2    C5 6078   2.555   2.047   9.813  0.3731  0.2796 -0.2599
  407MPD2     H 6079   2.887   2.224   9.861  0.8593  0.0573  1.0284
  407MPD2    H1 6080   2.470   2.191   9.932  0.9508  2.3816 -0.1774
  407MPD2    H2 6081   2.665   1.911   9.686  0.9452  0.5439 -0.8666
  407MPD2    H3 6082   2.459   2.008   9.785  0.0413  0.1157  1.1253
  407MPD2     N 6083   2.678   2.321  10.028 -0.3229  0.0331  0.1113
  407MPD2    H5 6084   2.588   2.355  10.058 -0.1837  1.8901 -1.6564
  407MPD2    N1 6085   2.907   2.038   9.704 -0.1666  0.2692 -0.0376
  407MPD2    H7 6086   2.986   2.098   9.729 -0.1451 -0.9076  2.6852
  408TMC3    C1 6087   3.060   1.923   9.573  0.3755 -0.0655  0.4043
  408TMC3    C2 6088   3.122   1.798   9.557 -0.0371  0.1766 -0.6963
  408TMC3    C3 6089   3.239   1.782   9.499 -0.0192 -0.4070  0.5021
  408TMC3    C4 6090   3.118   2.039   9.525  0.3088 -0.0457  0.3188
  408TMC3    C5 6091   3.233   2.018   9.458 -0.2574 -0.7983 -0.3998
  408TMC3    C6 6092   3.296   1.893   9.447  0.1985  0.0881  0.4642
  408TMC3     C 6093   2.924   1.940   9.608 -0.5469  0.2450 -0.1073
  408TMC3     O 6094   2.844   1.866   9.552  0.3119 -0.3085 -0.0262
  408TMC3     H 6095   3.068   1.717   9.603  0.1172  0.0706 -0.7003
  408TMC3    H1 6096   3.073   2.138   9.529  0.0384 -0.1145 -0.9738
  408TMC3    H2 6097   3.394   1.881   9.403  0.4948  0.3417  1.0635
  408TMC3    C7 6098   3.320   2.136   9.435 -0.3788 -0.3567  0.0811
  408TMC3    C8 6099   3.332   1.695   9.557  0.3308 -0.2915 -0.4883
  408TMC3    O1 6100   3.318   2.231   9.515  0.1548  0.2304  0.0622
  408TMC3    O2 6101   3.291   1.586   9.589  0.5294 -0.2235 -0.0284
  409MPD2     C 6102   1.970   2.544  17.115 -0.3636  0.2602  0.5960
  409MPD2    C1 6103   2.068   2.579  17.212 -0.6456  0.2314 -0.3772
  409MPD2    C2 6104   2.116   2.706  17.214  0.0736  0.3801  0.8025
  409MPD2    C3 6105   2.058   2.807  17.147  0.1584 -0.0138  0.5486
  409MPD2    C4 6106   1.953   2.778  17.062 -0.0331  0.0479  0.0158
  409MPD2    C5 6107   1.910   2.650  17.052 -0.4181  0.4418 -0.0865
  409MPD2     H 6108   2.190   2.733  17.288 -0.8503 -0.1618  1.9272
  409MPD2    H1 6109   1.895   2.848  17.003 -0.0557 -1.2408 -1.4853
  409MPD2    H2 6110   1.935   2.444  17.092  1.0337  0.1361 -0.9871
  409MPD2    H3 6111   1.833   2.620  16.981  0.4134 -3.4047  0.6251
  409MPD2     N 6112   2.094   2.942  17.169 -0.6496 -0.2037  0.2194
  409MPD2    H5 6113   2.033   3.008  17.122  0.2748  1.0493  0.7807
  409MPD2    N1 6114   2.125   2.486  17.296  0.0990  0.4182 -0.3632
  409MPD2    H7 6115   2.190   2.524  17.364  0.9837  0.0272 -0.9899
  410TMC3    C1 6116   2.203   3.144  17.254  0.2799 -0.8297  0.4933
  410TMC3    C2 6117   2.315   3.191  17.318  0.1221  0.1893 -0.6197
  410TMC3    C3 6118   2.401   3.287  17.263  0.3200 -0.3929 -0.4917
  410TMC3    C4 6119   2.170   3.211  17.139  0.3779  0.4334 -0.2442
  410TMC3    C5 6120   2.248   3.311  17.086  0.0946 -0.2126 -0.5283
  410TMC3    C6 6121   2.367   3.342  17.143 -0.0477  0.1084  0.2065
  410TMC3     C 6122   2.194   2.997  17.252 -0.0174 -0.3993  0.1557
  410TMC3     O 6123   2.267   2.938  17.337 -0.1309  0.6303  0.0666
  410TMC3     H 6124   2.330   3.162  17.422 -0.5280 -0.3922 -0.6842
  410TMC3    H1 6125   2.081   3.186  17.083  1.0629  1.4953 -1.8070
  410TMC3    H2 6126   2.431   3.409  17.087  1.5892 -0.8114  0.9727
  410TMC3    C7 6127   2.222   3.336  16.945 -0.3658  0.3463 -0.3213
  410TMC3    C8 6128   2.545   3.259  17.272 -0.9255  0.1250  0.1780
  410TMC3    O1 6129   2.135   3.271  16.894  0.7007  0.1923  0.1100
  410TMC3    O2 6130   2.626   3.341  17.227 -0.1650  0.3219 -0.5519
  411MPD2     C 6131   2.071   3.414  14.670  0.1643  0.2669 -1.0743
  411MPD2    C1 6132   2.162   3.506  14.625 -0.8566  0.6020 -0.0922
  411MPD2    C2 6133   2.248   3.458  14.528 -0.4271 -0.4071  0.6622
  411MPD2    C3 6134   2.233   3.327  14.483  0.5168 -0.2083 -0.0396
  411MPD2    C4 6135   2.131   3.245  14.521 -0.1070 -0.4025 -0.0260
  411MPD2    C5 6136   2.058   3.291  14.627  0.1558 -0.2660 -0.3167
  411MPD2     H 6137   2.322   3.527  14.491 -1.8947  0.8754  0.1345
  411MPD2    H1 6138   2.130   3.139  14.495  2.9780 -0.6254  0.6785
  411MPD2    H2 6139   1.994   3.434  14.744  0.0106 -2.3910 -0.5355
  411MPD2    H3 6140   1.989   3.225  14.677  1.0912 -0.0852  1.2197
  411MPD2     N 6141   2.321   3.270  14.388  0.1874  0.4938 -0.5619
  411MPD2    H5 6142   2.302   3.174  14.360 -0.3623  0.2539  0.6653
  411MPD2    N1 6143   2.175   3.638  14.691  0.6114  0.2035 -0.1196
  411MPD2    H7 6144   2.105   3.657  14.763  0.1674  1.4237 -0.8796
  412TMC3    C1 6145   2.492   3.236  14.231 -0.0777  1.0316  0.2695
  412TMC3    C2 6146   2.475   3.100  14.246  0.1688 -0.4568  0.2235
  412TMC3    C3 6147   2.521   3.020  14.145  0.1621 -0.1149  0.1291
  412TMC3    C4 6148   2.544   3.291  14.117  0.5322  0.4291  0.7744
  412TMC3    C5 6149   2.574   3.206  14.016  0.4331  0.8239 -0.9107
  412TMC3    C6 6150   2.567   3.074  14.028 -0.4481  0.0131 -1.0240
  412TMC3     C 6151   2.426   3.328  14.317 -0.4914 -0.7692 -0.7667
  412TMC3     O 6152   2.473   3.442  14.333 -0.1472  0.5995 -0.0340
  412TMC3     H 6153   2.412   3.053  14.321  0.7943  0.8554  1.5596
  412TMC3    H1 6154   2.558   3.398  14.109  0.2243  0.3636 -0.6544
  412TMC3    H2 6155   2.601   3.009  13.948 -0.2085 -0.1221 -0.8131
  412TMC3    C7 6156   2.522   3.247  13.886  0.1479 -0.2336 -0.3524
  412TMC3    C8 6157   2.411   2.925  14.106 -0.8467 -0.3395  0.6348
  412TMC3    O1 6158   2.483   3.154  13.818  0.0268 -0.4776 -0.5506
  412TMC3    O2 6159   2.360   2.846  14.182 -0.2077  0.7514 -0.4100
  413MPD2     C 6160   3.909   2.425  15.301 -0.2973  0.8870  0.5720
  413MPD2    C1 6161   3.870   2.312  15.373 -0.7281  0.4553  0.4767
  413MPD2    C2 6162   3.967   2.243  15.440  0.4026 -0.2292 -0.5178
  413MPD2    C3 6163   4.103   2.279  15.433  0.0205 -0.0065 -0.2371
  413MPD2    C4 6164   4.135   2.396  15.370 -0.2267  0.2632  0.2972
  413MPD2    C5 6165   4.036   2.474  15.313 -0.0030  0.4996 -0.0802
  413MPD2     H 6166   3.939   2.154  15.496 -0.2638 -0.9719 -2.0243
  413MPD2    H1 6167   4.234   2.436  15.387 -0.4598  0.7463  0.5259
  413MPD2    H2 6168   3.838   2.481  15.242 -2.1480 -0.5304  1.4686
  413MPD2    H3 6169   4.057   2.571  15.270 -1.1013  0.5132 -0.5872
  413MPD2     N 6170   4.212   2.202  15.475 -0.0052  0.8668  0.0861
  413MPD2    H5 6171   4.305   2.222  15.441 -0.0640 -2.3575 -1.9919
  413MPD2    N1 6172   3.741   2.257  15.366  0.2728 -0.2541 -0.0190
  413MPD2    H7 6173   3.669   2.291  15.303 -1.9195 -1.8019  1.6516
  414TMC3    C1 6174   4.310   1.999  15.538  0.6175  0.2037  0.2695
  414TMC3    C2 6175   4.320   1.906  15.637 -0.7941  1.1240 -0.6448
  414TMC3    C3 6176   4.387   1.794  15.600 -0.2703  0.4961  0.4907
  414TMC3    C4 6177   4.360   1.985  15.411  1.1913  1.0034 -0.2206
  414TMC3    C5 6178   4.432   1.876  15.377 -0.8627  0.9559 -0.1220
  414TMC3    C6 6179   4.440   1.776  15.475 -0.1681 -0.0613 -0.1062
  414TMC3     C 6180   4.202   2.095  15.563 -0.2221  0.4546  0.1944
  414TMC3     O 6181   4.115   2.073  15.647  0.0944  0.5084 -0.7629
  414TMC3     H 6182   4.289   1.941  15.735 -2.2862 -1.2192 -0.2783
  414TMC3    H1 6183   4.349   2.063  15.336 -1.5229  0.6391 -0.1845
  414TMC3    H2 6184   4.508   1.693  15.458  0.9823  1.0405 -0.8273
  414TMC3    C7 6185   4.510   1.876  15.250 -0.2524 -0.1398 -0.1985
  414TMC3    C8 6186   4.433   1.695  15.700 -0.5681  0.3741 -0.1315
  414TMC3    O1 6187   4.463   1.955  15.168 -0.2273  0.6124 -0.2881
  414TMC3    O2 6188   4.495   1.598  15.655 -0.0165  0.3676  0.4155
  415TMC3    C1 6189   0.304   0.147   9.658 -0.8179 -0.3524 -0.3502
  415TMC3    C2 6190   0.392   0.210   9.575 -0.0360  0.9771  0.3735
  415TMC3    C3 6191   0.345   0.281   9.473 -1.1719  0.1586 -0.3084
  415TMC3    C4 6192   0.168   0.163   9.645 -0.5952 -0.2551 -0.2922
  415TMC3    C5 6193   0.126   0.236   9.541  0.3739  0.6275  0.0559
  415TMC3    C6 6194   0.212   0.297   9.454 -0.2390 -0.5217 -0.8697
  415TMC3     C 6195   0.347   0.046   9.751 -0.2590 -0.6000 -0.0325
  415TMC3     O 6196   0.263   4.695   9.795 -0.9629  0.3667 -0.2539
  415TMC3     H 6197   0.500   0.208   9.591  0.3927 -1.2784 -2.6976
  415TMC3    H1 6198   0.100   0.122   9.720  0.8196  0.8078  1.5851
  415TMC3    H2 6199   0.180   0.344   9.362  1.2904 -0.1905 -1.2159
  415TMC3    C7 6200   4.704   0.255   9.519 -0.2082  0.4014 -0.4283
  415TMC3    C8 6201   0.421   0.362   9.381 -0.0164  0.2646  0.2841
  415TMC3    O1 6202   4.671   0.339   9.435 -0.0396 -0.2235 -0.1203
  415TMC3    O2 6203   0.367   0.463   9.335  0.6815  0.5745  0.1500
  416MPD2     C 6204   1.771   3.702  12.027 -0.5283 -0.4554 -0.3296
  416MPD2    C1 6205   1.706   3.672  11.908  0.0349  0.2927  0.0583
  416MPD2    C2 6206   1.731   3.547  11.855  0.6344  0.3516 -1.1692
  416MPD2    C3 6207   1.828   3.461  11.899 -0.6864 -0.7575 -0.3840
  416MPD2    C4 6208   1.889   3.490  12.019 -0.5851 -0.0894  0.7265
  416MPD2    C5 6209   1.855   3.611  12.081 -0.3047 -0.1060  0.0926
  416MPD2     H 6210   1.670   3.516  11.771 -0.6820  1.2241 -0.5282
  416MPD2    H1 6211   1.939   3.417  12.080  1.0399  1.7057  1.5339
  416MPD2    H2 6212   1.760   3.800  12.071  1.0709 -0.3707 -0.1314
  416MPD2    H3 6213   1.895   3.640  12.178 -0.8945  0.2034  0.2406
  416MPD2     N 6214   1.868   3.343  11.831  0.2693  0.3816  0.7528
  416MPD2    H5 6215   1.934   3.284  11.880  0.3112  0.4778  0.8123
  416MPD2    N1 6216   1.609   3.763  11.864  0.5245 -0.1640  0.3876
  416MPD2    H7 6217   1.596   3.855  11.906 -2.1011 -0.2464 -0.2206
  417TMC3    C1 6218   1.449   3.858  11.711 -0.1390  0.1906  0.5754
  417TMC3    C2 6219   1.399   3.947  11.806 -0.6147  0.4294 -0.3086
  417TMC3    C3 6220   1.327   4.054  11.758 -0.2509  0.7448  0.4178
  417TMC3    C4 6221   1.429   3.878  11.576  0.8954 -0.4509 -0.4288
  417TMC3    C5 6222   1.351   3.984  11.539 -0.4381  0.8050 -0.0437
  417TMC3    C6 6223   1.294   4.073  11.628 -0.4997  0.5328  0.3641
  417TMC3     C 6224   1.529   3.744  11.749  0.4871  0.1291 -0.1007
  417TMC3     O 6225   1.523   3.645  11.674  0.2154  0.2050  0.1682
  417TMC3     H 6226   1.402   3.914  11.910  1.9068  0.2969 -0.4200
  417TMC3    H1 6227   1.495   3.827  11.507 -1.0770 -2.0974 -1.1077
  417TMC3    H2 6228   1.239   4.160  11.594 -0.0877  0.7287  0.1929
  417TMC3    C7 6229   1.307   3.989  11.400  0.6391  0.2640 -0.1445
  417TMC3    C8 6230   1.232   4.123  11.846  0.7755  0.5969 -0.7072
  417TMC3    O1 6231   1.244   4.088  11.362  0.5064  0.1242 -0.0154
  417TMC3    O2 6232   1.136   4.175  11.788 -0.2362  0.2504  0.5007
  418TMC3    C1 6233   0.592   4.163  17.437  0.4086  0.4860  0.2935
  418TMC3    C2 6234   0.466   4.164  17.488  0.4929  0.1408 -0.0709
  418TMC3    C3 6235   0.420   4.286  17.536  0.0276 -0.1211  0.1002
  418TMC3    C4 6236   0.675   4.271  17.441  0.5667  0.6616  0.7781
  418TMC3    C5 6237   0.631   4.397  17.483  0.3768  0.1961  0.2113
  418TMC3    C6 6238   0.498   4.404  17.529 -0.3200 -0.4135  0.0814
  418TMC3     C 6239   0.638   4.029  17.423 -0.0678  0.3101 -0.0885
  418TMC3     O 6240   0.557   3.944  17.382 -0.1343  0.2897 -0.3270
  418TMC3     H 6241   0.401   4.077  17.495 -0.7993  0.9572 -1.7628
  418TMC3    H1 6242   0.771   4.269  17.390  0.6720 -3.4576  1.1726
  418TMC3    H2 6243   0.467   4.496  17.579  2.2659 -0.7180  2.2591
  418TMC3    C7 6244   0.729   4.457  17.574 -0.3019  0.1811 -0.8277
  418TMC3    C8 6245   0.310   4.285  17.626 -0.2642 -0.0347 -0.5752
  418TMC3    O1 6246   0.809   4.375  17.616  0.0809 -0.4092 -0.6959
  418TMC3    O2 6247   0.238   4.385  17.630 -0.5282 -0.5817 -0.6759
  419MPD2     C 6248   3.657   3.313  12.492 -0.2082 -0.7836 -0.1101
  419MPD2    C1 6249   3.691   3.262  12.615 -0.4868  0.2585 -0.2275
  419MPD2    C2 6250   3.596   3.264  12.717 -0.5817 -1.1282  0.1617
  419MPD2    C3 6251   3.460   3.293  12.690 -0.4161 -0.5242 -0.6094
  419MPD2    C4 6252   3.429   3.344  12.565 -0.2753 -0.2537  1.0714
  419MPD2    C5 6253   3.528   3.353  12.473 -0.3370 -0.0429 -0.1569
  419MPD2     H 6254   3.623   3.246  12.821 -0.7318  0.4993  0.4839
  419MPD2    H1 6255   3.329   3.366  12.530 -0.0395 -0.4916  0.2477
  419MPD2    H2 6256   3.714   3.321  12.400 -0.1867  4.4758  0.3168
  419MPD2    H3 6257   3.502   3.389  12.374 -0.5381 -0.0389 -0.1037
  419MPD2     N 6258   3.364   3.285  12.796  0.4667 -0.1618 -0.0950
  419MPD2    H5 6259   3.404   3.260  12.886  1.0965 -2.8379 -1.1243
  419MPD2    N1 6260   3.826   3.221  12.642 -0.0906 -0.4771  0.4073
  419MPD2    H7 6261   3.857   3.203  12.737 -1.5035  1.9473  1.3419
  420TMC3    C1 6262   3.158   3.350  12.908 -0.2783 -0.1715 -0.0062
  420TMC3    C2 6263   3.027   3.392  12.883  0.2169  0.3865  0.4454
  420TMC3    C3 6264   2.960   3.445  12.987 -0.5870  0.4202  0.7369
  420TMC3    C4 6265   3.221   3.380  13.023 -0.0637 -0.3883  0.3854
  420TMC3    C5 6266   3.151   3.443  13.125  0.4302 -0.7217  0.5014
  420TMC3    C6 6267   3.016   3.478  13.110  0.1851 -1.0627 -0.2283
  420TMC3     C 6268   3.231   3.315  12.784 -0.0164  0.0990 -0.1127
  420TMC3     O 6269   3.161   3.322  12.684 -0.4113 -0.1555  0.1783
  420TMC3     H 6270   2.971   3.379  12.791 -0.2327  2.0548  0.4848
  420TMC3    H1 6271   3.325   3.354  13.041  0.0669 -1.7741 -2.4337
  420TMC3    H2 6272   2.957   3.530  13.184  0.2571  0.7470 -1.4436
  420TMC3    C7 6273   3.215   3.457  13.251  0.9858  0.5898  0.3970
  420TMC3    C8 6274   2.825   3.493  12.958  0.2832  0.6081  0.3718
  420TMC3    O1 6275   3.306   3.380  13.283 -0.7729  0.2791  0.1137
  420TMC3    O2 6276   2.775   3.596  12.991  0.4699  0.2607 -0.0294
  421TMC3    C1 6277   0.649   0.573  14.318  0.4470  0.3674 -0.2469
  421TMC3    C2 6278   0.698   0.699  14.297  0.1041 -0.2443 -0.1511
  421TMC3    C3 6279   0.834   0.703  14.262 -0.3114  0.1883 -0.2860
  421TMC3    C4 6280   0.724   0.462  14.316 -0.3579  0.1902 -0.1198
  421TMC3    C5 6281   0.856   0.470  14.292 -0.1101  0.2270  0.9114
  421TMC3    C6 6282   0.915   0.592  14.260  0.3920 -0.7309 -0.2117
  421TMC3     C 6283   0.506   0.564  14.346  0.4542  0.2268 -0.3206
  421TMC3     O 6284   0.463   0.648  14.423  0.0949  0.6210 -0.3831
  421TMC3     H 6285   0.629   0.782  14.301  0.3927 -0.1823  3.6482
  421TMC3    H1 6286   0.673   0.367  14.333  3.6542 -1.3525  3.3562
  421TMC3    H2 6287   1.018   0.597  14.226 -0.0840  2.2364 -1.1889
  421TMC3    C7 6288   0.939   0.350  14.267  0.3853 -0.3747 -0.7028
  421TMC3    C8 6289   0.888   0.830  14.220 -1.0117 -0.3574 -0.1680
  421TMC3    O1 6290   1.058   0.377  14.270  0.3700  0.3517  0.0850
  421TMC3    O2 6291   0.806   0.914  14.192  0.3075  0.0583  0.0604
  422TMC3    C1 6292   2.745   1.438  12.773 -0.9500  0.2791 -0.1880
  422TMC3    C2 6293   2.695   1.552  12.824 -0.4482 -0.0962 -0.0659
  422TMC3    C3 6294   2.588   1.550  12.918  0.8592  0.8321  0.1645
  422TMC3    C4 6295   2.703   1.314  12.809  0.6519 -0.2304  0.0953
  422TMC3    C5 6296   2.597   1.315  12.908  0.1148  0.1709  0.4810
  422TMC3    C6 6297   2.536   1.430  12.959 -0.1147 -0.2391 -0.2621
  422TMC3     C 6298   2.854   1.461  12.676  0.0532 -0.4871  0.3944
  422TMC3     O 6299   2.884   1.575  12.647 -0.4928 -0.0233 -0.5456
  422TMC3     H 6300   2.720   1.654  12.795 -0.7999  0.1077  0.3439
  422TMC3    H1 6301   2.750   1.225  12.770  1.6477 -0.1351  1.0875
  422TMC3    H2 6302   2.485   1.427  13.055  0.1736  0.4216 -0.0880
  422TMC3    C7 6303   2.519   1.193  12.899  0.4446  0.3645 -0.0656
  422TMC3    C8 6304   2.536   1.678  12.964  0.1982 -0.7323 -0.2122
  422TMC3    O1 6305   2.565   1.103  12.830 -0.1860 -0.6091 -0.7871
  422TMC3    O2 6306   2.584   1.784  12.926 -0.2741 -0.5510  0.5853
  423MPD2     C 6307   0.436   2.006   0.323  0.3232  0.1113 -0.0135
  423MPD2    C1 6308   0.358   2.005   0.439 -0.3068  0.4406  0.0592
  423MPD2    C2 6309   0.235   1.941   0.436 -0.4056 -0.5772  0.1370
  423MPD2    C3 6310   0.181   1.895   0.320 -0.3220 -0.1510 -0.7901
  423MPD2    C4 6311   0.259   1.897   0.207 -0.9273  0.0112  0.0316
  423MPD2    C5 6312   0.386   1.945   0.211  0.1627  0.2068 -0.2709
  423MPD2     H 6313   0.182   1.934   0.530 -0.4643 -0.6340  0.0999
  423MPD2    H1 6314   0.228   1.852   0.113  1.2080  0.9231 -1.1015
  423MPD2    H2 6315   0.532   2.054   0.312  0.4683  0.2505  1.7987
  423MPD2    H3 6316   0.456   1.939   0.128 -0.5349 -1.5951 -0.7265
  423MPD2     N 6317   0.047   1.865   0.312  0.8459 -0.1119 -0.2011
  423MPD2    H5 6318   4.721   1.854   0.223  0.1595 -0.7078  0.2305
  423MPD2    N1 6319   0.391   2.076   0.557 -0.7395 -0.0931 -0.0610
  423MPD2    H7 6320   0.320   2.066   0.629 -0.3228  0.4351  0.4235
  424TMC3    C1 6321   0.474   2.256   0.665 -0.0550  0.1844  0.4893
  424TMC3    C2 6322   0.538   2.221   0.784  0.8557  0.2798  0.0700
  424TMC3    C3 6323   0.481   2.262   0.902 -0.0420 -0.8132 -0.5384
  424TMC3    C4 6324   0.353   2.322   0.666  0.4441 -0.7096 -0.5128
  424TMC3    C5 6325   0.307   2.373   0.785  0.8212  0.5284 -0.7522
  424TMC3    C6 6326   0.369   2.338   0.900 -0.3624 -0.2501 -0.2704
  424TMC3     C 6327   0.496   2.163   0.568  0.5122  0.1539 -0.7054
  424TMC3     O 6328   0.603   2.158   0.517 -0.1698 -0.1245 -0.6168
  424TMC3     H 6329   0.619   2.149   0.778  0.6408  0.0170  0.2785
  424TMC3    H1 6330   0.302   2.346   0.573 -0.8613 -0.7372  0.2004
  424TMC3    H2 6331   0.330   2.373   0.995  0.4626  0.7368 -0.2966
  424TMC3    C7 6332   0.193   2.467   0.794 -0.1738  0.2584 -0.3802
  424TMC3    C8 6333   0.503   2.177   1.020  0.1917  0.2460 -0.1981
  424TMC3    O1 6334   0.159   2.494   0.905 -0.2207  0.0623 -0.9567
  424TMC3    O2 6335   0.413   2.184   1.100 -0.4674  0.4252  0.0465
  425MPD2     C 6336   3.411   1.778   0.702 -0.0878 -0.1865 -0.1550
  425MPD2    C1 6337   3.335   1.782   0.586  1.0597  0.2978  0.4853
  425MPD2    C2 6338   3.214   1.841   0.586  0.3219 -0.0573  0.4886
  425MPD2    C3 6339   3.168   1.898   0.709  0.0017  0.2529  0.4339
  425MPD2    C4 6340   3.252   1.911   0.814 -0.5561 -0.1901 -0.8194
  425MPD2    C5 6341   3.371   1.854   0.808 -0.8255  0.2898 -0.0947
  425MPD2     H 6342   3.157   1.837   0.493  1.6927 -0.1594 -0.3549
  425MPD2    H1 6343   3.235   1.958   0.910  2.3838 -0.4477 -0.1586
  425MPD2    H2 6344   3.502   1.720   0.702 -0.5861 -0.9799 -0.1436
  425MPD2    H3 6345   3.433   1.860   0.897 -1.4188  2.9274  0.1317
  425MPD2     N 6346   3.038   1.953   0.712 -0.6194 -0.0678 -0.1308
  425MPD2    H5 6347   2.976   1.935   0.634 -2.6822 -0.0431  1.5099
  425MPD2    N1 6348   3.378   1.715   0.468 -0.6516  0.3943  0.2326
  425MPD2    H7 6349   3.447   1.645   0.492 -1.5857 -0.8212 -0.6199
  426TMC3    C1 6350   3.349   1.613   0.256  0.2969 -0.1449  0.4450
  426TMC3    C2 6351   3.290   1.625   0.128 -0.5069 -0.3374 -0.5175
  426TMC3    C3 6352   3.297   1.511   0.048 -0.1316  0.7835  0.8665
  426TMC3    C4 6353   3.391   1.500   0.308 -0.0955 -0.2437 -0.9452
  426TMC3    C5 6354   3.394   1.391   0.221 -0.1369  0.1542  0.0174
  426TMC3    C6 6355   3.345   1.390   0.094  0.6494  0.2071 -0.7364
  426TMC3     C 6356   3.311   1.717   0.343 -0.0133 -0.3356  0.9944
  426TMC3     O 6357   3.243   1.810   0.296  0.0854 -0.5350  0.5009
  426TMC3     H 6358   3.255   1.717   0.080  0.8926  0.2358 -0.4303
  426TMC3    H1 6359   3.441   1.503   0.404 -2.6084 -1.6246  0.4179
  426TMC3    H2 6360   3.352   1.305   0.027 -1.5175  0.6960 -1.5646
  426TMC3    C7 6361   3.434   1.263   0.269 -0.7756  0.1823  0.5986
  426TMC3    C8 6362   3.220   1.501  17.616 -0.2284 -0.5165 -0.0032
  426TMC3    O1 6363   3.420   1.164   0.197 -0.0459 -0.5015 -0.2348
  426TMC3    O2 6364   3.246   1.403  17.545 -0.5564  0.2744  0.3942
  427MPD2     C 6365   1.611   3.489  14.860 -1.1393  0.0071  0.1897
  427MPD2    C1 6366   1.539   3.483  14.975  0.1244  0.7584 -0.2272
  427MPD2    C2 6367   1.399   3.494  14.964  0.2766 -0.4747 -1.2677
  427MPD2    C3 6368   1.332   3.509  14.845  0.1929  0.3879 -0.3249
  427MPD2    C4 6369   1.406   3.514  14.728  0.3924 -0.5191  0.9026
  427MPD2    C5 6370   1.542   3.502  14.735  0.4352 -0.5944  0.2436
  427MPD2     H 6371   1.347   3.496  15.059  0.9486  2.5073 -0.9367
  427MPD2    H1 6372   1.366   3.519  14.628  0.9524 -1.0639  0.6473
  427MPD2    H2 6373   1.719   3.490  14.860 -1.1671  2.4566 -1.0649
  427MPD2    H3 6374   1.598   3.519  14.644  1.6228 -0.5397  0.9849
  427MPD2     N 6375   1.195   3.525  14.830  0.0717 -0.7242 -0.6248
  427MPD2    H5 6376   1.155   3.535  14.737 -1.2296  1.6654  0.1966
  427MPD2    N1 6377   1.594   3.453  15.101 -0.7649 -0.1269 -0.1399
  427MPD2    H7 6378   1.530   3.431  15.176 -0.4772  0.6144  0.3308
  428TMC3    C1 6379   1.746   3.416  15.278 -0.3587  0.6590 -0.2892
  428TMC3    C2 6380   1.658   3.326  15.329  0.2857  0.1243  0.3681
  428TMC3    C3 6381   1.690   3.303  15.460  0.8763 -0.2945 -0.6406
  428TMC3    C4 6382   1.849   3.487  15.347 -0.1957 -0.4236  0.0737
  428TMC3    C5 6383   1.878   3.448  15.475 -0.2829  0.3452 -0.1898
  428TMC3    C6 6384   1.785   3.366  15.538  0.0314  0.2333  0.2507
  428TMC3     C 6385   1.728   3.455  15.134 -0.3251 -0.6436 -0.2388
  428TMC3     O 6386   1.829   3.488  15.070 -0.4595 -0.8071  0.4193
  428TMC3     H 6387   1.615   3.253  15.261  0.4108 -1.2780  1.8033
  428TMC3    H1 6388   1.895   3.574  15.301 -0.0387  0.3549  1.6916
  428TMC3    H2 6389   1.803   3.335  15.640  0.4454  0.3248  0.2082
  428TMC3    C7 6390   1.983   3.504  15.553  0.0118 -0.7827 -0.2264
  428TMC3    C8 6391   1.613   3.196  15.524 -0.6915 -0.3805 -0.4252
  428TMC3    O1 6392   1.968   3.524  15.676  0.2366  0.0027 -0.2622
  428TMC3    O2 6393   1.671   3.137  15.615 -0.4686  0.2157 -0.6951
  429MPD2     C 6394   2.149   3.723   0.405 -0.0757 -0.2799  0.3135
  429MPD2    C1 6395   2.167   3.633   0.305 -0.0715  0.0404 -0.4766
  429MPD2    C2 6396   2.182   3.674   0.175  0.0729  0.1010  0.0915
  429MPD2    C3 6397   2.177   3.808   0.144 -0.2058  0.6486  0.3878
  429MPD2    C4 6398   2.164   3.901   0.246 -0.8469  0.0909  0.2231
  429MPD2    C5 6399   2.144   3.853   0.374 -0.9906  0.4298  0.1225
  429MPD2     H 6400   2.199   3.597   0.101  1.1462 -0.8594  1.3385
  429MPD2    H1 6401   2.153   4.008   0.233  1.1228  0.1210 -1.4018
  429MPD2    H2 6402   2.141   3.699   0.511  2.4164  2.3679  1.0817
  429MPD2    H3 6403   2.121   3.925   0.452 -0.4457  2.2425 -1.3570
  429MPD2     N 6404   2.217   3.840   0.012 -0.5514  0.1559  0.1063
  429MPD2    H5 6405   2.231   3.764  17.636 -0.0246  0.7281 -0.4500
  429MPD2    N1 6406   2.186   3.497   0.326  0.0326 -0.1484  0.1268
  429MPD2    H7 6407   2.166   3.440   0.245  0.7637 -1.5740  0.9376
  430TMC3    C1 6408   2.296   3.965  17.526 -0.0293 -0.4248  0.3704
  430TMC3    C2 6409   2.308   4.091  17.475  0.2552  0.2191 -0.0116
  430TMC3    C3 6410   2.422   4.127  17.407 -0.5451 -0.7819  0.1295
  430TMC3    C4 6411   2.388   3.873  17.502 -0.7550  0.2829 -0.0793
  430TMC3    C5 6412   2.494   3.911  17.429  0.1569 -0.4696  0.5974
  430TMC3    C6 6413   2.525   4.036  17.387 -0.0934 -0.2380  0.2263
  430TMC3     C 6414   2.221   3.966  17.651  0.2400 -0.2994 -0.4037
  430TMC3     O 6415   2.204   4.072   0.023 -0.6452 -0.4224  0.7281
  430TMC3     H 6416   2.238   4.170  17.498 -0.5814 -0.9626  1.5326
  430TMC3    H1 6417   2.397   3.777  17.552  0.0785  0.9143  0.9997
  430TMC3    H2 6418   2.592   4.048  17.302  1.5814 -0.2622  1.5441
  430TMC3    C7 6419   2.591   3.809  17.402 -0.3200 -0.6125  0.2962
  430TMC3    C8 6420   2.404   4.208  17.288  0.3183  0.5015  0.5414
  430TMC3    O1 6421   2.544   3.696  17.420 -0.2419 -0.0622 -0.1329
  430TMC3    O2 6422   2.332   4.171  17.196 -0.3500 -0.7330 -0.2125
  431MPD2     C 6423   4.386   3.637  13.236  0.2853 -0.5362 -0.4164
  431MPD2    C1 6424   4.449   3.663  13.115  0.7402 -0.8507 -0.2457
  431MPD2    C2 6425   4.441   3.561  13.017 -0.1642 -0.1695  0.1148
  431MPD2    C3 6426   4.365   3.450  13.036  0.6359  0.1890 -0.7505
  431MPD2    C4 6427   4.305   3.432  13.157 -0.1130  0.1410  0.1886
  431MPD2    C5 6428   4.319   3.521  13.260  0.5477  0.3031  0.4005
  431MPD2     H 6429   4.494   3.584  12.925 -0.7287  0.3307 -0.0840
  431MPD2    H1 6430   4.241   3.346  13.171 -0.2652  0.3648  0.8845
  431MPD2    H2 6431   4.392   3.711  13.314 -4.0200 -0.4533 -0.1571
  431MPD2    H3 6432   4.279   3.505  13.359 -2.2477 -0.3004 -0.8316
  431MPD2     N 6433   4.342   3.364  12.919 -0.1096  0.8036  0.4154
  431MPD2    H5 6434   4.396   3.368  12.833  0.6959  1.9868  0.9794
  431MPD2    N1 6435   4.510   3.783  13.076 -0.3199  0.1776  0.8203
  431MPD2    H7 6436   4.547   3.789  12.981 -0.0596  1.8007  1.0163
  432TMC3    C1 6437   4.216   3.219  12.789  0.5541 -0.4226 -0.2831
  432TMC3    C2 6438   4.316   3.181  12.709 -0.0041 -0.6442  0.3173
  432TMC3    C3 6439   4.287   3.149  12.574  0.5267 -0.2627 -0.1343
  432TMC3    C4 6440   4.085   3.201  12.755 -0.5321 -0.4698 -0.4880
  432TMC3    C5 6441   4.057   3.176  12.619 -0.5828 -0.4921  0.5670
  432TMC3    C6 6442   4.154   3.163  12.527  0.6251 -0.3367 -0.3016
  432TMC3     C 6443   4.237   3.276  12.919 -0.2049  0.2148  0.1165
  432TMC3     O 6444   4.136   3.275  12.987 -0.3844  0.3713  0.0193
  432TMC3     H 6445   4.420   3.177  12.737  0.2321  4.8622  0.1686
  432TMC3    H1 6446   4.009   3.225  12.828 -1.6718  0.0402 -1.8439
  432TMC3    H2 6447   4.139   3.146  12.421 -3.5645 -0.9344  0.3738
  432TMC3    C7 6448   3.929   3.213  12.557 -0.2605 -0.3612  0.9064
  432TMC3    C8 6449   4.392   3.118  12.483  0.1865 -0.1178  0.0365
  432TMC3    O1 6450   3.931   3.229  12.437  0.1316 -0.2703 -0.4043
  432TMC3    O2 6451   4.485   3.054  12.525  0.1039  0.3749  0.2806
  433MPD2     C 6452   2.898   2.750  11.115 -0.0914 -0.6286  0.0720
  433MPD2    C1 6453   2.784   2.674  11.133  0.2255  0.2123 -0.6854
  433MPD2    C2 6454   2.732   2.663  11.261 -0.3432 -0.0691  0.5603
  433MPD2    C3 6455   2.799   2.728  11.369 -0.0193  0.4387  0.1313
  433MPD2    C4 6456   2.910   2.802  11.350 -0.1638 -0.8399  0.6247
  433MPD2    C5 6457   2.956   2.821  11.224  0.1691  0.2395 -0.5663
  433MPD2     H 6458   2.647   2.603  11.290  0.4646 -1.3406  0.3008
  433MPD2    H1 6459   2.965   2.854  11.428 -2.1246 -1.1606  2.2147
  433MPD2    H2 6460   2.934   2.770  11.015  1.9724 -0.0876  0.9152
  433MPD2    H3 6461   3.043   2.884  11.208 -0.0510  0.4280 -1.0126
  433MPD2     N 6462   2.745   2.700  11.499 -0.0883  0.7060 -0.6713
  433MPD2    H5 6463   2.681   2.621  11.500 -0.3674  0.9415 -0.0850
  433MPD2    N1 6464   2.726   2.621  11.011  0.6886 -0.0850  0.2464
  433MPD2    H7 6465   2.786   2.626  10.930  0.0878  2.0596 -0.0589
  434TMC3    C1 6466   2.631   2.439  10.893 -0.2216  0.7263  0.5085
  434TMC3    C2 6467   2.661   2.307  10.922 -0.0733 -0.0861 -0.3532
  434TMC3    C3 6468   2.744   2.233  10.840 -0.6747 -0.7270 -0.1790
  434TMC3    C4 6469   2.680   2.491  10.773  0.0704  0.1768  0.1177
  434TMC3    C5 6470   2.747   2.412  10.687 -0.7371  0.9458  0.0084
  434TMC3    C6 6471   2.784   2.283  10.718 -0.3282 -0.0993 -0.3080
  434TMC3     C 6472   2.629   2.523  11.012  0.4373  0.3025  0.6382
  434TMC3     O 6473   2.582   2.475  11.113 -0.0959  0.1187 -0.4356
  434TMC3     H 6474   2.628   2.272  11.019  1.1560 -2.7791 -0.9022
  434TMC3    H1 6475   2.644   2.587  10.737  0.2496  0.2657  0.1725
  434TMC3    H2 6476   2.842   2.222  10.650 -0.2573 -0.4077  0.0283
  434TMC3    C7 6477   2.691   2.432  10.558  0.4173  1.1810  0.4058
  434TMC3    C8 6478   2.839   2.152  10.915 -0.1912  0.1197 -0.6389
  434TMC3    O1 6479   2.711   2.542  10.510  0.5408  0.5910  0.8390
  434TMC3    O2 6480   2.800   2.127  11.030  0.5360 -0.1157  0.2907
  435MPD2     C 6481   4.372   2.616  15.562  0.5984  0.0273  0.7226
  435MPD2    C1 6482   4.371   2.646  15.699 -0.2541  0.1115  0.0388
  435MPD2    C2 6483   4.485   2.608  15.773 -0.8975 -1.0263 -0.7175
  435MPD2    C3 6484   4.573   2.521  15.713 -0.0934 -1.1558  0.0997
  435MPD2    C4 6485   4.575   2.503  15.579 -0.0545 -0.5219 -0.1112
  435MPD2    C5 6486   4.474   2.545  15.500 -0.7399  0.6288  0.4082
  435MPD2     H 6487   4.496   2.630  15.878  1.2663 -0.7007 -1.0160
  435MPD2    H1 6488   4.660   2.454  15.532  1.0457  0.7853  0.5163
  435MPD2    H2 6489   4.292   2.641  15.493  0.1573 -2.2938  0.3969
  435MPD2    H3 6490   4.464   2.508  15.399  1.3572 -1.5683  0.9991
  435MPD2     N 6491   4.669   2.462  15.804  0.1179  0.3347  0.4003
  435MPD2    H5 6492   4.650   2.496  15.897  0.8944  1.5390  0.1195
  435MPD2    N1 6493   4.261   2.697  15.765  0.0836  0.2837 -0.0994
  435MPD2    H7 6494   4.252   2.667  15.862 -0.5527  1.5121  0.2153
  436TMC3    C1 6495   3.922   2.784  15.987  0.2160  0.2288  0.0627
  436TMC3    C2 6496   4.017   2.728  15.901  0.0389 -0.2920 -0.0313
  436TMC3    C3 6497   4.053   2.810  15.795 -0.4659 -1.1735 -0.0549
  436TMC3    C4 6498   3.885   2.917  15.974  0.3269 -0.1406  0.9392
  436TMC3    C5 6499   3.922   2.984  15.864  0.7114 -0.4127  0.0708
  436TMC3    C6 6500   4.000   2.932  15.769  0.1615  0.7714 -0.9107
  436TMC3     C 6501   3.842   2.703  16.075  0.1900 -0.5532 -0.7967
  436TMC3     O 6502   3.895   2.602  16.121  0.1059  0.3566  0.5669
  436TMC3     H 6503   4.028   2.620  15.908  0.8240 -0.2067  0.0701
  436TMC3    H1 6504   3.835   2.976  16.050  0.0371 -0.1520  0.7616
  436TMC3    H2 6505   4.030   2.977  15.676  1.4687 -0.2733 -0.9892
  436TMC3    C7 6506   3.882   3.112  15.834  0.1918  1.0606  0.1291
  436TMC3    C8 6507   4.157   2.763  15.700 -0.0057 -0.2277 -0.3101
  436TMC3    O1 6508   3.951   3.185  15.763  0.3110  0.4697  0.7061
  436TMC3    O2 6509   4.159   2.812  15.589 -0.1769 -0.1579 -0.6438
  437TMC3    C1 6510   3.307   4.595  12.439 -0.2552 -0.6722  0.3223
  437TMC3    C2 6511   3.232   4.699  12.488 -0.3355  0.5782  0.5463
  437TMC3    C3 6512   3.241   0.105  12.444 -0.0069  0.2789 -0.6952
  437TMC3    C4 6513   3.376   4.617  12.324 -0.1624 -0.9266 -0.4787
  437TMC3    C5 6514   3.387   0.025  12.280  0.8672 -0.5305  0.4792
  437TMC3    C6 6515   3.319   0.129  12.338 -0.4827 -0.6568 -0.1285
  437TMC3     C 6516   3.257   4.453  12.453  0.4235  0.6327 -0.9664
  437TMC3     O 6517   3.285   4.378  12.359  0.2717  0.3883 -0.0057
  437TMC3     H 6518   3.165   4.689  12.573  1.3794 -2.0320  1.6109
  437TMC3    H1 6519   3.430   4.541  12.269  1.1942  0.3437 -0.8747
  437TMC3    H2 6520   3.329   0.226  12.289 -0.7859 -1.1351 -1.1349
  437TMC3    C7 6521   3.484   0.053  12.182  0.1587  0.3377  0.0481
  437TMC3    C8 6522   3.181   0.213  12.524 -0.1743  0.7405 -0.8108
  437TMC3    O1 6523   3.460   0.136  12.098 -0.1956  0.2232 -0.3686
  437TMC3    O2 6524   3.085   0.185  12.598 -0.0235  0.1527 -0.6124
  438MPD2     C 6525   0.461   0.317  17.082  0.3244  0.1551  0.6628
  438MPD2    C1 6526   0.539   0.224  17.147 -0.4936  0.3504 -0.8795
  438MPD2    C2 6527   0.490   0.165  17.264 -0.9470 -0.2634 -0.3766
  438MPD2    C3 6528   0.359   0.194  17.309 -0.4541 -0.3485 -0.1965
  438MPD2    C4 6529   0.282   0.281  17.237  0.5846  0.0576  0.4219
  438MPD2    C5 6530   0.335   0.348  17.135 -0.5277 -0.2819  0.2585
  438MPD2     H 6531   0.560   0.108  17.324 -1.0023  0.7915  0.6828
  438MPD2    H1 6532   0.188   0.323  17.270 -0.4960 -1.3404 -0.8725
  438MPD2    H2 6533   0.496   0.371  16.994 -0.4676 -0.4527 -0.0190
  438MPD2    H3 6534   0.269   0.418  17.084  0.4788 -0.7170 -1.5965
  438MPD2     N 6535   0.297   0.128  17.418 -0.2456 -0.5492 -0.3940
  438MPD2    H5 6536   0.199   0.145  17.440 -0.2625  0.3214 -1.1676
  438MPD2    N1 6537   0.671   0.187  17.098  0.1165  0.0338  0.0414
  438MPD2    H7 6538   0.726   0.128  17.160  2.5964  3.3956  1.0396
  439TMC3    C1 6539   0.861   0.170  16.969 -0.5174 -0.0169 -0.0878
  439TMC3    C2 6540   0.883   0.086  16.860 -0.2501  0.7697 -0.4378
  439TMC3    C3 6541   0.995   0.010  16.860  0.2750 -0.0749 -0.1803
  439TMC3    C4 6542   0.940   0.177  17.079  0.1089 -0.0075  0.1942
  439TMC3    C5 6543   1.052   0.106  17.074 -1.0937  0.0909 -0.3172
  439TMC3    C6 6544   1.079   0.013  16.975  0.0795 -0.2806  0.0449
  439TMC3     C 6545   0.726   0.205  16.979 -0.0050  0.2857 -0.0764
  439TMC3     O 6546   0.659   0.226  16.876 -0.8319  0.3394  0.0442
  439TMC3     H 6547   0.814   0.083  16.776 -0.1158 -0.0443 -0.5130
  439TMC3    H1 6548   0.917   0.258  17.148  2.1382  1.1132 -0.4594
  439TMC3    H2 6549   1.165   4.669  16.965  1.5840  1.6759  0.0306
  439TMC3    C7 6550   1.172   0.172  17.117  0.5100  0.3216 -0.6757
  439TMC3    C8 6551   1.051   4.695  16.735 -0.4613 -0.0712  0.2015
  439TMC3    O1 6552   1.275   0.110  17.122  0.1754  0.3550  0.4832
  439TMC3    O2 6553   1.160   4.629  16.733  0.1882  0.5975  0.4095
  440MPD2     C 6554   0.062   0.716  15.212  1.1274 -0.0509  0.1062
  440MPD2    C1 6555   0.067   0.850  15.252 -0.1851 -0.4862  0.3208
  440MPD2    C2 6556   0.010   0.887  15.382 -0.5284 -0.3403  0.0356
  440MPD2    C3 6557   4.699   0.784  15.471 -0.8747  0.9789  0.3984
  440MPD2    C4 6558   4.715   0.650  15.433 -0.5692  0.0821  0.1375
  440MPD2    C5 6559   0.033   0.620  15.302 -0.2227 -0.0175 -0.3851
  440MPD2     H 6560   4.707   0.991  15.401 -0.1072 -0.2389  0.0292
  440MPD2    H1 6561   4.686   0.572  15.502  1.1326 -0.3081  0.4229
  440MPD2    H2 6562   0.093   0.690  15.112  0.6641  1.3252 -0.3914
  440MPD2    H3 6563   0.036   0.515  15.276  2.2914  0.2011 -0.9075
  440MPD2     N 6564   4.653   0.803  15.604  0.2835 -0.1556  0.3740
  440MPD2    H5 6565   4.627   0.712  15.640 -0.9915 -0.0366 -0.2471
  440MPD2    N1 6566   0.086   0.957  15.160 -0.1684  0.5564  0.7296
  440MPD2    H7 6567   0.055   1.047  15.195  0.1056  0.3075  1.6082
  441TMC3    C1 6568   4.590   0.906  15.811 -0.1615 -0.3350  0.2444
  441TMC3    C2 6569   4.563   1.027  15.869  0.7844  0.2223  0.0429
  441TMC3    C3 6570   4.526   1.035  15.998 -0.4729  0.7519 -0.3938
  441TMC3    C4 6571   4.589   0.790  15.880  0.7896 -0.1245  0.3077
  441TMC3    C5 6572   4.567   0.804  16.016 -0.5780  0.1098  0.8127
  441TMC3    C6 6573   4.526   0.916  16.072 -0.1345 -0.0652 -0.0207
  441TMC3     C 6574   4.648   0.918  15.674 -0.1338 -0.0980  0.6816
  441TMC3     O 6575   4.659   1.034  15.630 -0.1574  0.6554 -0.4400
  441TMC3     H 6576   4.593   1.118  15.820 -3.0329  1.1894 -0.4906
  441TMC3    H1 6577   4.598   0.695  15.829 -0.1171 -0.8149  1.4381
  441TMC3    H2 6578   4.506   0.923  16.178  1.0781  2.1174  0.0711
  441TMC3    C7 6579   4.523   0.681  16.084 -0.0936  0.2547 -0.0548
  441TMC3    C8 6580   4.503   1.162  16.071 -0.3300  0.3822  0.7093
  441TMC3    O1 6581   4.423   0.687  16.152 -0.1295  0.4447  0.6306
  441TMC3    O2 6582   4.508   1.162  16.197 -0.5379 -0.1714 -0.0433
  442MPD2     C 6583   2.687   1.769  16.926  0.0652  0.1941  0.8995
  442MPD2    C1 6584   2.560   1.712  16.960 -0.3265 -0.6394  0.1906
  442MPD2    C2 6585   2.532   1.591  16.910  0.0844  0.1629 -0.2559
  442MPD2    C3 6586   2.616   1.521  16.822  0.3467 -0.2917  0.6670
  442MPD2    C4 6587   2.737   1.578  16.791  0.3137 -0.0942  0.2086
  442MPD2    C5 6588   2.771   1.703  16.844 -0.0759 -0.4825 -0.0385
  442MPD2     H 6589   2.441   1.537  16.931  0.2072 -0.0118 -0.1709
  442MPD2    H1 6590   2.805   1.539  16.716 -1.0845  2.2405 -2.2572
  442MPD2    H2 6591   2.728   1.849  16.986 -0.4502 -0.0371  1.5526
  442MPD2    H3 6592   2.869   1.743  16.820 -0.4707  0.1763 -0.5554
  442MPD2     N 6593   2.588   1.390  16.772  0.0455  0.7229 -0.7657
  442MPD2    H5 6594   2.668   1.348  16.725 -0.7085 -1.3178 -0.2520
  442MPD2    N1 6595   2.468   1.780  17.050  0.4586  0.4763 -0.0611
  442MPD2    H7 6596   2.393   1.725  17.091 -0.6139  0.1169 -2.4588
  443TMC3    C1 6597   2.342   1.958  17.134  0.3345  0.3508  0.2246
  443TMC3    C2 6598   2.266   2.018  17.040  0.2205 -0.5325 -0.7036
  443TMC3    C3 6599   2.130   1.989  17.038  0.5045 -0.2203  0.1254
  443TMC3    C4 6600   2.290   1.881  17.229  0.3281 -0.3913  0.1602
  443TMC3    C5 6601   2.150   1.862  17.234  0.2857 -0.2181 -0.1828
  443TMC3    C6 6602   2.072   1.922  17.141  0.8536  0.6304 -0.1804
  443TMC3     C 6603   2.478   1.913  17.088  0.0483 -0.2198  0.9615
  443TMC3     O 6604   2.560   2.000  17.053 -0.4526 -0.0358 -0.5719
  443TMC3     H 6605   2.328   2.045  16.955  0.8128  2.5955  0.7333
  443TMC3    H1 6606   2.360   1.829  17.294  0.5313  1.2403  1.2379
  443TMC3    H2 6607   1.967   1.895  17.147  0.8962  1.0568  2.5120
  443TMC3    C7 6608   2.097   1.747  17.295 -0.0083 -0.1881  0.0252
  443TMC3    C8 6609   2.109   1.945  16.904  0.4004 -0.4478 -0.4212
  443TMC3    O1 6610   1.989   1.711  17.253  0.0918 -0.4568  0.2746
  443TMC3    O2 6611   2.199   1.918  16.825  0.2435 -0.2304 -0.4903
  444MPD2     C 6612   2.612   1.350  17.265 -0.8772  0.0597  0.1003
  444MPD2    C1 6613   2.603   1.235  17.346 -0.1311  1.4684  0.1219
  444MPD2    C2 6614   2.649   1.112  17.294 -0.1657  0.2989  0.0534
  444MPD2    C3 6615   2.683   1.099  17.158  0.0730 -0.4215 -0.4406
  444MPD2    C4 6616   2.683   1.218  17.081  0.2437 -0.7866 -0.2296
  444MPD2    C5 6617   2.648   1.339  17.135 -0.4187 -0.2867  0.0694
  444MPD2     H 6618   2.629   1.028  17.359 -0.0399  1.3540  1.4721
  444MPD2    H1 6619   2.701   1.211  16.974  1.9428  1.0256 -0.0698
  444MPD2    H2 6620   2.594   1.448  17.308  1.2030  0.4654  0.0591
  444MPD2    H3 6621   2.635   1.429  17.076 -3.2322  0.2552  1.5003
  444MPD2     N 6622   2.723   0.972  17.105  0.3330 -0.2224  0.2925
  444MPD2    H5 6623   2.758   0.909  17.177  3.0848 -0.0627 -0.8813
  444MPD2    N1 6624   2.555   1.236  17.480  0.5312 -0.1406 -0.3724
  444MPD2    H7 6625   2.545   1.141  17.515  0.2457 -0.5499 -1.5596
  445TMC3    C1 6626   2.779   0.803  16.951 -0.3354  0.3104  0.3611
  445TMC3    C2 6627   2.715   0.736  16.853 -0.8058  0.0028 -0.7820
  445TMC3    C3 6628   2.768   0.620  16.810  0.2226  0.0995 -0.3435
  445TMC3    C4 6629   2.900   0.760  16.988 -0.3730 -0.2699 -0.7224
  445TMC3    C5 6630   2.957   0.645  16.940 -0.2901  0.7199  0.0524
  445TMC3    C6 6631   2.892   0.568  16.847  0.2463 -0.2795 -0.0616
  445TMC3     C 6632   2.740   0.942  16.971  0.4154 -0.0876 -0.0936
  445TMC3     O 6633   2.695   1.008  16.877  0.6056  0.0502 -0.0235
  445TMC3     H 6634   2.616   0.769  16.825 -1.0768  0.2808  0.5109
  445TMC3    H1 6635   2.955   0.822  17.058 -0.8828  0.4096 -0.9208
  445TMC3    H2 6636   2.933   0.473  16.815 -0.2353 -0.6801  0.5219
  445TMC3    C7 6637   3.073   0.589  16.999  0.2643  0.3996  0.0600
  445TMC3    C8 6638   2.721   0.579  16.683  0.3008 -0.1551  0.7942
  445TMC3    O1 6639   3.083   0.600  17.118 -0.0149 -0.0051  0.4573
  445TMC3    O2 6640   2.657   0.658  16.624  0.3808 -0.4022 -0.3658
  446MPD2     C 6641   2.554   2.026  11.508 -0.2498  0.2716 -0.5482
  446MPD2    C1 6642   2.563   2.010  11.371  0.1431  0.5638  0.0962
  446MPD2    C2 6643   2.649   2.092  11.306  0.0782 -0.0548 -0.3258
  446MPD2    C3 6644   2.743   2.171  11.369  0.0100  0.2164 -0.0010
  446MPD2    C4 6645   2.728   2.190  11.505 -0.5813  0.4323  0.5780
  446MPD2    C5 6646   2.637   2.118  11.574 -0.2462  0.0668  0.1385
  446MPD2     H 6647   2.656   2.077  11.198  0.1483  1.8350 -0.5843
  446MPD2    H1 6648   2.797   2.255  11.558  0.5903 -1.3792  1.2740
  446MPD2    H2 6649   2.482   1.969  11.566  1.0802 -0.4876  0.3517
  446MPD2    H3 6650   2.622   2.135  11.680 -0.5848  1.0218 -0.0639
  446MPD2     N 6651   2.842   2.237  11.295  0.3557  0.3706  0.5589
  446MPD2    H5 6652   2.840   2.224  11.194 -0.6929  0.1202  0.6103
  446MPD2    N1 6653   2.488   1.917  11.293  0.5124 -0.4113 -0.0355
  446MPD2    H7 6654   2.489   1.917  11.192  1.2463 -3.1857 -0.0487
  447TMC3    C1 6655   3.055   2.334  11.265 -0.2206  0.3643 -0.7030
  447TMC3    C2 6656   3.023   2.386  11.143  0.3767 -0.5788  0.7538
  447TMC3    C3 6657   3.123   2.418  11.053 -0.4772 -0.4602 -0.9262
  447TMC3    C4 6658   3.188   2.326  11.302 -1.0818  0.0562 -0.2880
  447TMC3    C5 6659   3.288   2.352  11.214  0.5023 -0.2335  0.6017
  447TMC3    C6 6660   3.255   2.395  11.088 -0.1200 -0.2281  0.5778
  447TMC3     C 6661   2.953   2.298  11.358 -0.1681  0.0146  0.3557
  447TMC3     O 6662   2.981   2.309  11.474 -0.0950  0.2296  0.3204
  447TMC3     H 6663   2.918   2.397  11.116  0.6383  0.0095 -0.0244
  447TMC3    H1 6664   3.205   2.268  11.392 -0.0157  0.7697 -0.0353
  447TMC3    H2 6665   3.338   2.404  11.019  0.3022  0.7762  1.2048
  447TMC3    C7 6666   3.425   2.309  11.245  0.5762 -0.1170  0.2320
  447TMC3    C8 6667   3.092   2.485  10.927  0.2710  0.3698  0.2130
  447TMC3    O1 6668   3.508   2.317  11.152 -0.4080 -0.1772 -0.3025
  447TMC3    O2 6669   2.978   2.481  10.888  0.3095  0.2621 -0.2816
  448TMC3    C1 6670   0.593   2.062  17.031 -0.2810 -0.6942 -0.2771
  448TMC3    C2 6671   0.650   1.960  16.956  0.7842 -1.2035  0.4075
  448TMC3    C3 6672   0.730   1.870  17.019  0.0183 -0.7161 -0.1101
  448TMC3    C4 6673   0.618   2.067  17.168 -0.2041 -0.3959 -0.3403
  448TMC3    C5 6674   0.715   1.986  17.217  0.5893 -0.5665  0.1346
  448TMC3    C6 6675   0.774   1.882  17.150 -0.2698  0.8846  0.6998
  448TMC3     C 6676   0.540   2.175  16.959 -0.5581 -0.7958  0.5146
  448TMC3     O 6677   0.492   2.159  16.848 -0.4693  0.0645  0.4125
  448TMC3     H 6678   0.641   1.967  16.849  0.8044 -1.6686  0.3774
  448TMC3    H1 6679   0.568   2.138  17.233  1.4070  0.9326 -0.5605
  448TMC3    H2 6680   0.852   1.826  17.199  0.2434  2.1886  1.3552
  448TMC3    C7 6681   0.778   2.046  17.336 -0.1677 -0.1972  0.1551
  448TMC3    C8 6682   0.783   1.757  16.950  0.1713  0.4554  0.0704
  448TMC3    O1 6683   0.729   2.156  17.377 -0.0039  0.4905 -0.2777
  448TMC3    O2 6684   0.854   1.693  17.023  0.0489 -0.1248  0.0243
  449MPD2     C 6685   2.895   0.730  14.134 -0.1248 -0.0953  0.4884
  449MPD2    C1 6686   2.801   0.675  14.048 -0.2047 -0.5020  0.4530
  449MPD2    C2 6687   2.719   0.577  14.103  0.3391  0.1150 -0.2200
  449MPD2    C3 6688   2.737   0.521  14.233 -0.2026 -0.0795  0.8178
  449MPD2    C4 6689   2.847   0.578  14.310  0.7988 -0.2057  0.6970
  449MPD2    C5 6690   2.924   0.679  14.257 -0.2083  0.1285  0.1987
  449MPD2     H 6691   2.638   0.541  14.041  1.0800  0.3723 -1.3432
  449MPD2    H1 6692   2.876   0.531  14.404  0.6984  1.6213  1.6307
  449MPD2    H2 6693   2.959   0.812  14.102 -1.2488  1.1273  1.3751
  449MPD2    H3 6694   3.008   0.708  14.320 -0.9162  0.4832  0.9766
  449MPD2     N 6695   2.661   0.411  14.266 -0.2438 -0.0528  0.0053
  449MPD2    H5 6696   2.590   0.380  14.201 -0.9835  2.4612 -0.3810
  449MPD2    N1 6697   2.777   0.722  13.918  0.3199 -0.0394  0.4538
  449MPD2    H7 6698   2.690   0.692  13.875 -0.2044  0.4802  1.1422
  450TMC3    C1 6699   2.758   0.832  13.722  0.5036  0.2194 -0.7607
  450TMC3    C2 6700   2.837   0.803  13.610 -0.6615  0.5158 -0.2124
  450TMC3    C3 6701   2.784   0.736  13.504  0.3873  0.6241  0.2498
  450TMC3    C4 6702   2.631   0.789  13.723 -0.4085  0.0337  0.0209
  450TMC3    C5 6703   2.584   0.697  13.622  0.1760 -0.3055 -0.1033
  450TMC3    C6 6704   2.663   0.668  13.513  0.2739 -0.1078  0.4850
  450TMC3     C 6705   2.837   0.820  13.840 -0.0731  0.6017  0.3772
  450TMC3     O 6706   2.932   0.891  13.864 -0.3623 -0.7957 -0.1965
  450TMC3     H 6707   2.941   0.833  13.610 -0.5744  0.1585 -2.8768
  450TMC3    H1 6708   2.563   0.810  13.806 -1.9973 -1.9207 -0.7775
  450TMC3    H2 6709   2.627   0.593  13.443 -2.6883  0.1416  1.7796
  450TMC3    C7 6710   2.523   0.593  13.696 -0.1385  0.0895 -0.8430
  450TMC3    C8 6711   2.863   0.738  13.380 -0.6860  0.6999 -0.2895
  450TMC3    O1 6712   2.549   0.600  13.816 -0.1247 -0.1305  0.0043
  450TMC3    O2 6713   2.834   0.652  13.294 -0.1662  0.0253  0.0222
  451MPD2     C 6714   2.801   3.251   2.040  0.2796  0.0048 -0.8775
  451MPD2    C1 6715   2.886   3.339   1.966  0.7009 -0.1083 -0.7209
  451MPD2    C2 6716   3.015   3.300   1.943  0.8937  0.3589  0.6850
  451MPD2    C3 6717   3.067   3.186   2.006  0.5300  0.1772  0.2133
  451MPD2    C4 6718   2.987   3.100   2.077  0.9447 -0.3340 -0.3009
  451MPD2    C5 6719   2.849   3.127   2.086 -0.7878  0.1611  0.4564
  451MPD2     H 6720   3.079   3.369   1.890  0.4708  0.5846  0.4618
  451MPD2    H1 6721   3.033   3.011   2.119  0.8777  0.3376  1.2027
  451MPD2    H2 6722   2.696   3.272   2.057 -0.1374  1.2723 -4.9992
  451MPD2    H3 6723   2.784   3.066   2.147 -0.8734  1.4255  1.6550
  451MPD2     N 6724   3.205   3.151   2.000 -0.5413  0.4816 -0.0473
  451MPD2    H5 6725   3.237   3.079   2.063 -0.2550  0.0359 -0.7110
  451MPD2    N1 6726   2.824   3.450   1.907 -0.7217 -0.3802 -0.3629
  451MPD2    H7 6727   2.727   3.468   1.931 -0.8576  1.5446 -2.4156
  452TMC3    C1 6728   3.434   3.161   1.943 -0.4482 -0.1185  0.2024
  452TMC3    C2 6729   3.446   3.065   2.037  0.1166  0.4952  0.1942
  452TMC3    C3 6730   3.566   2.989   2.027  0.5135 -0.7957  0.1257
  452TMC3    C4 6731   3.519   3.187   1.839 -0.2615 -0.5818 -0.4579
  452TMC3    C5 6732   3.633   3.113   1.832  0.2195  0.1972 -0.3304
  452TMC3    C6 6733   3.656   3.010   1.922  0.1245 -0.0163  0.3321
  452TMC3     C 6734   3.301   3.219   1.927 -0.3722 -0.2245 -0.2321
  452TMC3     O 6735   3.290   3.311   1.846 -0.0772 -0.4024 -0.2581
  452TMC3     H 6736   3.377   3.053   2.120  0.6586 -0.1709  0.5512
  452TMC3    H1 6737   3.490   3.258   1.762  0.7436  0.5127  0.1752
  452TMC3    H2 6738   3.746   2.952   1.907  1.3537  1.7047  1.0544
  452TMC3    C7 6739   3.730   3.128   1.717  0.2633 -0.4388  0.0545
  452TMC3    C8 6740   3.562   2.883   2.114  0.3324  0.1877 -0.6853
  452TMC3    O1 6741   3.808   3.032   1.699  0.1755  0.5791 -0.1882
  452TMC3    O2 6742   3.479   2.884   2.207 -0.2572 -0.1505 -0.0602
  453TMC3    C1 6743   0.357   1.147  11.813  0.1143  0.3022  0.5108
  453TMC3    C2 6744   0.249   1.080  11.869 -0.5279  0.7114 -0.1709
  453TMC3    C3 6745   0.148   1.040  11.790 -0.3470 -0.8072 -0.1564
  453TMC3    C4 6746   0.353   1.178  11.683 -0.2047  0.0022  0.0473
  453TMC3    C5 6747   0.246   1.133  11.603 -0.6946  0.1940  0.7226
  453TMC3    C6 6748   0.136   1.062  11.655  0.3684 -0.4369  0.0860
  453TMC3     C 6749   0.450   1.222  11.890  0.7042 -0.1323 -0.5203
  453TMC3     O 6750   0.563   1.254  11.855  0.0879  0.2012  0.4885
  453TMC3     H 6751   0.234   1.074  11.976  3.0799 -2.5635  0.1736
  453TMC3    H1 6752   0.422   1.255  11.652 -0.4855 -1.2592 -3.7528
  453TMC3    H2 6753   0.047   1.046  11.596 -0.4136  0.4298  1.0075
  453TMC3    C7 6754   0.225   1.169  11.456  0.6162  0.5105  0.0148
  453TMC3    C8 6755   0.063   0.942  11.844  0.3216 -0.5598 -0.3820
  453TMC3    O1 6756   0.122   1.137  11.403 -0.5109 -0.4831 -0.6164
  453TMC3    O2 6757   4.671   0.948  11.795 -0.0106 -0.4697  0.3145
  454MPD2     C 6758   3.595   1.122  16.689 -0.0286 -0.1684 -0.4131
  454MPD2    C1 6759   3.489   1.130  16.615  0.0282  0.1490  0.0168
  454MPD2    C2 6760   3.396   1.233  16.626  0.2603  0.1024 -0.0119
  454MPD2    C3 6761   3.410   1.333  16.716 -0.0319  0.6531 -0.0056
  454MPD2    C4 6762   3.520   1.335  16.792 -0.0732 -0.6317 -0.7935
  454MPD2    C5 6763   3.611   1.225  16.781 -0.4211 -0.2605 -0.2251
  454MPD2     H 6764   3.303   1.221  16.572  0.7475 -0.6017 -0.6935
  454MPD2    H1 6765   3.542   1.402  16.874 -1.8222  0.4042 -1.1564
  454MPD2    H2 6766   3.665   1.040  16.682  1.8810  1.6589 -2.7745
  454MPD2    H3 6767   3.706   1.229  16.833  0.0463 -1.1147 -1.0193
  454MPD2     N 6768   3.298   1.420  16.740 -0.1501 -0.6380 -0.6629
  454MPD2    H5 6769   3.291   1.464  16.831 -1.3295  0.2694 -1.1761
  454MPD2    N1 6770   3.455   1.036  16.521 -0.1246  0.0352  0.5195
  454MPD2    H7 6771   3.375   1.046  16.459 -0.6729 -0.6772  1.1080
  455TMC3    C1 6772   3.057   1.433  16.738 -0.3516  0.0463 -0.1173
  455TMC3    C2 6773   3.082   1.459  16.866  0.8758  0.1859  0.2076
  455TMC3    C3 6774   3.047   1.371  16.961 -0.3727 -1.0796  0.7944
  455TMC3    C4 6775   2.975   1.327  16.706  0.7555 -0.9043 -1.0106
  455TMC3    C5 6776   2.953   1.231  16.802  0.3603 -0.1232 -0.1406
  455TMC3    C6 6777   3.005   1.248  16.927 -0.3574 -0.1757 -0.4712
  455TMC3     C 6778   3.182   1.423  16.662 -0.3363  0.2022 -0.1223
  455TMC3     O 6779   3.178   1.395  16.545  0.1809  0.7291 -0.0910
  455TMC3     H 6780   3.141   1.548  16.890 -2.5065  2.2775  0.7282
  455TMC3    H1 6781   2.982   1.302  16.601 -1.9671  0.9640 -1.6426
  455TMC3    H2 6782   2.980   1.176  17.004  0.4001 -1.6251 -1.5568
  455TMC3    C7 6783   2.961   1.096  16.738  0.0933  0.2942  0.3514
  455TMC3    C8 6784   3.029   1.416  17.096 -0.6475  0.1021  0.6618
  455TMC3    O1 6785   2.893   1.072  16.638 -0.2369  0.1080 -0.1617
  455TMC3    O2 6786   2.998   1.331  17.180 -0.0224 -0.4190 -0.2389
  456MPD2     C 6787   1.239   0.374  16.673  0.0779 -0.0886 -0.8872
  456MPD2    C1 6788   1.359   0.422  16.724  0.3681 -0.1673  0.2682
  456MPD2    C2 6789   1.370   0.557  16.755  0.5118  0.3189 -0.1521
  456MPD2    C3 6790   1.266   0.643  16.726 -0.1790 -0.4092  0.2402
  456MPD2    C4 6791   1.148   0.592  16.680 -0.3796 -0.4286  0.4206
  456MPD2    C5 6792   1.132   0.459  16.662  1.1986 -0.1671 -0.1572
  456MPD2     H 6793   1.456   0.600  16.805  0.9513  0.6648 -1.1897
  456MPD2    H1 6794   1.064   0.656  16.657  0.9172  1.1903  0.1976
  456MPD2    H2 6795   1.219   0.272  16.646  0.3064 -0.5875  0.8346
  456MPD2    H3 6796   1.038   0.424  16.621  0.4668 -0.6715  1.9368
  456MPD2     N 6797   1.284   0.779  16.764  0.4235  0.1426  0.3219
  456MPD2    H5 6798   1.364   0.814  16.817  1.9291  0.2382 -1.9997
  456MPD2    N1 6799   1.459   0.324  16.740 -0.9650  0.0669 -0.2615
  456MPD2    H7 6800   1.434   0.233  16.701  0.4433 -0.0591 -0.8833
  457TMC3    C1 6801   1.219   1.002  16.798  0.4857  0.5316  0.4785
  457TMC3    C2 6802   1.179   1.118  16.735 -0.7031 -0.4385  0.1380
  457TMC3    C3 6803   1.210   1.242  16.796  0.5040 -0.2008  0.0901
  457TMC3    C4 6804   1.305   1.005  16.903 -0.2141  0.1276  0.3280
  457TMC3    C5 6805   1.337   1.125  16.956 -0.3080  0.1721  0.0527
  457TMC3    C6 6806   1.288   1.243  16.910  0.1493  0.2412 -0.0196
  457TMC3     C 6807   1.202   0.879  16.728 -0.4681 -0.3559  0.2674
  457TMC3     O 6808   1.115   0.881  16.646 -0.0364  0.0543  0.6960
  457TMC3     H 6809   1.095   1.111  16.667 -0.2243  0.6097 -0.5654
  457TMC3    H1 6810   1.336   0.914  16.951 -0.6170 -1.1941 -1.9062
  457TMC3    H2 6811   1.296   1.324  16.982  1.3144 -0.3387  0.5021
  457TMC3    C7 6812   1.358   1.119  17.100  0.3561  0.5400  0.4603
  457TMC3    C8 6813   1.113   1.353  16.803  0.1592 -0.0714  0.6433
  457TMC3    O1 6814   1.337   1.014  17.159 -0.0885  0.0729 -0.3746
  457TMC3    O2 6815   1.133   1.436  16.890 -0.6471 -0.4940  0.0142
  458MPD2     C 6816   3.989   0.085  12.088 -0.2176  0.0210 -0.3137
  458MPD2    C1 6817   3.973   0.018  12.208 -0.0111  0.0565  0.3666
  458MPD2    C2 6818   3.842   4.697  12.239 -0.2541 -0.3104 -0.6163
  458MPD2    C3 6819   3.730   0.007  12.166  0.4660 -0.6147  0.4759
  458MPD2    C4 6820   3.755   0.078  12.052  0.0428  0.1796 -0.0177
  458MPD2    C5 6821   3.879   0.120  12.011  0.7681 -0.0475  0.3281
  458MPD2     H 6822   3.821   4.642  12.330  0.6333 -0.5532 -0.5640
  458MPD2    H1 6823   3.678   0.125  11.994 -0.7497  0.1391  0.9975
  458MPD2    H2 6824   4.086   0.123  12.059 -0.7319  3.2288  2.1967
  458MPD2    H3 6825   3.889   0.191  11.930  0.5454 -1.0702 -0.6060
  458MPD2     N 6826   3.601   4.711  12.219 -0.3855 -0.5531 -0.4891
  458MPD2    H5 6827   3.593   4.646  12.296  2.4364  1.1831  1.2628
  458MPD2    N1 6828   4.086   4.705  12.288 -0.5185 -0.3851  0.1697
  458MPD2    H7 6829   4.177   0.021  12.265  0.1526 -0.9965  1.7715
  459TMC3    C1 6830   4.207   4.613  12.469  0.2171  0.6610 -0.1424
  459TMC3    C2 6831   4.302   4.709  12.451  0.1256  0.3381  0.7369
  459TMC3    C3 6832   4.388   0.008  12.552  0.3596 -0.4985  0.2356
  459TMC3    C4 6833   4.207   4.533  12.585 -0.4306 -0.2596  0.0693
  459TMC3    C5 6834   4.297   4.564  12.684 -0.1137  0.1698 -0.6920
  459TMC3    C6 6835   4.394   4.660  12.669 -0.5238  0.2819 -0.5401
  459TMC3     C 6836   4.085   4.616  12.394 -0.8169 -0.0766  0.3617
  459TMC3     O 6837   3.993   4.543  12.428  0.2254 -0.1539 -0.4109
  459TMC3     H 6838   4.328   0.028  12.354 -1.2114 -0.3519  0.0920
  459TMC3    H1 6839   4.140   4.449  12.600 -1.9169  0.3546 -3.1370
  459TMC3    H2 6840   4.451   4.698  12.754 -0.7770  1.1209 -0.7436
  459TMC3    C7 6841   4.271   4.511  12.818 -0.3601 -0.0456  0.1486
  459TMC3    C8 6842   4.515   0.072  12.521 -0.3561  0.2047  0.3947
  459TMC3    O1 6843   4.360   4.536  12.904 -0.0444  0.6849  0.1992
  459TMC3    O2 6844   4.612   0.044  12.591  0.2826 -0.1482  0.7430
  460MPD2     C 6845   3.302   2.730  10.730  0.8098  0.2414  0.8563
  460MPD2    C1 6846   3.201   2.638  10.751 -0.5805  0.2005  0.3115
  460MPD2    C2 6847   3.105   2.614  10.653 -0.1487 -0.7378 -0.1042
  460MPD2    C3 6848   3.121   2.670  10.530 -0.3945  0.0787  0.3583
  460MPD2    C4 6849   3.218   2.768  10.515 -0.0288 -0.6163  0.2970
  460MPD2    C5 6850   3.307   2.794  10.612  0.2587  0.4721 -0.1180
  460MPD2     H 6851   3.020   2.554  10.683  0.5243 -2.0051 -0.7133
  460MPD2    H1 6852   3.227   2.828  10.425  1.3508 -0.9680  0.1991
  460MPD2    H2 6853   3.382   2.741  10.804 -0.2232  1.0992  1.8539
  460MPD2    H3 6854   3.394   2.855  10.591  0.5530  0.1304  0.1168
  460MPD2     N 6855   3.027   2.635  10.426 -0.3115  0.3699  0.4148
  460MPD2    H5 6856   2.954   2.571  10.455  0.5480 -0.0991  1.5024
  460MPD2    N1 6857   3.194   2.565  10.877 -0.0115 -0.5633  0.0702
  460MPD2    H7 6858   3.273   2.574  10.940  1.3451 -2.5459 -1.3656
  461TMC3    C1 6859   2.907   2.660  10.232  0.1602  0.0860  0.2425
  461TMC3    C2 6860   2.877   2.528  10.220 -0.0644  0.1149 -0.4740
  461TMC3    C3 6861   2.776   2.496  10.140 -0.6798  0.1612  0.3557
  461TMC3    C4 6862   2.833   2.757  10.165  0.0586 -0.2806  0.1506
  461TMC3    C5 6863   2.733   2.716  10.081  0.3709  0.1816 -0.7485
  461TMC3    C6 6864   2.696   2.589  10.080 -0.4896 -0.4003  0.0247
  461TMC3     C 6865   3.023   2.701  10.306 -0.5298 -1.0697 -0.9777
  461TMC3     O 6866   3.114   2.770  10.254  0.3263 -0.4339 -0.9893
  461TMC3     H 6867   2.952   2.453  10.243  0.2095  0.3534 -0.6010
  461TMC3    H1 6868   2.871   2.858  10.175  1.6273 -0.8082 -0.4882
  461TMC3    H2 6869   2.623   2.563  10.004  3.0491 -1.6773 -2.9992
  461TMC3    C7 6870   2.699   2.793   9.960  0.4450 -0.2993  0.2370
  461TMC3    C8 6871   2.794   2.369  10.080 -0.4713  0.3385  0.5692
  461TMC3    O1 6872   2.657   2.738   9.861  0.0328  0.1284 -0.7215
  461TMC3    O2 6873   2.907   2.323  10.068  0.0912 -0.7263  0.3116
  462TMC3    C1 6874   2.654   3.547   0.061  0.7828 -0.0056 -0.1971
  462TMC3    C2 6875   2.576   3.438   0.019  0.6544  0.3543  0.0663
  462TMC3    C3 6876   2.642   3.316   0.009 -0.0841 -0.0454 -0.7607
  462TMC3    C4 6877   2.782   3.531   0.102  0.3680  0.2180  0.0077
  462TMC3    C5 6878   2.838   3.411   0.091  0.4837  0.0268 -0.0041
  462TMC3    C6 6879   2.776   3.301   0.040 -0.3198 -0.4837 -0.1754
  462TMC3     C 6880   2.596   3.680   0.064 -0.3275  0.8422 -0.0190
  462TMC3     O 6881   2.482   3.688   0.106  0.4962 -0.3367 -0.2865
  462TMC3     H 6882   2.485   3.468  17.658  1.5821  1.6170 -0.8733
  462TMC3    H1 6883   2.836   3.612   0.150 -0.0552 -0.4188  1.5553
  462TMC3    H2 6884   2.832   3.214   0.006  0.8512  0.2554 -0.1385
  462TMC3    C7 6885   2.953   3.382   0.172  0.2153  0.0457  0.2888
  462TMC3    C8 6886   2.559   3.206  17.684 -0.0431  0.1002  0.7125
  462TMC3    O1 6887   2.974   3.261   0.177  0.3595 -0.4651 -0.2202
  462TMC3    O2 6888   2.444   3.236  17.654 -0.2400 -0.5876 -0.0376
  463MPD2     C 6889   3.802   1.991   2.290  0.3274  0.1491 -0.2456
  463MPD2    C1 6890   3.785   2.028   2.161  1.1062  0.0849  0.3384
  463MPD2    C2 6891   3.870   1.979   2.066  0.2469 -0.1130  0.1703
  463MPD2    C3 6892   3.971   1.892   2.093  0.5573  0.1625 -0.0785
  463MPD2    C4 6893   3.985   1.850   2.221 -0.8145  0.0680  0.1639
  463MPD2    C5 6894   3.900   1.899   2.314  0.0196 -0.0592 -0.7613
  463MPD2     H 6895   3.844   2.008   1.965  2.1034  0.5684 -0.1193
  463MPD2    H1 6896   4.064   1.784   2.255 -0.8965  0.6680  1.5290
  463MPD2    H2 6897   3.734   2.027   2.367  0.7846  1.9736 -0.6976
  463MPD2    H3 6898   3.918   1.867   2.416  1.9141  2.8380 -0.2044
  463MPD2     N 6899   4.055   1.834   1.996 -0.1173  0.5253  0.5287
  463MPD2    H5 6900   4.116   1.762   2.034  0.4154  0.7372  0.0835
  463MPD2    N1 6901   3.679   2.113   2.110 -0.1877 -0.1049 -0.5897
  463MPD2    H7 6902   3.673   2.125   2.010  0.4663  1.5199 -0.4313
  464TMC3    C1 6903   3.467   2.219   2.092 -0.7130  0.1722  0.3231
  464TMC3    C2 6904   3.504   2.309   1.993 -0.0150 -0.0083  0.3954
  464TMC3    C3 6905   3.407   2.384   1.927  0.3332 -0.8418 -0.1659
  464TMC3    C4 6906   3.337   2.198   2.124  0.0438 -0.6631  0.1381
  464TMC3    C5 6907   3.243   2.259   2.047 -0.4533 -0.1467  0.4729
  464TMC3    C6 6908   3.275   2.355   1.953 -0.1569 -0.0435  0.0030
  464TMC3     C 6909   3.561   2.140   2.176 -0.5822 -0.1316 -0.4580
  464TMC3     O 6910   3.520   2.101   2.281  0.1169 -0.6342 -0.0392
  464TMC3     H 6911   3.607   2.324   1.962  0.5657 -0.8913  1.8975
  464TMC3    H1 6912   3.314   2.110   2.183 -0.0470 -0.3353  0.5962
  464TMC3    H2 6913   3.200   2.395   1.887 -1.0370 -0.9577  0.4490
  464TMC3    C7 6914   3.105   2.196   2.040  0.0603 -0.1628  0.0126
  464TMC3    C8 6915   3.448   2.449   1.803  0.3641  0.7903 -0.4630
  464TMC3    O1 6916   3.007   2.270   2.040 -0.0440 -0.1950 -0.5229
  464TMC3    O2 6917   3.568   2.436   1.770 -0.5272 -0.1300  0.1568
  465MPD2     C 6918   0.720   0.657  16.918  1.1510 -0.4505  0.0998
  465MPD2    C1 6919   0.621   0.647  17.008 -0.5747  0.1098 -0.9113
  465MPD2    C2 6920   0.497   0.693  16.975  0.1960 -0.1920  0.3657
  465MPD2    C3 6921   0.471   0.759  16.854  0.5551 -0.0237  0.2208
  465MPD2    C4 6922   0.585   0.783  16.774  0.6339  0.2479 -0.5051
  465MPD2    C5 6923   0.708   0.731  16.801  0.6448 -0.1492  0.4540
  465MPD2     H 6924   0.419   0.695  17.051 -0.0546 -3.2562  0.1842
  465MPD2    H1 6925   0.582   0.835  16.678 -0.1425 -2.8074 -2.1421
  465MPD2    H2 6926   0.825   0.640  16.941  1.4498  1.6887  0.3692
  465MPD2    H3 6927   0.790   0.754  16.734  0.4467  0.8190  0.5402
  465MPD2     N 6928   0.339   0.802  16.816 -0.5499  0.2900 -0.1723
  465MPD2    H5 6929   0.263   0.776  16.878  1.3583 -1.8314  1.2987
  465MPD2    N1 6930   0.637   0.580  17.129 -0.0236 -0.2915 -0.2345
  465MPD2    H7 6931   0.555   0.563  17.186 -0.5187  0.4960 -0.7186
  466TMC3    C1 6932   4.667   0.881  16.789  0.1776  0.1379  0.5015
  466TMC3    C2 6933   4.627   0.988  16.718 -0.4937  0.2146 -0.2612
  466TMC3    C3 6934   0.003   1.044  16.638  0.2924 -0.3840 -0.0884
  466TMC3    C4 6935   0.075   0.838  16.787  0.5981 -0.2249  0.3474
  466TMC3    C5 6936   0.165   0.895  16.703  0.0870  0.6217  0.1673
  466TMC3    C6 6937   0.128   0.999  16.626 -0.0981  0.2783 -0.1879
  466TMC3     C 6938   4.586   0.828  16.896  0.0050 -0.2426 -0.6606
  466TMC3     O 6939   4.642   0.807  17.002  0.2518 -0.2615 -0.0062
  466TMC3     H 6940   4.524   1.022  16.708 -0.5234  0.7378  1.8868
  466TMC3    H1 6941   0.093   0.753  16.851  0.1086  1.6414  2.9761
  466TMC3    H2 6942   0.201   1.046  16.561 -0.1639  2.5780  1.4218
  466TMC3    C7 6943   0.304   0.869  16.706 -0.1691  0.4537 -0.4227
  466TMC3    C8 6944   4.700   1.167  16.580  0.0060 -1.2309  0.1378
  466TMC3    O1 6945   0.373   0.894  16.608 -0.3216  0.2937 -0.5094
  466TMC3    O2 6946   0.029   1.176  16.472  0.2794  0.3575 -0.1785
  467TMC3    C1 6947   1.106   4.373  13.938 -0.5421  0.2092  0.4587
  467TMC3    C2 6948   1.004   4.398  13.859  0.4319 -0.5604  0.2298
  467TMC3    C3 6949   0.883   4.342  13.871 -0.3876  0.1506 -0.4790
  467TMC3    C4 6950   1.094   4.271  14.030  0.6869  0.0818 -1.3627
  467TMC3    C5 6951   0.967   4.221  14.050 -0.1009  0.5482 -0.2640
  467TMC3    C6 6952   0.860   4.250  13.968  0.5524 -1.2774  0.6737
  467TMC3     C 6953   1.243   4.420  13.918  0.2310  0.5137 -0.5732
  467TMC3     O 6954   1.334   4.357  13.961  0.3359  0.1497  0.1669
  467TMC3     H 6955   1.009   4.483  13.791 -1.1267 -0.1589  0.6048
  467TMC3    H1 6956   1.178   4.245  14.094 -1.2616 -1.4731  0.5896
  467TMC3    H2 6957   0.763   4.204  13.982 -0.7929  1.2221 -0.4040
  467TMC3    C7 6958   0.966   4.100  14.127 -0.2699 -0.4471  0.6201
  467TMC3    C8 6959   0.784   4.442  13.854  0.5055  0.8989 -0.3885
  467TMC3    O1 6960   1.075   4.044  14.146 -0.5297  0.0276  0.2655
  467TMC3    O2 6961   0.787   4.511  13.754  0.0741  0.4387  0.1341
  468MPD2     C 6962   4.494   2.454  10.890  0.4641  0.3710 -0.5505
  468MPD2    C1 6963   4.615   2.407  10.934 -0.1273 -0.0550  0.1739
  468MPD2    C2 6964   4.670   2.284  10.889  0.0422  0.5822  0.4184
  468MPD2    C3 6965   4.607   2.222  10.786 -0.4887 -0.2238  0.7201
  468MPD2    C4 6966   4.486   2.266  10.743  0.4521  0.2967 -0.0198
  468MPD2    C5 6967   4.429   2.384  10.790 -0.4697 -1.0529 -0.1609
  468MPD2     H 6968   0.046   2.250  10.922  0.8232  2.1595 -0.2409
  468MPD2    H1 6969   4.438   2.210  10.663  1.5315 -1.5679  0.6489
  468MPD2    H2 6970   4.437   2.533  10.938  1.7754 -0.2355  2.0332
  468MPD2    H3 6971   4.334   2.416  10.749 -0.5243 -0.4994  0.4105
  468MPD2     N 6972   4.648   2.089  10.747 -1.2633 -0.2068 -0.6475
  468MPD2    H5 6973   4.578   2.035  10.696 -0.9791 -2.2594  1.1205
  468MPD2    N1 6974   4.691   2.475  11.026  0.0132 -0.4183 -0.4628
  468MPD2    H7 6975   0.051   2.423  11.056 -0.7213 -1.0208  0.4816
  469TMC3    C1 6976   0.040   2.635  11.174  0.1597 -0.3467 -0.1578
  469TMC3    C2 6977   0.162   2.574  11.180 -0.3891 -0.2434  0.0012
  469TMC3    C3 6978   0.253   2.605  11.278 -0.0079  0.1570  0.6978
  469TMC3    C4 6979   0.022   2.745  11.257  0.1447 -0.2879 -0.5926
  469TMC3    C5 6980   0.120   2.780  11.345  0.7829 -0.3447 -0.2953
  469TMC3    C6 6981   0.230   2.706  11.370 -0.2120  0.0341  0.2381
  469TMC3     C 6982   4.660   2.595  11.080  0.0470  0.0833 -0.4385
  469TMC3     O 6983   4.563   2.666  11.058  0.3922 -1.0162 -0.4198
  469TMC3     H 6984   0.206   2.501  11.113  0.9637  1.2404 -0.7478
  469TMC3    H1 6985   4.650   2.799  11.249  0.1803  0.2641  2.4363
  469TMC3    H2 6986   0.299   2.729  11.450  0.1720 -1.9603  0.4612
  469TMC3    C7 6987   0.109   2.917  11.394 -0.5800  0.0104  0.1515
  469TMC3    C8 6988   0.362   2.512  11.295  0.1813 -0.2368 -0.2181
  469TMC3    O1 6989   4.719   2.964  11.413 -0.0946  0.3159 -0.0679
  469TMC3    O2 6990   0.338   2.402  11.256  0.2292  0.4264  0.1748
  470TMC3    C1 6991   1.969   3.571   0.844  0.4447  0.5379  0.1090
  470TMC3    C2 6992   1.938   3.698   0.878 -0.2696  0.2362  0.2653
  470TMC3    C3 6993   1.984   3.742   1.000 -0.4487  0.8372 -0.8701
  470TMC3    C4 6994   2.038   3.482   0.922  0.2104  0.1074 -1.0256
  470TMC3    C5 6995   2.085   3.534   1.037 -0.2160 -0.0078  0.0177
  470TMC3    C6 6996   2.064   3.661   1.077  0.0848 -0.2870  0.4360
  470TMC3     C 6997   1.919   3.531   0.715  0.0073  0.5112 -0.4275
  470TMC3     O 6998   1.913   3.618   0.628 -0.0526  0.3884  0.2040
  470TMC3     H 6999   1.869   3.753   0.815 -1.4215 -2.6051 -0.9705
  470TMC3    H1 7000   2.076   3.389   0.882 -0.3914 -1.0554  1.1333
  470TMC3    H2 7001   2.113   3.697   1.167  0.3217 -0.7859  0.5028
  470TMC3    C7 7002   2.122   3.433   1.127 -0.4351  0.3465 -0.2638
  470TMC3    C8 7003   1.959   3.878   1.053  0.4122 -0.1917  0.0407
  470TMC3    O1 7004   2.164   3.333   1.072  0.6474 -0.1037  0.9026
  470TMC3    O2 7005   1.968   3.892   1.176 -0.3682 -0.3661  0.2712
  471MPD2     C 7006   2.616   4.502  16.917  0.1712  0.3091  0.1345
  471MPD2    C1 7007   2.534   4.389  16.912 -0.3436 -0.8534 -0.3761
  471MPD2    C2 7008   2.495   4.330  17.030 -0.2803 -0.5062  0.6528
  471MPD2    C3 7009   2.528   4.381  17.156 -0.5099 -0.4186  0.5319
  471MPD2    C4 7010   2.622   4.485  17.159 -0.6313  0.2524  0.3448
  471MPD2    C5 7011   2.672   4.537  17.039  0.5047  0.1944  0.1322
  471MPD2     H 7012   2.442   4.236  17.020 -2.0907  0.6007 -0.2261
  471MPD2    H1 7013   2.659   4.520  17.255  0.5164  0.1086 -0.0386
  471MPD2    H2 7014   2.642   4.562  16.831 -1.8594  1.7872  0.5346
  471MPD2    H3 7015   2.735   4.625  17.050 -1.8628  2.1476 -2.0051
  471MPD2     N 7016   2.488   4.316  17.281  0.0401  0.5877 -0.8334
  471MPD2    H5 7017   2.535   4.351  17.363 -3.9119  2.0273  0.8036
  471MPD2    N1 7018   2.490   4.327  16.790 -0.2627  0.1819 -0.0390
  471MPD2    H7 7019   2.429   4.246  16.799  0.0370 -0.0783 -0.3442
  472TMC3    C1 7020   2.503   4.249  16.583 -0.5507 -0.4220 -0.4229
  472TMC3    C2 7021   2.430   4.287  16.478 -0.2578 -0.1301  0.2302
  472TMC3    C3 7022   2.306   4.224  16.454 -0.7721  0.3346  0.2967
  472TMC3    C4 7023   2.478   4.131  16.655  0.4070  1.0675  0.4528
  472TMC3    C5 7024   2.368   4.058  16.612 -0.2989 -0.2382  0.0554
  472TMC3    C6 7025   2.273   4.103  16.516  0.9463 -0.0937  0.3483
  472TMC3     C 7026   2.550   4.355  16.664  0.3275  0.1904 -0.5170
  472TMC3     O 7027   2.614   4.453  16.624  0.2155  0.0043 -0.0506
  472TMC3     H 7028   2.459   4.386  16.444  1.7457 -0.8190 -0.0792
  472TMC3    H1 7029   2.544   4.101  16.736 -0.7068 -3.0955 -0.1589
  472TMC3    H2 7030   2.177   4.053  16.509  0.7740  0.5770 -2.0529
  472TMC3    C7 7031   2.350   3.931  16.665  0.3950 -0.0052  0.5372
  472TMC3    C8 7032   2.250   4.255  16.322  0.3609  0.0948 -0.0414
  472TMC3    O1 7033   2.412   3.907  16.768  0.2519  0.2213 -0.3328
  472TMC3    O2 7034   2.333   4.275  16.232  0.7935  0.3384  0.2119
  473MPD2     C 7035   2.410   1.854  14.218  0.5932 -0.1900 -0.4133
  473MPD2    C1 7036   2.494   1.923  14.131  0.3112 -0.6055 -0.0345
  473MPD2    C2 7037   2.593   2.004  14.180  0.6048 -0.1384 -0.3334
  473MPD2    C3 7038   2.611   2.025  14.312 -0.2353 -0.7266  0.1083
  473MPD2    C4 7039   2.541   1.949  14.395 -0.5702  0.3357 -0.1265
  473MPD2    C5 7040   2.443   1.862  14.351  0.6709 -0.0110  0.7234
  473MPD2     H 7041   2.639   2.072  14.109 -1.2903 -1.2297 -2.6241
  473MPD2    H1 7042   2.558   1.958  14.501  1.7218 -0.0231 -0.4595
  473MPD2    H2 7043   2.325   1.794  14.190  1.8664 -0.7608 -3.0155
  473MPD2    H3 7044   2.382   1.803  14.418  1.6501 -0.9630  0.7844
  473MPD2     N 7045   2.710   2.112  14.360  0.6679 -0.2019  0.0313
  473MPD2    H5 7046   2.701   2.140  14.457  0.0473  2.6670 -0.8312
  473MPD2    N1 7047   2.481   1.919  13.991  0.3283 -0.2652 -0.2531
  473MPD2    H7 7048   2.548   1.973  13.938 -0.6191 -0.2719 -1.4414
  474TMC3    C1 7049   2.796   2.326  14.319  0.0073 -0.2542  0.5821
  474TMC3    C2 7050   2.682   2.394  14.360 -0.5162  0.1826  0.0630
  474TMC3    C3 7051   2.702   2.520  14.408  0.0477 -0.9816  0.1925
  474TMC3    C4 7052   2.919   2.371  14.340  0.0422 -0.2045  0.2879
  474TMC3    C5 7053   2.928   2.487  14.410 -1.3834 -0.0470  0.1425
  474TMC3    C6 7054   2.824   2.575  14.434 -0.0084  0.0974  0.9131
  474TMC3     C 7055   2.787   2.190  14.275 -0.4268 -0.2505 -0.7468
  474TMC3     O 7056   2.843   2.171  14.166  0.2463  0.1403  0.3531
  474TMC3     H 7057   2.585   2.358  14.327 -0.5124  1.0727 -0.9017
  474TMC3    H1 7058   3.000   2.304  14.310 -0.4858  0.4854 -2.7280
  474TMC3    H2 7059   2.858   2.673  14.467  0.8195 -0.0414  0.4890
  474TMC3    C7 7060   3.057   2.514  14.472 -0.5255  0.4620  0.1272
  474TMC3    C8 7061   2.585   2.602  14.432 -0.4227 -0.4010 -0.1945
  474TMC3    O1 7062   3.162   2.483  14.414 -0.4007  0.0830 -0.1803
  474TMC3    O2 7063   2.475   2.548  14.424  0.0931 -0.0600  0.1576
  475MPD2     C 7064   1.300   0.172  10.780 -0.2139  0.0313 -0.5481
  475MPD2    C1 7065   1.280   0.182  10.645 -0.8904  0.3408 -0.9104
  475MPD2    C2 7066   1.196   0.280  10.586 -0.0811  1.2139  0.4856
  475MPD2    C3 7067   1.137   0.376  10.669 -0.3794  0.3782 -0.1055
  475MPD2    C4 7068   1.161   0.368  10.803  0.6267 -0.2440 -0.3653
  475MPD2    C5 7069   1.235   0.266  10.858  0.7125  0.1178  0.1955
  475MPD2     H 7070   1.176   0.277  10.480  0.6893  1.9971  0.3213
  475MPD2    H1 7071   1.108   0.434  10.871 -0.1371 -0.0657 -1.1339
  475MPD2    H2 7072   1.369   0.100  10.822  0.6386  2.7308  2.7343
  475MPD2    H3 7073   1.246   0.265  10.966  1.7510 -0.4917  0.0851
  475MPD2     N 7074   1.062   0.493  10.621  0.3647  0.2898 -0.4058
  475MPD2    H5 7075   1.034   0.497  10.523 -1.8230 -0.5115  0.1791
  475MPD2    N1 7076   1.351   0.089  10.566  0.6911  0.3229  0.0617
  475MPD2    H7 7077   1.414   0.026  10.615  0.7285 -1.6652 -2.5462
  476TMC3    C1 7078   1.448   0.006  10.361  0.6075  0.2811 -0.0950
  476TMC3    C2 7079   1.435   0.003  10.220  0.5956  0.6214  0.0802
  476TMC3    C3 7080   1.552   4.704  10.155  0.1045  0.0869  0.5403
  476TMC3    C4 7081   1.567   4.720  10.427 -0.6806 -0.0070  0.0163
  476TMC3    C5 7082   1.680   4.696  10.350 -0.4126 -1.3511 -0.3426
  476TMC3    C6 7083   1.670   4.690  10.215  0.5757 -0.2121  0.0481
  476TMC3     C 7084   1.340   0.072  10.433  0.1350  0.0807  0.1100
  476TMC3     O 7085   1.257   0.122  10.356  0.2227  0.4587 -0.2164
  476TMC3     H 7086   1.337   0.002  10.174  0.1605 -2.5306  1.0886
  476TMC3    H1 7087   1.573   4.710  10.535  2.1994  3.7250  0.1703
  476TMC3    H2 7088   1.754   4.667  10.150  0.6948  2.3840 -0.7330
  476TMC3    C7 7089   1.807   4.704  10.419  0.1402  0.5190  0.2083
  476TMC3    C8 7090   1.550   0.011  10.013  0.1742 -0.8653 -0.2137
  476TMC3    O1 7091   1.903   4.665  10.359 -0.0980 -0.1360 -0.4417
  476TMC3    O2 7092   1.652   0.061   9.964 -0.4752 -0.2245 -0.0430
  477MPD2     C 7093   3.686   1.791  11.769  0.2717 -0.8459 -0.2276
  477MPD2    C1 7094   3.603   1.682  11.780  0.1608  0.0526  0.0763
  477MPD2    C2 7095   3.628   1.600  11.895 -0.9919 -0.3118 -0.8422
  477MPD2    C3 7096   3.729   1.624  11.981 -0.0606  0.0950  0.2053
  477MPD2    C4 7097   3.801   1.736  11.966 -0.0900  0.5709  0.0118
  477MPD2    C5 7098   3.776   1.824  11.866 -0.2571  0.1510  0.4553
  477MPD2     H 7099   3.565   1.513  11.907 -0.7525  0.1357  3.5168
  477MPD2    H1 7100   3.884   1.758  12.032  0.9833  0.0300 -1.1545
  477MPD2    H2 7101   3.677   1.858  11.685  0.6094 -1.1330 -0.4934
  477MPD2    H3 7102   3.847   1.905  11.855 -0.0875 -0.1473 -0.6397
  477MPD2     N 7103   3.771   1.523  12.075 -0.4461  0.5097  0.0735
  477MPD2    H5 7104   3.725   1.433  12.068  0.3057  0.2018 -0.7768
  477MPD2    N1 7105   3.495   1.673  11.688  0.5676 -0.6507  0.0101
  477MPD2    H7 7106   3.493   1.744  11.615 -0.8257  1.6084  2.2599
  478TMC3    C1 7107   3.286   1.619  11.601 -0.5881 -1.0398 -0.1014
  478TMC3    C2 7108   3.160   1.614  11.653  0.2180  0.0381  0.0919
  478TMC3    C3 7109   3.065   1.698  11.598 -0.4462  0.3535 -0.4371
  478TMC3    C4 7110   3.321   1.700  11.501  0.6151 -0.2119  0.4444
  478TMC3    C5 7111   3.219   1.777  11.443 -0.4755 -0.0347 -0.1691
  478TMC3    C6 7112   3.090   1.773  11.489  0.6226 -0.0964  1.0941
  478TMC3     C 7113   3.394   1.581  11.695 -0.2035  0.0899 -0.6576
  478TMC3     O 7114   3.371   1.496  11.780  0.0684 -0.4449  0.2613
  478TMC3     H 7115   3.147   1.569  11.751  0.4512 -1.1014 -0.4065
  478TMC3    H1 7116   3.415   1.683  11.451  0.3313  0.2252 -0.2332
  478TMC3    H2 7117   3.003   1.823  11.449 -0.2458 -1.5951  1.0945
  478TMC3    C7 7118   3.255   1.856  11.326 -0.7693 -0.2286  0.0849
  478TMC3    C8 7119   2.946   1.725  11.693 -0.9240  0.3383 -0.0328
  478TMC3    O1 7120   3.377   1.871  11.309  1.0989  0.2111 -0.0876
  478TMC3    O2 7121   2.909   1.636  11.770  0.5983 -0.3738 -0.1233
  479MPD2     C 7122   2.255   3.684  15.387  0.3126 -0.6641 -0.9389
  479MPD2    C1 7123   2.180   3.640  15.496  0.0633 -0.4562 -0.5324
  479MPD2    C2 7124   2.213   3.684  15.625  0.2089 -0.3235  0.0574
  479MPD2    C3 7125   2.312   3.772  15.645  0.3129  0.4568 -0.0417
  479MPD2    C4 7126   2.388   3.813  15.535  0.8635  0.3263 -0.4228
  479MPD2    C5 7127   2.361   3.768  15.412 -0.1953  0.0693 -0.1667
  479MPD2     H 7128   2.175   3.626  15.708 -0.4407  2.7882  1.9440
  479MPD2    H1 7129   2.459   3.896  15.528  2.0443 -0.5783  0.7807
  479MPD2    H2 7130   2.233   3.656  15.284  1.0995 -2.0723 -0.7234
  479MPD2    H3 7131   2.414   3.814  15.329  0.3525  2.8798  1.7323
  479MPD2     N 7132   2.355   3.824  15.765  0.5420 -0.3694 -0.2592
  479MPD2    H5 7133   2.451   3.857  15.774  0.1584  0.3641  1.1466
  479MPD2    N1 7134   2.075   3.552  15.472 -0.1252 -0.1905 -0.0148
  479MPD2    H7 7135   2.076   3.518  15.376  1.9868  1.1004 -0.4612
  480TMC3    C1 7136   1.971   3.736  16.011  0.4848 -0.4411 -0.2887
  480TMC3    C2 7137   1.882   3.786  15.923  0.9654 -0.2337  0.1339
  480TMC3    C3 7138   1.927   3.856  15.815  0.3569 -0.3369 -0.0995
  480TMC3    C4 7139   2.103   3.760  15.999 -0.0197 -0.7309  0.3635
  480TMC3    C5 7140   2.146   3.818  15.886 -0.4773  0.4204 -0.0967
  480TMC3    C6 7141   2.062   3.870  15.791 -0.0210  0.2156  0.2551
  480TMC3     C 7142   1.913   3.686  16.141  0.3364  0.2883 -0.2693
  480TMC3     O 7143   1.924   3.763  16.235 -0.1610 -0.0055  0.0959
  480TMC3     H 7144   1.776   3.786  15.947  0.8713 -0.3548 -0.2828
  480TMC3    H1 7145   2.174   3.714  16.067 -0.1674 -1.1879  0.2013
  480TMC3    H2 7146   2.101   3.940  15.718  1.5009 -0.3919  0.4950
  480TMC3    C7 7147   2.284   3.843  15.883 -0.1028 -0.6373  0.0207
  480TMC3    C8 7148   1.845   3.826  15.703 -0.3951  0.6711 -0.2232
  480TMC3    O1 7149   2.325   3.886  15.993  0.1930  0.2127 -0.0487
  480TMC3    O2 7150   1.725   3.807  15.713 -0.9265 -0.3723 -0.3213
  481MPD2     C 7151   4.083   3.555  14.302  0.1862  0.1408  0.3207
  481MPD2    C1 7152   3.962   3.505  14.334  0.7783  0.8708 -0.1941
  481MPD2    C2 7153   3.928   3.470  14.462  0.6980  0.0258  0.0799
  481MPD2    C3 7154   4.022   3.497  14.561 -0.2092 -0.1899 -0.3176
  481MPD2    C4 7155   4.134   3.558  14.523 -0.3708 -0.4251  0.4886
  481MPD2    C5 7156   4.169   3.591  14.396 -0.5698  0.4445  1.0036
  481MPD2     H 7157   3.833   3.423  14.484  0.5995  0.4502  0.5608
  481MPD2    H1 7158   4.208   3.589  14.597  0.0526  0.5691 -0.3436
  481MPD2    H2 7159   4.105   3.574  14.197 -1.1242  0.3170  0.0749
  481MPD2    H3 7160   4.256   3.650  14.372 -0.3912  0.2051  1.0606
  481MPD2     N 7161   4.012   3.454  14.696  0.0155  0.2871 -0.2118
  481MPD2    H5 7162   4.096   3.462  14.752  0.1883  1.1539 -0.5819
  481MPD2    N1 7163   3.867   3.490  14.227 -0.0690 -0.3032 -0.5236
  481MPD2    H7 7164   3.893   3.505  14.130  0.6671 -0.4531 -0.3556
  482TMC3    C1 7165   3.690   3.457  14.096  0.0676 -0.1244  0.0429
  482TMC3    C2 7166   3.762   3.367  14.027  0.6052  0.2801  0.6433
  482TMC3    C3 7167   3.734   3.358  13.895  0.5925  0.0912  0.3127
  482TMC3    C4 7168   3.597   3.536  14.038  0.4574 -0.4416  0.2521
  482TMC3    C5 7169   3.570   3.526  13.905  0.3213 -0.1138  0.7528
  482TMC3    C6 7170   3.650   3.443  13.825 -0.1361 -0.5999  0.2388
  482TMC3     C 7171   3.734   3.469  14.233 -0.5531 -0.1096 -0.1904
  482TMC3     O 7172   3.657   3.505  14.320 -0.4683  0.1228  0.4117
  482TMC3     H 7173   3.814   3.288  14.080 -2.4938 -1.6360  0.8661
  482TMC3    H1 7174   3.546   3.605  14.104 -0.8672 -1.0897 -0.0958
  482TMC3    H2 7175   3.646   3.428  13.717 -1.7522  0.4320  0.1475
  482TMC3    C7 7176   3.474   3.618  13.841 -0.2409  0.5106 -0.0556
  482TMC3    C8 7177   3.779   3.243  13.825  0.1582  0.0408  0.7877
  482TMC3    O1 7178   3.449   3.724  13.895 -0.5238 -0.3638 -0.0320
  482TMC3    O2 7179   3.697   3.202  13.742  0.4821  0.5588  0.2869
  483TMC3    C1 7180   2.490   2.385   1.053  0.0129  0.3939  0.4620
  483TMC3    C2 7181   2.559   2.498   1.047  0.3954  0.0375 -0.0072
  483TMC3    C3 7182   2.630   2.537   1.156 -0.8961  0.3777 -0.3817
  483TMC3    C4 7183   2.473   2.324   1.174 -0.4000  0.6709 -0.2302
  483TMC3    C5 7184   2.537   2.368   1.281  0.0520  0.0223 -0.1353
  483TMC3    C6 7185   2.623   2.472   1.272  0.7471  0.1502 -0.1205
  483TMC3     C 7186   2.419   2.323   0.936 -0.8311 -0.1296  0.8333
  483TMC3     O 7187   2.424   2.391   0.834  0.0386  0.1102 -0.3167
  483TMC3     H 7188   2.580   2.545   0.952 -0.2034 -0.8572 -0.5707
  483TMC3    H1 7189   2.406   2.239   1.183  2.4722 -1.4202  1.2262
  483TMC3    H2 7190   2.678   2.497   1.362 -0.1266  0.1196  0.4247
  483TMC3    C7 7191   2.531   2.284   1.396  0.4623  0.0591 -0.9988
  483TMC3    C8 7192   2.732   2.635   1.138  0.1800  0.0605 -0.1018
  483TMC3    O1 7193   2.630   2.257   1.459  0.0256 -0.3444 -0.1724
  483TMC3    O2 7194   2.762   2.659   1.024  0.1892 -0.2910  0.1388
  484MPD2     C 7195   4.545   0.393  12.343  0.5135 -0.3183 -0.4127
  484MPD2    C1 7196   4.590   0.277  12.403  0.0675 -0.3695  0.5941
  484MPD2    C2 7197   0.004   0.276  12.435 -0.2843 -0.3338 -0.0092
  484MPD2    C3 7198   0.097   0.377  12.405 -0.3947  0.2885 -0.3776
  484MPD2    C4 7199   0.038   0.491  12.358  1.0318  0.3910  0.4116
  484MPD2    C5 7200   4.625   0.501  12.336  0.1007 -0.1349  0.0371
  484MPD2     H 7201   0.032   0.173  12.457  1.6200  0.2530  0.3126
  484MPD2    H1 7202   0.099   0.576  12.329  0.8262  0.0044 -1.1401
  484MPD2    H2 7203   4.438   0.413  12.347  0.3120 -1.8191  1.4553
  484MPD2    H3 7204   4.580   0.594  12.304  1.1894  0.0928 -0.7944
  484MPD2     N 7205   0.232   0.382  12.435  0.6029  0.3525  0.3726
  484MPD2    H5 7206   0.282   0.469  12.422 -0.2686  0.4630 -2.3350
  484MPD2    N1 7207   4.494   0.181  12.436  0.3110 -0.0584  0.7776
  484MPD2    H7 7208   4.400   0.195  12.400 -0.0774  0.7883  2.1015
  485TMC3    C1 7209   0.450   0.309  12.482 -0.0575  0.3426 -0.0514
  485TMC3    C2 7210   0.531   0.207  12.507 -0.2569 -0.3966 -0.4434
  485TMC3    C3 7211   0.664   0.222  12.518 -0.9634 -0.5688  0.0299
  485TMC3    C4 7212   0.502   0.432  12.498  0.4309  0.6976  0.3270
  485TMC3    C5 7213   0.638   0.457  12.524 -0.3956 -0.4403  0.3894
  485TMC3    C6 7214   0.712   0.345  12.541  0.1487  0.0458 -0.0523
  485TMC3     C 7215   0.310   0.276  12.459  0.5227 -0.2858 -0.0317
  485TMC3     O 7216   0.276   0.161  12.448 -0.2471 -0.3842  0.1715
  485TMC3     H 7217   0.493   0.106  12.519 -0.9988  0.0530  0.9959
  485TMC3    H1 7218   0.444   0.523  12.484 -0.6868 -0.0891 -0.1038
  485TMC3    H2 7219   0.812   0.361  12.580  0.6376  0.0766 -1.3102
  485TMC3    C7 7220   0.691   0.553  12.427 -0.2959  0.3220 -0.0319
  485TMC3    C8 7221   0.736   0.160  12.404 -0.8799  0.4377  0.4038
  485TMC3    O1 7222   0.625   0.654  12.404  0.1012  0.5281  0.2117
  485TMC3    O2 7223   0.837   0.226  12.373  0.5597  0.3552 -0.1908
  486MPD2     C 7224   1.704   3.905  12.830  0.0249  0.1641 -0.1085
  486MPD2    C1 7225   1.787   3.927  12.722  0.1414 -0.2368 -0.4422
  486MPD2    C2 7226   1.844   4.053  12.702  0.1037 -0.0494 -0.1611
  486MPD2    C3 7227   1.823   4.157  12.791  0.8570 -0.7936  0.6009
  486MPD2    C4 7228   1.738   4.139  12.897 -0.8187 -0.1522 -1.0784
  486MPD2    C5 7229   1.675   4.012  12.910 -0.2051 -0.4545 -0.3036
  486MPD2     H 7230   1.897   4.074  12.609 -2.0594  4.5343 -0.3698
  486MPD2    H1 7231   1.718   4.223  12.964 -0.8848 -0.2892 -0.9271
  486MPD2    H2 7232   1.663   3.808  12.857 -1.0445  0.9993  1.2499
  486MPD2    H3 7233   1.607   3.999  12.994  1.0327 -0.0008  0.7695
  486MPD2     N 7234   1.883   4.280  12.758  0.3836 -0.2996 -0.5313
  486MPD2    H5 7235   1.936   4.294  12.672 -1.4629 -2.5496 -2.0602
  486MPD2    N1 7236   1.818   3.815  12.640 -0.0128  0.0843  0.2178
  486MPD2    H7 7237   1.756   3.738  12.660 -0.5838 -0.3895 -3.4749
  487TMC3    C1 7238   1.906   3.693  12.457  0.5906 -0.5538  1.2849
  487TMC3    C2 7239   1.774   3.649  12.438 -0.1553 -0.4535 -0.2901
  487TMC3    C3 7240   1.753   3.514  12.425  0.4119  0.3478 -0.3518
  487TMC3    C4 7241   2.010   3.604  12.450  0.3267  0.4579 -0.3405
  487TMC3    C5 7242   1.985   3.471  12.443 -0.0865  0.9515 -0.0219
  487TMC3    C6 7243   1.860   3.426  12.408  0.1706  0.0685  0.7796
  487TMC3     C 7244   1.922   3.807  12.551  0.5278  0.4699 -0.6454
  487TMC3     O 7245   2.027   3.869  12.535  0.0538  0.0717  0.0049
  487TMC3     H 7246   1.693   3.717  12.458  0.1614 -0.1085 -0.1753
  487TMC3    H1 7247   2.106   3.635  12.490 -0.4704  1.0866  1.0682
  487TMC3    H2 7248   1.848   3.320  12.387 -2.1172  1.0889 -3.0858
  487TMC3    C7 7249   2.033   3.407  12.566 -0.5275  0.2211  0.2666
  487TMC3    C8 7250   1.647   3.476  12.511 -0.2691 -1.0058 -0.3987
  487TMC3    O1 7251   2.048   3.476  12.666  0.0105  1.0384  1.1028
  487TMC3    O2 7252   1.589   3.563  12.574 -0.5802 -0.0072  0.8468
  488MPD2     C 7253   2.016   0.816  16.658  0.1578 -0.1921 -0.5187
  488MPD2    C1 7254   2.051   0.934  16.719  0.7175 -0.1047  0.3848
  488MPD2    C2 7255   2.033   0.946  16.856 -0.3367 -0.1564  0.0553
  488MPD2    C3 7256   1.962   0.859  16.931  0.0837  0.2137 -0.3433
  488MPD2    C4 7257   1.922   0.741  16.873  0.1898  0.1851 -0.2963
  488MPD2    C5 7258   1.957   0.718  16.747 -0.3841 -0.2002 -0.3249
  488MPD2     H 7259   2.057   1.041  16.903  1.0320 -1.3679  1.7981
  488MPD2    H1 7260   1.883   0.665  16.940  1.2142 -2.2647 -2.4993
  488MPD2    H2 7261   2.037   0.790  16.554  0.9344 -0.8662 -0.1956
  488MPD2    H3 7262   1.933   0.620  16.705  1.0765 -0.6907 -0.0191
  488MPD2     N 7263   1.931   0.899  17.062  0.1926  0.7129  0.9563
  488MPD2    H5 7264   1.967   0.985  17.101  0.7034  0.1426  1.7696
  488MPD2    N1 7265   2.097   1.046  16.651  0.1478  0.2162  0.3988
  488MPD2    H7 7266   2.116   1.132  16.700 -1.8158  1.9151 -1.7933
  489TMC3    C1 7267   1.820   0.926  17.261  0.4482 -0.1526  0.3437
  489TMC3    C2 7268   1.841   1.060  17.254  0.4173 -0.2686  0.0014
  489TMC3    C3 7269   1.815   1.128  17.371  0.4711  0.7953  0.0188
  489TMC3    C4 7270   1.757   0.860  17.363  1.0116  0.0585 -0.5193
  489TMC3    C5 7271   1.736   0.931  17.481 -0.5312 -0.0885 -0.0643
  489TMC3    C6 7272   1.778   1.060  17.484 -0.3006 -0.9089  0.3725
  489TMC3     C 7273   1.843   0.840  17.143  0.1009  0.1592 -0.1559
  489TMC3     O 7274   1.771   0.739  17.135 -0.0011 -0.9960 -0.0547
  489TMC3     H 7275   1.865   1.111  17.161  0.0182  2.0270  1.1698
  489TMC3    H1 7276   1.730   0.756  17.345  0.4805  0.0478  0.3448
  489TMC3    H2 7277   1.785   1.112  17.579  1.1868  0.9714 -0.7800
  489TMC3    C7 7278   1.725   0.850  17.606  0.3328  0.1817  0.3132
  489TMC3    C8 7279   1.880   1.257  17.386  0.0328  0.1127  0.3735
  489TMC3    O1 7280   1.766   0.892   0.028  0.1923 -0.0497 -0.4781
  489TMC3    O2 7281   1.917   1.303  17.282  0.5692  0.3156 -0.2280
  490MPD2     C 7282   2.846   1.065  17.675 -0.0861  0.0534  0.5634
  490MPD2    C1 7283   2.809   0.971   0.078  0.1250  0.3788  0.0003
  490MPD2    C2 7284   2.908   0.908   0.162  0.2406 -0.3941  0.8794
  490MPD2    C3 7285   3.040   0.945   0.133 -0.2024  0.2634 -0.8020
  490MPD2    C4 7286   3.072   1.050   0.047 -0.5399  0.9805  0.3665
  490MPD2    C5 7287   2.975   1.107  17.656 -0.3746  0.4652  0.0153
  490MPD2     H 7288   2.880   0.832   0.234 -0.1755 -1.3370 -0.2843
  490MPD2    H1 7289   3.175   1.078   0.026 -0.0991  0.5443  1.9684
  490MPD2    H2 7290   2.773   1.108  17.608 -0.3550 -0.0204  0.8059
  490MPD2    H3 7291   2.993   1.181  17.579  0.4349 -0.0042 -0.2489
  490MPD2     N 7292   3.142   0.886   0.210  0.4283  0.0026  0.3152
  490MPD2    H5 7293   3.235   0.883   0.168  0.9135  0.9902  1.3186
  490MPD2    N1 7294   2.684   0.917   0.090  0.0256  0.5934  0.3505
  490MPD2    H7 7295   2.670   0.838   0.153  1.5572  0.3332  0.3674
  491TMC3    C1 7296   2.495   0.811   0.023 -0.4262  0.1408  0.0794
  491TMC3    C2 7297   2.473   0.767   0.151  0.0858  0.7330 -0.1124
  491TMC3    C3 7298   2.405   0.646   0.165 -1.1221 -0.1744 -0.3472
  491TMC3    C4 7299   2.460   0.743  17.598 -0.1251  0.0891  0.3091
  491TMC3    C5 7300   2.392   0.624  17.617  0.5877  0.1289  0.2965
  491TMC3    C6 7301   2.370   0.576   0.051 -0.6436  0.6093  0.0027
  491TMC3     C 7302   2.579   0.925   0.008  0.5311 -0.2174  0.3390
  491TMC3     O 7303   2.585   0.988  17.586 -0.1405  0.4267  0.0699
  491TMC3     H 7304   2.511   0.826   0.234 -1.0598  1.4256 -0.0846
  491TMC3    H1 7305   2.488   0.787  17.503 -0.4038  0.8076  0.5592
  491TMC3    H2 7306   2.319   0.481   0.055  0.0388  0.2470  0.1749
  491TMC3    C7 7307   2.377   0.521  17.512  0.1342  0.2882 -0.4311
  491TMC3    C8 7308   2.391   0.585   0.292 -0.3608 -0.0605  1.1094
  491TMC3    O1 7309   2.315   0.417  17.525 -0.1534  0.0379  0.3641
  491TMC3    O2 7310   2.365   0.468   0.288 -0.2761  0.0027 -0.5587
  492MPD2     C 7311   3.484   0.419  11.627 -0.1253  0.3241  0.5163
  492MPD2    C1 7312   3.410   0.339  11.542  0.8016 -0.5314 -0.4007
  492MPD2    C2 7313   3.318   0.262  11.613 -0.0559 -0.7388 -0.1120
  492MPD2    C3 7314   3.306   0.246  11.749  0.0279 -0.1393  0.0391
  492MPD2    C4 7315   3.401   0.318  11.817  0.7384  0.1301 -0.1785
  492MPD2    C5 7316   3.483   0.409  11.762  0.3258 -0.0789 -0.0097
  492MPD2     H 7317   3.239   0.215  11.554 -0.9217  1.1371 -0.4467
  492MPD2    H1 7318   3.408   0.315  11.925 -1.7274  0.5183 -0.0270
  492MPD2    H2 7319   3.567   0.476  11.587  0.4234 -1.1303 -0.4117
  492MPD2    H3 7320   3.540   0.474  11.828 -0.0069  1.0108 -0.7971
  492MPD2     N 7321   3.218   0.172  11.825 -0.4679 -0.5568  1.0459
  492MPD2    H5 7322   3.234   0.166  11.925 -0.7896 -1.5464  1.0400
  492MPD2    N1 7323   3.418   0.351  11.399  0.1677  0.2680 -0.5271
  492MPD2    H7 7324   3.481   0.422  11.362  1.6446 -0.4237  0.6561
  493TMC3    C1 7325   3.421   0.271  11.181  0.3059 -0.8415  0.6530
  493TMC3    C2 7326   3.404   0.397  11.127  0.4203 -0.0584  0.5913
  493TMC3    C3 7327   3.398   0.410  10.989  0.7176 -0.0707 -0.6956
  493TMC3    C4 7328   3.407   0.160  11.098 -0.0186  0.0796  0.2096
  493TMC3    C5 7329   3.410   0.177  10.968 -0.4947 -0.3295  0.1355
  493TMC3    C6 7330   3.402   0.300  10.908  0.1176 -0.2990 -0.4276
  493TMC3     C 7331   3.366   0.258  11.316 -0.7928  0.2942 -0.7418
  493TMC3     O 7332   3.296   0.157  11.328  0.1755  0.0237 -0.4212
  493TMC3     H 7333   3.423   0.484  11.188  0.4523 -1.6021  2.7600
  493TMC3    H1 7334   3.408   0.059  11.138 -0.2754  0.7132  1.8381
  493TMC3    H2 7335   3.406   0.303  10.800 -2.7821  0.3979 -0.5191
  493TMC3    C7 7336   3.374   0.073  10.876 -0.0463 -0.1983 -0.5447
  493TMC3    C8 7337   3.400   0.542  10.928  1.3411  0.2193 -0.0437
  493TMC3    O1 7338   3.316   0.104  10.774  0.1407 -0.6485  0.5215
  493TMC3    O2 7339   3.426   0.636  10.994  0.2437 -0.2711  0.3673
  494TMC3    C1 7340   4.070   1.852   0.813 -0.7048 -0.2561  0.0643
  494TMC3    C2 7341   4.164   1.769   0.855 -0.1126  0.1071  0.7648
  494TMC3    C3 7342   4.179   1.651   0.783  0.4316  0.3232 -0.3096
  494TMC3    C4 7343   4.012   1.842   0.686 -0.3786  0.9976  0.5485
  494TMC3    C5 7344   4.019   1.721   0.624  0.2159  0.3219 -0.2641
  494TMC3    C6 7345   4.096   1.619   0.676  0.7941  0.1810  0.6183
  494TMC3     C 7346   4.040   1.971   0.884  0.0311  0.0892  0.1228
  494TMC3     O 7347   3.993   2.064   0.825  0.1382 -0.5914  0.3950
  494TMC3     H 7348   4.239   1.792   0.930  1.1011 -2.8041  0.4480
  494TMC3    H1 7349   3.946   1.919   0.646 -1.0323  0.2557  0.1926
  494TMC3    H2 7350   4.082   1.516   0.645 -1.7075  0.0902  2.0308
  494TMC3    C7 7351   3.932   1.704   0.514 -0.4397  0.2919  0.1358
  494TMC3    C8 7352   4.232   1.536   0.859  0.1756  0.0011 -0.0139
  494TMC3    O1 7353   3.913   1.801   0.442 -0.2232  0.2926 -0.4201
  494TMC3    O2 7354   4.228   1.543   0.982 -0.6168 -0.1306  0.3593
  495TMC3    C1 7355   2.273   3.839  14.767 -0.6505  0.5919  0.2567
  495TMC3    C2 7356   2.336   3.958  14.742 -0.4821 -0.6274 -0.3151
  495TMC3    C3 7357   2.300   4.073  14.806  0.5332 -0.0314  0.8161
  495TMC3    C4 7358   2.185   3.830  14.873  0.1627  0.3049  0.1329
  495TMC3    C5 7359   2.163   3.939  14.952  0.0454 -0.1237  0.3524
  495TMC3    C6 7360   2.218   4.061  14.920 -0.3113  0.0082  0.8452
  495TMC3     C 7361   2.266   3.739  14.667  1.1226 -0.2921 -0.2692
  495TMC3     O 7362   2.340   3.755  14.572  0.0711  1.0080 -0.2975
  495TMC3     H 7363   2.407   3.965  14.661  0.2755  2.6831  0.6361
  495TMC3    H1 7364   2.162   3.731  14.911 -0.1051 -1.2243 -4.0249
  495TMC3    H2 7365   2.188   4.148  14.976 -0.2558 -0.1283  1.0864
  495TMC3    C7 7366   2.098   3.942  15.083  0.4795 -0.1921  0.0447
  495TMC3    C8 7367   2.382   4.188  14.784 -0.0380 -0.1359  1.4601
  495TMC3    O1 7368   2.161   4.011  15.163 -0.5575  0.1006 -0.1497
  495TMC3    O2 7369   2.405   4.253  14.883  0.6022 -0.1071  0.2790
  496MPD2     C 7370   3.920   3.936  15.347 -0.1716  0.0824 -0.1650
  496MPD2    C1 7371   3.971   3.923  15.477 -0.4589  0.6771 -0.8669
  496MPD2    C2 7372   3.920   3.991  15.585  0.1990 -0.3696  0.2279
  496MPD2    C3 7373   3.820   4.078  15.565 -0.4969  0.6723 -0.2897
  496MPD2    C4 7374   3.764   4.084  15.436 -0.5430 -0.1251  0.4094
  496MPD2    C5 7375   3.813   4.016  15.328  0.2098 -0.3249 -0.5448
  496MPD2     H 7376   3.963   3.978  15.683 -0.7518 -0.1269  0.6792
  496MPD2    H1 7377   3.680   4.148  15.413  0.3263  0.9332  0.1788
  496MPD2    H2 7378   3.967   3.877  15.270  1.9474  0.2392  0.9829
  496MPD2    H3 7379   3.771   4.037  15.231  1.9918  0.2812 -1.1844
  496MPD2     N 7380   3.766   4.160  15.672  0.7951 -0.0457 -0.4395
  496MPD2    H5 7381   3.690   4.218  15.637  0.1411 -1.2219 -0.9574
  496MPD2    N1 7382   4.083   3.841  15.478  0.1407  0.4302  0.1567
  496MPD2    H7 7383   4.108   3.798  15.390  0.5383 -0.8392  0.8920
  497TMC3    C1 7384   3.712   4.246  15.888 -0.1087 -0.7195  0.1014
  497TMC3    C2 7385   3.577   4.234  15.859  0.1081 -0.4931  0.5007
  497TMC3    C3 7386   3.492   4.250  15.963 -1.0021  0.5588  0.1856
  497TMC3    C4 7387   3.753   4.277  16.017 -0.5235  0.1758 -0.2571
  497TMC3    C5 7388   3.659   4.300  16.114  0.4746 -0.2596 -0.3130
  497TMC3    C6 7389   3.526   4.284  16.085  0.1813 -0.8495 -0.0325
  497TMC3     C 7390   3.804   4.167  15.804  0.0743  0.4506  0.9687
  497TMC3     O 7391   3.901   4.116  15.860 -0.9357  0.7703  0.0652
  497TMC3     H 7392   3.545   4.196  15.763 -0.0972  3.4323 -0.9594
  497TMC3    H1 7393   3.857   4.281  16.045 -0.1223 -4.2195 -1.1328
  497TMC3    H2 7394   3.446   4.311  16.154  0.4713 -2.0005  0.7560
  497TMC3    C7 7395   3.686   4.345  16.244 -0.3433  0.4212 -0.5088
  497TMC3    C8 7396   3.360   4.202  15.945 -0.7328  0.0243 -0.7690
  497TMC3    O1 7397   3.592   4.376  16.314  0.0354 -0.1796  0.4438
  497TMC3    O2 7398   3.306   4.222  15.841  0.4844  0.5104 -0.4955
  498MPD2     C 7399   0.888   0.498   9.185  0.5753 -0.4507  0.0123
  498MPD2    C1 7400   0.896   0.379   9.236  0.3898  0.3025  0.3023
  498MPD2    C2 7401   0.785   0.312   9.292 -0.2731  0.0376  0.3889
  498MPD2    C3 7402   0.662   0.376   9.301 -0.5446 -0.4111  0.5951
  498MPD2    C4 7403   0.656   0.506   9.263 -0.4086  0.2489  0.5008
  498MPD2    C5 7404   0.770   0.567   9.198  0.1602 -0.6630 -0.0211
  498MPD2     H 7405   0.792   0.208   9.321  0.3882 -0.0451 -0.0738
  498MPD2    H1 7406   0.565   0.563   9.272 -1.3328 -1.2583  0.6472
  498MPD2    H2 7407   0.974   0.549   9.141  0.0100 -0.2984 -0.9209
  498MPD2    H3 7408   0.784   0.674   9.185 -2.1174 -0.6329 -2.1433
  498MPD2     N 7409   0.549   0.314   9.363 -0.1933  0.1153 -0.1858
  498MPD2    H5 7410   0.569   0.226   9.410  1.4603  1.2643  1.2721
  498MPD2    N1 7411   1.018   0.300   9.232  0.5394  0.3544  0.1633
  498MPD2    H7 7412   1.009   0.202   9.257 -1.8783  0.4242 -0.4454
  499TMC3    C1 7413   1.252   0.244   9.244 -0.4429 -1.2821 -0.4645
  499TMC3    C2 7414   1.212   0.121   9.282  0.5237  0.1359  0.8028
  499TMC3    C3 7415   1.310   0.024   9.284 -0.2019  0.1572  0.3206
  499TMC3    C4 7416   1.373   0.270   9.196  0.0169  0.1865 -0.1457
  499TMC3    C5 7417   1.467   0.171   9.199  0.3409 -0.2979  0.4397
  499TMC3    C6 7418   1.435   0.044   9.234 -0.2891  0.0758  0.0813
  499TMC3     C 7419   1.149   0.341   9.206 -0.9942  0.9198  0.1683
  499TMC3     O 7420   1.187   0.449   9.159 -0.0387 -0.2273  0.3071
  499TMC3     H 7421   1.108   0.111   9.309  0.7565  0.8435  1.9563
  499TMC3    H1 7422   1.387   0.369   9.155  2.3157  0.0968  0.4367
  499TMC3    H2 7423   1.504   4.682   9.229 -0.0289  0.4034 -2.0688
  499TMC3    C7 7424   1.607   0.201   9.162 -0.8800  0.1772 -0.0901
  499TMC3    C8 7425   1.275   4.604   9.322  0.0137  0.2940 -0.3332
  499TMC3    O1 7426   1.684   0.107   9.160 -0.0393 -0.2653 -0.1077
  499TMC3    O2 7427   1.368   4.532   9.348 -0.5266  0.0260  0.1778
  500MPD2     C 7428   1.753   1.709  10.390  0.3580  0.8882  0.4817
  500MPD2    C1 7429   1.816   1.607  10.321  0.1458 -0.1625  0.4170
  500MPD2    C2 7430   1.746   1.488  10.307 -0.5139 -0.5542 -0.6934
  500MPD2    C3 7431   1.619   1.465  10.350 -0.4846  0.2340 -0.1550
  500MPD2    C4 7432   1.552   1.570  10.411 -0.1327  1.1242  0.2885
  500MPD2    C5 7433   1.624   1.687  10.430  0.1784  0.1842 -0.0222
  500MPD2     H 7434   1.797   1.403  10.265  0.1570  0.7521 -2.5410
  500MPD2    H1 7435   1.448   1.570  10.441 -0.1517 -0.0691  0.2206
  500MPD2    H2 7436   1.792   1.809  10.406  1.3534  0.3744  1.2822
  500MPD2    H3 7437   1.573   1.772  10.475  1.3292  1.7197 -1.6162
  500MPD2     N 7438   1.554   1.338  10.328 -0.4289 -0.1184 -0.2757
  500MPD2    H5 7439   1.464   1.320  10.372 -1.7269  1.0873 -2.4040
  500MPD2    N1 7440   1.944   1.622  10.264  0.2125  0.1309  0.2154
  500MPD2    H7 7441   1.990   1.541  10.221 -1.7598 -1.6956  1.5442
  501TMC3    C1 7442   2.148   1.724  10.256  0.4260 -0.3440  0.1232
  501TMC3    C2 7443   2.223   1.825  10.206  0.0241 -0.3022  0.4885
  501TMC3    C3 7444   2.357   1.802  10.202  0.3883 -0.1732 -0.0622
  501TMC3    C4 7445   2.206   1.610  10.313  0.0141 -0.1906 -0.0581
  501TMC3    C5 7446   2.335   1.589  10.290 -0.0202  0.0918  0.7680
  501TMC3    C6 7447   2.413   1.683  10.239 -0.0153 -0.3319  0.1049
  501TMC3     C 7448   2.009   1.739  10.263 -0.0620 -0.4237  0.1568
  501TMC3     O 7449   1.967   1.855  10.267 -0.0595 -0.2391 -0.0564
  501TMC3     H 7450   2.178   1.918  10.175  1.6713  0.5517  0.6217
  501TMC3    H1 7451   2.144   1.552  10.380  1.0100  0.5978  1.5245
  501TMC3    H2 7452   2.520   1.677  10.248  0.0338 -1.5219 -1.3270
  501TMC3    C7 7453   2.412   1.503  10.383  0.1376  0.3322 -0.4807
  501TMC3    C8 7454   2.426   1.923  10.250  0.6642  0.4102  0.0151
  501TMC3    O1 7455   2.529   1.485  10.357  0.0576 -0.2366 -0.1603
  501TMC3    O2 7456   2.506   1.894  10.340  0.2496  0.6823 -0.1186
  502TMC3    C1 7457   1.650   4.561  15.241 -0.2233  0.3133 -0.4915
  502TMC3    C2 7458   1.639   4.677  15.165 -0.6874  0.1132 -0.0591
  502TMC3    C3 7459   1.512   0.007  15.154  0.3307 -0.3188 -0.8013
  502TMC3    C4 7460   1.543   4.519  15.317  0.2383 -0.1797 -0.2769
  502TMC3    C5 7461   1.419   4.570  15.292  0.1143 -0.1245  0.0470
  502TMC3    C6 7462   1.398   4.681  15.211  0.6954 -0.0700 -0.0461
  502TMC3     C 7463   1.774   4.541  15.316 -0.4533  0.1019 -1.2589
  502TMC3     O 7464   1.883   4.536  15.257  0.5766  0.0419  0.0515
  502TMC3     H 7465   1.726   0.015  15.137  0.6542 -1.8156  0.0082
  502TMC3    H1 7466   1.537   4.420  15.361  0.1048  0.1295  0.3949
  502TMC3    H2 7467   1.302   0.008  15.199  0.6755  0.0411  0.5846
  502TMC3    C7 7468   1.323   4.534  15.395  0.7647  0.3949 -0.3289
  502TMC3    C8 7469   1.522   0.148  15.130 -0.4599 -0.0591  0.0244
  502TMC3    O1 7470   1.359   4.450  15.480  0.0269 -0.7051 -0.0364
  502TMC3    O2 7471   1.635   0.204  15.126  0.1863  0.1228 -0.7426
  503MPD2     C 7472   3.768   0.611  17.160 -0.1655 -0.5852  0.1986
  503MPD2    C1 7473   3.808   0.615  17.290 -0.4431 -1.3642  0.1454
  503MPD2    C2 7474   3.864   0.498  17.338  0.4175 -0.2914  0.6395
  503MPD2    C3 7475   3.883   0.387  17.259  0.3233  0.0427  0.5606
  503MPD2    C4 7476   3.838   0.383  17.132 -0.3468  0.3122 -0.1907
  503MPD2    C5 7477   3.775   0.496  17.084 -0.7549 -0.4394 -0.8375
  503MPD2     H 7478   3.895   0.489  17.442 -0.1099 -0.7753  0.7553
  503MPD2    H1 7479   3.829   0.291  17.075 -0.2988  0.6102 -0.6824
  503MPD2    H2 7480   3.728   0.701  17.116  1.9055  0.9592  1.4541
  503MPD2    H3 7481   3.735   0.498  16.983 -0.9035  2.8717 -0.7215
  503MPD2     N 7482   3.957   0.279  17.314  0.6866 -0.2379  0.4986
  503MPD2    H5 7483   3.955   0.290  17.415 -1.5366 -0.3443  0.4591
  503MPD2    N1 7484   3.796   0.730  17.374  0.7368 -0.0295 -0.3843
  503MPD2    H7 7485   3.839   0.718  17.465  0.6121 -0.0920 -0.3333
  504TMC3    C1 7486   4.112   0.101  17.323 -0.2689  0.6092  0.2400
  504TMC3    C2 7487   4.069   0.049  17.440 -1.1903 -0.1451 -0.2086
  504TMC3    C3 7488   4.173   4.703  17.506  0.5430  0.4653 -0.0572
  504TMC3    C4 7489   4.235   0.082  17.269 -0.2927  0.2864  0.3909
  504TMC3    C5 7490   4.326   0.003  17.327  0.1914 -0.7699 -0.1109
  504TMC3    C6 7491   4.297   4.672  17.450  0.0066 -0.3699  0.0248
  504TMC3     C 7492   4.020   0.180  17.243 -1.0629 -0.0013 -0.5631
  504TMC3     O 7493   4.025   0.170  17.120 -0.6705  0.0438 -0.0237
  504TMC3     H 7494   3.970   0.062  17.483 -0.3618  0.1205  1.6308
  504TMC3    H1 7495   4.259   0.120  17.171 -0.2615 -0.7239 -0.0004
  504TMC3    H2 7496   4.383   4.640  17.508  0.9553  2.8875  0.3948
  504TMC3    C7 7497   4.467   0.023  17.292  0.2051  0.2639 -0.0712
  504TMC3    C8 7498   4.139   4.671  17.647  1.0685 -0.4538  0.7778
  504TMC3    O1 7499   4.496   0.115  17.217  0.0979 -0.3073 -0.1674
  504TMC3    O2 7500   4.019   4.674  17.674  0.3808 -0.4177 -0.6096
  505MPD2     C 7501   4.595   0.043  10.417  0.3439 -0.0994  0.2526
  505MPD2    C1 7502   4.548   4.645  10.365 -0.0347 -0.6755  0.1524
  505MPD2    C2 7503   4.632   4.534  10.356 -0.5550 -0.3660 -0.1673
  505MPD2    C3 7504   0.044   4.539  10.399  0.3277  0.0281 -0.0656
  505MPD2    C4 7505   0.089   4.661  10.454  0.5267  0.6876  0.7647
  505MPD2    C5 7506   0.004   0.044  10.467  0.2126 -0.2889  0.6422
  505MPD2     H 7507   4.590   4.440  10.321 -2.0718 -0.2913  1.4834
  505MPD2    H1 7508   0.192   4.675  10.486  0.6325  1.6663 -0.0026
  505MPD2    H2 7509   4.535   0.132  10.426 -1.1092 -1.1942  1.3509
  505MPD2    H3 7510   0.040   0.139  10.507 -1.8673 -0.5029  3.0036
  505MPD2     N 7511   0.133   4.431  10.383  0.2330 -0.8049 -0.0150
  505MPD2    H5 7512   0.231   4.445  10.406  0.0798  1.4347 -0.7015
  505MPD2    N1 7513   4.412   4.644  10.321 -0.7321 -0.0858  0.7183
  505MPD2    H7 7514   4.360   0.009  10.325  2.3155  1.7620  0.9156
  506TMC3    C1 7515   4.215   4.558  10.216 -0.2318 -0.3562  0.2500
  506TMC3    C2 7516   4.204   4.661  10.130  0.2984  0.4664 -0.3119
  506TMC3    C3 7517   4.123   4.632  10.021  0.1341 -0.5836 -0.6847
  506TMC3    C4 7518   4.160   4.433  10.187 -0.1086  0.2038 -0.4104
  506TMC3    C5 7519   4.091   4.407  10.077  0.7867  0.0644  0.3253
  506TMC3    C6 7520   4.071   4.511   9.987 -0.4497 -0.1954  0.1856
  506TMC3     C 7521   4.342   4.528  10.289 -0.0538  0.4951  0.7990
  506TMC3     O 7522   4.376   4.411  10.302  0.4950  0.9302  0.5141
  506TMC3     H 7523   4.236   0.040  10.155  1.2592  0.9224 -3.3910
  506TMC3    H1 7524   4.164   4.366  10.271 -0.5281  1.4011  0.5575
  506TMC3    H2 7525   4.017   4.505   9.893  0.8139 -0.4229 -0.5257
  506TMC3    C7 7526   4.128   4.290  10.006 -0.0526  0.3783 -0.5136
  506TMC3    C8 7527   4.130   4.718   9.910  0.3510 -0.4884 -0.4004
  506TMC3    O1 7528   4.075   4.264   9.898  0.0551  0.6522  0.2877
  506TMC3    O2 7529   4.032   0.012   9.840  0.5846  0.6603 -0.7608
  507TMC3    C1 7530   4.502   0.060  15.923  0.1988 -0.2934  0.1175
  507TMC3    C2 7531   4.395   0.147  15.913  0.1390 -0.3002  0.7397
  507TMC3    C3 7532   4.280   0.107  15.846 -1.2134  0.3692 -0.5439
  507TMC3    C4 7533   4.510   4.668  15.857  0.6319  0.9410 -0.3810
  507TMC3    C5 7534   4.395   4.632  15.788 -0.1104  0.3095  1.2146
  507TMC3    C6 7535   4.279   4.704  15.791 -0.2013  0.3105  0.2081
  507TMC3     C 7536   4.622   0.139  15.934  0.5832 -0.2446 -0.4886
  507TMC3     O 7537   4.609   0.251  15.887  0.2513  0.2377 -0.2150
  507TMC3     H 7538   4.395   0.243  15.964  0.5956 -1.4904  3.0156
  507TMC3    H1 7539   4.598   4.609  15.835  1.0252  1.1965  0.4786
  507TMC3    H2 7540   4.209   4.687  15.711 -0.8158  2.5869  0.2398
  507TMC3    C7 7541   4.431   4.573  15.660  0.6911  0.3177  0.2968
  507TMC3    C8 7542   4.198   0.207  15.780  0.3217 -0.5220 -0.5401
  507TMC3    O1 7543   4.511   4.479  15.661  0.1342  0.1048  0.5033
  507TMC3    O2 7544   4.150   0.173  15.671  0.6439 -0.6468  0.4901
  508MPD2     C 7545   0.254   2.770  16.332 -0.0353 -0.0830  0.2952
  508MPD2    C1 7546   0.378   2.817  16.309 -0.1218 -0.3323  0.1660
  508MPD2    C2 7547   0.413   2.819  16.173  0.0892  0.5860 -0.2525
  508MPD2    C3 7548   0.333   2.775  16.070 -0.1522  0.2430  0.0313
  508MPD2    C4 7549   0.208   2.730  16.102  0.3477  0.4168 -1.4890
  508MPD2    C5 7550   0.169   2.730  16.234  0.2467 -0.0565  0.3076
  508MPD2     H 7551   0.509   2.852  16.136 -0.6223  0.4145 -2.2430
  508MPD2    H1 7552   0.137   2.710  16.023 -1.2950 -2.0974  0.6129
  508MPD2    H2 7553   0.216   2.763  16.433  0.5784  0.5244  0.5648
  508MPD2    H3 7554   0.068   2.708  16.267  0.8909 -0.3141  2.1345
  508MPD2     N 7555   0.382   2.779  15.933 -0.0321  0.4466  0.5538
  508MPD2    H5 7556   0.471   2.825  15.917  0.7019 -0.8124  0.9766
  508MPD2    N1 7557   0.459   2.847  16.420  0.0593  0.3418  0.1618
  508MPD2    H7 7558   0.413   2.868  16.508  0.2425 -2.3249  0.9132
  509TMC3    C1 7559   0.413   2.905  15.504  0.7663  1.1594 -0.3157
  509TMC3    C2 7560   0.545   2.920  15.529  0.2222  0.5488 -0.1000
  509TMC3    C3 7561   0.598   2.848  15.634  0.7511  0.6855  0.3889
  509TMC3    C4 7562   0.333   2.835  15.594  0.1009 -0.0268  0.0376
  509TMC3    C5 7563   0.399   2.763  15.697  0.4670  0.2051  0.3680
  509TMC3    C6 7564   0.541   2.761  15.715 -0.6450 -0.6184  0.6594
  509TMC3     C 7565   0.343   2.962  15.386  0.4496 -0.3314 -0.8454
  509TMC3     O 7566   0.233   2.915  15.359  0.2898  0.0034  0.4300
  509TMC3     H 7567   0.617   2.967  15.463  0.4784 -0.6463 -0.6811
  509TMC3    H1 7568   0.227   2.831  15.574  0.0833  0.3955  0.0580
  509TMC3    H2 7569   0.591   2.716  15.800 -2.1762 -0.4585  1.6608
  509TMC3    C7 7570   0.315   2.751  15.821 -0.2078  0.3314 -0.0048
  509TMC3    C8 7571   0.729   2.897  15.677  0.6601 -0.5433 -0.2914
  509TMC3    O1 7572   0.196   2.751  15.800  0.1389  0.7241  0.9248
  509TMC3    O2 7573   0.799   2.830  15.753  0.0165 -0.4264 -0.3600
  510MPD2     C 7574   3.417   4.430  14.850 -0.2267  0.4240 -0.2675
  510MPD2    C1 7575   3.452   4.466  14.974  0.0353 -0.1739  0.4168
  510MPD2    C2 7576   3.584   4.506  14.999 -0.3228 -0.1942 -0.2843
  510MPD2    C3 7577   3.676   4.528  14.896  0.3222  0.4258  0.5976
  510MPD2    C4 7578   3.632   4.497  14.773 -0.0109  0.4141 -0.6939
  510MPD2    C5 7579   3.508   4.451  14.746  0.1576 -0.6942 -1.0505
  510MPD2     H 7580   3.619   4.506  15.101 -1.1396  0.1452 -0.0017
  510MPD2    H1 7581   3.703   4.487  14.693 -0.4511  1.3852 -1.2073
  510MPD2    H2 7582   3.331   4.367  14.832  1.1791 -1.2917 -0.9495
  510MPD2    H3 7583   3.498   4.401  14.650 -1.4874 -0.7901 -0.8315
  510MPD2     N 7584   3.818   4.551  14.927  0.0621  0.7322  0.1023
  510MPD2    H5 7585   3.834   4.531  15.025 -0.0747 -2.8418 -0.6180
  510MPD2    N1 7586   3.375   4.430  15.086 -0.4876  0.2609  0.1667
  510MPD2    H7 7587   3.303   4.359  15.077 -0.5764  0.0455  2.7442
  511TMC3    C1 7588   3.299   4.408  15.299 -0.8502  0.1707  0.5329
  511TMC3    C2 7589   3.240   4.481  15.398 -0.0784  0.2177 -0.0955
  511TMC3    C3 7590   3.201   4.417  15.512 -0.2082  0.8972 -0.4973
  511TMC3    C4 7591   3.334   4.275  15.320 -0.1528  0.1214  0.0023
  511TMC3    C5 7592   3.291   4.213  15.436  0.4922 -0.2814 -0.2798
  511TMC3    C6 7593   3.227   4.283  15.537 -1.0503  0.1213 -0.3695
  511TMC3     C 7594   3.378   4.489  15.205  0.3512  0.5666  0.3609
  511TMC3     O 7595   3.425   4.600  15.238  0.7418  0.3976 -0.1699
  511TMC3     H 7596   3.230   4.588  15.388 -2.6222 -0.3584 -3.5406
  511TMC3    H1 7597   3.384   4.204  15.255  0.3041  2.5198 -2.2742
  511TMC3    H2 7598   3.206   4.230  15.629  1.4409 -2.9563 -1.5982
  511TMC3    C7 7599   3.332   4.074  15.452 -0.1588  0.0027 -0.3561
  511TMC3    C8 7600   3.131   4.498  15.615  0.5012  0.0833 -0.2738
  511TMC3    O1 7601   3.420   4.021  15.384 -0.3008 -0.2159 -0.0035
  511TMC3    O2 7602   3.113   4.621  15.587  0.4614  0.0582  0.5538
  512TMC3    C1 7603   2.395   3.712  13.192 -0.7765  0.0903 -1.0241
  512TMC3    C2 7604   2.520   3.724  13.249 -0.4775 -0.2782  0.0060
  512TMC3    C3 7605   2.580   3.605  13.280 -0.2669 -0.1456 -0.3495
  512TMC3    C4 7606   2.338   3.593  13.152 -0.3360 -0.4885 -0.1645
  512TMC3    C5 7607   2.416   3.478  13.172 -0.0966  0.5431  0.0279
  512TMC3    C6 7608   2.532   3.483  13.240 -0.2843 -0.0739 -0.2558
  512TMC3     C 7609   2.304   3.824  13.205  0.5603  0.4595  0.0037
  512TMC3     O 7610   2.337   3.925  13.148 -0.2017  0.4944 -0.1917
  512TMC3     H 7611   2.546   3.822  13.287  0.0164  0.2314 -1.6098
  512TMC3    H1 7612   2.239   3.592  13.109  0.3387 -2.7465 -1.6549
  512TMC3    H2 7613   2.587   3.394  13.271  1.0396  0.2677 -1.5984
  512TMC3    C7 7614   2.350   3.351  13.132  0.7575  0.1378 -0.0790
  512TMC3    C8 7615   2.692   3.606  13.380  0.5231  0.1598  0.7544
  512TMC3    O1 7616   2.251   3.369  13.065  0.1538 -0.1254  0.2687
  512TMC3    O2 7617   2.739   3.504  13.432  0.1373  0.4819 -0.8130
  513MPD2     C 7618   0.187   4.077  13.397 -0.1267 -0.0977  0.2755
  513MPD2    C1 7619   0.295   4.038  13.315  0.2081  0.5474 -0.5423
  513MPD2    C2 7620   0.396   4.129  13.284  0.4027  1.1463  0.7641
  513MPD2    C3 7621   0.404   4.251  13.349  0.1311  1.0367  0.6001
  513MPD2    C4 7622   0.304   4.296  13.435  0.3513  0.3604 -0.0900
  513MPD2    C5 7623   0.197   4.202  13.460 -0.5775  0.7714  1.0201
  513MPD2     H 7624   0.481   4.104  13.220 -1.0433 -0.2911 -0.5774
  513MPD2    H1 7625   0.305   4.398  13.471 -1.1221 -0.0465  1.0810
  513MPD2    H2 7626   0.102   4.014  13.421  0.7518 -0.9689  1.1248
  513MPD2    H3 7627   0.125   4.238  13.532 -2.4396 -0.5171 -0.2018
  513MPD2     N 7628   0.521   4.329  13.304  0.0845 -0.0107  0.5552
  513MPD2    H5 7629   0.584   4.284  13.239 -0.9077  1.1875 -1.2095
  513MPD2    N1 7630   0.298   3.908  13.271  0.2517 -0.7824 -0.0523
  513MPD2    H7 7631   0.211   3.860  13.290  0.7749 -1.6112  0.2398
  514TMC3    C1 7632   0.350   3.737  13.106 -0.4799  0.0025 -0.8438
  514TMC3    C2 7633   0.241   3.778  13.033  0.1447  0.2980  0.2954
  514TMC3    C3 7634   0.263   3.773  12.893 -0.1271  0.1636  0.2050
  514TMC3    C4 7635   0.465   3.690  13.041 -0.2466  0.2049  0.2777
  514TMC3    C5 7636   0.485   3.716  12.910 -0.5292 -0.3057  0.5199
  514TMC3    C6 7637   0.379   3.742  12.828  0.1581 -0.0262  1.2271
  514TMC3     C 7638   0.399   3.851  13.201 -0.4328  0.3513  0.0572
  514TMC3     O 7639   0.518   3.864  13.224 -0.0360  0.4889 -0.2728
  514TMC3     H 7640   0.149   3.813  13.077  1.0375  1.2464  1.3655
  514TMC3    H1 7641   0.553   3.677  13.102  1.5097  0.4581 -2.2054
  514TMC3    H2 7642   0.402   3.779  12.729 -0.2279 -1.2144  0.6979
  514TMC3    C7 7643   0.584   3.808  12.898 -0.5185 -0.8307  0.6250
  514TMC3    C8 7644   0.167   3.846  12.815 -0.2029  0.0084 -0.8611
  514TMC3    O1 7645   0.553   3.915  12.842 -0.5586 -0.3238  0.1444
  514TMC3    O2 7646   0.097   3.921  12.881 -0.1779  0.3726  0.3609
  515MPD2     C 7647   2.332   0.690  15.393 -0.4885 -0.3007  0.5183
  515MPD2    C1 7648   2.389   0.709  15.269 -0.3410  0.3854  0.6791
  515MPD2    C2 7649   2.494   0.795  15.250  0.4728 -0.0317 -0.0397
  515MPD2    C3 7650   2.563   0.851  15.359  0.1020  0.6549  0.0441
  515MPD2    C4 7651   2.510   0.829  15.486 -0.1792 -0.4328 -0.0960
  515MPD2    C5 7652   2.395   0.748  15.503  0.4768 -0.7956 -0.1258
  515MPD2     H 7653   2.526   0.810  15.147 -1.4271 -0.8114 -0.7433
  515MPD2    H1 7654   2.563   0.877  15.567  0.9952  0.7203 -1.5383
  515MPD2    H2 7655   2.239   0.637  15.409  0.3295 -1.4020  1.6132
  515MPD2    H3 7656   2.347   0.732  15.599 -3.0753  0.5452 -1.6970
  515MPD2     N 7657   2.667   0.944  15.340 -1.1304  0.5268  0.1011
  515MPD2    H5 7658   2.699   0.988  15.426  0.8886 -0.3006 -0.2211
  515MPD2    N1 7659   2.337   0.647  15.150 -0.7975 -0.0072  0.1495
  515MPD2    H7 7660   2.389   0.665  15.065 -1.0928  0.6376  0.1044
  516TMC3    C1 7661   2.224   0.476  15.028 -0.0397 -0.5238 -0.4746
  516TMC3    C2 7662   2.258   0.535  14.905  0.8670 -0.2319 -0.2580
  516TMC3    C3 7663   2.225   0.459  14.799  0.2596 -0.5107  0.6816
  516TMC3    C4 7664   2.173   0.348  15.042 -0.6956 -0.3571  0.4206
  516TMC3    C5 7665   2.130   0.289  14.926  0.5792  0.1364  0.3008
  516TMC3    C6 7666   2.150   0.348  14.806  0.6766 -0.5914  0.2209
  516TMC3     C 7667   2.233   0.555  15.149  0.0703 -0.6193 -0.4500
  516TMC3     O 7668   2.166   0.509  15.241  0.3593  0.3933 -0.7575
  516TMC3     H 7669   2.287   0.639  14.891 -1.0405  0.6328  2.2611
  516TMC3    H1 7670   2.190   0.297  15.136 -1.0814  0.1377  0.7597
  516TMC3    H2 7671   2.124   0.295  14.715  0.7747 -0.2206 -0.0199
  516TMC3    C7 7672   2.077   0.153  14.948 -0.3675  0.3910  0.2699
  516TMC3    C8 7673   2.260   0.512  14.661 -0.7516  1.0877 -0.0415
  516TMC3    O1 7674   2.036   0.128  15.063 -0.0539  0.1097  0.0526
  516TMC3    O2 7675   2.204   0.459  14.569  0.2269  0.2281  0.5232
  517MPD2     C 7676   2.740   2.638   0.499 -0.2096 -0.0351  0.5587
  517MPD2    C1 7677   2.810   2.583   0.605 -0.5151  0.2840  0.1345
  517MPD2    C2 7678   2.931   2.641   0.648  0.2435  0.5273  0.1665
  517MPD2    C3 7679   2.979   2.753   0.580 -0.1551  0.2053 -0.9485
  517MPD2    C4 7680   2.907   2.815   0.477  0.4027 -0.2014 -0.0494
  517MPD2    C5 7681   2.790   2.752   0.445 -0.2394  0.4305  0.0554
  517MPD2     H 7682   2.987   2.601   0.732 -0.9899 -0.5957  0.4566
  517MPD2    H1 7683   2.954   2.894   0.420 -0.3378 -0.4910 -1.0644
  517MPD2    H2 7684   2.643   2.607   0.462 -0.0354  0.7464 -0.5550
  517MPD2    H3 7685   2.732   2.795   0.364  0.7597 -0.2254 -1.0083
  517MPD2     N 7686   3.104   2.815   0.612 -0.5655  0.0081 -0.7108
  517MPD2    H5 7687   3.146   2.872   0.539 -2.5632  3.2658  0.6588
  517MPD2    N1 7688   2.784   2.456   0.657 -0.5656 -0.3429 -0.0868
  517MPD2    H7 7689   2.854   2.419   0.720  1.1478  2.4931 -0.3694
  518TMC3    C1 7690   2.713   2.231   0.672 -0.0559 -0.1108 -0.1351
  518TMC3    C2 7691   2.632   2.134   0.625 -0.3162  0.6542  0.0394
  518TMC3    C3 7692   2.660   2.003   0.655  0.2169  0.2233  0.5807
  518TMC3    C4 7693   2.816   2.200   0.754  0.3994  0.2246 -0.1922
  518TMC3    C5 7694   2.847   2.063   0.769  0.3395 -0.5356  0.6307
  518TMC3    C6 7695   2.768   1.965   0.726 -0.1253 -1.0276 -0.0371
  518TMC3     C 7696   2.682   2.367   0.628  0.7562 -0.3693 -0.0923
  518TMC3     O 7697   2.586   2.380   0.549 -1.0388 -0.0984 -0.4037
  518TMC3     H 7698   2.546   2.156   0.562  0.5411 -0.8897 -1.6758
  518TMC3    H1 7699   2.890   2.274   0.782 -0.3683  0.6123  0.8043
  518TMC3    H2 7700   2.795   1.862   0.745 -0.0210 -0.4485  3.0260
  518TMC3    C7 7701   2.979   2.033   0.807  0.0444  0.5172  0.2517
  518TMC3    C8 7702   2.581   1.898   0.593  0.0924 -0.4398 -0.5641
  518TMC3    O1 7703   3.031   2.075   0.913  0.2039 -0.1621  0.5337
  518TMC3    O2 7704   2.526   1.911   0.486 -0.1211  0.4326  0.2159
  519MPD2     C 7705   4.288   1.053  13.983 -0.3117 -0.3330  0.4811
  519MPD2    C1 7706   4.175   1.008  14.044 -0.2352 -0.0601 -0.0993
  519MPD2    C2 7707   4.163   0.874  14.086 -0.6644 -0.0662 -0.1621
  519MPD2    C3 7708   4.273   0.785  14.068  0.6244 -0.9358 -0.3650
  519MPD2    C4 7709   4.386   0.830  14.005  0.7956  0.1020  0.2304
  519MPD2    C5 7710   4.389   0.958  13.963  0.3805 -0.1530 -0.2589
  519MPD2     H 7711   4.080   0.853  14.151 -0.6942  0.9536  0.1252
  519MPD2    H1 7712   4.468   0.762  13.989  0.4450  0.5409 -3.5842
  519MPD2    H2 7713   4.294   1.153  13.944  1.7311  0.0744  1.8100
  519MPD2    H3 7714   4.474   0.999  13.910  1.6150 -1.7667  0.4737
  519MPD2     N 7715   4.265   0.647  14.105  0.0143  0.0849 -0.9705
  519MPD2    H5 7716   4.341   0.581  14.088  0.6448  0.7641 -0.8177
  519MPD2    N1 7717   4.065   1.101  14.053 -0.0649 -0.5335 -0.6279
  519MPD2    H7 7718   4.087   1.187  14.004  2.8984 -1.8297 -1.5702
  520TMC3    C1 7719   4.178   0.429  14.118 -0.4106  0.3931  0.7077
  520TMC3    C2 7720   4.089   0.354  14.054  0.5973  0.4160 -0.4113
  520TMC3    C3 7721   4.111   0.215  14.051 -0.4009  0.1265 -0.5840
  520TMC3    C4 7722   4.271   0.373  14.197  0.3059  0.0077  0.8206
  520TMC3    C5 7723   4.283   0.238  14.190 -0.4833 -0.6325 -0.2128
  520TMC3    C6 7724   4.215   0.156  14.113 -0.0686 -0.3810  0.3061
  520TMC3     C 7725   4.154   0.572  14.133  0.8031 -0.1077  0.0072
  520TMC3     O 7726   4.035   0.608  14.132 -0.2358  0.0732  0.5579
  520TMC3     H 7727   4.010   0.406  14.001 -0.4285  3.1080  3.7340
  520TMC3    H1 7728   4.338   0.431  14.259  0.4713  0.3293  0.3360
  520TMC3    H2 7729   4.238   0.050  14.107  0.3982 -0.2558 -0.1954
  520TMC3    C7 7730   4.382   0.179  14.278 -0.4288  0.8356 -0.0910
  520TMC3    C8 7731   4.009   0.128  13.982 -0.4492  0.1772 -0.3230
  520TMC3    O1 7732   4.453   0.096  14.218 -0.1211  0.0149 -0.2758
  520TMC3    O2 7733   4.038   0.012  13.963  0.2271  0.5863 -0.3645
  521MPD2     C 7734   4.120   3.346   0.067 -0.3057  0.5327  0.2742
  521MPD2    C1 7735   4.206   3.237   0.037  0.2322  0.0517 -0.3994
  521MPD2    C2 7736   4.276   3.250  17.607  0.5522  0.4835 -0.4110
  521MPD2    C3 7737   4.282   3.375  17.545  0.7555 -0.0316  0.1032
  521MPD2    C4 7738   4.182   3.473  17.574 -1.0011 -1.0340  0.4060
  521MPD2    C5 7739   4.103   3.458  17.678 -0.2797 -0.3290 -0.4373
  521MPD2     H 7740   4.344   3.177  17.564 -1.1993 -1.6735  0.4294
  521MPD2    H1 7741   4.176   3.560  17.511 -0.9619 -1.2033  0.1659
  521MPD2    H2 7742   4.061   3.338   0.157  0.0588 -1.8791  0.3021
  521MPD2    H3 7743   4.039   3.539   0.022 -0.5650 -0.9285  0.4802
  521MPD2     N 7744   4.375   3.379  17.438  0.3604  0.4794  0.1205
  521MPD2    H5 7745   4.434   3.299  17.416 -0.7875  0.0734 -1.4958
  521MPD2    N1 7746   4.199   3.120   0.118  0.2574 -0.2931 -0.8240
  521MPD2    H7 7747   4.139   3.122   0.200 -0.3614 -1.1083 -1.2547
  522TMC3    C1 7748   4.505   3.455  17.271  0.6155  0.3285  0.4437
  522TMC3    C2 7749   4.616   3.399  17.322  0.2698  0.2396  0.2559
  522TMC3    C3 7750   0.003   3.386  17.244  0.1434 -0.1257 -0.1903
  522TMC3    C4 7751   4.512   3.522  17.150  0.6787  0.0748  0.1239
  522TMC3    C5 7752   4.619   3.505  17.071  0.1579 -0.4421 -0.0751
  522TMC3    C6 7753   0.008   3.437  17.116 -0.3958 -0.3763 -0.2593
  522TMC3     C 7754   4.389   3.474  17.349  0.1021  0.1055 -0.8901
  522TMC3     O 7755   4.325   3.576  17.329 -0.1977 -0.3448 -0.2780
  522TMC3     H 7756   4.618   3.342  17.414  1.0713 -1.2117 -0.6678
  522TMC3    H1 7757   4.420   3.556  17.105 -0.7565 -2.0389  1.4844
  522TMC3    H2 7758   0.087   3.414  17.046 -0.0490  1.8204 -0.5556
  522TMC3    C7 7759   4.624   3.556  16.935 -0.1700  0.8450 -1.1658
  522TMC3    C8 7760   0.114   3.317  17.297  0.1530  0.4293  0.2491
  522TMC3    O1 7761   0.006   3.529  16.884 -0.0687 -0.4329 -1.0069
  522TMC3    O2 7762   0.122   3.317  17.417  0.7588 -0.4450  0.1588
  523MPD2     C 7763   2.745   3.154   9.915  0.2746  0.1708 -0.3862
  523MPD2    C1 7764   2.698   3.031   9.889 -0.1428 -0.4816  0.1403
  523MPD2    C2 7765   2.609   3.008   9.781  1.2207  0.9956 -0.3137
  523MPD2    C3 7766   2.562   3.122   9.710 -0.0996  0.1326 -0.2677
  523MPD2    C4 7767   2.605   3.249   9.750 -0.3517 -0.1522  0.7141
  523MPD2    C5 7768   2.704   3.262   9.842  1.2078 -1.3276 -0.5879
  523MPD2     H 7769   2.568   2.908   9.766  2.3751  0.4552  0.1290
  523MPD2    H1 7770   2.575   3.332   9.688  2.2921  0.6472  0.5172
  523MPD2    H2 7771   2.814   3.175   9.997  1.0109  0.3205 -1.0420
  523MPD2    H3 7772   2.737   3.362   9.867  0.6267 -1.1400 -0.5624
  523MPD2     N 7773   2.466   3.123   9.609 -0.0629  0.6700 -0.0722
  523MPD2    H5 7774   2.441   3.211   9.565  1.6624  0.6612 -1.0907
  523MPD2    N1 7775   2.732   2.926   9.979  0.0339 -0.3148 -0.3917
  523MPD2    H7 7776   2.791   2.949  10.058 -1.4759  1.8750  0.0904
  524TMC3    C1 7777   2.275   3.054   9.492  0.4744 -0.0882 -0.2035
  524TMC3    C2 7778   2.152   2.987   9.514 -0.8099 -0.2512 -0.1157
  524TMC3    C3 7779   2.045   3.053   9.448 -0.2768 -0.4520 -0.1805
  524TMC3    C4 7780   2.286   3.171   9.419 -0.1620 -0.0906 -0.3107
  524TMC3    C5 7781   2.179   3.214   9.350  0.7899  0.5769  0.8280
  524TMC3    C6 7782   2.055   3.164   9.370 -0.7613 -0.1424  0.0751
  524TMC3     C 7783   2.380   3.019   9.587 -0.0732 -0.1078  0.1439
  524TMC3     O 7784   2.362   2.924   9.657  0.3870  0.4825  0.5722
  524TMC3     H 7785   2.124   2.917   9.592 -0.3886  0.1253  0.3799
  524TMC3    H1 7786   2.383   3.219   9.411 -0.2403  0.6318  3.1076
  524TMC3    H2 7787   1.974   3.182   9.301  1.5790 -1.9397 -3.1256
  524TMC3    C7 7788   2.187   3.327   9.254 -0.6582  0.6918  0.4765
  524TMC3    C8 7789   1.914   2.991   9.469 -1.0567 -0.4187  0.8065
  524TMC3    O1 7790   2.298   3.349   9.215  0.2021  0.0527 -0.2987
  524TMC3    O2 7791   1.917   2.867   9.484  0.0332 -0.0776 -0.2766
  525MPD2     C 7792   0.577   4.524  14.615 -0.2039  0.2794  0.1506
  525MPD2    C1 7793   0.679   4.481  14.698  0.3882  0.4109 -0.3831
  525MPD2    C2 7794   0.790   4.561  14.695  0.2051 -0.5757 -0.1269
  525MPD2    C3 7795   0.797   4.681  14.627  0.8956  0.4881  0.5839
  525MPD2    C4 7796   0.696   4.720  14.545 -0.3319  0.1964 -0.1485
  525MPD2    C5 7797   0.588   4.638  14.542  0.5991 -0.0804 -0.1401
  525MPD2     H 7798   0.884   4.530  14.740  0.5382  0.7135  0.0693
  525MPD2    H1 7799   0.694   0.077  14.471  0.6856  0.6222  0.2776
  525MPD2    H2 7800   0.483   4.470  14.607  0.5159 -0.8957 -0.3911
  525MPD2    H3 7801   0.501   4.663  14.481 -1.2405 -1.1422  2.0457
  525MPD2     N 7802   0.904   0.047  14.632 -0.5800 -0.1731  0.3153
  525MPD2    H5 7803   0.886   0.141  14.597 -1.4583  0.2140  1.8276
  525MPD2    N1 7804   0.660   4.379  14.789  0.2909  0.0162  1.0464
  525MPD2    H7 7805   0.742   4.348  14.839  2.1176 -1.7090 -3.0563
  526TMC3    C1 7806   0.575   4.211  14.916 -0.7398  0.2805 -0.6079
  526TMC3    C2 7807   0.481   4.191  15.011 -0.3279 -0.0455 -0.2114
  526TMC3    C3 7808   0.513   4.097  15.101  0.0531  0.1408 -0.1355
  526TMC3    C4 7809   0.696   4.139  14.907  0.2775  0.4490 -0.5003
  526TMC3    C5 7810   0.727   4.061  15.016  0.0579 -0.5946 -0.9753
  526TMC3    C6 7811   0.633   4.037  15.108  0.7494  1.5505  0.5065
  526TMC3     C 7812   0.542   4.310  14.812 -0.7371 -0.1924 -0.2531
  526TMC3     O 7813   0.424   4.342  14.791  0.0525  0.3544 -0.5447
  526TMC3     H 7814   0.383   4.238  15.020 -0.2686  0.4040 -1.8337
  526TMC3    H1 7815   0.751   4.144  14.813 -1.7397  1.8842 -1.6117
  526TMC3    H2 7816   0.659   3.979  15.196 -1.7906 -0.1745  0.1314
  526TMC3    C7 7817   0.847   3.983  15.028  0.5186 -0.0810 -0.4603
  526TMC3    C8 7818   0.453   4.120  15.225  0.2186  0.7897  0.5325
  526TMC3    O1 7819   0.844   3.881  15.095 -0.2875 -0.2923 -0.1239
  526TMC3    O2 7820   0.466   4.233  15.268  0.3478 -0.0363 -0.4830
  527MPD2     C 7821   4.513   2.705   0.596  0.0448 -0.0861 -0.2501
  527MPD2    C1 7822   4.521   2.635   0.721  0.0129  0.8925 -0.2411
  527MPD2    C2 7823   4.645   2.568   0.740  0.3941 -0.6466 -0.7437
  527MPD2    C3 7824   0.024   2.572   0.643  0.2628 -0.5413 -0.1902
  527MPD2    C4 7825   4.714   2.603   0.517  0.2856  0.0833 -0.4124
  527MPD2    C5 7826   4.608   2.683   0.502  0.1012 -0.5877  0.3223
  527MPD2     H 7827   4.670   2.518   0.834 -0.5534 -1.5676 -0.9816
  527MPD2    H1 7828   0.063   2.569   0.443  0.6883 -0.7803  0.3666
  527MPD2    H2 7829   4.430   2.763   0.556 -1.1739 -1.6868 -0.0615
  527MPD2    H3 7830   4.588   2.715   0.401 -2.1560 -0.1895  0.8941
  527MPD2     N 7831   0.151   2.510   0.665 -0.1660 -0.1029  0.1415
  527MPD2    H5 7832   0.214   2.502   0.586  1.3459  1.1974  1.2422
  527MPD2    N1 7833   4.422   2.652   0.824  0.0364 -0.3652  0.0048
  527MPD2    H7 7834   4.449   2.615   0.914 -0.3021 -0.4397  0.0737
  528TMC3    C1 7835   4.246   2.753   0.933 -0.0695  0.1818  0.1228
  528TMC3    C2 7836   4.273   2.662   1.032  0.0603 -0.4818  0.0145
  528TMC3    C3 7837   4.239   2.693   1.159  0.9550 -0.2818  0.5543
  528TMC3    C4 7838   4.187   2.871   0.958  0.2986  0.5827  0.2866
  528TMC3    C5 7839   4.157   2.902   1.088 -0.0050 -0.1607 -0.0478
  528TMC3    C6 7840   4.177   2.813   1.190  0.6987 -0.4314  0.2280
  528TMC3     C 7841   4.314   2.737   0.810  0.3415 -0.5918 -0.0599
  528TMC3     O 7842   4.274   2.805   0.720  0.0008  0.0415 -0.0429
  528TMC3     H 7843   4.291   2.560   1.002 -0.3344 -0.2823 -0.8929
  528TMC3    H1 7844   4.163   2.938   0.877 -0.4337 -1.2663 -1.0142
  528TMC3    H2 7845   4.153   2.837   1.293  0.0669  2.1517 -0.5315
  528TMC3    C7 7846   4.025   2.961   1.109 -0.1430  0.3144  0.2973
  528TMC3    C8 7847   4.245   2.589   1.267 -0.6584  0.0546  0.4187
  528TMC3    O1 7848   3.963   2.897   1.195 -0.2294  0.1977  0.7815
  528TMC3    O2 7849   4.171   2.609   1.366  0.4881  0.8345 -0.1612
  529MPD2     C 7850   1.625   1.664   0.892  0.3725 -0.0387  0.4794
  529MPD2    C1 7851   1.564   1.547   0.866 -0.6792  0.0045 -0.1108
  529MPD2    C2 7852   1.537   1.520   0.733 -0.6011  0.7581  0.9866
  529MPD2    C3 7853   1.560   1.616   0.636 -0.4557  0.5247 -0.0636
  529MPD2    C4 7854   1.616   1.737   0.671  0.7235  0.1269 -0.5025
  529MPD2    C5 7855   1.653   1.762   0.800 -0.5017 -0.1107 -0.4135
  529MPD2     H 7856   1.488   1.425   0.713 -1.0024  1.1595  0.0661
  529MPD2    H1 7857   1.632   1.809   0.591  1.3204  0.7061  0.1350
  529MPD2    H2 7858   1.657   1.682   0.994  0.8598  0.5562  0.2136
  529MPD2    H3 7859   1.696   1.853   0.840  0.7235 -0.1584 -1.6212
  529MPD2     N 7860   1.510   1.598   0.506 -0.4696  0.0101 -0.1534
  529MPD2    H5 7861   1.537   1.670   0.439 -0.3754  0.1803  0.0677
  529MPD2    N1 7862   1.536   1.447   0.968  0.3459 -0.5571 -0.2014
  529MPD2    H7 7863   1.492   1.361   0.938  0.1646 -0.5926  0.1659
  530TMC3    C1 7864   1.561   1.332   1.184  0.4771  0.4558 -0.3588
  530TMC3    C2 7865   1.637   1.310   1.296 -0.7120  0.0862  0.6446
  530TMC3    C3 7866   1.608   1.210   1.388 -0.1249  0.5988 -0.3290
  530TMC3    C4 7867   1.444   1.263   1.173 -0.6231 -0.4239 -0.1874
  530TMC3    C5 7868   1.408   1.178   1.267 -0.1408 -0.6410 -0.1228
  530TMC3    C6 7869   1.496   1.139   1.366 -0.1609  0.8222  0.0954
  530TMC3     C 7870   1.598   1.439   1.094 -0.3183 -0.5144 -0.0932
  530TMC3     O 7871   1.671   1.515   1.156 -0.0762  0.2285 -0.2563
  530TMC3     H 7872   1.735   1.355   1.300 -0.8582  0.2603  2.2227
  530TMC3    H1 7873   1.379   1.299   1.094  0.0253  1.3415  0.0938
  530TMC3    H2 7874   1.481   1.046   1.420  0.2886  1.6031  1.5562
  530TMC3    C7 7875   1.298   1.092   1.223 -0.3664  0.3837 -0.3732
  530TMC3    C8 7876   1.694   1.213   1.504  0.5174  0.2655  0.2254
  530TMC3    O1 7877   1.218   1.146   1.145  0.3155  0.8212 -0.1580
  530TMC3    O2 7878   1.749   1.317   1.549  0.5171 -0.3177 -0.7849
  531MPD2     C 7879   1.037   4.012  12.966  0.1664 -0.0370 -0.3018
  531MPD2    C1 7880   0.914   4.061  12.982  0.2695 -0.0023 -0.9913
  531MPD2    C2 7881   0.803   3.979  12.963 -0.4152 -0.0009 -0.5634
  531MPD2    C3 7882   0.822   3.849  12.930  0.8118  0.1272  0.1515
  531MPD2    C4 7883   0.950   3.797  12.914  0.3208 -0.3032  0.1961
  531MPD2    C5 7884   1.053   3.880  12.931 -0.2321 -0.3506  0.3257
  531MPD2     H 7885   0.701   4.013  12.979 -0.4264 -0.6688  0.8018
  531MPD2    H1 7886   0.968   3.693  12.888 -2.6749 -0.5121 -1.0601
  531MPD2    H2 7887   1.124   4.072  12.990 -0.2859  0.7372 -0.5735
  531MPD2    H3 7888   1.149   3.839  12.905 -0.9806 -1.5214 -0.5857
  531MPD2     N 7889   0.707   3.759  12.924 -0.6105  0.7198 -0.2875
  531MPD2    H5 7890   0.725   3.662  12.949 -3.0529  0.2830 -0.2546
  531MPD2    N1 7891   0.904   4.202  13.031 -0.1965  0.0752  0.3010
  531MPD2    H7 7892   0.989   4.256  13.042  0.4099 -1.1809  1.7314
  532TMC3    C1 7893   0.827   4.378  13.153  0.3675  0.3232 -0.1142
  532TMC3    C2 7894   0.717   4.452  13.194  0.2588  0.1693  1.0455
  532TMC3    C3 7895   0.695   4.469  13.332  0.4436  0.3053  0.4971
  532TMC3    C4 7896   0.922   4.350  13.247 -0.1418  0.1369  0.2986
  532TMC3    C5 7897   0.909   4.397  13.372 -0.1261 -0.6815  0.0026
  532TMC3    C6 7898   0.799   4.453  13.416  0.2727  0.3458 -0.4997
  532TMC3     C 7899   0.791   4.263  13.067 -0.0360 -0.5185  0.7872
  532TMC3     O 7900   0.675   4.240  13.029  0.2221 -0.3262 -0.6060
  532TMC3     H 7901   0.635   4.461  13.124  2.9783 -0.5857 -2.2433
  532TMC3    H1 7902   1.016   4.307  13.215 -0.7435 -0.6906 -0.3533
  532TMC3    H2 7903   0.794   4.471  13.523 -1.0518  2.0738 -0.8454
  532TMC3    C7 7904   0.992   4.333  13.467  0.1297 -0.6674  0.6217
  532TMC3    C8 7905   0.567   4.437  13.380  0.2525  1.1226  0.4376
  532TMC3    O1 7906   1.020   4.401  13.567 -0.1667 -0.5811  0.2772
  532TMC3    O2 7907   0.509   4.491  13.478  0.1384 -0.7364  0.1695
  533TMC3    C1 7908   1.079   0.158  14.734 -0.2496  0.5088 -0.7930
  533TMC3    C2 7909   1.087   0.228  14.623 -0.6262 -0.1129 -0.7408
  533TMC3    C3 7910   1.075   0.364  14.640 -0.2935  0.0607 -0.3943
  533TMC3    C4 7911   1.049   0.208  14.853  0.8047 -0.0180  0.6658
  533TMC3    C5 7912   1.023   0.343  14.862 -0.2205 -0.4856  0.4276
  533TMC3    C6 7913   1.028   0.426  14.752  0.2179 -0.0888 -0.4683
  533TMC3     C 7914   1.013   0.037  14.714  0.5565  0.0941 -0.5553
  533TMC3     O 7915   1.054   4.672  14.796  0.0866 -0.3258 -0.6293
  533TMC3     H 7916   1.107   0.176  14.529 -1.2954 -0.1212 -0.8806
  533TMC3    H1 7917   1.040   0.139  14.936  0.3643  0.8895  1.3728
  533TMC3    H2 7918   1.022   0.534  14.754 -0.1991 -0.1212  0.1983
  533TMC3    C7 7919   0.941   0.380  14.969  0.8546 -0.2668  0.1526
  533TMC3    C8 7920   1.189   0.448  14.585 -0.2659 -0.0393 -0.2758
  533TMC3    O1 7921   0.947   0.318  15.074  0.4895  0.0457  0.0637
  533TMC3    O2 7922   1.208   0.568  14.613  0.2457 -0.3040  0.0551
  534MPD2     C 7923   2.886   1.993   2.032 -0.1767 -0.3497  0.4499
  534MPD2    C1 7924   3.015   1.963   2.012 -0.2480 -0.2314  0.0678
  534MPD2    C2 7925   3.050   1.828   1.998 -0.1096  0.3826  0.1803
  534MPD2    C3 7926   2.953   1.726   2.009 -0.0742 -0.1694 -0.1722
  534MPD2    C4 7927   2.824   1.761   2.024  0.4824  0.1145 -1.0494
  534MPD2    C5 7928   2.790   1.896   2.027 -0.9433  0.4159 -0.5242
  534MPD2     H 7929   3.151   1.801   1.970 -0.0062  1.0253 -0.0617
  534MPD2    H1 7930   2.746   1.686   2.031 -1.2789  2.1304  0.7731
  534MPD2    H2 7931   2.863   2.096   2.056  1.0224  0.1303 -0.4885
  534MPD2    H3 7932   2.686   1.923   2.041 -1.5600 -0.9318 -2.4812
  534MPD2     N 7933   2.975   1.585   2.009  0.3931  0.5451 -0.5324
  534MPD2    H5 7934   2.897   1.520   2.017  1.9948 -1.2510  0.4359
  534MPD2    N1 7935   3.118   2.059   2.023 -0.0143 -0.3991  0.0548
  534MPD2    H7 7936   3.212   2.023   2.010 -0.4264 -1.3035 -0.4439
  535TMC3    C1 7937   3.118   1.394   2.000 -0.0030 -0.2597 -0.4614
  535TMC3    C2 7938   3.011   1.313   2.025 -0.0555 -0.0994 -0.2190
  535TMC3    C3 7939   3.026   1.181   1.996 -0.6398 -0.2816  0.4285
  535TMC3    C4 7940   3.229   1.348   1.935 -0.2400 -0.0435 -0.9469
  535TMC3    C5 7941   3.233   1.215   1.888 -0.4753 -0.9371 -0.0584
  535TMC3    C6 7942   3.136   1.129   1.933  0.5637 -0.1354  0.1375
  535TMC3     C 7943   3.101   1.534   2.019  0.4989  0.3251  0.5621
  535TMC3     O 7944   3.203   1.599   2.029  0.4476  0.4457  0.3854
  535TMC3     H 7945   2.926   1.347   2.082  0.4399  1.0910 -0.1934
  535TMC3    H1 7946   3.300   1.425   1.909  0.4021 -0.0577  0.8432
  535TMC3    H2 7947   3.134   1.030   1.888  0.7444 -0.1562  0.1756
  535TMC3    C7 7948   3.346   1.174   1.800 -0.5321 -0.5178 -0.4414
  535TMC3    C8 7949   2.902   1.110   1.966 -0.2301 -0.0924 -0.3721
  535TMC3    O1 7950   3.369   1.056   1.779  0.1207  0.0271 -0.3960
  535TMC3    O2 7951   2.801   1.174   1.935 -0.2195  0.6209  0.1075
  536MPD2     C 7952   2.371   4.653  16.566  0.0811 -0.5925 -0.0250
  536MPD2    C1 7953   2.261   4.607  16.640  0.5765  0.2553  0.2228
  536MPD2    C2 7954   2.147   4.579  16.574  0.3487 -0.6001  0.4187
  536MPD2    C3 7955   2.140   4.569  16.437  0.2959 -0.3944  0.2596
  536MPD2    C4 7956   2.251   4.617  16.365  0.7474 -0.7766  0.4740
  536MPD2    C5 7957   2.362   4.659  16.431  0.5270 -0.4273 -0.4901
  536MPD2     H 7958   2.063   4.550  16.637  0.3923 -0.6582  0.4502
  536MPD2    H1 7959   2.257   4.621  16.257 -1.9260  0.3122  0.3786
  536MPD2    H2 7960   2.462   4.672  16.621  0.2759 -0.1734 -0.4926
  536MPD2    H3 7961   2.440   4.705  16.372 -0.1069  3.1834  1.5080
  536MPD2     N 7962   2.016   4.547  16.371  0.4298  0.3183  0.4082
  536MPD2    H5 7963   2.017   4.572  16.273  2.7190 -2.4683 -0.2831
  536MPD2    N1 7964   2.267   4.596  16.778  0.3321 -0.1475 -0.2979
  536MPD2    H7 7965   2.340   4.650  16.823  1.1949 -0.4974 -1.2637
  537TMC3    C1 7966   2.210   4.529  16.999  0.4240  0.5241  0.1674
  537TMC3    C2 7967   2.275   4.645  17.044  0.2885 -0.2446 -0.3527
  537TMC3    C3 7968   2.305   4.655  17.181  0.2386 -1.2140 -0.7193
  537TMC3    C4 7969   2.167   4.428  17.083 -0.9971 -0.0752 -0.1316
  537TMC3    C5 7970   2.177   4.460  17.219 -0.0680  0.6044 -0.4047
  537TMC3    C6 7971   2.253   4.565  17.270 -0.8261 -0.0707 -0.4210
  537TMC3     C 7972   2.194   4.509  16.855 -0.0968 -0.0113 -0.1744
  537TMC3     O 7973   2.133   4.410  16.818  0.1646 -0.6277 -0.1855
  537TMC3     H 7974   2.273   0.013  16.983  0.7488  1.0330  1.4771
  537TMC3    H1 7975   2.088   4.361  17.051  0.7668 -2.1977 -0.0464
  537TMC3    H2 7976   2.246   4.579  17.377  2.6770  2.5555 -0.5470
  537TMC3    C7 7977   2.115   4.375  17.324  0.7645  0.2978 -0.0835
  537TMC3    C8 7978   2.334   0.071  17.234 -0.3389 -0.7436 -0.2378
  537TMC3    O1 7979   2.102   4.427  17.436 -0.3521 -0.2437  0.3401
  537TMC3    O2 7980   2.314   0.092  17.352  0.0696  0.4086 -0.3606
  538TMC3    C1 7981   3.495   3.402  10.627  0.3026  0.0435 -0.1474
  538TMC3    C2 7982   3.548   3.302  10.552  0.9040 -0.0879 -0.2165
  538TMC3    C3 7983   3.468   3.201  10.519  0.6924 -0.9926 -0.2949
  538TMC3    C4 7984   3.368   3.391  10.675 -0.2571 -0.1255  0.3476
  538TMC3    C5 7985   3.291   3.292  10.632 -0.2395 -0.1917  0.5413
  538TMC3    C6 7986   3.338   3.189  10.560  0.0691  1.2164  0.3664
  538TMC3     C 7987   3.587   3.494  10.702  0.6028 -0.1705 -0.0610
  538TMC3     O 7988   3.697   3.489  10.658  0.0855 -0.2907  0.0583
  538TMC3     H 7989   3.648   3.308  10.510  1.3926  0.1953  0.9687
  538TMC3    H1 7990   3.328   3.482  10.720  0.6425  0.2891  0.2983
  538TMC3    H2 7991   3.273   3.102  10.549  1.7778 -0.0767  0.5319
  538TMC3    C7 7992   3.186   3.251  10.720 -0.1565  0.7576 -0.1200
  538TMC3    C8 7993   3.523   3.085  10.454 -1.1138 -0.1260  0.3398
  538TMC3    O1 7994   3.103   3.173  10.680 -0.4286  0.0095 -0.6410
  538TMC3    O2 7995   3.437   3.011  10.401  0.2700  0.2359 -0.2027
  539MPD2     C 7996   2.802   1.853  11.923  0.0635  0.3679  0.2917
  539MPD2    C1 7997   2.845   1.921  11.810  0.2629  0.1696 -0.2313
  539MPD2    C2 7998   2.834   2.064  11.812  0.1815  0.5873 -0.3107
  539MPD2    C3 7999   2.767   2.131  11.912  0.4325 -0.0746  0.0229
  539MPD2    C4 8000   2.727   2.062  12.023  0.2386 -0.8917 -0.4967
  539MPD2    C5 8001   2.756   1.925  12.031  0.8171  0.2452 -0.1996
  539MPD2     H 8002   2.881   2.119  11.732 -0.4931  1.1251 -0.3340
  539MPD2    H1 8003   2.674   2.109  12.105 -0.5646  0.7541 -1.9803
  539MPD2    H2 8004   2.822   1.747  11.936 -1.2894  0.2664  1.4446
  539MPD2    H3 8005   2.725   1.873  12.120 -0.7767  0.4124 -0.6605
  539MPD2     N 8006   2.749   2.272  11.916  0.4650 -0.0746 -0.2751
  539MPD2    H5 8007   2.699   2.299  12.000  0.3488  1.4166 -0.8286
  539MPD2    N1 8008   2.911   1.859  11.699 -0.5520 -0.1623 -0.2733
  539MPD2    H7 8009   2.965   1.927  11.646 -0.7358  0.9751  1.0063
  540TMC3    C1 8010   2.735   2.489  11.838 -0.6992  0.1735  0.3841
  540TMC3    C2 8011   2.767   2.555  11.721 -0.2419  0.4792  0.1164
  540TMC3    C3 8012   2.730   2.688  11.725 -0.2357 -0.1602  0.0214
  540TMC3    C4 8013   2.691   2.548  11.952 -0.2582  0.3749  0.2977
  540TMC3    C5 8014   2.677   2.683  11.955 -0.5075 -0.3906 -0.1142
  540TMC3    C6 8015   2.687   2.752  11.841  0.5388 -0.1089 -0.1751
  540TMC3     C 8016   2.798   2.362  11.831  0.2250  0.2976  0.2747
  540TMC3     O 8017   2.898   2.348  11.763 -0.2872 -0.3337 -0.6068
  540TMC3     H 8018   2.807   2.508  11.632  0.4388  0.7339  0.2891
  540TMC3    H1 8019   2.687   2.498  12.049  2.4500 -1.2704 -0.4388
  540TMC3    H2 8020   2.680   2.860  11.842  1.7293 -0.0355  1.0908
  540TMC3    C7 8021   2.579   2.729  12.062 -0.0218  0.2894 -0.2627
  540TMC3    C8 8022   2.763   2.773  11.610 -0.1143  0.0333  0.5136
  540TMC3    O1 8023   2.519   2.642  12.120  0.0775 -0.0912 -0.2367
  540TMC3    O2 8024   2.812   2.883  11.631 -0.3436 -0.1075 -0.4370
  541MPD2     C 8025   1.316   4.017  13.398 -0.0032  0.2917 -0.1056
  541MPD2    C1 8026   1.322   3.945  13.282  0.1323 -0.0717  0.1206
  541MPD2    C2 8027   1.354   4.016  13.170 -0.0612 -0.2768 -0.0622
  541MPD2    C3 8028   1.380   4.149  13.172 -0.4030 -0.2725  0.0022
  541MPD2    C4 8029   1.380   4.222  13.289  0.1414  0.0230 -0.4929
  541MPD2    C5 8030   1.346   4.152  13.403  0.1498 -1.6880 -0.3689
  541MPD2     H 8031   1.355   3.967  13.073  3.4243  1.0942 -0.7453
  541MPD2    H1 8032   1.405   4.328  13.287  2.4940 -0.5278 -0.1512
  541MPD2    H2 8033   1.288   3.972  13.492 -1.9890 -0.3841 -1.0164
  541MPD2    H3 8034   1.334   4.207  13.495  0.4391  1.5035 -2.2302
  541MPD2     N 8035   1.421   4.224  13.054 -0.1771  0.2770  0.1247
  541MPD2    H5 8036   1.458   4.317  13.072  0.0668  0.0575  0.7668
  541MPD2    N1 8037   1.294   3.807  13.289 -0.1804 -0.0223  0.3572
  541MPD2    H7 8038   1.287   3.764  13.380 -1.2665 -1.0420 -0.2022
  542TMC3    C1 8039   1.461   4.273  12.816  0.1983 -0.0920 -0.0319
  542TMC3    C2 8040   1.453   4.214  12.692 -0.1238 -0.2993  0.4648
  542TMC3    C3 8041   1.465   4.289  12.587  0.5127  0.9484 -0.3079
  542TMC3    C4 8042   1.491   4.401  12.836 -0.3200  0.4824 -0.0922
  542TMC3    C5 8043   1.506   4.479  12.724 -0.8795  0.6106 -0.0640
  542TMC3    C6 8044   1.476   4.427  12.592  0.0368 -0.0396  0.4105
  542TMC3     C 8045   1.408   4.182  12.920  0.6904  0.4676  0.5653
  542TMC3     O 8046   1.371   4.076  12.877 -0.1825 -0.5993 -0.6114
  542TMC3     H 8047   1.422   4.113  12.668  1.2827  0.1786 -3.3827
  542TMC3    H1 8048   1.504   4.449  12.932  0.3798  1.4591 -0.6670
  542TMC3    H2 8049   1.491   4.476  12.496  1.6356  0.8030  1.0987
  542TMC3    C7 8050   1.537   4.618  12.738 -0.5363 -0.1496 -0.0866
  542TMC3    C8 8051   1.421   4.236  12.466 -0.2743 -0.2512 -0.0821
  542TMC3    O1 8052   1.563   4.657  12.854 -0.5658  0.2672  0.0370
  542TMC3    O2 8053   1.508   4.172  12.409  0.5906 -0.6745  0.3109
  543TMC3    C1 8054   0.275   4.714  17.617 -0.4956 -0.1949  0.1188
  543TMC3    C2 8055   0.141   4.704  17.595 -0.8780 -0.5600  0.2273
  543TMC3    C3 8056   0.052   4.672   0.006  0.3362  0.4664  0.4188
  543TMC3    C4 8057   0.331   4.684   0.044  0.3117 -0.6140  0.1182
  543TMC3    C5 8058   0.248   4.658   0.146 -0.3571 -0.3553 -0.8378
  543TMC3    C6 8059   0.111   4.650   0.131 -0.1574  0.2039  0.2212
  543TMC3     C 8060   0.353   0.037  17.503  0.3659 -0.0447 -0.6219
  543TMC3     O 8061   0.469   0.016  17.517 -0.5042 -0.1066 -0.3055
  543TMC3     H 8062   0.099   4.716  17.496  1.9962  2.9022 -0.5774
  543TMC3    H1 8063   0.438   4.693   0.054  0.0770  1.9156  0.3398
  543TMC3    H2 8064   0.044   4.611   0.207 -1.9816 -0.8728 -1.9475
  543TMC3    C7 8065   0.298   4.564   0.240 -0.2355  0.1521  0.7369
  543TMC3    C8 8066   4.658   4.588  17.673 -0.6331 -0.6933  0.6374
  543TMC3    O1 8067   0.225   4.551   0.339 -0.0582  0.2109  0.1810
  543TMC3    O2 8068   4.546   4.638  17.670 -0.4408 -0.2010  0.6401
  544MPD2     C 8069   4.461   4.105  17.656 -0.1341 -0.4098 -0.1943
  544MPD2    C1 8070   4.596   4.096  17.613  0.0701  0.0832 -0.4705
  544MPD2    C2 8071   4.667   4.217  17.605 -0.1951  0.7082 -0.2938
  544MPD2    C3 8072   4.613   4.339  17.639  0.0531 -0.1481 -0.2834
  544MPD2    C4 8073   4.481   4.342  17.679  0.1793  0.3267 -0.3742
  544MPD2    C5 8074   4.405   4.228  17.684  0.0634  0.1733 -0.3631
  544MPD2     H 8075   0.052   4.208  17.589 -0.3324  0.4317 -1.0934
  544MPD2    H1 8076   4.442   4.439   0.018 -0.0931 -0.6304  2.6324
  544MPD2    H2 8077   4.400   4.016  17.667 -0.7780  0.0599  0.0582
  544MPD2    H3 8078   4.302   4.228   0.029 -0.1866  0.2795 -1.1195
  544MPD2     N 8079   4.695   4.457  17.643  0.3702  0.5504 -0.5898
  544MPD2    H5 8080   0.073   4.441  17.636  0.0812 -0.8093 -1.6390
  544MPD2    N1 8081   4.646   3.972  17.583  0.4799  0.0868 -0.2970
  544MPD2    H7 8082   4.587   3.891  17.598  0.6028  0.2718  1.1714
  545TMC3    C1 8083   0.084   3.802  17.545  0.3789  0.3703 -0.1898
  545TMC3    C2 8084   0.170   3.748  17.457 -0.8261 -0.2757 -0.6844
  545TMC3    C3 8085   0.226   3.625  17.486  0.5947  0.8676  0.1189
  545TMC3    C4 8086   0.053   3.747  17.662 -0.3830 -0.2945  0.1137
  545TMC3    C5 8087   0.121   3.632   0.008 -0.2559  0.4317  0.0073
  545TMC3    C6 8088   0.203   3.568  17.609 -0.5916  0.7042 -0.3619
  545TMC3     C 8089   0.050   3.943  17.539  0.2441 -0.0889 -0.1759
  545TMC3     O 8090   0.140   4.017  17.501 -0.8851 -0.0847  0.1791
  545TMC3     H 8091   0.215   3.815  17.385  3.8467 -1.6901  0.9867
  545TMC3    H1 8092   4.715   3.794   0.050 -1.1979 -1.3965  0.1588
  545TMC3    H2 8093   0.251   3.472  17.619  0.2361  1.1134 -0.4357
  545TMC3    C7 8094   0.102   3.584   0.140 -0.0173 -0.2406 -0.3540
  545TMC3    C8 8095   0.350   3.580  17.421 -0.1993 -0.4684 -0.3624
  545TMC3    O1 8096   4.719   3.605   0.201  0.2864  0.1805 -0.0441
  545TMC3    O2 8097   0.443   3.545  17.487  0.3996 -0.2661 -0.2530
  546MPD2     C 8098   1.987   0.576   0.176 -0.1911 -0.1890  0.6651
  546MPD2    C1 8099   2.009   0.610   0.049  0.2637  0.4942  0.5447
  546MPD2    C2 8100   2.072   0.736   0.031 -0.4475  0.1712  0.0648
  546MPD2    C3 8101   2.095   0.822   0.135 -0.3763  0.6007 -0.0186
  546MPD2    C4 8102   2.068   0.778   0.265  0.1358  0.5426 -0.7990
  546MPD2    C5 8103   2.010   0.660   0.277  0.2284  0.3047 -0.1639
  546MPD2     H 8104   2.112   0.763  17.623 -2.6102 -1.5922 -1.3291
  546MPD2    H1 8105   2.083   0.850   0.346  0.2513 -2.8121  2.1611
  546MPD2    H2 8106   1.932   0.484   0.193  2.6158 -1.9742 -0.0246
  546MPD2    H3 8107   1.966   0.633   0.372  0.3045  0.2017 -0.1577
  546MPD2     N 8108   2.167   0.946   0.127 -0.0014  0.0702  0.3643
  546MPD2    H5 8109   2.162   1.008   0.208 -1.2954  0.7734 -0.2551
  546MPD2    N1 8110   1.979   0.515  17.629  0.1447  0.3259  0.3219
  546MPD2    H7 8111   1.942   0.424  17.655 -0.3904  0.5214  0.2267
  547TMC3    C1 8112   1.930   0.449  17.412  1.4142 -0.1879  0.0062
  547TMC3    C2 8113   1.860   0.467  17.301 -0.0444 -0.4152 -0.7770
  547TMC3    C3 8114   1.825   0.356  17.222 -0.4183 -0.1517  0.6195
  547TMC3    C4 8115   1.979   0.327  17.444  0.0825  0.4083 -0.6329
  547TMC3    C5 8116   1.953   0.219  17.359 -0.6030 -0.2915  0.3936
  547TMC3    C6 8117   1.877   0.232  17.249  0.3654  0.2211  0.0589
  547TMC3     C 8118   1.967   0.551  17.497  0.2762 -0.3648  0.3120
  547TMC3     O 8119   1.995   0.659  17.444  0.0296 -0.1337 -0.1308
  547TMC3     H 8120   1.824   0.568  17.286 -0.4570 -0.5017 -0.3455
  547TMC3    H1 8121   2.049   0.320  17.526 -0.2250 -1.0571 -0.4884
  547TMC3    H2 8122   1.844   0.150  17.186  1.1958 -0.1138  0.0581
  547TMC3    C7 8123   1.934   0.094  17.434 -0.3804 -0.2849  0.2214
  547TMC3    C8 8124   1.684   0.351  17.191  0.1832  0.8017 -0.4071
  547TMC3    O1 8125   1.957   0.097  17.553 -0.3624 -0.0457 -0.2032
  547TMC3    O2 8126   1.634   0.237  17.194 -0.0503 -0.0578  0.0053
  548MPD2     C 8127   2.308   1.089  12.304 -0.8707  0.2278  0.1868
  548MPD2    C1 8128   2.290   0.966  12.364 -0.5078 -0.9234  0.0283
  548MPD2    C2 8129   2.366   0.858  12.331  0.1954 -0.5419  0.2916
  548MPD2    C3 8130   2.451   0.869  12.223 -0.1867  0.3515 -0.3960
  548MPD2    C4 8131   2.467   0.994  12.156  0.0900  0.3966 -0.3402
  548MPD2    C5 8132   2.389   1.104  12.200  0.6165  0.4147 -0.3898
  548MPD2     H 8133   2.357   0.772  12.397  0.1253  0.6596  1.8418
  548MPD2    H1 8134   2.535   1.008  12.073 -0.2728  0.0765 -0.6907
  548MPD2    H2 8135   2.259   1.183  12.329  0.1795  1.3878 -2.1169
  548MPD2    H3 8136   2.402   1.203  12.157 -0.2143  0.3925 -0.6776
  548MPD2     N 8137   2.534   0.755  12.199  0.6162  1.3097 -0.0833
  548MPD2    H5 8138   2.525   0.670  12.254  1.1169  1.8760  0.8771
  548MPD2    N1 8139   2.186   0.963  12.462 -0.0248  0.1127 -0.3718
  548MPD2    H7 8140   2.138   1.053  12.467 -0.0783  0.1680 -1.9061
  549TMC3    C1 8141   2.038   0.891  12.634 -0.0406 -0.2678  0.6911
  549TMC3    C2 8142   1.967   1.006  12.610  0.2626  0.8224  0.4015
  549TMC3    C3 8143   1.871   1.045  12.698  0.2370  0.1334 -0.1326
  549TMC3    C4 8144   2.006   0.809  12.736 -0.5495 -1.2771  0.0816
  549TMC3    C5 8145   1.905   0.855  12.823 -0.1214  0.5467  0.3285
  549TMC3    C6 8146   1.842   0.978  12.813  0.0181  0.5404  0.4746
  549TMC3     C 8147   2.162   0.861  12.552 -0.5200  0.4970  0.2998
  549TMC3     O 8148   2.213   0.752  12.560  0.0396 -0.5383  0.2359
  549TMC3     H 8149   1.961   1.062  12.518  0.0379  0.4737  0.2042
  549TMC3    H1 8150   2.073   0.726  12.756 -0.4291 -1.3620 -0.6779
  549TMC3    H2 8151   1.755   0.994  12.875 -1.4056 -2.3576 -0.7857
  549TMC3    C7 8152   1.850   0.763  12.925 -0.5096  0.2585 -0.2141
  549TMC3    C8 8153   1.780   1.156  12.670 -0.2775 -1.0012  0.4383
  549TMC3    O1 8154   1.751   0.796  12.991 -0.2121 -0.2575 -0.6789
  549TMC3    O2 8155   1.744   1.163  12.553 -0.5222  0.1913 -0.1882
  550TMC3    C1 8156   1.114   3.768  11.780  0.7420  0.8360 -0.0301
  550TMC3    C2 8157   1.130   3.743  11.918 -0.8157  0.4078  0.7533
  550TMC3    C3 8158   1.068   3.833  12.000  0.3842  0.8263 -0.4230
  550TMC3    C4 8159   1.022   3.860  11.727 -0.3673 -0.4185 -0.5536
  550TMC3    C5 8160   0.962   3.941  11.815 -0.1074 -1.3681 -0.3187
  550TMC3    C6 8161   0.980   3.924  11.949  0.3859  0.8254  0.0771
  550TMC3     C 8162   1.125   3.650  11.695  0.5387 -0.2956 -0.0865
  550TMC3     O 8163   1.222   3.577  11.718  0.0640  0.4664 -0.9427
  550TMC3     H 8164   1.202   3.671  11.954 -0.5307  1.3297  2.0398
  550TMC3    H1 8165   1.030   3.881  11.621  1.1480 -1.4651 -0.6520
  550TMC3    H2 8166   0.939   3.992  12.024 -1.3441  0.5407 -0.6070
  550TMC3    C7 8167   0.823   3.990  11.789  0.1597 -0.0126 -0.1912
  550TMC3    C8 8168   1.028   3.801  12.132  0.2376  0.2342 -0.1814
  550TMC3    O1 8169   0.746   4.002  11.883 -0.3281 -0.1807 -0.2782
  550TMC3    O2 8170   0.917   3.745  12.142 -0.4439 -0.0228 -0.3403
  551TMC3    C1 8171   2.984   1.378  13.316  1.1091  0.4406  0.2073
  551TMC3    C2 8172   3.101   1.391  13.244  0.1355  0.5981 -0.9627
  551TMC3    C3 8173   3.205   1.456  13.307 -0.3900 -0.5251  0.1501
  551TMC3    C4 8174   2.962   1.440  13.436 -0.9633 -1.1239  0.5723
  551TMC3    C5 8175   3.067   1.508  13.491  0.2144  0.8097 -0.1667
  551TMC3    C6 8176   3.188   1.519  13.423  0.5646  0.4816  0.5649
  551TMC3     C 8177   2.892   1.276  13.269  0.2779  0.3296 -0.0693
  551TMC3     O 8178   2.910   1.249  13.152 -0.1176  0.0984 -0.1116
  551TMC3     H 8179   3.110   1.341  13.148  1.5607  1.7503 -1.4279
  551TMC3    H1 8180   2.869   1.424  13.490 -0.8280 -0.6268  0.9599
  551TMC3    H2 8181   3.273   1.564  13.473  0.2107  1.2133  0.5084
  551TMC3    C7 8182   3.070   1.571  13.618  0.0875  0.5602 -0.1600
  551TMC3    C8 8183   3.309   1.491  13.216 -0.1141  0.1426 -0.4841
  551TMC3    O1 8184   3.180   1.578  13.676 -0.0743 -0.9787 -0.1240
  551TMC3    O2 8185   3.336   1.407  13.130 -0.3692  0.7211  0.5048
  552MPD2     C 8186   0.392   3.955  13.804  0.4409 -0.5359 -0.3149
  552MPD2    C1 8187   0.368   3.820  13.784  0.0566 -0.7278  0.3521
  552MPD2    C2 8188   0.458   3.734  13.843 -0.4973  0.2681 -0.5451
  552MPD2    C3 8189   0.564   3.780  13.923  0.2319  0.1081  0.1834
  552MPD2    C4 8190   0.593   3.913  13.921  0.0825  0.2490 -0.2147
  552MPD2    C5 8191   0.507   3.999  13.868 -0.1747  0.8076 -0.2831
  552MPD2     H 8192   0.441   3.628  13.824  0.5643  0.4864 -2.7150
  552MPD2    H1 8193   0.679   3.946  13.978  0.4220  2.0565 -1.7457
  552MPD2    H2 8194   0.324   4.034  13.774  0.7966 -1.1060 -2.5852
  552MPD2    H3 8195   0.535   4.103  13.875  0.5932  0.5861 -0.1134
  552MPD2     N 8196   0.648   3.694  14.000  0.0987 -0.0841  0.6045
  552MPD2    H5 8197   0.732   3.736  14.038  0.1963 -0.3254  0.6536
  552MPD2    N1 8198   0.248   3.770  13.718 -0.3765 -0.2556  0.5868
  552MPD2    H7 8199   0.254   3.670  13.702 -1.0355  0.0196 -1.4885
  553TMC3    C1 8200   0.031   3.740  13.642  0.0718  0.2455 -0.1485
  553TMC3    C2 8201   4.702   3.752  13.514 -0.3237  0.7780  0.7387
  553TMC3    C3 8202   4.667   3.638  13.447 -0.1730  0.4282  0.0107
  553TMC3    C4 8203   0.043   3.615  13.706 -0.0178 -0.0071 -0.2787
  553TMC3    C5 8204   4.710   3.514  13.636  0.4572 -0.1557  0.2144
  553TMC3    C6 8205   4.659   3.521  13.510 -0.2597  0.2274 -0.1239
  553TMC3     C 8206   0.134   3.837  13.672 -0.6264 -0.7371 -0.3023
  553TMC3     O 8207   0.110   3.955  13.676  0.2963  0.0879  0.1512
  553TMC3     H 8208   4.704   3.854  13.479  0.7700  1.2722  2.2606
  553TMC3    H1 8209   0.071   3.608  13.811 -1.1260  0.3838  0.0418
  553TMC3    H2 8210   4.610   3.439  13.459 -0.1454 -0.5385  0.9728
  553TMC3    C7 8211   4.712   3.392  13.712  0.3292 -0.1022 -0.1689
  553TMC3    C8 8212   0.034   3.635  13.334 -0.3618 -0.1793  0.6469
  553TMC3    O1 8213   4.625   3.318  13.680  0.3410 -0.3569 -0.1403
  553TMC3    O2 8214   0.118   3.725  13.321 -0.3783 -0.7348  0.1793
  554TMC3    C1 8215   1.975   2.312  12.028 -0.7068  0.1557  0.1777
  554TMC3    C2 8216   1.926   2.263  11.907 -0.4818  0.3735  0.1689
  554TMC3    C3 8217   1.940   2.354  11.804 -0.8226 -0.4981  0.1953
  554TMC3    C4 8218   2.041   2.432  12.045 -0.4135  0.2788  0.2564
  554TMC3    C5 8219   2.062   2.507  11.935 -0.6841  0.2248  0.0810
  554TMC3    C6 8220   2.020   2.466  11.811 -0.6117 -0.9494 -0.0930
  554TMC3     C 8221   1.982   2.222  12.148  0.2760  0.0036 -0.5623
  554TMC3     O 8222   2.056   2.263  12.239  0.9057 -0.4668 -0.1156
  554TMC3     H 8223   1.877   2.168  11.888 -0.0796  0.3821 -0.9174
  554TMC3    H1 8224   2.071   2.475  12.140  1.8005 -2.1219  0.6312
  554TMC3    H2 8225   2.024   2.529  11.723  2.5058 -0.1264  0.6421
  554TMC3    C7 8226   2.134   2.633  11.960 -0.3326  0.0177 -0.5190
  554TMC3    C8 8227   1.887   2.319  11.676  0.0364  0.1016 -0.1794
  554TMC3    O1 8228   2.135   2.693  12.061  0.2309 -0.1376 -0.2528
  554TMC3    O2 8229   1.902   2.403  11.588  0.5920  0.0343 -0.1323
  555TMC3    C1 8230   1.173   1.501  15.221  0.3780 -0.1877 -0.3006
  555TMC3    C2 8231   1.214   1.510  15.346  0.0284 -1.1279  0.5122
  555TMC3    C3 8232   1.147   1.445  15.445  0.9250  0.4022  0.1776
  555TMC3    C4 8233   1.057   1.437  15.193  0.4679 -1.1505 -0.0128
  555TMC3    C5 8234   0.995   1.368  15.295 -0.1456 -0.1362 -0.1846
  555TMC3    C6 8235   1.030   1.379  15.421  0.1775 -0.1746  0.2023
  555TMC3     C 8236   1.238   1.580  15.118  0.2656 -0.0429  0.2490
  555TMC3     O 8237   1.354   1.608  15.138  0.9695  0.5912  0.1359
  555TMC3     H 8238   1.293   1.582  15.365 -0.7283 -0.1090 -0.2006
  555TMC3    H1 8239   1.029   1.427  15.089 -0.7425  2.2167 -0.0146
  555TMC3    H2 8240   0.978   1.319  15.495 -0.5323  0.3637  0.1392
  555TMC3    C7 8241   0.876   1.280  15.262  0.0668  0.0132 -0.0448
  555TMC3    C8 8242   1.189   1.436  15.581 -0.3816 -0.5850 -0.5491
  555TMC3    O1 8243   0.817   1.239  15.365  0.3147 -0.2121 -0.6631
  555TMC3    O2 8244   1.102   1.418  15.663 -0.5812  0.3544  0.4193
  556MPD2     C 8245   4.708   3.317  11.151  0.5716 -0.0277 -0.4433
  556MPD2    C1 8246   4.594   3.272  11.216  0.6911 -0.7751  0.6446
  556MPD2    C2 8247   4.515   3.174  11.153 -0.2393 -0.4083  0.1953
  556MPD2    C3 8248   4.544   3.129  11.031 -0.1405  0.7827 -0.0916
  556MPD2    C4 8249   4.650   3.187  10.959  0.5580 -0.0542 -0.0433
  556MPD2    C5 8250   0.012   3.274  11.029 -0.1414 -0.5759 -0.0469
  556MPD2     H 8251   4.429   3.134  11.205 -0.3339 -0.2880  0.1321
  556MPD2    H1 8252   4.673   3.164  10.856  1.1671 -0.4987  0.1929
  556MPD2    H2 8253   0.054   3.394  11.187 -1.0232  1.2624 -0.2372
  556MPD2    H3 8254   0.102   3.301  10.975 -1.1599 -0.2714 -1.5974
  556MPD2     N 8255   4.468   3.021  10.974  0.0498 -0.2853  0.2712
  556MPD2    H5 8256   4.384   2.986  11.019 -1.1957  0.2785 -1.6173
  556MPD2    N1 8257   4.548   3.332  11.334 -0.2699 -0.1855 -0.1790
  556MPD2    H7 8258   4.463   3.298  11.377 -0.5042  0.5286 -0.0837
  557TMC3    C1 8259   4.429   2.857  10.805  0.3930 -0.1349  0.1309
  557TMC3    C2 8260   4.495   2.753  10.749  0.1308 -0.2450 -0.0675
  557TMC3    C3 8261   4.423   2.690  10.645 -1.0026  0.2099  0.1666
  557TMC3    C4 8262   4.307   2.910  10.770 -0.3211  0.0962  0.5196
  557TMC3    C5 8263   4.240   2.835  10.674  0.1287 -0.3199  0.2928
  557TMC3    C6 8264   4.295   2.729  10.610 -0.2960  0.7935  0.3244
  557TMC3     C 8265   4.520   2.942  10.878  0.5498  0.3648 -0.2309
  557TMC3     O 8266   4.637   2.941  10.836 -0.3569 -1.0916 -0.2209
  557TMC3     H 8267   4.595   2.718  10.767  1.0700  1.6293 -1.6580
  557TMC3    H1 8268   4.259   2.998  10.811  1.4547  1.1882  0.2538
  557TMC3    H2 8269   4.253   2.694  10.517  1.5838 -1.8297  0.4694
  557TMC3    C7 8270   4.114   2.888  10.620  0.2322 -0.0116  0.1735
  557TMC3    C8 8271   4.499   2.589  10.569 -0.0520 -0.4120  0.1841
  557TMC3    O1 8272   4.079   2.999  10.656  0.3172 -0.6396 -0.3851
  557TMC3    O2 8273   4.623   2.603  10.558  0.2873  0.6185  0.8417
  558TMC3    C1 8274   1.504   1.128  10.231  0.2418  0.1279 -0.8125
  558TMC3    C2 8275   1.448   1.080  10.341  0.7534 -0.4179  0.5596
  558TMC3    C3 8276   1.381   0.965  10.324  0.1513 -0.1481  0.3097
  558TMC3    C4 8277   1.486   1.070  10.110 -0.8821  0.6769  0.4962
  558TMC3    C5 8278   1.404   0.965  10.089  0.2084  0.1157  0.7295
  558TMC3    C6 8279   1.359   0.899  10.200 -0.2053 -0.0876 -0.2634
  558TMC3     C 8280   1.604   1.236  10.241  0.0947  0.5270 -0.5914
  558TMC3     O 8281   1.698   1.236  10.163  0.2355 -0.4620  0.6735
  558TMC3     H 8282   1.449   1.125  10.440  1.7008 -0.7727  0.7039
  558TMC3    H1 8283   1.532   1.129  10.031 -1.1400 -0.7245 -0.6926
  558TMC3    H2 8284   1.294   0.813  10.192  0.2816 -0.4040 -0.8207
  558TMC3    C7 8285   1.360   0.923   9.957  0.0443 -0.3082 -0.6492
  558TMC3    C8 8286   1.347   0.881  10.435 -0.4382  0.3722  0.0893
  558TMC3    O1 8287   1.286   0.826   9.954 -0.1919  0.3886 -0.1877
  558TMC3    O2 8288   1.251   0.805  10.418  0.4567 -0.5434  0.3534
  559MPD2     C 8289   1.638   1.816  10.781 -0.1041  0.7164  0.2995
  559MPD2    C1 8290   1.600   1.799  10.916 -0.3729 -0.0476 -0.1513
  559MPD2    C2 8291   1.701   1.808  11.008 -0.5685 -0.4405 -0.0687
  559MPD2    C3 8292   1.836   1.830  10.968  0.2818  0.3915 -0.5567
  559MPD2    C4 8293   1.869   1.843  10.829 -0.1449  0.0383 -0.4686
  559MPD2    C5 8294   1.767   1.833  10.739 -0.5513 -0.6270  0.6161
  559MPD2     H 8295   1.676   1.802  11.114 -1.0961 -0.5359 -0.1983
  559MPD2    H1 8296   1.970   1.861  10.794 -0.2132 -0.1917 -0.7846
  559MPD2    H2 8297   1.564   1.821  10.702 -1.3524 -1.2038  1.3453
  559MPD2    H3 8298   1.791   1.848  10.635 -1.5367 -0.9790  0.3382
  559MPD2     N 8299   1.931   1.811  11.069 -0.0970 -0.4324  0.4135
  559MPD2    H5 8300   1.899   1.771  11.156  0.5450 -4.1095 -1.0600
  559MPD2    N1 8301   1.465   1.772  10.946 -0.3447 -0.1599  0.2810
  559MPD2    H7 8302   1.407   1.780  10.864 -1.1850 -2.5171  0.6389
  560TMC3    C1 8303   2.136   1.760  11.157  0.0958  0.8795  0.1393
  560TMC3    C2 8304   2.124   1.629  11.170  0.2065 -0.7314  0.1032
  560TMC3    C3 8305   2.211   1.554  11.247 -0.4705  0.1865  0.3555
  560TMC3    C4 8306   2.253   1.821  11.192  0.2638 -0.5396 -0.1863
  560TMC3    C5 8307   2.336   1.744  11.270 -0.3513  0.2877  0.6049
  560TMC3    C6 8308   2.315   1.619  11.308  0.3974 -0.0947  0.2924
  560TMC3     C 8309   2.065   1.824  11.052  0.8069 -0.4674 -0.5942
  560TMC3     O 8310   2.128   1.888  10.971  0.2852  0.5021  0.6678
  560TMC3     H 8311   2.041   1.587  11.115 -0.8388  0.9533  0.3830
  560TMC3    H1 8312   2.257   1.929  11.187 -1.1252 -0.5304 -0.8283
  560TMC3    H2 8313   2.381   1.569  11.378  1.5109  0.2020 -0.5503
  560TMC3    C7 8314   2.430   1.809  11.355 -0.3847  0.0546 -0.5774
  560TMC3    C8 8315   2.214   1.413  11.223  0.1113  0.0622  0.0868
  560TMC3    O1 8316   2.431   1.771  11.472  0.1311  0.4583 -0.6097
  560TMC3    O2 8317   2.115   1.366  11.169 -0.4719 -0.1171  0.2988
  561TMC3    C1 8318   4.313   0.864  11.246 -0.3238 -0.0268  0.6665
  561TMC3    C2 8319   4.283   0.816  11.375  0.3116  0.6328  0.2933
  561TMC3    C3 8320   4.260   0.907  11.471 -1.0065  0.3468  0.0962
  561TMC3    C4 8321   4.312   1.000  11.215  0.6416 -0.4174  0.1244
  561TMC3    C5 8322   4.294   1.086  11.319 -1.2759 -0.4018 -1.2277
  561TMC3    C6 8323   4.277   1.043  11.450 -0.0954 -0.7555 -0.1225
  561TMC3     C 8324   4.315   0.771  11.135 -0.4176 -0.1707  0.2307
  561TMC3     O 8325   4.261   0.663  11.155 -0.3826  0.0861 -0.2875
  561TMC3     H 8326   4.263   0.711  11.397  1.3101  0.1898 -0.9141
  561TMC3    H1 8327   4.302   1.036  11.114  1.0524  0.1979  0.3051
  561TMC3    H2 8328   4.262   1.111  11.532 -1.1693  0.0683 -1.0079
  561TMC3    C7 8329   4.290   1.227  11.304 -0.7350 -0.0314  0.0410
  561TMC3    C8 8330   4.282   0.871  11.608 -0.4129 -0.6142 -0.0769
  561TMC3    O1 8331   4.230   1.286  11.394 -0.1778 -0.0927  0.6106
  561TMC3    O2 8332   4.348   0.771  11.632  0.2189 -0.4991 -0.1451
  562TMC3    C1 8333   0.920   2.142  15.646 -0.0121 -0.3486 -0.3241
  562TMC3    C2 8334   0.821   2.234  15.641 -0.7099 -0.3490 -0.6453
  562TMC3    C3 8335   0.715   2.224  15.729  0.4080  0.0790 -0.1907
  562TMC3    C4 8336   0.923   2.036  15.732 -0.1872  0.5787  0.4491
  562TMC3    C5 8337   0.815   2.021  15.814  0.7976 -0.1309 -0.5377
  562TMC3    C6 8338   0.708   2.108  15.809 -0.2167  0.0051  0.1348
  562TMC3     C 8339   1.050   2.200  15.611  0.3343  0.2767 -1.0527
  562TMC3     O 8340   1.044   2.293  15.528  0.3702 -0.1127 -0.5851
  562TMC3     H 8341   0.824   2.320  15.576 -2.0550  1.1766  1.3049
  562TMC3    H1 8342   1.002   1.963  15.744 -0.1399  0.6579  0.6205
  562TMC3    H2 8343   0.618   2.092  15.867  0.8035  1.8582  2.2404
  562TMC3    C7 8344   0.818   1.935  15.930 -0.5191 -0.2906 -0.8214
  562TMC3    C8 8345   0.585   2.286  15.702 -0.9099  0.6993 -0.4160
  562TMC3    O1 8346   0.772   1.988  16.029  0.8078 -0.6867 -0.6391
  562TMC3    O2 8347   0.498   2.267  15.788  0.2095  0.5042 -0.4498
  563MPD2     C 8348   2.326   3.437  16.036 -0.4097 -0.4495 -0.8130
  563MPD2    C1 8349   2.372   3.411  16.166  0.2651  0.8117 -0.1962
  563MPD2    C2 8350   2.496   3.464  16.204 -0.4776 -0.4888  0.1042
  563MPD2    C3 8351   2.570   3.536  16.110  0.0918 -0.1644  0.1363
  563MPD2    C4 8352   2.521   3.578  15.982 -0.3987  0.6201 -0.1418
  563MPD2    C5 8353   2.396   3.525  15.956  0.5885 -0.2512  0.1374
  563MPD2     H 8354   2.545   3.438  16.297 -1.3990 -1.2400  0.3744
  563MPD2    H1 8355   2.583   3.603  15.897  0.8331  1.8390  1.1289
  563MPD2    H2 8356   2.237   3.392  15.993  0.1537 -0.2942 -2.1511
  563MPD2    H3 8357   2.356   3.529  15.855  0.8825 -3.5514 -0.1111
  563MPD2     N 8358   2.695   3.578  16.155  0.0918  0.5800 -0.0167
  563MPD2    H5 8359   2.721   3.533  16.243  0.2890  1.0937  0.1874
  563MPD2    N1 8360   2.311   3.323  16.255 -0.2954  0.2400  0.1266
  563MPD2    H7 8361   2.362   3.320  16.342 -1.9059  1.6109  1.1101
  564TMC3    C1 8362   2.185   3.149  16.362 -1.0563 -0.3924 -0.2746
  564TMC3    C2 8363   2.141   3.019  16.342  0.3786 -0.1387  0.1690
  564TMC3    C3 8364   2.170   2.923  16.432 -0.0529  0.7028 -0.6470
  564TMC3    C4 8365   2.260   3.176  16.478 -0.3546  0.2953 -0.4738
  564TMC3    C5 8366   2.292   3.077  16.566  0.7417  0.2956  0.1194
  564TMC3    C6 8367   2.245   2.955  16.545 -0.2683  0.4708 -0.3284
  564TMC3     C 8368   2.201   3.236  16.241  0.4188  0.0568 -0.1516
  564TMC3     O 8369   2.137   3.209  16.140 -0.0444 -0.1043 -0.6067
  564TMC3     H 8370   2.072   3.011  16.259  1.6087  0.2577 -0.8932
  564TMC3    H1 8371   2.287   3.279  16.497  3.0134 -0.2125 -2.4421
  564TMC3    H2 8372   2.240   2.886  16.628  1.7654 -0.7283 -1.1994
  564TMC3    C7 8373   2.436   3.071  16.601 -0.9496  0.1992 -0.2239
  564TMC3    C8 8374   2.130   2.786  16.420  0.0764  0.1304 -0.0475
  564TMC3    O1 8375   2.499   3.177  16.600  0.2667 -0.0287  0.3219
  564TMC3    O2 8376   2.074   2.734  16.515  0.0581 -0.1892 -0.1594
  565TMC3    C1 8377   3.975   4.501  10.493  0.7235  0.0786 -0.0173
  565TMC3    C2 8378   4.056   4.451  10.595 -0.0593  0.1300 -0.1771
  565TMC3    C3 8379   4.047   4.311  10.608 -0.3351  0.7872  0.4647
  565TMC3    C4 8380   3.915   4.423  10.399 -0.1411  0.4312  0.3959
  565TMC3    C5 8381   3.916   4.287  10.413  0.0377 -0.1959  0.2410
  565TMC3    C6 8382   3.993   4.229  10.511  0.5168  0.6133  0.3634
  565TMC3     C 8383   3.997   4.641  10.457 -0.7270  0.3814 -0.3888
  565TMC3     O 8384   3.963   4.672  10.346 -0.8902 -0.3046 -0.2729
  565TMC3     H 8385   4.086   4.508  10.681 -2.2734  2.1623 -0.7450
  565TMC3    H1 8386   3.854   4.463  10.319  0.7035  1.9679  0.5145
  565TMC3    H2 8387   3.991   4.122  10.526 -2.3808  0.5471 -0.3684
  565TMC3    C7 8388   3.856   4.211  10.311  0.2556  0.3711 -0.0558
  565TMC3    C8 8389   4.122   4.250  10.715  0.0989  0.1173 -0.1281
  565TMC3    O1 8390   3.747   4.253  10.277 -0.4968 -0.1873 -0.6175
  565TMC3    O2 8391   4.146   4.314  10.819 -0.3016  1.0886 -0.7291
  566MPD2     C 8392   4.545   1.945  14.136  0.2324 -0.8272 -0.3224
  566MPD2    C1 8393   4.665   1.880  14.114 -0.0244 -0.1708 -0.3625
  566MPD2    C2 8394   4.677   1.780  14.016 -0.3591 -0.3062  0.6026
  566MPD2    C3 8395   4.556   1.752  13.949 -0.6526  0.8346 -0.0916
  566MPD2    C4 8396   4.436   1.820  13.969  0.4239  0.5607 -0.3477
  566MPD2    C5 8397   4.432   1.923  14.065 -0.0978  0.5434 -0.0573
  566MPD2     H 8398   0.041   1.718  13.991 -0.5623 -0.6678  0.8107
  566MPD2    H1 8399   4.347   1.793  13.913 -0.5018  1.0468  0.8979
  566MPD2    H2 8400   4.543   2.028  14.206 -3.2875 -0.1656 -1.1741
  566MPD2    H3 8401   4.349   1.990  14.083 -1.9796 -1.3328 -1.6913
  566MPD2     N 8402   4.559   1.671  13.827 -0.5863  0.6006  0.1127
  566MPD2    H5 8403   4.472   1.656  13.777 -0.9063  2.4510  0.1230
  566MPD2    N1 8404   0.051   1.930  14.188  0.7275 -0.4121 -0.0114
  566MPD2    H7 8405   0.033   2.022  14.228 -3.0781 -1.9829  1.8183
  567TMC3    C1 8406   0.284   1.946  14.239 -0.3557  0.4625  0.4030
  567TMC3    C2 8407   0.294   2.065  14.172 -0.3125 -0.5732 -0.4288
  567TMC3    C3 8408   0.425   2.100  14.148 -0.3154  0.0143  0.1302
  567TMC3    C4 8409   0.392   1.866  14.276 -0.3425 -0.6123  0.2146
  567TMC3    C5 8410   0.516   1.912  14.248  0.6873 -1.2290  0.2511
  567TMC3    C6 8411   0.534   2.031  14.193  0.0715 -0.1324  0.6642
  567TMC3     C 8412   0.171   1.866  14.205 -0.1807  0.1384 -0.9636
  567TMC3     O 8413   0.184   1.745  14.211  0.1877 -0.0592  0.4239
  567TMC3     H 8414   0.216   2.117  14.118 -0.3312  0.0532  0.1895
  567TMC3    H1 8415   0.375   1.775  14.333 -0.7318 -1.3306 -1.0546
  567TMC3    H2 8416   0.637   2.058  14.169  0.0153 -0.7209 -0.2485
  567TMC3    C7 8417   0.635   1.852  14.306  0.3551 -0.4724 -0.0603
  567TMC3    C8 8418   0.449   2.202  14.048  0.4091 -0.1140  0.5187
  567TMC3    O1 8419   0.730   1.834  14.234  0.3282 -0.7325 -0.2824
  567TMC3    O2 8420   0.355   2.217  13.971 -0.0149  0.4467  0.4567
  568MPD2     C 8421   3.110   2.131  16.883 -0.9870  0.7777 -0.0053
  568MPD2    C1 8422   3.027   2.124  16.988 -0.4010 -0.4482 -0.0990
  568MPD2    C2 8423   2.892   2.127  16.976  0.5227 -0.2674  0.9469
  568MPD2    C3 8424   2.837   2.124  16.847 -0.5781  1.1085  0.2180
  568MPD2    C4 8425   2.921   2.130  16.741  0.4821  0.5785 -0.1697
  568MPD2    C5 8426   3.060   2.128  16.760  0.3719  0.4650  0.0115
  568MPD2     H 8427   2.826   2.137  17.061  0.9953  0.6641  1.2027
  568MPD2    H1 8428   2.892   2.117  16.638 -2.1056  1.4232  0.4519
  568MPD2    H2 8429   3.217   2.144  16.895 -0.9932  0.2675  0.5986
  568MPD2    H3 8430   3.129   2.129  16.675 -0.3038 -0.7867 -0.5558
  568MPD2     N 8431   2.690   2.117  16.846 -0.1814  0.2753  0.1187
  568MPD2    H5 8432   2.637   2.112  16.932 -0.1574 -2.1712  0.0148
  568MPD2    N1 8433   3.098   2.113  17.114 -0.3798 -0.5318  0.3275
  568MPD2    H7 8434   3.199   2.118  17.116 -0.3669 -0.5450 -0.2828
  569TMC3    C1 8435   2.473   2.138  16.750  0.4775  0.1970  0.4469
  569TMC3    C2 8436   2.428   2.238  16.837 -0.6721  0.7518 -0.7655
  569TMC3    C3 8437   2.298   2.277  16.794  0.3258 -0.6167  0.0576
  569TMC3    C4 8438   2.397   2.073  16.655  0.3786 -0.7628 -0.2754
  569TMC3    C5 8439   2.272   2.116  16.623 -0.2139  0.2156 -0.5326
  569TMC3    C6 8440   2.218   2.210  16.708 -0.2164  0.7574 -0.8397
  569TMC3     C 8441   2.620   2.123  16.731  0.7537  0.3305 -0.6653
  569TMC3     O 8442   2.662   2.108  16.620  0.1043 -0.1385 -0.1563
  569TMC3     H 8443   2.490   2.290  16.910 -1.5916 -0.3295  0.7671
  569TMC3    H1 8444   2.439   1.994  16.593 -1.5237 -1.1452 -1.0830
  569TMC3    H2 8445   2.115   2.242  16.695 -0.8840 -1.4337 -0.9255
  569TMC3    C7 8446   2.263   2.153  16.481  0.4816 -0.4569 -0.4134
  569TMC3    C8 8447   2.257   2.416  16.819  0.9888  0.3721  0.4669
  569TMC3    O1 8448   2.347   2.108  16.401 -0.1472 -0.3254  0.2644
  569TMC3    O2 8449   2.153   2.451  16.762  0.1751  0.1184 -0.4808
  570TMC3    C1 8450   2.165   1.169  16.463  0.1187  0.0639 -0.5274
  570TMC3    C2 8451   2.251   1.179  16.353 -0.3739  0.4763  0.0137
  570TMC3    C3 8452   2.295   1.307  16.321  0.3489  1.0787  0.0104
  570TMC3    C4 8453   2.124   1.282  16.536 -0.4494 -0.5363 -0.2244
  570TMC3    C5 8454   2.168   1.402  16.493 -0.6977  0.1611  0.1247
  570TMC3    C6 8455   2.266   1.418  16.396  0.0959 -0.6152 -0.0295
  570TMC3     C 8456   2.131   1.043  16.518 -0.0971  0.8500 -0.8241
  570TMC3     O 8457   2.147   0.948  16.442 -0.2463  0.2218 -0.1845
  570TMC3     H 8458   2.280   1.091  16.297  0.8919  0.9228 -0.0335
  570TMC3    H1 8459   2.050   1.265  16.613 -0.2019  1.2273  0.4095
  570TMC3    H2 8460   2.283   1.522  16.368 -0.4073 -0.2620  1.0027
  570TMC3    C7 8461   2.132   1.519  16.570 -0.1682  0.0712  0.3263
  570TMC3    C8 8462   2.390   1.329  16.216  0.0965 -0.7936  0.3316
  570TMC3    O1 8463   2.201   1.618  16.573 -0.2145 -0.0089 -0.2284
  570TMC3    O2 8464   2.452   1.430  16.227  0.2083 -0.8300 -0.1565
  571MPD2     C 8465   0.657   2.544   0.601 -0.3670 -0.1163  0.0916
  571MPD2    C1 8466   0.553   2.568   0.511 -0.0020  0.2715  0.2081
  571MPD2    C2 8467   0.447   2.646   0.551 -0.6412 -0.1082  0.1901
  571MPD2    C3 8468   0.445   2.710   0.671 -0.5236 -0.4486  0.5992
  571MPD2    C4 8469   0.548   2.687   0.761  0.1092  0.2283 -0.2327
  571MPD2    C5 8470   0.651   2.598   0.725 -0.0273  0.4866 -0.2231
  571MPD2     H 8471   0.371   2.668   0.477 -0.5673 -1.9617 -0.4386
  571MPD2    H1 8472   0.550   2.741   0.855 -1.3387  1.2022 -0.7475
  571MPD2    H2 8473   0.748   2.487   0.585 -1.2494 -2.1299  2.2769
  571MPD2    H3 8474   0.731   2.596   0.799  0.2400  1.4324 -0.4833
  571MPD2     N 8475   0.343   2.791   0.728  0.6516 -0.2707  0.2044
  571MPD2    H5 8476   0.344   2.823   0.824 -1.5862 -0.6519  0.3354
  571MPD2    N1 8477   0.570   2.523   0.386 -0.7085  0.3186 -0.2836
  571MPD2    H7 8478   0.654   2.476   0.352 -1.6484 -1.2622 -0.4314
  572TMC3    C1 8479   0.129   2.888   0.722  0.3462  0.9315  0.0567
  572TMC3    C2 8480   0.103   2.822   0.836 -0.6229  0.2612 -0.0100
  572TMC3    C3 8481   4.707   2.857   0.900  0.1101  0.3518  0.6988
  572TMC3    C4 8482   0.049   2.989   0.675 -0.6776 -0.4924  0.3117
  572TMC3    C5 8483   4.653   3.020   0.741 -0.5977  0.3579  0.7971
  572TMC3    C6 8484   4.625   2.965   0.864  0.0004 -0.5085  0.3961
  572TMC3     C 8485   0.248   2.846   0.648  0.1244 -0.4821 -0.1044
  572TMC3     O 8486   0.251   2.863   0.528  0.3386  0.3781 -0.2582
  572TMC3     H 8487   0.157   2.729   0.851  1.7079  1.5129 -0.5998
  572TMC3    H1 8488   0.075   3.027   0.577  1.5478 -0.4550  0.9084
  572TMC3    H2 8489   4.546   3.006   0.926 -0.5946 -0.4763 -0.3817
  572TMC3    C7 8490   4.569   3.125   0.690  0.6182  0.0157  0.6336
  572TMC3    C8 8491   4.668   2.794   1.029 -0.1315 -0.1654 -0.1060
  572TMC3    O1 8492   4.491   3.178   0.768  0.6434 -0.3833  0.0917
  572TMC3    O2 8493   4.563   2.824   1.078  0.0967  0.1071 -0.0564
  573MPD2     C 8494   0.802   3.931   1.154 -0.4984 -0.4681  0.3801
  573MPD2    C1 8495   0.915   3.858   1.144 -0.9787  0.1312 -1.0461
  573MPD2    C2 8496   0.921   3.744   1.062  0.2164 -0.1818 -0.3022
  573MPD2    C3 8497   0.802   3.698   1.004 -0.3037  0.4545  0.2664
  573MPD2    C4 8498   0.685   3.763   1.029  0.3591  0.6423 -0.1356
  573MPD2    C5 8499   0.686   3.881   1.099 -0.4806  0.9155  0.8705
  573MPD2     H 8500   1.014   3.688   1.049 -0.1855 -0.9781  0.2622
  573MPD2    H1 8501   0.588   3.739   0.987 -0.5310 -1.4035  3.1375
  573MPD2    H2 8502   0.801   4.022   1.212  0.6241  0.5992 -1.2558
  573MPD2    H3 8503   0.589   3.929   1.110  0.0188  1.2635  3.6359
  573MPD2     N 8504   0.794   3.588   0.917  0.5858 -0.1193 -0.1710
  573MPD2    H5 8505   0.709   3.568   0.866 -0.2424  0.3635  1.0084
  573MPD2    N1 8506   1.031   3.919   1.194 -0.5024 -0.4862 -0.6033
  573MPD2    H7 8507   1.015   4.009   1.239  1.6155 -0.6202  0.4229
  574TMC3    C1 8508   0.866   3.429   0.758 -0.5242 -0.0449 -0.3663
  574TMC3    C2 8509   0.739   3.393   0.749 -0.0093 -0.3107 -0.4904
  574TMC3    C3 8510   0.704   3.327   0.635 -0.3084  0.2835  0.1028
  574TMC3    C4 8511   0.955   3.398   0.665 -0.0133 -0.2733 -0.6611
  574TMC3    C5 8512   0.916   3.327   0.547  0.3129  0.2357  0.6924
  574TMC3    C6 8513   0.784   3.300   0.531 -0.8424  0.1683 -0.3700
  574TMC3     C 8514   0.901   3.509   0.871  0.0322  0.9711 -0.5685
  574TMC3     O 8515   1.021   3.518   0.901  0.5039 -0.0478  0.1872
  574TMC3     H 8516   0.678   3.410   0.837  2.0059 -1.4108  1.1104
  574TMC3    H1 8517   1.059   3.419   0.685  0.5139 -2.6156 -0.9051
  574TMC3    H2 8518   0.743   3.243   0.448 -0.1076 -2.4193  1.0508
  574TMC3    C7 8519   0.984   3.338   0.422  0.4461  0.0416  0.0979
  574TMC3    C8 8520   0.564   3.314   0.614  0.6857  0.0641 -0.7621
  574TMC3    O1 8521   0.945   3.264   0.336 -0.0503 -0.5105 -0.1701
  574TMC3    O2 8522   0.487   3.340   0.712  0.2236  0.3145 -0.1132
  575TMC3    C1 8523   4.148   4.015  11.543 -0.9611 -0.0715 -0.0251
  575TMC3    C2 8524   4.137   3.883  11.572  0.3820  0.2469  0.1085
  575TMC3    C3 8525   4.144   3.795  11.469 -0.1092 -0.4971  0.0164
  575TMC3    C4 8526   4.172   4.057  11.418 -0.2757  0.0610  0.4943
  575TMC3    C5 8527   4.197   3.965  11.322  0.2191 -0.5631  0.2244
  575TMC3    C6 8528   4.195   3.828  11.345 -0.2055  0.4366 -0.1555
  575TMC3     C 8529   4.087   4.101  11.642  0.2181 -0.2599 -0.5992
  575TMC3     O 8530   4.028   4.056  11.739  0.2666 -0.3294 -0.4247
  575TMC3     H 8531   4.118   3.853  11.675 -1.6571 -0.5021 -0.4792
  575TMC3    H1 8532   4.162   4.160  11.384  0.7146  0.0996  0.3220
  575TMC3    H2 8533   4.213   3.765  11.259  0.7053  0.0030  0.3491
  575TMC3    C7 8534   4.209   4.021  11.187  0.0788 -0.0134 -0.3080
  575TMC3    C8 8535   4.122   3.653  11.495 -0.2158  0.1081 -0.1907
  575TMC3    O1 8536   4.128   4.111  11.173  0.0395  0.2472  0.2275
  575TMC3    O2 8537   4.094   3.620  11.611 -0.3810  0.1263  0.1958
  576MPD2     C 8538   3.411   1.188  12.599 -0.0416  0.8271 -0.1439
  576MPD2    C1 8539   3.467   1.310  12.585  0.7083 -0.0766 -0.3945
  576MPD2    C2 8540   3.410   1.411  12.657  0.1321  0.1610 -0.1098
  576MPD2    C3 8541   3.293   1.395  12.736  0.3533  0.3829  0.0977
  576MPD2    C4 8542   3.251   1.266  12.754 -0.0458 -0.1242  0.3286
  576MPD2    C5 8543   3.315   1.168  12.691 -0.1304 -0.0123 -0.3771
  576MPD2     H 8544   3.461   1.507  12.650  0.2378  0.1415  0.3751
  576MPD2    H1 8545   3.169   1.234  12.818  0.1492  0.3133  0.7983
  576MPD2    H2 8546   3.439   1.104  12.538  0.1755 -1.5871  3.2860
  576MPD2    H3 8547   3.256   1.077  12.688 -0.9379  0.5022  0.0204
  576MPD2     N 8548   3.231   1.511  12.798 -0.4782 -0.8587 -0.1119
  576MPD2    H5 8549   3.273   1.597  12.767  0.6742 -0.5640  2.2784
  576MPD2    N1 8550   3.584   1.338  12.508 -0.1237  0.5910  0.1168
  576MPD2    H7 8551   3.616   1.434  12.510 -0.8224  0.8307  0.0897
  577TMC3    C1 8552   3.783   1.280  12.383  0.1764 -0.5024 -0.0429
  577TMC3    C2 8553   3.891   1.191  12.388  0.0874 -0.4271 -0.7893
  577TMC3    C3 8554   4.003   1.223  12.315  0.4190 -0.0446 -0.4959
  577TMC3    C4 8555   3.783   1.391  12.314  0.3648 -0.3398  0.9534
  577TMC3    C5 8556   3.899   1.411  12.233 -0.1001  0.0675 -0.5193
  577TMC3    C6 8557   4.009   1.334  12.237 -0.4172  0.3032  0.5512
  577TMC3     C 8558   3.661   1.241  12.460 -0.0273  0.2869 -0.0318
  577TMC3     O 8559   3.669   1.123  12.499 -0.0553 -0.0044  0.5459
  577TMC3     H 8560   3.887   1.105  12.454 -0.5510 -0.3559 -0.7377
  577TMC3    H1 8561   3.695   1.451  12.295  0.6717  0.2557  1.4224
  577TMC3    H2 8562   4.102   1.359  12.188 -1.2975 -1.9553 -2.2771
  577TMC3    C7 8563   3.893   1.523  12.145 -0.4084 -0.0267  0.6309
  577TMC3    C8 8564   4.067   1.105  12.268  0.4098 -0.2659  0.1841
  577TMC3    O1 8565   3.981   1.605  12.161 -0.2480  0.6488  0.1343
  577TMC3    O2 8566   4.070   1.007  12.339 -0.0866 -0.7382  0.5082
  578MPD2     C 8567   2.055   1.551   1.416  0.5030  0.1397 -0.8493
  578MPD2    C1 8568   2.026   1.449   1.325  0.3566 -0.2205  0.7064
  578MPD2    C2 8569   2.029   1.321   1.373  0.5395  0.0288  0.5424
  578MPD2    C3 8570   2.078   1.286   1.500 -0.5325  0.3187  0.3666
  578MPD2    C4 8571   2.111   1.392   1.579  0.4014  0.4436 -0.0038
  578MPD2    C5 8572   2.095   1.520   1.540 -0.5400  0.8606 -0.0689
  578MPD2     H 8573   1.987   1.244   1.308 -1.3167  2.1503 -0.7640
  578MPD2    H1 8574   2.146   1.372   1.680  0.5405 -0.1819 -0.1758
  578MPD2    H2 8575   2.038   1.654   1.388 -0.5178  0.0881 -0.3948
  578MPD2    H3 8576   2.127   1.588   1.619 -0.1127  0.3604  0.1873
  578MPD2     N 8577   2.081   1.150   1.531  0.4411 -0.5426  0.0543
  578MPD2    H5 8578   2.038   1.078   1.473 -0.0316 -0.2053 -0.0117
  578MPD2    N1 8579   1.996   1.486   1.188 -0.1461 -0.1526  0.5584
  578MPD2    H7 8580   1.988   1.584   1.164  1.4910  0.1699  1.3378
  579TMC3    C1 8581   2.138   0.963   1.674  0.1562  0.1856  0.5672
  579TMC3    C2 8582   2.238   0.920   1.760  0.2983 -0.5705 -0.4624
  579TMC3    C3 8583   2.259   0.781   1.769 -0.2494 -0.6600 -0.6102
  579TMC3    C4 8584   2.085   0.873   1.585 -0.4172  0.6480 -0.6333
  579TMC3    C5 8585   2.109   0.741   1.597  0.3971 -0.4434  0.1224
  579TMC3    C6 8586   2.183   0.690   1.699  0.6734  0.3314 -0.0825
  579TMC3     C 8587   2.153   1.103   1.649  0.2534  0.2766 -0.0816
  579TMC3     O 8588   2.218   1.164   1.731  0.2412 -0.0289  0.1681
  579TMC3     H 8589   2.281   0.987   1.834 -2.5592  0.5921  0.1338
  579TMC3    H1 8590   2.027   0.914   1.503 -1.2538  0.6600 -0.0328
  579TMC3    H2 8591   2.188   0.586   1.727  2.2311 -0.3161 -2.8005
  579TMC3    C7 8592   2.061   0.645   1.492  0.5051 -0.3817  0.5709
  579TMC3    C8 8593   2.374   0.728   1.835 -0.2871 -0.7870  1.2839
  579TMC3    O1 8594   2.114   0.536   1.488  0.1810 -0.2006  0.3137
  579TMC3    O2 8595   2.380   0.606   1.849  0.2539 -0.3687  0.3372
  580TMC3    C1 8596   1.421   0.746  12.016 -0.6123  0.3200 -0.5718
  580TMC3    C2 8597   1.503   0.853  12.028 -0.1116 -0.4534 -0.4358
  580TMC3    C3 8598   1.605   0.832  12.109  0.2887  0.1582 -0.2492
  580TMC3    C4 8599   1.452   0.625  12.084 -0.0477  0.0157 -0.2300
  580TMC3    C5 8600   1.557   0.617  12.179 -0.6770 -0.4193  0.6003
  580TMC3    C6 8601   1.631   0.727  12.193  0.3747 -0.7264  0.6770
  580TMC3     C 8602   1.341   0.737  11.901  0.3250  0.3044 -0.0286
  580TMC3     O 8603   1.294   0.628  11.880 -0.1398  0.0442  0.3791
  580TMC3     H 8604   1.505   0.937  11.960  3.0807 -1.1130 -1.1706
  580TMC3    H1 8605   1.397   0.535  12.061 -2.1325  1.1375  0.3508
  580TMC3    H2 8606   1.725   0.716  12.246  0.9496 -1.7789 -0.5454
  580TMC3    C7 8607   1.602   0.487  12.234 -0.7112 -0.0045 -0.1240
  580TMC3    C8 8608   1.715   0.924  12.098  0.0733  0.5128 -0.3467
  580TMC3    O1 8609   1.701   0.493  12.306 -0.4155 -0.1711  0.2719
  580TMC3    O2 8610   1.693   1.044  12.099  0.1803  0.1144 -0.0637
  581MPD2     C 8611   3.920   0.446  15.467  0.5956  0.5869 -0.0817
  581MPD2    C1 8612   3.823   0.370  15.418  0.5466 -0.6191 -0.3097
  581MPD2    C2 8613   3.719   0.430  15.343  0.4387 -0.0867 -0.5557
  581MPD2    C3 8614   3.718   0.564  15.315 -0.1368  0.2898 -0.7472
  581MPD2    C4 8615   3.829   0.636  15.358  0.6118  0.4230  0.6000
  581MPD2    C5 8616   3.928   0.582  15.446 -0.0074  0.6787 -0.6859
  581MPD2     H 8617   3.637   0.370  15.303  0.4802  0.3183 -1.2378
  581MPD2    H1 8618   3.836   0.741  15.332 -4.7762  0.4076 -0.8458
  581MPD2    H2 8619   3.999   0.398  15.523  0.8007  1.6293  0.5447
  581MPD2    H3 8620   4.011   0.644  15.477 -0.8204  1.4253  0.0116
  581MPD2     N 8621   3.616   0.620  15.235 -0.5825 -0.1077 -0.1979
  581MPD2    H5 8622   3.541   0.557  15.207 -0.6715  0.8303 -2.0773
  581MPD2    N1 8623   3.841   0.228  15.430 -0.0940 -0.2432 -0.4406
  581MPD2    H7 8624   3.930   0.191  15.461 -0.4273  0.3875  1.2418
  582TMC3    C1 8625   3.796   0.005  15.417  0.0223 -0.4286  0.1612
  582TMC3    C2 8626   3.871   4.701  15.533  0.4762  0.6242 -0.9522
  582TMC3    C3 8627   3.877   4.566  15.565 -0.2576  0.0027 -0.4652
  582TMC3    C4 8628   3.714   4.624  15.363  0.3277  0.5822 -0.1047
  582TMC3    C5 8629   3.727   4.501  15.406  0.7220  0.1850  0.1674
  582TMC3    C6 8630   3.834   4.464  15.483  0.4247 -0.2976 -0.0756
  582TMC3     C 8631   3.746   0.138  15.391 -0.2034 -0.6809  0.2952
  582TMC3     O 8632   3.629   0.165  15.369 -0.0142  0.2137 -0.2989
  582TMC3     H 8633   3.908   0.064  15.589 -0.2083 -0.4521  1.1144
  582TMC3    H1 8634   3.651   4.665  15.285 -1.0050 -1.5769 -0.1514
  582TMC3    H2 8635   3.847   4.365  15.523 -1.7362  0.0904  1.6104
  582TMC3    C7 8636   3.611   4.454  15.474 -0.2277 -0.3245 -0.7443
  582TMC3    C8 8637   3.934   4.531  15.697 -1.1152  0.7479 -0.0589
  582TMC3    O1 8638   3.616   4.358  15.548  0.3547  0.1276  0.4324
  582TMC3    O2 8639   3.986   4.421  15.714  0.2941  0.1364  0.1366
  583MPD2     C 8640   4.163   1.441  16.832 -0.4041 -0.1826  0.5051
  583MPD2    C1 8641   4.123   1.573  16.814 -0.8370  0.6693  0.1178
  583MPD2    C2 8642   4.062   1.643  16.914 -0.3188  0.3154 -0.3928
  583MPD2    C3 8643   4.047   1.583  17.039  0.1674  0.2105 -0.2292
  583MPD2    C4 8644   4.108   1.458  17.062  0.5504 -0.1598 -0.0710
  583MPD2    C5 8645   4.149   1.380  16.958  0.2583 -0.1542 -0.0293
  583MPD2     H 8646   4.027   1.745  16.901  0.1318  0.4668 -0.4402
  583MPD2    H1 8647   4.120   1.411  17.159 -1.3084  1.2327  0.8342
  583MPD2    H2 8648   4.182   1.377  16.747 -1.4589 -0.9734  0.8527
  583MPD2    H3 8649   4.181   1.277  16.966 -0.9012 -0.6661 -1.9701
  583MPD2     N 8650   3.977   1.651  17.139 -0.6308 -1.0151 -0.2969
  583MPD2    H5 8651   3.924   1.731  17.106 -0.5237 -0.6159  0.4810
  583MPD2    N1 8652   4.117   1.639  16.686  0.1783 -0.7309  0.0367
  583MPD2    H7 8653   4.087   1.735  16.678  1.3504 -0.1914  2.3009
  584TMC3    C1 8654   3.883   1.706  17.354  0.1785  0.4389  0.4422
  584TMC3    C2 8655   3.875   1.839  17.330  0.2719  0.0566 -0.9883
  584TMC3    C3 8656   3.809   1.921  17.406 -0.0219  0.4838  0.6926
  584TMC3    C4 8657   3.824   1.659  17.468 -0.0970  0.9263  0.8052
  584TMC3    C5 8658   3.746   1.743  17.542 -0.4818 -0.0450  0.5039
  584TMC3    C6 8659   3.735   1.879  17.507  0.5128 -0.0277 -0.0380
  584TMC3     C 8660   3.961   1.609  17.269 -0.1906 -0.2195  0.0621
  584TMC3     O 8661   4.000   1.502  17.315 -0.0059 -0.1612  0.1358
  584TMC3     H 8662   3.938   1.884  17.254  0.8238 -1.2681 -1.3177
  584TMC3    H1 8663   3.832   1.552  17.485 -1.3120  0.8776  1.0954
  584TMC3    H2 8664   3.669   1.946  17.561  0.2732  0.1002 -0.4885
  584TMC3    C7 8665   3.748   1.728  17.686  0.2964 -1.0626  0.9170
  584TMC3    C8 8666   3.820   2.060  17.385  0.1423 -0.3755  0.5737
  584TMC3    O1 8667   3.775   1.832   0.062  0.4295  0.0552  0.3685
  584TMC3    O2 8668   3.840   2.099  17.270  0.4657 -0.5734  0.1633
  585MPD2     C 8669   3.308   0.636   1.142  0.4087 -0.4154  0.5204
  585MPD2    C1 8670   3.414   0.680   1.070  0.3835  0.3704 -0.1530
  585MPD2    C2 8671   3.418   0.679   0.931 -0.1148 -0.2668 -0.5453
  585MPD2    C3 8672   3.312   0.633   0.866 -0.2664 -0.5332 -0.2136
  585MPD2    C4 8673   3.198   0.606   0.933 -0.1727 -0.0868 -0.3510
  585MPD2    C5 8674   3.188   0.617   1.068 -0.3289 -0.0598 -0.2519
  585MPD2     H 8675   3.502   0.723   0.878  0.3462 -1.6204 -0.9425
  585MPD2    H1 8676   3.108   0.576   0.881  0.2742  0.4570 -1.4290
  585MPD2    H2 8677   3.296   0.654   1.248 -2.5045 -1.3450  0.3564
  585MPD2    H3 8678   3.092   0.596   1.114  0.2568 -2.6108 -0.1800
  585MPD2     N 8679   3.308   0.619   0.729 -0.3039  0.1053  0.0005
  585MPD2    H5 8680   3.212   0.605   0.700  0.1250 -0.2224 -1.2690
  585MPD2    N1 8681   3.528   0.724   1.137 -0.0205  0.3268  0.2506
  585MPD2    H7 8682   3.588   0.768   1.068  0.4378 -0.2593  0.2779
  586TMC3    C1 8683   3.387   0.658   0.512 -0.5651 -1.1435  0.3331
  586TMC3    C2 8684   3.487   0.629   0.422  0.1204  0.7410 -0.3795
  586TMC3    C3 8685   3.457   0.640   0.290 -0.6025  0.2295  0.7723
  586TMC3    C4 8686   3.270   0.712   0.480 -0.1588  0.2361  0.0030
  586TMC3    C5 8687   3.249   0.737   0.355 -0.1688 -0.6362 -0.1265
  586TMC3    C6 8688   3.333   0.694   0.260 -0.4470 -0.3271 -0.1126
  586TMC3     C 8689   3.420   0.623   0.644 -0.3207  0.1132  0.3168
  586TMC3     O 8690   3.540   0.616   0.672 -0.2999  0.1757 -0.2934
  586TMC3     H 8691   3.584   0.591   0.453 -0.0607  0.0364 -0.6808
  586TMC3    H1 8692   3.195   0.738   0.554 -0.9032  0.7470 -0.9451
  586TMC3    H2 8693   3.313   0.717   0.156 -0.1563  2.0312  0.3644
  586TMC3    C7 8694   3.125   0.798   0.317 -1.3404 -0.4920 -0.1970
  586TMC3    C8 8695   3.505   0.531   0.200  0.0466  0.1714 -0.2716
  586TMC3    O1 8696   3.034   0.774   0.391 -0.0179  0.1134 -0.2282
  586TMC3    O2 8697   3.559   0.431   0.246  0.6284 -0.1359  0.6109
  587TMC3    C1 8698   0.749   4.052  16.363 -0.1370 -0.2991 -0.0313
  587TMC3    C2 8699   0.724   4.169  16.295 -0.4328 -0.0778 -0.1202
  587TMC3    C3 8700   0.810   4.206  16.195 -0.1148 -0.6620  0.3790
  587TMC3    C4 8701   0.853   3.979  16.321  0.7085 -0.5075  0.3469
  587TMC3    C5 8702   0.944   4.018  16.226  0.5651  0.0676 -0.2371
  587TMC3    C6 8703   0.918   4.138  16.156  0.5296 -1.6027 -0.6779
  587TMC3     C 8704   0.640   3.975  16.413 -0.6518  0.1888 -0.0146
  587TMC3     O 8705   0.644   3.853  16.424  0.3616  0.3151 -0.4905
  587TMC3     H 8706   0.629   4.221  16.294  0.4343  1.4978  0.2717
  587TMC3    H1 8707   0.883   3.894  16.381 -2.0328 -1.2658  0.6005
  587TMC3    H2 8708   0.987   4.168  16.078  0.9428 -0.5330  0.1066
  587TMC3    C7 8709   1.047   3.917  16.201 -0.5789 -0.0003  0.1566
  587TMC3    C8 8710   0.802   4.341  16.133  0.2853  0.3320 -0.1266
  587TMC3    O1 8711   1.042   3.809  16.262  0.0054  0.1330  0.5146
  587TMC3    O2 8712   0.849   4.352  16.021  0.6983 -0.2266  0.1579
  588TMC3    C1 8713   3.320   2.161   9.844  0.0585 -0.2197  0.3250
  588TMC3    C2 8714   3.291   2.036   9.877 -0.9155 -0.2268 -0.1790
  588TMC3    C3 8715   3.394   1.964   9.925 -0.4808  0.7620 -0.4943
  588TMC3    C4 8716   3.444   2.206   9.839 -0.4287  0.4843  0.6103
  588TMC3    C5 8717   3.550   2.140   9.889  0.3009  0.0208  0.5978
  588TMC3    C6 8718   3.524   2.016   9.944  0.1866  0.1488 -0.2151
  588TMC3     C 8719   3.215   2.257   9.816  0.0578  0.3729 -0.5900
  588TMC3     O 8720   3.109   2.211   9.772  0.0838 -0.1948  0.4732
  588TMC3     H 8721   3.194   1.997   9.850  0.4463 -3.7385 -0.0481
  588TMC3    H1 8722   3.454   2.301   9.788 -2.7034  2.0146  2.9832
  588TMC3    H2 8723   3.599   1.964  10.003 -1.0084 -2.0032 -0.6102
  588TMC3    C7 8724   3.676   2.206   9.904  0.4795 -0.0022 -0.2001
  588TMC3    C8 8725   3.355   1.825   9.950 -0.3848 -0.1013  0.1077
  588TMC3    O1 8726   3.777   2.142   9.901 -0.5697 -0.0730 -0.2990
  588TMC3    O2 8727   3.247   1.802   9.899  0.9952  0.1061 -0.3732
  589TMC3    C1 8728   1.811   4.541   1.639 -0.1641 -0.5429 -0.1137
  589TMC3    C2 8729   1.821   4.463   1.750 -0.1434 -0.6603 -0.5976
  589TMC3    C3 8730   1.869   4.335   1.736  0.2025  0.4150 -0.9374
  589TMC3    C4 8731   1.847   4.491   1.514 -0.6503  0.6381 -0.7062
  589TMC3    C5 8732   1.897   4.361   1.502  0.7680  0.0964  0.0588
  589TMC3    C6 8733   1.906   4.286   1.617  0.3433  0.0742  0.0979
  589TMC3     C 8734   1.769   4.679   1.659 -0.6478  0.0917 -0.0491
  589TMC3     O 8735   1.732   0.020   1.558 -0.1541 -0.1737  0.5122
  589TMC3     H 8736   1.788   4.494   1.848  1.4945 -2.1559  0.4350
  589TMC3    H1 8737   1.857   4.567   1.437  0.1969 -0.1090 -1.3431
  589TMC3    H2 8738   1.928   4.180   1.606  1.6232  0.3451  0.0254
  589TMC3    C7 8739   1.927   4.288   1.374 -0.6671 -0.0831  0.2315
  589TMC3    C8 8740   1.939   4.281   1.855 -0.4070  0.3276  0.4949
  589TMC3    O1 8741   1.969   4.174   1.386 -0.2932 -0.2205 -0.1444
  589TMC3    O2 8742   1.912   4.320   1.968 -0.5399  0.3283 -0.1896
  590MPD2     C 8743   1.119   2.530  16.734 -0.2341 -0.4017  0.0159
  590MPD2    C1 8744   1.115   2.651  16.669 -0.3432 -0.4140 -0.1257
  590MPD2    C2 8745   1.217   2.689  16.578 -0.0123  1.1616  0.4560
  590MPD2    C3 8746   1.323   2.602  16.570 -0.3329  0.0464  1.1305
  590MPD2    C4 8747   1.328   2.475  16.635  0.0537 -0.6230  0.5535
  590MPD2    C5 8748   1.226   2.446  16.720  0.3775 -0.3246 -0.4168
  590MPD2     H 8749   1.227   2.780  16.519 -1.0959  1.7572  1.1843
  590MPD2    H1 8750   1.410   2.404  16.624  1.7638  1.5202 -0.6504
  590MPD2    H2 8751   1.041   2.495  16.801  0.6883 -1.0420  0.7465
  590MPD2    H3 8752   1.237   2.350  16.768 -1.5144 -0.6375 -0.5931
  590MPD2     N 8753   1.428   2.646  16.482  0.1486 -0.2015  0.1603
  590MPD2    H5 8754   1.435   2.736  16.436 -0.3957 -0.2530 -0.0291
  590MPD2    N1 8755   1.000   2.739  16.669 -0.1694  0.6168  0.4693
  590MPD2    H7 8756   0.985   2.805  16.593  0.2083  0.1218 -0.0339
  591TMC3    C1 8757   1.627   2.666  16.372 -0.0043 -0.2484  0.9640
  591TMC3    C2 8758   1.700   2.628  16.262 -0.5035 -0.7204  0.2367
  591TMC3    C3 8759   1.785   2.721  16.212  0.7642 -0.1241 -0.1535
  591TMC3    C4 8760   1.627   2.794  16.423 -0.1473  0.1372  0.2521
  591TMC3    C5 8761   1.704   2.885  16.356 -0.6776  0.1154  0.4061
  591TMC3    C6 8762   1.792   2.852  16.246 -0.7442 -0.1896  0.0613
  591TMC3     C 8763   1.531   2.572  16.433 -0.5068 -0.5904  0.0952
  591TMC3     O 8764   1.545   2.449  16.439 -0.1228  0.1972 -0.5460
  591TMC3     H 8765   1.703   2.525  16.230 -1.8695 -0.5333 -0.4750
  591TMC3    H1 8766   1.557   2.829  16.498 -0.8303 -2.9446  1.0650
  591TMC3    H2 8767   1.882   2.910  16.233  1.1820 -2.5998  2.6537
  591TMC3    C7 8768   1.707   3.019  16.406  0.6708 -0.0533  0.2305
  591TMC3    C8 8769   1.854   2.679  16.090  0.5612 -0.2900 -0.7935
  591TMC3    O1 8770   1.652   3.036  16.514 -0.5183  0.1901 -0.1752
  591TMC3    O2 8771   1.849   2.556  16.063 -0.4010 -0.3510 -0.0998
  592MPD2     C 8772   2.613   0.057  11.244  0.2436 -0.6523 -0.3352
  592MPD2    C1 8773   2.622   0.094  11.376 -0.3810  0.0834  0.7682
  592MPD2    C2 8774   2.539   0.033  11.473 -1.1312 -0.0284  0.5381
  592MPD2    C3 8775   2.443   4.669  11.433  0.0947 -0.0309 -0.3258
  592MPD2    C4 8776   2.434   4.639  11.304 -0.0549 -0.2058  0.0362
  592MPD2    C5 8777   2.516   4.692  11.211  0.0198  0.3562 -0.1609
  592MPD2     H 8778   2.555   0.053  11.579 -0.5827  0.7946  0.3002
  592MPD2    H1 8779   2.363   4.567  11.264 -1.7774  1.0007  0.8900
  592MPD2    H2 8780   2.672   0.110  11.171  0.0533 -1.3866 -1.0228
  592MPD2    H3 8781   2.498   4.657  11.110 -2.4517  0.2971  0.3004
  592MPD2     N 8782   2.376   4.598  11.532  0.1696 -0.3352  0.1048
  592MPD2    H5 8783   2.396   4.630  11.626  1.8232 -1.6441  0.2056
  592MPD2    N1 8784   2.715   0.194  11.402  0.0805 -0.2168  0.2188
  592MPD2    H7 8785   2.761   0.239  11.324 -1.2763  2.6713  1.0964
  593TMC3    C1 8786   2.871   0.340  11.524  0.5442 -0.3652 -0.1148
  593TMC3    C2 8787   2.912   0.400  11.638 -0.6933  1.2196  0.1417
  593TMC3    C3 8788   3.025   0.475  11.642 -0.2279 -1.2417  0.6058
  593TMC3    C4 8789   2.949   0.348  11.410 -0.4894 -1.9099 -0.1260
  593TMC3    C5 8790   3.069   0.427  11.417 -0.6936  0.1775 -0.7589
  593TMC3    C6 8791   3.110   0.489  11.531  0.8841  0.0979  0.9039
  593TMC3     C 8792   2.762   0.237  11.528 -0.4060  0.2860  0.4195
  593TMC3     O 8793   2.718   0.204  11.643 -0.0448  0.1256  0.2560
  593TMC3     H 8794   2.844   0.399  11.722 -1.7139  0.3040 -0.7159
  593TMC3    H1 8795   2.925   0.293  11.320  1.3204 -1.5838 -0.8199
  593TMC3    H2 8796   3.204   0.544  11.531  2.0290 -1.8558 -0.4339
  593TMC3    C7 8797   3.111   0.494  11.298  0.1011  0.4145 -0.2591
  593TMC3    C8 8798   3.031   0.578  11.748 -0.2097  0.2735  0.8172
  593TMC3    O1 8799   3.168   0.598  11.310  1.1028 -0.4990 -0.1230
  593TMC3    O2 8800   2.926   0.596  11.805  0.2174  0.1417  0.2866
  594MPD2     C 8801   1.249   3.764  13.883  0.4702 -0.5321 -0.5915
  594MPD2    C1 8802   1.209   3.739  14.009 -0.0938  0.4107 -0.3711
  594MPD2    C2 8803   1.271   3.810  14.111 -0.2286  0.5765  0.0949
  594MPD2    C3 8804   1.385   3.885  14.095  0.6293  0.7638 -0.2871
  594MPD2    C4 8805   1.435   3.893  13.964  0.3136 -0.3542  0.3135
  594MPD2    C5 8806   1.359   3.837  13.857  0.3053 -0.4914  1.0081
  594MPD2     H 8807   1.228   3.818  14.210 -0.0527  0.2058  0.2000
  594MPD2    H1 8808   1.512   3.962  13.931  0.8324 -0.4273  1.3862
  594MPD2    H2 8809   1.208   3.704  13.802  1.5058  0.3222 -1.7382
  594MPD2    H3 8810   1.390   3.863  13.756 -1.4595  0.0524  0.5965
  594MPD2     N 8811   1.446   3.950  14.208  0.1458  0.9043  0.1584
  594MPD2    H5 8812   1.395   3.927  14.293  1.0990 -2.8744 -0.2966
  594MPD2    N1 8813   1.109   3.642  14.021 -1.3720 -0.1112  0.1071
  594MPD2    H7 8814   1.067   3.600  13.939  2.3283 -0.3830 -1.6322
  595TMC3    C1 8815   1.766   4.164  14.488  0.2513  0.5864  0.3937
  595TMC3    C2 8816   1.721   4.124  14.362 -0.1693  0.4770 -0.2445
  595TMC3    C3 8817   1.596   4.075  14.352  0.2034  0.5872  0.2528
  595TMC3    C4 8818   1.686   4.147  14.605  0.1786  0.6401 -1.0143
  595TMC3    C5 8819   1.564   4.089  14.580  0.2682  0.2756 -0.7330
  595TMC3    C6 8820   1.512   4.056  14.459 -0.3710  0.2314 -0.0346
  595TMC3     C 8821   1.906   4.152  14.514 -0.2691  0.5575 -1.0418
  595TMC3     O 8822   1.934   4.122  14.630 -0.4252 -0.0645 -0.4848
  595TMC3     H 8823   1.792   4.122  14.280  0.5428 -0.5434  0.3971
  595TMC3    H1 8824   1.725   4.170  14.704 -1.3876 -0.8260 -0.0518
  595TMC3    H2 8825   1.411   4.019  14.454 -0.6889  0.9608  1.2671
  595TMC3    C7 8826   1.490   4.060  14.706 -0.6260  0.6346  0.2697
  595TMC3    C8 8827   1.559   4.030  14.212  0.4526 -0.4214  0.1414
  595TMC3    O1 8828   1.559   4.053  14.808 -0.4377 -0.3345 -0.0295
  595TMC3    O2 8829   1.621   4.076  14.117  0.2472  0.0046 -0.1543
  596MPD2     C 8830   0.353   1.710  16.815 -0.4689 -0.1033 -0.1191
  596MPD2    C1 8831   0.254   1.798  16.791 -0.3669  0.5517  0.1151
  596MPD2    C2 8832   0.205   1.798  16.664 -0.3494 -0.0408  0.4717
  596MPD2    C3 8833   0.253   1.711  16.568 -0.0495 -0.0986 -0.1518
  596MPD2    C4 8834   0.350   1.618  16.598  0.9335  0.3904 -0.0746
  596MPD2    C5 8835   0.387   1.612  16.727 -0.3168 -0.0882 -0.3241
  596MPD2     H 8836   0.124   1.867  16.642 -0.0131  0.9790  2.3973
  596MPD2    H1 8837   0.404   1.555  16.528  1.1515  0.6521 -0.1416
  596MPD2    H2 8838   0.398   1.705  16.914 -0.3206 -0.9374 -0.2230
  596MPD2    H3 8839   0.469   1.544  16.746 -1.0581 -0.6137  1.0168
  596MPD2     N 8840   0.211   1.709  16.437 -0.1622 -0.4866 -0.3081
  596MPD2    H5 8841   0.247   1.635  16.377 -2.3303  1.1797 -3.6733
  596MPD2    N1 8842   0.223   1.905  16.881  0.6907  0.4217 -0.8149
  596MPD2    H7 8843   0.161   1.976  16.845 -1.3411  0.0752  2.0433
  597TMC3    C1 8844   0.200   1.997  17.090 -0.3822  0.6016  0.2984
  597TMC3    C2 8845   0.201   2.122  17.031 -0.0828  0.2876  0.0383
  597TMC3    C3 8846   0.122   2.214  17.086  1.1328 -0.5113 -0.0250
  597TMC3    C4 8847   0.113   1.960  17.189  0.0431  0.8983  0.1739
  597TMC3    C5 8848   0.022   2.060  17.222 -0.0952  0.2140 -0.5277
  597TMC3    C6 8849   0.034   2.191  17.185 -0.2356  0.2825  0.2595
  597TMC3     C 8850   0.250   1.886  17.017  0.4888  0.3810  0.1381
  597TMC3     O 8851   0.267   1.778  17.082  0.5479 -0.0777 -0.0617
  597TMC3     H 8852   0.264   2.134  16.943  1.7636 -0.0928  1.3166
  597TMC3    H1 8853   0.089   1.858  17.217 -1.1347  1.1116 -0.0358
  597TMC3    H2 8854   4.705   2.275  17.230  0.3820  1.5119 -1.3785
  597TMC3    C7 8855   4.641   2.016  17.309 -1.1846 -0.2181 -0.2575
  597TMC3    C8 8856   0.107   2.350  17.027  0.0160 -0.2566 -0.1289
  597TMC3    O1 8857   4.639   1.903  17.359 -0.0306 -0.5287  0.0883
  597TMC3    O2 8858   0.061   2.437  17.101 -0.1545  0.1534  0.0720
  598TMC3    C1 8859   2.975   3.262  16.066  0.4076  0.4672  0.2424
  598TMC3    C2 8860   2.883   3.219  15.975  0.1691  0.6026  0.5878
  598TMC3    C3 8861   2.852   3.288  15.863 -0.4442 -0.0594 -0.3467
  598TMC3    C4 8862   3.041   3.375  16.033 -0.2367  0.1935  1.1810
  598TMC3    C5 8863   3.011   3.445  15.920 -0.1487 -0.1922 -0.3434
  598TMC3    C6 8864   2.917   3.405  15.829  0.3194  0.2690  0.1049
  598TMC3     C 8865   3.060   3.150  16.121 -0.0545 -0.3253  0.1833
  598TMC3     O 8866   3.180   3.165  16.142  0.2016  0.2402  0.0818
  598TMC3     H 8867   2.836   3.122  15.986  2.6925 -0.5045  1.6560
  598TMC3    H1 8868   3.124   3.404  16.095  0.0013  2.5612 -0.2331
  598TMC3    H2 8869   2.902   3.456  15.735 -0.2295  0.7061  0.4347
  598TMC3    C7 8870   3.122   3.537  15.878  0.0469  0.4292 -0.5406
  598TMC3    C8 8871   2.765   3.225  15.775  0.8975 -0.3333  0.7164
  598TMC3    O1 8872   3.218   3.547  15.952 -0.3172 -0.0592  0.1820
  598TMC3    O2 8873   2.668   3.167  15.823 -0.0145  0.4830  0.3124
  599MPD2     C 8874   2.935   0.906  16.091 -0.1169 -0.6798 -0.2290
  599MPD2    C1 8875   3.000   0.939  16.202 -0.5087  0.4892 -0.7392
  599MPD2    C2 8876   2.927   0.982  16.309 -0.2488  0.0026 -0.3971
  599MPD2    C3 8877   2.784   1.002  16.312  0.1541  0.8270  0.2211
  599MPD2    C4 8878   2.723   0.970  16.191  0.1340 -0.1250  0.2281
  599MPD2    C5 8879   2.801   0.928  16.086  0.8349 -0.1337 -0.1287
  599MPD2     H 8880   2.971   0.994  16.408 -0.6679  2.7609 -0.5436
  599MPD2    H1 8881   2.615   0.967  16.187  0.1426  0.5331 -0.6209
  599MPD2    H2 8882   2.979   0.868  16.000 -1.5497  0.9219 -1.5996
  599MPD2    H3 8883   2.744   0.889  16.002  0.4265 -2.1084  1.0545
  599MPD2     N 8884   2.717   1.029  16.436  0.3033  0.2442 -0.0362
  599MPD2    H5 8885   2.782   1.074  16.500 -0.8925  0.5736  0.9345
  599MPD2    N1 8886   3.131   0.903  16.228 -0.2947 -0.2592 -0.0199
  599MPD2    H7 8887   3.169   0.949  16.310 -2.8285  1.3639  0.2673
  600TMC3    C1 8888   2.524   1.028  16.586 -0.2721 -0.2575 -0.1851
  600TMC3    C2 8889   2.464   0.926  16.655  0.2836 -0.0969 -0.4922
  600TMC3    C3 8890   2.408   0.967  16.773  0.3637 -0.0691  0.4903
  600TMC3    C4 8891   2.532   1.162  16.624  0.8227  0.4780 -0.5501
  600TMC3    C5 8892   2.486   1.185  16.751 -0.2766 -0.2434 -0.2979
  600TMC3    C6 8893   2.420   1.089  16.826  0.1871 -0.1402 -0.2829
  600TMC3     C 8894   2.583   0.996  16.452 -0.5259  0.0449 -0.0910
  600TMC3     O 8895   2.521   0.907  16.395  0.5717  0.5473 -0.2087
  600TMC3     H 8896   2.464   0.826  16.613  1.2635 -0.2146 -0.2251
  600TMC3    H1 8897   2.576   1.241  16.565  1.3094  1.0063  0.5114
  600TMC3    H2 8898   2.373   1.125  16.917  1.2189  1.8462 -0.5120
  600TMC3    C7 8899   2.472   1.319  16.796 -0.5545  0.4510 -1.0466
  600TMC3    C8 8900   2.371   0.864  16.872  0.7386  0.0973  0.2657
  600TMC3    O1 8901   2.363   1.347  16.850  0.2874  0.4289  0.1740
  600TMC3    O2 8902   2.344   0.916  16.979  0.0473  0.5375  0.0017
  601MPD2     C 8903   4.366   3.427   0.329 -0.1603  0.0225 -0.2690
  601MPD2    C1 8904   4.330   3.409   0.461 -0.1896 -0.5886  0.3173
  601MPD2    C2 8905   4.401   3.319   0.542  0.3733  0.9211  0.1120
  601MPD2    C3 8906   4.509   3.252   0.488  0.4908 -0.4267  0.1987
  601MPD2    C4 8907   4.523   3.250   0.351  0.2285  0.0809 -0.4897
  601MPD2    C5 8908   4.459   3.339   0.272  0.1978 -0.1582  0.7490
  601MPD2     H 8909   4.383   3.321   0.649 -0.9724 -2.4622 -0.0400
  601MPD2    H1 8910   4.601   3.185   0.314 -0.9816  0.7591 -4.2255
  601MPD2    H2 8911   4.320   3.510   0.277 -0.0603 -0.5669 -1.3030
  601MPD2    H3 8912   4.475   3.343   0.165 -0.7796  0.9717  0.6422
  601MPD2     N 8913   4.582   3.156   0.556  0.0913  0.0352  0.3038
  601MPD2    H5 8914   4.635   3.093   0.497  1.0743  0.7651  0.4069
  601MPD2    N1 8915   4.233   3.495   0.516 -0.3178  0.2066 -0.7669
  601MPD2    H7 8916   4.207   3.579   0.465 -0.3061  0.9409  0.4483
  602TMC3    C1 8917   4.105   3.604   0.683  0.2502 -0.1737 -0.7312
  602TMC3    C2 8918   4.173   3.725   0.677 -0.4484 -0.8932 -0.2125
  602TMC3    C3 8919   4.105   3.831   0.735 -0.3338  0.6299 -0.8704
  602TMC3    C4 8920   3.977   3.593   0.737 -0.7310  0.0143 -0.0446
  602TMC3    C5 8921   3.917   3.704   0.792 -0.3828  0.0623 -0.8071
  602TMC3    C6 8922   3.984   3.825   0.790 -0.1507 -0.1709 -0.0383
  602TMC3     C 8923   4.177   3.488   0.641  0.1004 -0.5214  0.5359
  602TMC3     O 8924   4.177   3.399   0.720 -0.8213  0.1508  0.0834
  602TMC3     H 8925   4.279   3.727   0.656 -0.1807  1.8524  1.4021
  602TMC3    H1 8926   3.927   3.498   0.751  0.3459 -0.5796 -0.2469
  602TMC3    H2 8927   3.939   3.911   0.838  0.0885  0.6551 -1.3037
  602TMC3    C7 8928   3.789   3.721   0.724  0.1321  0.3291 -0.2424
  602TMC3    C8 8929   4.107   3.961   0.665  0.1936  0.5566  0.1082
  602TMC3    O1 8930   3.711   3.625   0.718 -0.0266 -0.6279  0.4905
  602TMC3    O2 8931   3.999   4.014   0.649  0.0127  0.3290 -0.3452
  603TMC3    C1 8932   3.942   3.801  11.005 -0.1906 -0.2666  0.3010
  603TMC3    C2 8933   3.894   3.800  11.128 -0.2143  0.2809  0.3945
  603TMC3    C3 8934   3.845   3.925  11.173 -0.2547  0.0609  1.0887
  603TMC3    C4 8935   3.926   3.900  10.913 -0.4572 -0.0516  1.0328
  603TMC3    C5 8936   3.853   4.008  10.951 -0.5513 -0.2572  0.0819
  603TMC3    C6 8937   3.819   4.025  11.084 -0.0106  0.4212 -0.0544
  603TMC3     C 8938   4.039   3.696  10.981 -0.0711 -0.1470 -0.9468
  603TMC3     O 8939   4.084   3.647  11.083  0.4094  0.0996 -0.3406
  603TMC3     H 8940   3.905   3.723  11.204  1.0477 -0.4458 -0.5278
  603TMC3    H1 8941   3.967   3.890  10.813 -0.8852 -2.1053  1.0546
  603TMC3    H2 8942   3.746   4.100  11.112 -0.0388  1.0451 -1.8036
  603TMC3    C7 8943   3.827   4.110  10.852 -0.0254 -0.5635  0.2787
  603TMC3    C8 8944   3.803   3.938  11.306 -0.1836  0.1281 -0.7935
  603TMC3    O1 8945   3.822   4.085  10.734 -0.3768 -0.2948  0.3986
  603TMC3    O2 8946   3.799   3.831  11.376 -0.0818  0.2133  0.0238
  604MPD2     C 8947   3.499   2.691  16.442 -0.1364  0.0023  0.0393
  604MPD2    C1 8948   3.482   2.807  16.365 -0.3802  0.2290  0.1280
  604MPD2    C2 8949   3.555   2.816  16.248  0.2235  0.1583  0.0355
  604MPD2    C3 8950   3.649   2.722  16.218 -0.3411  0.4710  0.5475
  604MPD2    C4 8951   3.677   2.619  16.301 -0.2039 -0.4412 -0.0924
  604MPD2    C5 8952   3.598   2.604  16.412 -0.1978  0.5158 -0.0739
  604MPD2     H 8953   3.554   2.908  16.191  2.8854  1.3983  2.0074
  604MPD2    H1 8954   3.757   2.547  16.293 -0.5232 -0.9918  1.5841
  604MPD2    H2 8955   3.432   2.691  16.527 -0.7860 -1.9716 -0.4587
  604MPD2    H3 8956   3.637   2.535  16.486  0.0241  0.4130 -0.2849
  604MPD2     N 8957   3.727   2.754  16.104  0.4725  0.3572 -0.4710
  604MPD2    H5 8958   3.703   2.842  16.059 -0.2419  0.4742  0.1390
  604MPD2    N1 8959   3.401   2.919  16.413 -0.3016  0.2573  0.2149
  604MPD2    H7 8960   3.333   2.895  16.485 -2.5068  0.0142 -1.9544
  605TMC3    C1 8961   3.322   3.134  16.438 -0.5343 -0.4000 -0.7430
  605TMC3    C2 8962   3.365   3.257  16.463  0.3585 -0.6882 -0.3416
  605TMC3    C3 8963   3.283   3.341  16.531  0.4846  0.0340 -0.0746
  605TMC3    C4 8964   3.210   3.089  16.497 -0.6874 -0.5898  1.1399
  605TMC3    C5 8965   3.121   3.179  16.554 -0.3442  0.7282 -0.1969
  605TMC3    C6 8966   3.154   3.309  16.568 -0.4657 -0.0928 -0.5352
  605TMC3     C 8967   3.409   3.046  16.371  0.3045  0.5387  0.0797
  605TMC3     O 8968   3.507   3.094  16.315  0.4070 -0.0122 -0.1977
  605TMC3     H 8969   3.458   3.297  16.423  0.1777  0.2106  0.1400
  605TMC3    H1 8970   3.174   2.988  16.479 -0.6682 -0.3226 -0.4231
  605TMC3    H2 8971   3.077   3.377  16.603  0.2488  0.2473  0.4049
  605TMC3    C7 8972   2.981   3.141  16.580  0.2764 -0.2376  0.0677
  605TMC3    C8 8973   3.340   3.478  16.562  0.0185 -0.4584 -0.0966
  605TMC3    O1 8974   2.900   3.235  16.587  0.0379  0.1186 -0.2815
  605TMC3    O2 8975   3.426   3.517  16.488  0.0214 -0.3502  0.1288
  606TMC3    C1 8976   0.576   0.944  17.267 -0.1246 -0.1958 -0.0266
  606TMC3    C2 8977   0.713   0.945  17.286  0.0077  0.1741 -0.6398
  606TMC3    C3 8978   0.764   0.919  17.411  0.2384 -0.0451 -0.4811
  606TMC3    C4 8979   0.486   0.897  17.361 -0.0656  0.4852  0.0488
  606TMC3    C5 8980   0.545   0.868  17.480 -0.1655  0.5013 -0.5159
  606TMC3    C6 8981   0.670   0.886  17.513  0.2480  0.2729 -0.9944
  606TMC3     C 8982   0.533   1.010  17.143 -0.6827 -0.1763  0.7324
  606TMC3     O 8983   0.625   1.040  17.066  0.1676 -0.1777  0.4140
  606TMC3     H 8984   0.780   0.984  17.210 -0.0472  0.5414 -0.5013
  606TMC3    H1 8985   0.380   0.884  17.343 -0.1103  0.2789  0.4596
  606TMC3    H2 8986   0.703   0.857  17.612 -2.2399 -0.4887 -0.3873
  606TMC3    C7 8987   0.457   0.822  17.583  0.1628  0.3679  0.0023
  606TMC3    C8 8988   0.885   0.990  17.462  0.0676 -0.0355  0.3847
  606TMC3    O1 8989   0.515   0.765  17.676  0.2695  0.1368 -0.4239
  606TMC3    O2 8990   0.927   0.970  17.572  0.2058  0.1758 -0.1707
  607MPD2     C 8991   2.552   4.276  11.835 -0.7919  0.2898  0.8165
  607MPD2    C1 8992   2.641   4.301  11.936  0.0626 -0.3442 -0.0595
  607MPD2    C2 8993   2.629   4.229  12.053 -0.5304 -0.4194  0.2154
  607MPD2    C3 8994   2.543   4.124  12.070  0.6950  0.4543 -0.4292
  607MPD2    C4 8995   2.459   4.091  11.966 -0.0947 -0.6285 -0.1000
  607MPD2    C5 8996   2.457   4.171  11.851  0.1830 -0.3238 -0.3807
  607MPD2     H 8997   2.698   4.254  12.133 -0.3136 -2.2852  0.5958
  607MPD2    H1 8998   2.387   4.011  11.981 -0.9883  0.5564  2.0003
  607MPD2    H2 8999   2.541   4.342  11.749 -0.0500 -1.5844 -0.7052
  607MPD2    H3 9000   2.374   4.153  11.783 -0.9244  1.3728  0.5264
  607MPD2     N 9001   2.539   4.057  12.197  0.0618  0.7828  0.3820
  607MPD2    H5 9002   2.602   4.101  12.263  1.1889  0.4926 -0.4911
  607MPD2    N1 9003   2.749   4.389  11.937  0.3641  0.4803  0.2369
  607MPD2    H7 9004   2.815   4.384  12.013  2.1783 -2.8840 -1.5549
  608TMC3    C1 9005   2.871   4.577  11.892  0.9887 -0.1630  0.4658
  608TMC3    C2 9006   2.877   4.594  12.025  0.3209 -0.3411  0.1992
  608TMC3    C3 9007   2.982   4.664  12.081  0.0235  0.8120  0.0468
  608TMC3    C4 9008   2.942   4.660  11.806 -0.1979 -0.9204  0.0495
  608TMC3    C5 9009   3.030   0.028  11.862 -0.3831 -0.1737  0.0694
  608TMC3    C6 9010   3.052   0.030  12.000 -0.1215  0.2681  0.8285
  608TMC3     C 9011   2.765   4.494  11.848 -0.1459 -0.2074  0.4305
  608TMC3     O 9012   2.701   4.536  11.750 -0.4657 -0.3392  0.3526
  608TMC3     H 9013   2.805   4.543  12.088  1.3635 -2.9978 -0.7555
  608TMC3    H1 9014   2.914   4.646  11.702  1.0170  0.6471 -0.4780
  608TMC3    H2 9015   3.115   0.101  12.053 -1.8495  1.7311  0.9182
  608TMC3    C7 9016   3.110   0.105  11.773  0.5773 -0.5601 -0.3034
  608TMC3    C8 9017   2.972   4.686  12.224  0.1833  0.1366 -0.6046
  608TMC3    O1 9018   3.073   0.083  11.659 -0.1126  0.0696 -0.1161
  608TMC3    O2 9019   2.985   0.077  12.272  0.8967  0.0259 -0.2539
  609TMC3    C1 9020   1.404   3.377   9.877  0.3143  0.3679 -0.1992
  609TMC3    C2 9021   1.364   3.240   9.868  0.2958 -0.1630 -0.3060
  609TMC3    C3 9022   1.461   3.143   9.865  0.0804  0.1304  0.3307
  609TMC3    C4 9023   1.532   3.414   9.855  0.2948  0.1979  0.2809
  609TMC3    C5 9024   1.623   3.313   9.853 -0.0725  0.0939  0.4093
  609TMC3    C6 9025   1.588   3.181   9.847  0.1805  0.2458  0.0211
  609TMC3     C 9026   1.311   3.464   9.933  0.3102 -0.0792  0.0432
  609TMC3     O 9027   1.198   3.422   9.965 -0.0637  0.5301 -0.5206
  609TMC3     H 9028   1.261   3.215   9.890  0.7563 -0.3074  1.6521
  609TMC3    H1 9029   1.572   3.514   9.860  0.3529  0.1912 -0.0087
  609TMC3    H2 9030   1.656   3.097   9.839 -0.0120 -0.0141  1.0818
  609TMC3    C7 9031   1.751   3.348   9.797  0.4407  0.2454 -0.0519
  609TMC3    C8 9032   1.418   3.003   9.897  0.3348 -0.6457  0.7834
  609TMC3    O1 9033   1.764   3.463   9.767  0.5451  0.3079  0.2499
  609TMC3    O2 9034   1.298   2.976   9.912 -0.2116  0.3261 -0.8066
  610TMC3    C1 9035   2.053   3.809  12.946  0.2950 -0.8980 -0.3692
  610TMC3    C2 9036   2.053   3.945  12.955  0.1381  0.0615 -0.2683
  610TMC3    C3 9037   2.154   4.009  12.882  0.2706  0.5869 -0.3604
  610TMC3    C4 9038   2.137   3.729  12.878  0.3614 -0.1408 -0.3883
  610TMC3    C5 9039   2.234   3.805  12.805 -0.1981  0.1149  0.1985
  610TMC3    C6 9040   2.244   3.940  12.804 -0.1703 -0.5716  1.0901
  610TMC3     C 9041   1.930   3.751  13.026 -0.4974  0.1245  0.1598
  610TMC3     O 9042   1.878   3.820  13.111 -0.6021  0.1424 -0.0643
  610TMC3     H 9043   1.991   4.002  13.024 -0.2917 -0.6161 -0.0845
  610TMC3    H1 9044   2.143   3.624  12.902 -0.2573 -0.5623 -2.0684
  610TMC3    H2 9045   2.322   3.987  12.745 -1.2245  0.1487  0.2575
  610TMC3    C7 9046   2.357   3.728  12.793  0.6284  0.1685  0.8644
  610TMC3    C8 9047   2.167   4.147  12.905  0.9929  0.1880 -0.4983
  610TMC3    O1 9048   2.458   3.788  12.814  0.5783  0.2406  0.4409
  610TMC3    O2 9049   2.105   4.201  12.997  0.5834  0.6250 -0.3610
  611MPD2     C 9050   2.980   3.941  10.674 -0.4728  0.3009 -0.4205
  611MPD2    C1 9051   2.911   4.023  10.596  0.0850 -0.1272  0.3724
  611MPD2    C2 9052   2.978   4.106  10.507 -0.2496  0.2490  0.4181
  611MPD2    C3 9053   3.119   4.108  10.503 -0.5537  0.4656 -0.7328
  611MPD2    C4 9054   3.191   4.022  10.587  0.2793 -0.1961 -0.8963
  611MPD2    C5 9055   3.117   3.947  10.675  0.3231 -0.5774 -0.0914
  611MPD2     H 9056   2.925   4.164  10.433 -0.7627 -0.4938  0.2099
  611MPD2    H1 9057   3.298   4.006  10.592  0.2863 -0.3617 -1.5553
  611MPD2    H2 9058   2.939   3.870  10.745 -0.7411 -0.1474 -1.0284
  611MPD2    H3 9059   3.171   3.873  10.733  0.2851  1.0239  1.9773
  611MPD2     N 9060   3.192   4.204  10.437  0.5382  0.7417 -0.1465
  611MPD2    H5 9061   3.293   4.188  10.439  0.1038 -2.0260 -0.8987
  611MPD2    N1 9062   2.768   4.019  10.608  0.2960 -0.0515  0.1744
  611MPD2    H7 9063   2.730   3.961  10.682 -1.0059 -0.1735 -0.5820
  612TMC3    C1 9064   3.249   4.387  10.308 -0.1190 -0.6631  0.7797
  612TMC3    C2 9065   3.349   4.412  10.398  0.3711  0.0023  0.2046
  612TMC3    C3 9066   3.431   4.520  10.379 -0.3318 -0.9646  0.0728
  612TMC3    C4 9067   3.243   4.453  10.182 -0.2577 -0.1339  0.0146
  612TMC3    C5 9068   3.341   4.551  10.162 -0.0360 -0.4285 -0.3702
  612TMC3    C6 9069   3.418   4.591  10.264 -0.7549 -0.0275 -0.3433
  612TMC3     C 9070   3.146   4.300  10.348  0.4810 -0.6426  0.9887
  612TMC3     O 9071   3.039   4.304  10.291  0.2682 -0.1404  0.4376
  612TMC3     H 9072   3.350   4.360  10.492  0.7938 -2.0549 -0.9402
  612TMC3    H1 9073   3.161   4.429  10.115  0.4580 -0.7655 -0.6310
  612TMC3    H2 9074   3.480   4.679  10.253  1.2126 -1.4115 -0.4736
  612TMC3    C7 9075   3.325   4.634  10.046  0.0939  0.1012  0.4543
  612TMC3    C8 9076   3.521   4.565  10.480  0.2538  0.7601  0.6891
  612TMC3    O1 9077   3.225   4.603   9.984 -0.0696  0.3068 -0.0135
  612TMC3    O2 9078   3.545   4.686  10.484  0.1020 -0.1762 -0.0072
  613MPD2     C 9079   1.692   0.925  16.337 -0.4637 -0.3068  0.2844
  613MPD2    C1 9080   1.684   0.950  16.203  0.1828  0.0584 -0.0729
  613MPD2    C2 9081   1.563   0.930  16.139 -0.0076 -0.6243  0.8866
  613MPD2    C3 9082   1.451   0.882  16.212  0.5711 -0.9477 -0.2804
  613MPD2    C4 9083   1.468   0.850  16.341  0.0232 -0.3110 -0.1567
  613MPD2    C5 9084   1.586   0.868  16.399 -0.3922 -0.1875  0.6271
  613MPD2     H 9085   1.560   0.962  16.036  0.0573  1.5903  1.5676
  613MPD2    H1 9086   1.389   0.808  16.403 -0.8521 -0.9608 -1.7032
  613MPD2    H2 9087   1.790   0.920  16.382 -1.3294  0.2585  2.2499
  613MPD2    H3 9088   1.597   0.834  16.502 -1.2622  0.4394  0.9243
  613MPD2     N 9089   1.321   0.885  16.156  0.9415  0.0201  0.4050
  613MPD2    H5 9090   1.240   0.873  16.215 -0.8245 -0.3936 -2.0897
  613MPD2    N1 9091   1.799   0.988  16.133 -0.0713 -0.1153  0.3611
  613MPD2    H7 9092   1.791   1.002  16.033 -1.2422 -0.5179  0.3881
  614TMC3    C1 9093   1.974   1.114  16.081 -0.2619 -0.4234  0.1224
  614TMC3    C2 9094   1.972   1.045  15.964  0.4431  0.5414  0.1808
  614TMC3    C3 9095   1.935   1.108  15.849 -0.2226  0.6436  0.3191
  614TMC3    C4 9096   1.948   1.250  16.079 -0.0580  0.9583  0.2056
  614TMC3    C5 9097   1.912   1.313  15.962  0.7813 -0.1416  0.6974
  614TMC3    C6 9098   1.918   1.248  15.846  0.1370  0.9922 -0.3584
  614TMC3     C 9099   1.903   1.054  16.191 -0.3309  0.0460  0.1824
  614TMC3     O 9100   1.910   1.111  16.299 -0.1664  0.2196  0.2289
  614TMC3     H 9101   1.987   0.938  15.964 -1.2693  0.3048 -0.2337
  614TMC3    H1 9102   1.953   1.320  16.162  1.2827  1.5639 -0.3740
  614TMC3    H2 9103   1.889   1.308  15.760 -0.4686 -2.6813 -2.7385
  614TMC3    C7 9104   1.791   1.385  15.984 -0.2642  0.2372 -1.3513
  614TMC3    C8 9105   1.826   1.040  15.776 -0.4658  0.4316  0.4629
  614TMC3    O1 9106   1.774   1.432  16.098 -0.7827  0.2794  0.3222
  614TMC3    O2 9107   1.756   0.972  15.850  0.4520  0.6028  1.4190
  615MPD2     C 9108   0.731   3.435  16.664  0.3234  0.2841  0.1280
  615MPD2    C1 9109   0.604   3.487  16.645  0.3606  0.0054 -0.3665
  615MPD2    C2 9110   0.522   3.426  16.553 -0.1495 -0.0033 -0.8921
  615MPD2    C3 9111   0.565   3.311  16.485  0.5603 -0.0049 -0.1784
  615MPD2    C4 9112   0.700   3.263  16.507  0.0467 -0.4341  0.1825
  615MPD2    C5 9113   0.779   3.321  16.601 -0.2945 -0.3816 -0.2306
  615MPD2     H 9114   0.433   3.481  16.524  0.4002  1.0919 -0.5249
  615MPD2    H1 9115   0.736   3.181  16.447 -0.5273 -1.0128  0.6359
  615MPD2    H2 9116   0.806   3.481  16.728 -0.4244 -0.3591  1.4819
  615MPD2    H3 9117   0.879   3.286  16.625 -0.7052 -1.6553 -0.3792
  615MPD2     N 9118   0.492   3.240  16.389  0.2001 -0.3189 -0.5255
  615MPD2    H5 9119   0.539   3.177  16.324  0.4565  0.4858 -1.1143
  615MPD2    N1 9120   0.557   3.608  16.706  0.2366 -0.5363 -0.2355
  615MPD2    H7 9121   0.465   3.637  16.674  1.6431  2.0440 -1.9160
  616TMC3    C1 9122   0.576   3.817  16.821 -0.7195 -0.3727 -0.1237
  616TMC3    C2 9123   0.663   3.926  16.834 -0.4950 -0.2997 -0.2981
  616TMC3    C3 9124   0.609   4.050  16.833  0.3181 -0.2308 -0.7055
  616TMC3    C4 9125   0.441   3.828  16.835 -0.2611 -0.1332  0.2340
  616TMC3    C5 9126   0.392   3.952  16.853  0.6648 -0.0932  0.4992
  616TMC3    C6 9127   0.468   4.067  16.838  0.3040 -0.1175  0.4956
  616TMC3     C 9128   0.634   3.684  16.790  0.5633  0.5379  0.4455
  616TMC3     O 9129   0.753   3.678  16.827  0.2046 -0.0299  0.5721
  616TMC3     H 9130   0.769   3.907  16.824 -0.1959  1.9290 -1.3792
  616TMC3    H1 9131   0.386   3.741  16.869  0.4914 -0.1839  1.3223
  616TMC3    H2 9132   0.426   4.167  16.840 -1.1706 -0.7483  1.0531
  616TMC3    C7 9133   0.250   3.974  16.879  0.2104  0.0847  0.5628
  616TMC3    C8 9134   0.671   4.165  16.767  0.9176 -0.1653  0.3086
  616TMC3    O1 9135   0.182   3.870  16.892 -0.8351  0.4475  0.1115
  616TMC3    O2 9136   0.611   4.267  16.741 -0.3699  0.3222  0.7564
  617MPD2     C 9137   3.979   1.589  13.872 -0.3868 -0.0342  0.0384
  617MPD2    C1 9138   3.955   1.551  13.999  0.3681  0.6905 -0.1548
  617MPD2    C2 9139   3.827   1.546  14.049 -0.5249 -0.2985 -0.7356
  617MPD2    C3 9140   3.721   1.582  13.967 -0.6443 -0.4861  0.5057
  617MPD2    C4 9141   3.744   1.641  13.847  0.6359  0.3309 -0.0545
  617MPD2    C5 9142   3.871   1.638  13.797  0.5384 -0.1109 -0.0434
  617MPD2     H 9143   3.813   1.508  14.149  0.2401 -1.3283 -1.0210
  617MPD2    H1 9144   3.661   1.680  13.789  1.8679  1.8433 -0.7928
  617MPD2    H2 9145   4.080   1.609  13.839  0.5922 -0.4025  2.8268
  617MPD2    H3 9146   3.896   1.694  13.708  0.7243  1.5961  1.0811
  617MPD2     N 9147   3.586   1.561  13.995  0.0129  0.3182  0.2988
  617MPD2    H5 9148   3.516   1.590  13.927 -0.6508  0.9613  1.2493
  617MPD2    N1 9149   4.073   1.516  14.074 -0.0524 -0.4924 -0.7736
  617MPD2    H7 9150   4.160   1.513  14.022  1.4958  0.0456  1.8013
  618TMC3    C1 9151   4.218   1.427  14.234 -0.0717  0.3366 -0.1980
  618TMC3    C2 9152   4.234   1.325  14.331  0.2250  0.0571  0.2368
  618TMC3    C3 9153   4.351   1.254  14.336 -0.0529  0.3077  0.0496
  618TMC3    C4 9154   4.323   1.464  14.152 -0.4629  0.2693 -0.1882
  618TMC3    C5 9155   4.429   1.383  14.151 -0.5835  0.0656  0.0355
  618TMC3    C6 9156   4.444   1.281  14.239  0.0816  0.3715  0.4780
  618TMC3     C 9157   4.084   1.469  14.201  0.2479 -0.2977 -0.3396
  618TMC3     O 9158   3.990   1.461  14.282  0.7867 -0.0542 -0.3523
  618TMC3     H 9159   4.143   1.293  14.380 -0.8577  1.2690 -1.0222
  618TMC3    H1 9160   4.313   1.550  14.088  0.3366 -0.1026 -0.8068
  618TMC3    H2 9161   4.538   1.227  14.240 -1.2010 -1.8989 -2.0651
  618TMC3    C7 9162   4.467   1.355  14.013 -0.5907  0.1297  0.2570
  618TMC3    C8 9163   4.335   1.112  14.380  0.3592  0.1744 -0.1853
  618TMC3    O1 9164   4.386   1.397  13.933 -0.0928  0.0919 -0.5580
  618TMC3    O2 9165   4.226   1.083  14.431  0.5835  0.6725  0.8177
  619MPD2     C 9166   0.560   2.959  13.808 -0.3272 -0.3664  0.6774
  619MPD2    C1 9167   0.491   3.034  13.711  0.3681  0.3631 -0.3340
  619MPD2    C2 9168   0.369   2.993  13.670 -0.3789  0.2309 -0.1502
  619MPD2    C3 9169   0.312   2.876  13.715 -0.3793 -0.2878 -0.4178
  619MPD2    C4 9170   0.378   2.808  13.813  0.2984  0.7584 -0.2018
  619MPD2    C5 9171   0.495   2.851  13.859  0.2934 -0.6655 -0.1219
  619MPD2     H 9172   0.321   3.057  13.597  1.9437 -0.6051 -2.4433
  619MPD2    H1 9173   0.332   2.718  13.854  1.1148 -0.3138 -1.6622
  619MPD2    H2 9174   0.653   2.989  13.855  0.1083 -0.0072 -0.4178
  619MPD2    H3 9175   0.542   2.785  13.931  0.2716 -0.7404 -0.1765
  619MPD2     N 9176   0.191   2.830  13.662 -0.1895 -0.0736  0.4088
  619MPD2    H5 9177   0.147   2.748  13.702  0.7299 -0.2605  1.0314
  619MPD2    N1 9178   0.545   3.161  13.656  0.2692  0.2892 -0.5771
  619MPD2    H7 9179   0.485   3.211  13.591  1.3474  0.5062 -1.3946
  620TMC3    C1 9180   0.699   3.332  13.616  0.0436  0.7356  0.3547
  620TMC3    C2 9181   0.644   3.342  13.491 -0.1807 -0.4965  0.1808
  620TMC3    C3 9182   0.658   3.460  13.421  0.5173 -0.8280 -0.1071
  620TMC3    C4 9183   0.766   3.438  13.676 -0.0079 -0.0794  0.3592
  620TMC3    C5 9184   0.780   3.556  13.606 -0.0112 -0.6519  0.4416
  620TMC3    C6 9185   0.724   3.565  13.481 -0.0022 -0.1024 -0.2361
  620TMC3     C 9186   0.668   3.210  13.688 -0.4869 -0.1337 -0.8133
  620TMC3     O 9187   0.741   3.189  13.786  0.1088 -0.4729  0.2845
  620TMC3     H 9188   0.588   3.260  13.448 -1.2860 -0.3359  1.3102
  620TMC3    H1 9189   0.813   3.436  13.774 -1.2672 -1.0925  0.9353
  620TMC3    H2 9190   0.710   3.664  13.439  0.5355  0.2410  0.3986
  620TMC3    C7 9191   0.873   3.656  13.652 -0.1045 -0.6253 -0.0667
  620TMC3    C8 9192   0.539   3.500  13.350 -0.6139  0.2332 -0.0509
  620TMC3    O1 9193   0.929   3.636  13.760 -0.2169 -0.7489  0.5559
  620TMC3    O2 9194   0.490   3.603  13.388 -0.8262 -0.2875 -0.0867
  621MPD2     C 9195   0.855   3.016  10.712 -0.4846 -0.4086  0.1809
  621MPD2    C1 9196   0.927   2.909  10.742 -0.2440 -0.3858 -0.1799
  621MPD2    C2 9197   1.029   2.871  10.660  0.1388 -0.1428 -0.4906
  621MPD2    C3 9198   1.046   2.926  10.537 -0.0061 -0.5363 -0.3280
  621MPD2    C4 9199   0.949   3.022  10.492 -0.0937  0.7446 -0.1082
  621MPD2    C5 9200   0.860   3.072  10.586 -0.5030  0.9440 -0.0385
  621MPD2     H 9201   1.103   2.798  10.692  1.1503 -0.0886 -2.7112
  621MPD2    H1 9202   0.957   3.077  10.399 -0.4840 -0.7090 -0.9997
  621MPD2    H2 9203   0.784   3.056  10.783 -1.8048 -0.2111 -1.2641
  621MPD2    H3 9204   0.791   3.154  10.566  0.8643  1.8220 -1.2221
  621MPD2     N 9205   1.162   2.888  10.465 -0.5951 -0.1254 -0.1934
  621MPD2    H5 9206   1.227   2.831  10.518  0.4747  1.1635 -0.1331
  621MPD2    N1 9207   0.928   2.849  10.866  0.3073  0.6563  0.2065
  621MPD2    H7 9208   0.967   2.756  10.865  0.4888  0.7433 -0.9648
  622TMC3    C1 9209   0.845   2.770  11.071 -0.4006  0.1431 -0.2803
  622TMC3    C2 9210   0.713   2.735  11.081 -0.1393  0.6261  0.5486
  622TMC3    C3 9211   0.691   2.601  11.089 -0.1776 -0.2423  0.7270
  622TMC3    C4 9212   0.956   2.692  11.081  0.7003  0.1080  0.4214
  622TMC3    C5 9213   0.924   2.565  11.108  0.1791 -0.5735  0.9213
  622TMC3    C6 9214   0.795   2.511  11.110  0.1753  0.0613 -0.0139
  622TMC3     C 9215   0.854   2.878  10.972  0.6857 -0.4226  0.4029
  622TMC3     O 9216   0.780   2.974  10.990 -0.5691  0.2779  0.5387
  622TMC3     H 9217   0.634   2.809  11.070 -1.7360 -1.6116 -3.1638
  622TMC3    H1 9218   1.055   2.717  11.045  0.9004 -1.1187  0.1426
  622TMC3    H2 9219   0.769   2.407  11.124  2.3639 -0.6625 -1.3174
  622TMC3    C7 9220   1.032   2.472  11.077  1.1174 -0.0277  0.9419
  622TMC3    C8 9221   0.570   2.544  11.026  0.1005  0.2759 -0.0315
  622TMC3    O1 9222   1.146   2.510  11.061  0.0639 -0.4526  0.2693
  622TMC3    O2 9223   0.559   2.421  11.026  0.2456 -0.5666 -0.4537
  623MPD2     C 9224   3.495   3.858  15.949 -0.2448  0.3671 -0.5508
  623MPD2    C1 9225   3.449   3.822  16.072  0.3207 -0.6779 -1.2556
  623MPD2    C2 9226   3.537   3.837  16.177  0.2465  0.3919 -1.3748
  623MPD2    C3 9227   3.662   3.884  16.156 -0.6895  0.4290 -0.5278
  623MPD2    C4 9228   3.711   3.901  16.026 -0.1698 -0.2267  0.6872
  623MPD2    C5 9229   3.623   3.893  15.920 -0.5816 -0.0797 -0.0947
  623MPD2     H 9230   3.512   3.803  16.276  0.4532 -0.8688 -1.7544
  623MPD2    H1 9231   3.809   3.940  16.001 -0.4738 -0.0424 -0.2243
  623MPD2    H2 9232   3.444   3.827  15.858 -2.0407  1.7441 -0.0212
  623MPD2    H3 9233   3.648   3.919  15.818 -1.9138 -0.6212 -0.5537
  623MPD2     N 9234   3.746   3.904  16.273  0.1767 -0.3977 -0.6359
  623MPD2    H5 9235   3.706   3.887  16.365  1.5001  3.0573  0.6112
  623MPD2    N1 9236   3.315   3.773  16.087  0.2431  0.1449  0.7348
  623MPD2    H7 9237   3.269   3.742  16.003  1.7792 -1.2607  0.4149
  624TMC3    C1 9238   4.043   4.005  16.602 -0.4427 -0.4211  0.0003
  624TMC3    C2 9239   3.933   4.021  16.686 -0.4030  0.4544  0.0504
  624TMC3    C3 9240   3.814   4.032  16.629  0.2842 -0.4411 -0.2848
  624TMC3    C4 9241   4.025   3.991  16.466 -0.4699 -0.5072  0.5213
  624TMC3    C5 9242   3.897   3.995  16.414  0.0646  0.5916 -0.0685
  624TMC3    C6 9243   3.788   4.024  16.494 -0.2253 -0.3125 -0.0012
  624TMC3     C 9244   4.151   3.934  16.671 -0.1597  0.2360 -0.3063
  624TMC3     O 9245   4.140   3.910  16.792 -0.2717  0.3539  0.1414
  624TMC3     H 9246   3.940   4.010  16.794 -0.6552  0.2326  0.0436
  624TMC3    H1 9247   4.105   3.967  16.397 -0.9398 -1.4392  0.2893
  624TMC3    H2 9248   3.687   4.035  16.457 -0.5732  0.1236  1.0863
  624TMC3    C7 9249   3.874   3.951  16.280  0.2459  0.6867 -0.0641
  624TMC3    C8 9250   3.700   4.015  16.718  0.7711 -0.8422  0.6139
  624TMC3    O1 9251   3.954   3.975  16.188  0.1818  0.3893 -0.4530
  624TMC3    O2 9252   3.687   4.088  16.813  0.3589 -0.0471 -0.2561
  625MPD2     C 9253   0.376   4.069   0.799 -0.3059  1.0840 -0.0008
  625MPD2    C1 9254   0.357   4.197   0.764 -0.6112  0.3026  0.0944
  625MPD2    C2 9255   0.468   4.278   0.731 -0.7019 -0.1051 -0.1093
  625MPD2    C3 9256   0.598   4.221   0.752 -0.1956  0.7729  0.2981
  625MPD2    C4 9257   0.612   4.090   0.796  0.2276 -0.1311 -0.6498
  625MPD2    C5 9258   0.500   4.017   0.824 -0.7122  0.0945  0.1352
  625MPD2     H 9259   0.448   4.375   0.689 -0.9671  0.6488  1.7567
  625MPD2    H1 9260   0.710   4.045   0.802  1.0358  1.4712 -1.8038
  625MPD2    H2 9261   0.290   4.006   0.817  1.2452 -0.9032  0.4969
  625MPD2    H3 9262   0.508   3.912   0.850 -2.0736 -0.0943 -0.2292
  625MPD2     N 9263   0.712   4.295   0.726  0.0148  0.5737  0.2535
  625MPD2    H5 9264   0.696   4.383   0.678 -1.9311  0.2328  0.2891
  625MPD2    N1 9265   0.228   4.242   0.746 -0.6449 -0.7097 -0.3982
  625MPD2    H7 9266   0.163   4.166   0.731 -0.9528 -0.4694 -0.2879
  626TMC3    C1 9267   0.052   4.388   0.712  0.1730  0.0095 -0.4374
  626TMC3    C2 9268   0.006   4.467   0.616 -0.0445  0.4962 -0.5911
  626TMC3    C3 9269   4.587   4.451   0.593  0.2361 -0.8280 -0.9998
  626TMC3    C4 9270   4.696   4.315   0.797 -0.2920 -0.7893 -0.4027
  626TMC3    C5 9271   4.560   4.317   0.778 -0.0891  0.5579 -0.3779
  626TMC3    C6 9272   4.501   4.375   0.671 -0.0135  0.0745  1.3019
  626TMC3     C 9273   0.189   4.374   0.731 -0.3090 -0.2822 -0.1508
  626TMC3     O 9274   0.258   4.472   0.708 -0.4954  0.6508  0.2574
  626TMC3     H 9275   0.066   4.526   0.548 -0.3638  1.0839 -0.3669
  626TMC3    H1 9276   0.015   4.266   0.884 -0.6043  1.0475  0.7702
  626TMC3    H2 9277   4.398   4.360   0.641  0.8428  0.5071 -1.8613
  626TMC3    C7 9278   4.492   4.236   0.866  0.4657 -0.6630 -0.2518
  626TMC3    C8 9279   4.527   4.522   0.485 -0.9031 -0.0587 -0.2432
  626TMC3    O1 9280   4.558   4.190   0.957 -0.8619 -0.5507  0.5841
  626TMC3    O2 9281   4.600   4.550   0.392 -0.2212 -0.0344  0.2151
  627MPD2     C 9282   3.241   0.413  14.628 -1.0921  0.5822  0.0091
  627MPD2    C1 9283   3.303   0.400  14.751  0.7984 -0.0897  0.3953
  627MPD2    C2 9284   3.295   0.276  14.810 -0.2216  0.4443 -0.0532
  627MPD2    C3 9285   3.231   0.170  14.750 -0.1493 -0.5992 -0.7391
  627MPD2    C4 9286   3.179   0.181  14.624 -0.4745  0.2786 -0.5884
  627MPD2    C5 9287   3.188   0.301  14.565 -0.8111 -0.7662  0.3095
  627MPD2     H 9288   3.337   0.261  14.908  4.2170 -2.1915 -2.3479
  627MPD2    H1 9289   3.137   0.097  14.568  0.3573 -0.8704  0.5253
  627MPD2    H2 9290   3.255   0.508  14.579  2.9764 -0.0640 -0.0897
  627MPD2    H3 9291   3.150   0.325  14.467  0.3096  0.6629  0.2179
  627MPD2     N 9292   3.204   0.056  14.831 -0.3102 -0.0647 -0.9161
  627MPD2    H5 9293   3.242   0.054  14.925 -2.0221 -1.1527 -0.2625
  627MPD2    N1 9294   3.354   0.506  14.841 -0.6991  0.4853  0.2185
  627MPD2    H7 9295   3.389   0.478  14.932 -2.7488  0.9200  1.1271
  628TMC3    C1 9296   3.413   0.733  14.901 -0.5525  0.2352 -0.6364
  628TMC3    C2 9297   3.491   0.696  15.002 -0.4033  0.1766  0.4280
  628TMC3    C3 9298   3.531   0.791  15.092  0.8713  0.4029  0.2272
  628TMC3    C4 9299   3.385   0.864  14.880  1.0818  0.1815 -0.7624
  628TMC3    C5 9300   3.413   0.955  14.977  0.0862 -0.3682  0.3001
  628TMC3    C6 9301   3.494   0.919  15.079 -0.7481 -0.1151  0.3843
  628TMC3     C 9302   3.359   0.640  14.801 -0.0426  0.2147  0.2237
  628TMC3     O 9303   3.309   0.688  14.699  0.3500 -0.1659 -0.5244
  628TMC3     H 9304   3.531   0.595  15.011  0.8031  0.6166  0.0247
  628TMC3    H1 9305   3.315   0.879  14.798 -1.0497  3.3862  1.6567
  628TMC3    H2 9306   3.543   0.991  15.143 -2.8604 -0.6917  2.6131
  628TMC3    C7 9307   3.365   1.089  14.965  1.3112  0.0870  0.2485
  628TMC3    C8 9308   3.593   0.753  15.217 -0.2835 -0.3057  0.4071
  628TMC3    O1 9309   3.365   1.159  15.064 -0.8036  0.3856  0.2152
  628TMC3    O2 9310   3.631   0.846  15.284  0.5313 -0.1520 -0.0454
  629MPD2     C 9311   1.080   4.309  16.489 -0.1256 -0.3802 -0.0148
  629MPD2    C1 9312   1.099   4.179  16.523 -0.0740  0.4646 -0.1491
  629MPD2    C2 9313   0.998   4.124  16.603  1.4294 -0.5695  0.2074
  629MPD2    C3 9314   0.886   4.192  16.637  0.2161 -0.0154 -0.0656
  629MPD2    C4 9315   0.866   4.324  16.595 -0.0246  0.3169 -0.6958
  629MPD2    C5 9316   0.969   4.380  16.529  0.0854 -0.2284 -0.0785
  629MPD2     H 9317   1.003   4.020  16.632  0.4321  0.2546  3.2430
  629MPD2    H1 9318   0.782   4.385  16.624  1.0171  0.4732  2.0206
  629MPD2    H2 9319   1.150   4.364  16.426 -0.4298  1.1210  0.9521
  629MPD2    H3 9320   0.963   4.481  16.490 -0.7159  0.8209  2.6810
  629MPD2     N 9321   0.794   4.125  16.722  0.8468 -0.0906  0.2386
  629MPD2    H5 9322   0.824   4.033  16.755  1.3620  1.0411  2.9052
  629MPD2    N1 9323   1.205   4.111  16.466  0.0518  0.6100 -0.5736
  629MPD2    H7 9324   1.259   4.165  16.400  0.3682 -0.7893 -1.4504
  630TMC3    C1 9325   1.369   3.937  16.425  0.6989  0.6505 -0.6744
  630TMC3    C2 9326   1.419   4.026  16.336  0.4867 -0.4518  0.4285
  630TMC3    C3 9327   1.522   3.984  16.265 -0.5189 -0.1613 -0.3495
  630TMC3    C4 9328   1.397   3.804  16.421 -0.0631 -0.2060  0.8589
  630TMC3    C5 9329   1.515   3.770  16.360  0.1930  0.0382 -0.6262
  630TMC3    C6 9330   1.568   3.854  16.278 -0.0451  0.5134 -0.0141
  630TMC3     C 9331   1.249   3.981  16.502 -0.1347  0.5211  0.5842
  630TMC3     O 9332   1.203   3.902  16.583  0.0166  0.5894  0.0396
  630TMC3     H 9333   1.422   4.133  16.355  1.0953 -0.4917  0.5507
  630TMC3    H1 9334   1.367   3.739  16.502 -2.7887  2.0894  1.6895
  630TMC3    H2 9335   1.659   3.825  16.226  0.7947  0.7177  1.3334
  630TMC3    C7 9336   1.599   3.712  16.462  0.1629  0.2748 -0.5451
  630TMC3    C8 9337   1.633   4.069  16.281 -0.3360  0.8748  0.9931
  630TMC3    O1 9338   1.570   3.614  16.527 -0.5487  0.2261  0.1502
  630TMC3    O2 9339   1.668   4.099  16.393 -0.4632  0.5198  0.0680
  631MPD2     C 9340   4.282   3.182  15.904 -0.2906  0.4652 -0.1485
  631MPD2    C1 9341   4.380   3.269  15.862 -0.5645  0.7373  0.0177
  631MPD2    C2 9342   4.508   3.260  15.912  0.5137 -0.4491  0.0757
  631MPD2    C3 9343   4.543   3.143  15.983  0.5726  0.1649 -0.6782
  631MPD2    C4 9344   4.446   3.054  16.027  0.3083 -0.4907  0.4419
  631MPD2    C5 9345   4.318   3.074  15.984 -0.9141  0.3945 -0.1015
  631MPD2     H 9346   4.596   3.318  15.887 -0.3539  0.8590  0.0539
  631MPD2    H1 9347   4.470   2.975  16.097 -1.2934  0.3901  2.0084
  631MPD2    H2 9348   4.178   3.200  15.880 -0.1418  0.0393 -1.1201
  631MPD2    H3 9349   4.237   3.009  16.017 -1.6880  1.7541  0.6886
  631MPD2     N 9350   4.681   3.125  16.014 -0.7206 -0.3018  0.3080
  631MPD2    H5 9351   0.023   3.191  15.971 -0.9090 -1.1408 -1.2850
  631MPD2    N1 9352   4.349   3.373  15.772 -0.2400  0.0911 -0.1162
  631MPD2    H7 9353   4.255   3.393  15.738 -0.1091  2.9652  1.1963
  632TMC3    C1 9354   4.394   3.536  15.605  0.2384 -0.2812 -0.3974
  632TMC3    C2 9355   4.310   3.631  15.654 -0.0652 -0.0987 -0.8179
  632TMC3    C3 9356   4.273   3.726  15.558 -0.0965 -0.2865 -0.0844
  632TMC3    C4 9357   4.447   3.537  15.479 -0.6909  0.2030  0.3834
  632TMC3    C5 9358   4.408   3.634  15.397 -0.6855 -0.2051  0.3023
  632TMC3    C6 9359   4.315   3.723  15.425  0.0687  0.1409  0.3135
  632TMC3     C 9360   4.449   3.435  15.696  0.0670 -0.5256 -0.0535
  632TMC3     O 9361   4.564   3.392  15.674  0.2509  0.2341 -0.0204
  632TMC3     H 9362   4.275   3.632  15.757  0.6205  2.6202 -0.5934
  632TMC3    H1 9363   4.523   3.465  15.451 -0.5938 -0.0326  1.2283
  632TMC3    H2 9364   4.298   3.798  15.348  1.9266  0.6181  0.3678
  632TMC3    C7 9365   4.480   3.663  15.272 -0.9978  0.3256  0.1850
  632TMC3    C8 9366   4.155   3.800  15.590 -0.0661  0.6854 -0.1162
  632TMC3    O1 9367   4.428   3.723  15.176  0.1206  0.0010  0.0671
  632TMC3    O2 9368   4.150   3.844  15.705 -0.4291  0.2812  0.1395
  633MPD2     C 9369   4.331   1.669  17.575  1.2444  0.1452 -0.2240
  633MPD2    C1 9370   4.304   1.596  17.463  0.5168  0.8564 -0.0076
  633MPD2    C2 9371   4.322   1.457  17.461 -0.3376 -0.5317  0.1217
  633MPD2    C3 9372   4.352   1.395  17.584  0.1749 -0.2357 -0.1761
  633MPD2    C4 9373   4.378   1.471   0.007  0.6275  0.4696  0.6400
  633MPD2    C5 9374   4.371   1.608  17.687 -0.4789  0.1995 -0.0047
  633MPD2     H 9375   4.297   1.403  17.370 -0.2060 -0.8210  0.2581
  633MPD2    H1 9376   4.396   1.415   0.098 -1.8170  0.3638  1.0660
  633MPD2    H2 9377   4.315   1.776  17.585  0.1228 -0.2337  2.0723
  633MPD2    H3 9378   4.389   1.659   0.092  0.3382 -0.5289  0.2412
  633MPD2     N 9379   4.353   1.258  17.601 -0.5185  0.6822  0.1581
  633MPD2    H5 9380   4.376   1.223   0.005  0.0900  1.8169  0.4455
  633MPD2    N1 9381   4.279   1.667  17.343  0.3719 -0.5655 -0.1671
  633MPD2    H7 9382   4.304   1.619  17.256 -2.9271 -1.5206 -0.5955
  634TMC3    C1 9383   4.279   1.835  17.190 -0.9205 -0.7586  0.6445
  634TMC3    C2 9384   4.376   1.759  17.125  0.2044  0.0849 -0.2207
  634TMC3    C3 9385   4.403   1.785  16.994  0.6042  0.7396 -0.9605
  634TMC3    C4 9386   4.223   1.942  17.131  0.2867 -0.2374 -0.0138
  634TMC3    C5 9387   4.235   1.952  16.997 -0.4699  0.2290  0.2681
  634TMC3    C6 9388   4.325   1.869  16.926  0.6859  0.1319 -0.5278
  634TMC3     C 9389   4.257   1.801  17.328 -0.1945 -0.0512  0.1488
  634TMC3     O 9390   4.185   1.876  17.394 -0.6236 -0.3368 -0.7380
  634TMC3     H 9391   4.445   1.687  17.169 -0.1961 -1.1329 -1.5743
  634TMC3    H1 9392   4.165   2.009  17.194 -0.5415 -2.0665  1.1455
  634TMC3    H2 9393   4.331   1.881  16.819  0.4212 -1.0007 -0.6652
  634TMC3    C7 9394   4.168   2.058  16.921 -0.3643 -0.2266  0.0961
  634TMC3    C8 9395   4.458   1.673  16.925  0.1812  0.0381  0.4029
  634TMC3    O1 9396   4.191   2.055  16.803 -0.0598  0.0048 -0.3293
  634TMC3    O2 9397   4.472   1.571  16.991 -0.7832 -0.1032 -0.6367
  635TMC3    C1 9398   0.526   2.461   0.174  0.1049 -0.5901 -0.5186
  635TMC3    C2 9399   0.661   2.492   0.140 -0.0241 -0.8237  0.2539
  635TMC3    C3 9400   0.714   2.434   0.029  0.7860  0.4883 -0.2590
  635TMC3    C4 9401   0.470   2.360   0.099 -0.1427 -0.1706 -0.8696
  635TMC3    C5 9402   0.535   2.291   0.006 -0.6973 -0.2826 -0.5019
  635TMC3    C6 9403   0.659   2.333  17.650  0.1424  0.0934 -0.2212
  635TMC3     C 9404   0.467   2.516   0.296  0.1419  0.4656 -0.2246
  635TMC3     O 9405   0.345   2.524   0.306  0.9239  0.3310 -1.1000
  635TMC3     H 9406   0.713   2.564   0.202 -2.0797  0.8913 -0.0198
  635TMC3    H1 9407   0.380   2.311   0.134  0.2818  0.0354  0.4935
  635TMC3    H2 9408   0.712   2.286  17.568  0.0249  0.9174 -0.7675
  635TMC3    C7 9409   0.473   2.185  17.624 -0.2321  0.0067  0.3143
  635TMC3    C8 9410   0.844   2.473  17.670  0.0148  1.1417 -0.1589
  635TMC3    O1 9411   0.360   2.201  17.586 -0.0025  0.4206  0.0697
  635TMC3    O2 9412   0.933   2.501   0.057 -0.1932  0.0349 -0.4289
  636MPD2     C 9413   0.903   1.738  16.144  0.4859  0.6028  0.1084
  636MPD2    C1 9414   0.903   1.720  16.007  0.1069 -0.1688  0.2238
  636MPD2    C2 9415   0.952   1.597  15.967 -0.7242 -0.0785 -0.4295
  636MPD2    C3 9416   0.987   1.492  16.049 -0.1925 -0.0245  0.3459
  636MPD2    C4 9417   0.981   1.518  16.186 -0.4100  0.6858 -0.1121
  636MPD2    C5 9418   0.940   1.639  16.224 -0.3470  0.0461  0.1103
  636MPD2     H 9419   0.962   1.588  15.860 -1.7407 -0.5405 -0.4856
  636MPD2    H1 9420   1.015   1.446  16.259 -1.6419  1.0404  0.8085
  636MPD2    H2 9421   0.861   1.828  16.187  0.5461  0.4563  0.4772
  636MPD2    H3 9422   0.918   1.648  16.330  3.3045 -0.7027  0.9001
  636MPD2     N 9423   1.003   1.368  15.992  0.0847 -0.0079  0.2528
  636MPD2    H5 9424   0.983   1.358  15.893  1.9002 -1.9997  0.0716
  636MPD2    N1 9425   0.873   1.806  15.903  0.5310  0.5640  0.3874
  636MPD2    H7 9426   0.904   1.787  15.809  1.4146 -1.6623  1.1365
  637TMC3    C1 9427   1.054   1.132  15.981 -0.3288  0.8328 -0.4007
  637TMC3    C2 9428   1.084   1.016  16.044 -0.3966 -0.8039  0.1495
  637TMC3    C3 9429   1.146   0.915  15.976  0.2385 -0.2524 -0.1177
  637TMC3    C4 9430   1.063   1.145  15.844 -0.1065 -1.0959  0.5604
  637TMC3    C5 9431   1.106   1.037  15.770 -0.2147 -0.3354  0.1531
  637TMC3    C6 9432   1.154   0.930  15.838 -0.2710  0.8052 -0.1789
  637TMC3     C 9433   1.036   1.255  16.059  0.1863  0.4651  0.4896
  637TMC3     O 9434   1.074   1.247  16.175  0.1152  0.2958  0.4554
  637TMC3     H 9435   1.071   1.011  16.152 -1.6555 -0.1022  0.0301
  637TMC3    H1 9436   1.056   1.241  15.794 -0.3104 -0.2392  2.2487
  637TMC3    H2 9437   1.205   0.851  15.784 -0.5059  2.3698 -2.7048
  637TMC3    C7 9438   1.187   1.082  15.654 -0.4799 -0.5409  0.0424
  637TMC3    C8 9439   1.291   0.908  16.020 -0.0609  0.5447 -0.4445
  637TMC3    O1 9440   1.134   1.118  15.551  0.1798 -0.1432 -0.4495
  637TMC3    O2 9441   1.364   0.941  15.929  0.2827  0.3731 -0.5548
  638MPD2     C 9442   0.624   0.571  14.970 -0.6087  1.1098  0.6961
  638MPD2    C1 9443   0.717   0.473  15.003 -0.1125 -0.2033  0.2260
  638MPD2    C2 9444   0.674   0.373  15.092  0.3844 -0.2929 -0.2293
  638MPD2    C3 9445   0.539   0.365  15.140 -0.6113 -0.1343 -0.3282
  638MPD2    C4 9446   0.453   0.468  15.116  0.0927  0.0728 -0.1963
  638MPD2    C5 9447   0.496   0.575  15.036  0.5721  0.2181 -0.1256
  638MPD2     H 9448   0.727   0.279  15.100  2.1000  0.6914 -0.0225
  638MPD2    H1 9449   0.347   0.455  15.135 -0.3482  3.3520 -0.4123
  638MPD2    H2 9450   0.635   0.636  14.884 -0.3678  0.8722  0.5488
  638MPD2    H3 9451   0.428   0.655  15.010 -0.0543  0.2421  1.6096
  638MPD2     N 9452   0.507   0.249  15.212 -0.3152 -0.2347  0.8241
  638MPD2    H5 9453   0.579   0.177  15.212 -1.7430 -1.6568 -0.9563
  638MPD2    N1 9454   0.842   0.471  14.935 -0.6704 -0.5691 -0.4466
  638MPD2    H7 9455   0.860   0.537  14.861 -0.3791  0.6761  0.7470
  639TMC3    C1 9456   0.384   0.071  15.304 -0.2426 -0.4982 -0.1378
  639TMC3    C2 9457   0.262   0.002  15.296  0.4907 -0.5521 -0.6359
  639TMC3    C3 9458   0.266   4.588  15.320 -0.2271 -0.1540 -0.0694
  639TMC3    C4 9459   0.499   0.015  15.348 -0.4340 -0.1396  0.1930
  639TMC3    C5 9460   0.496   4.605  15.370  0.8717 -0.2703 -0.3438
  639TMC3    C6 9461   0.383   4.532  15.364 -0.1250  0.4167 -0.0976
  639TMC3     C 9462   0.381   0.212  15.265 -0.6392  0.0939 -0.6320
  639TMC3     O 9463   0.279   0.277  15.275  0.4840  0.0168 -0.0284
  639TMC3     H 9464   0.167   0.050  15.278 -0.6320 -1.7181  2.0940
  639TMC3    H1 9465   0.591   0.073  15.350  0.6554 -1.8515 -0.4897
  639TMC3    H2 9466   0.391   4.432  15.405  0.6566  0.5025 -0.0439
  639TMC3    C7 9467   0.599   4.565  15.455  0.4536  0.1333 -0.7579
  639TMC3    C8 9468   0.215   4.513  15.200 -0.3533  0.0117 -0.8603
  639TMC3    O1 9469   0.562   4.499  15.551 -0.3014  0.0057  0.1384
  639TMC3    O2 9470   0.208   4.587  15.100  0.0087 -0.2420  0.5894
  640MPD2     C 9471   0.551   3.874   9.754 -0.1143 -0.1298  0.0617
  640MPD2    C1 9472   0.680   3.935   9.759 -0.6134 -0.0513  0.3480
  640MPD2    C2 9473   0.688   4.072   9.761  0.2310  0.0329  0.5845
  640MPD2    C3 9474   0.579   4.158   9.753  1.1335  0.3293  0.6242
  640MPD2    C4 9475   0.452   4.098   9.753 -0.7027 -0.6272  0.6392
  640MPD2    C5 9476   0.439   3.959   9.742 -0.2476 -0.4959 -0.8187
  640MPD2     H 9477   0.785   4.117   9.775 -0.5602  1.2692  2.1024
  640MPD2    H1 9478   0.360   4.155   9.755 -0.2834  0.1244 -1.3048
  640MPD2    H2 9479   0.533   3.768   9.754 -1.4731  0.0992 -0.2072
  640MPD2    H3 9480   0.337   3.928   9.724  0.3935 -1.8245 -2.1061
  640MPD2     N 9481   0.590   4.299   9.738 -0.4463 -0.1255  0.0595
  640MPD2    H5 9482   0.509   4.358   9.722 -1.9142 -2.1806 -0.0704
  640MPD2    N1 9483   0.791   3.848   9.753 -0.6776 -0.1011  0.3898
  640MPD2    H7 9484   0.777   3.751   9.728 -2.8977  0.9670 -2.4426
  641TMC3    C1 9485   1.009   3.794   9.677 -0.0777  0.0191 -0.7085
  641TMC3    C2 9486   1.118   3.833   9.606  0.2587 -0.3736 -0.1252
  641TMC3    C3 9487   1.210   3.739   9.559 -0.0521 -0.1543 -0.2847
  641TMC3    C4 9488   0.984   3.658   9.693 -0.4735 -0.4183 -0.4831
  641TMC3    C5 9489   1.081   3.564   9.657  0.1547 -0.3704  0.0684
  641TMC3    C6 9490   1.191   3.607   9.585  0.1697 -0.0454 -0.6752
  641TMC3     C 9491   0.921   3.891   9.729 -0.4140  0.1196 -0.2570
  641TMC3     O 9492   0.965   4.003   9.723  0.0696 -0.5425  0.2009
  641TMC3     H 9493   1.134   3.938   9.584 -0.4926 -0.1673  0.3356
  641TMC3    H1 9494   0.907   3.629   9.763 -0.3252 -0.8293 -0.4910
  641TMC3    H2 9495   1.264   3.530   9.561 -1.1203 -0.8323 -2.0974
  641TMC3    C7 9496   1.038   3.427   9.651  0.3671  0.8922  0.4474
  641TMC3    C8 9497   1.339   3.782   9.511 -0.0525 -0.5766 -0.3053
  641TMC3    O1 9498   0.949   3.392   9.730  0.2693 -0.1704 -0.2014
  641TMC3    O2 9499   1.424   3.699   9.474  0.0618 -0.8190 -0.0021
  642TMC3    C1 9500   2.705   0.620  12.102  0.2496 -0.1106  0.5315
  642TMC3    C2 9501   2.839   0.614  12.112  0.4442 -0.7936  0.8813
  642TMC3    C3 9502   2.890   0.485  12.122 -0.1467  0.4371  0.4679
  642TMC3    C4 9503   2.622   0.512  12.106  0.2495  0.7561 -0.5213
  642TMC3    C5 9504   2.678   0.390  12.114 -0.2487 -0.1787 -0.0959
  642TMC3    C6 9505   2.813   0.369  12.125  0.2429  0.4002 -0.3278
  642TMC3     C 9506   2.648   0.762  12.122 -0.5624  0.3919  0.8483
  642TMC3     O 9507   2.716   0.853  12.077  0.1306 -0.6760  0.1975
  642TMC3     H 9508   2.890   0.709  12.119 -1.4544  0.3722 -1.5068
  642TMC3    H1 9509   2.514   0.516  12.107  0.3061  2.1340 -0.3064
  642TMC3    H2 9510   2.857   0.270  12.126 -1.4863 -0.3435  0.3501
  642TMC3    C7 9511   2.579   0.280  12.125 -0.4891 -0.0397  0.3928
  642TMC3    C8 9512   3.032   0.467  12.128  0.2283  0.7079 -0.2978
  642TMC3    O1 9513   2.472   0.302  12.071 -0.1674  0.0381 -0.5731
  642TMC3    O2 9514   3.076   0.365  12.074  0.5425  0.3116 -0.3137
  643TMC3    C1 9515   1.522   4.685   0.476 -0.7724  0.6873 -0.5632
  643TMC3    C2 9516   1.393   4.689   0.448  0.8207 -1.0583  0.3485
  643TMC3    C3 9517   1.343   4.632   0.335 -0.0647 -0.7868 -0.4916
  643TMC3    C4 9518   1.610   4.623   0.391  0.3821  0.4757 -1.2483
  643TMC3    C5 9519   1.557   4.566   0.275 -0.4615 -0.4810 -0.8929
  643TMC3    C6 9520   1.425   4.568   0.247  0.4359  0.3978 -0.3711
  643TMC3     C 9521   1.573   0.042   0.592  0.4763  0.2132 -1.1031
  643TMC3     O 9522   1.493   0.118   0.641  0.3152 -0.0976  0.6949
  643TMC3     H 9523   1.320   0.019   0.510  1.2962  0.6472 -0.4992
  643TMC3    H1 9524   1.716   4.641   0.399 -0.3532  3.7666  1.2784
  643TMC3    H2 9525   1.381   4.530   0.156 -1.5775  0.6828  0.4954
  643TMC3    C7 9526   1.640   4.584   0.156  0.0619 -0.6267 -0.0290
  643TMC3    C8 9527   1.244   4.712   0.266  0.1108 -0.4743 -0.2182
  643TMC3    O1 9528   1.742   4.647   0.185  0.3297 -0.2522 -0.2977
  643TMC3    O2 9529   1.166   4.659   0.194 -0.5763  0.7587  0.3700
  644MPD2     C 9530   0.978   3.997   9.298 -1.1026  0.1940 -0.1738
  644MPD2    C1 9531   1.036   3.889   9.236  0.7176 -0.1127 -0.1045
  644MPD2    C2 9532   0.970   3.766   9.245  0.1440  0.3868  0.5280
  644MPD2    C3 9533   0.863   3.744   9.328 -0.0129 -0.2625  0.6175
  644MPD2    C4 9534   0.802   3.859   9.388  0.6462  0.1875  0.0344
  644MPD2    C5 9535   0.855   3.982   9.358  0.6958  0.4232  0.2934
  644MPD2     H 9536   1.018   3.679   9.202 -0.2143  0.7915 -0.6852
  644MPD2    H1 9537   0.712   3.852   9.447 -0.8467  1.6696 -2.0544
  644MPD2    H2 9538   1.017   4.099   9.290 -3.3528  1.0802  0.2510
  644MPD2    H3 9539   0.802   4.061   9.410 -0.5707 -1.8532  2.4467
  644MPD2     N 9540   0.813   3.614   9.348 -0.2363 -0.3469 -0.1393
  644MPD2    H5 9541   0.844   3.532   9.296  0.5003 -0.0320 -0.1975
  644MPD2    N1 9542   1.165   3.906   9.176  0.1113 -0.4224  0.4648
  644MPD2    H7 9543   1.200   4.001   9.169 -2.2731  0.2456 -2.0884
  645TMC3    C1 9544   0.704   3.440   9.468  0.4927  0.3899  0.3756
  645TMC3    C2 9545   0.711   3.351   9.366  0.2112 -0.1561  0.6402
  645TMC3    C3 9546   0.709   3.219   9.399  0.5550 -0.2584 -1.4095
  645TMC3    C4 9547   0.690   3.401   9.599 -0.5247  0.4263 -0.5085
  645TMC3    C5 9548   0.666   3.264   9.629 -0.1230 -0.3691  0.2234
  645TMC3    C6 9549   0.683   3.174   9.528  0.8419 -0.0717 -0.3506
  645TMC3     C 9550   0.731   3.582   9.454 -0.2134 -0.1223 -0.1029
  645TMC3     O 9551   0.675   3.657   9.531 -0.4070  0.7398  0.1311
  645TMC3     H 9552   0.702   3.391   9.266 -0.4410 -3.2080 -0.5264
  645TMC3    H1 9553   0.686   3.467   9.685 -0.9662 -0.7925  0.3985
  645TMC3    H2 9554   0.697   3.070   9.554 -1.8750  0.1758  2.0659
  645TMC3    C7 9555   0.675   3.211   9.766  0.1458  0.6297  0.0273
  645TMC3    C8 9556   0.707   3.120   9.293  0.3561 -0.9814  0.5699
  645TMC3    O1 9557   0.717   3.097   9.777 -0.3533  0.4527  0.0107
  645TMC3    O2 9558   0.652   3.016   9.326 -0.2214  0.0645  0.8538
  646MPD2     C 9559   0.875   4.055  14.518 -0.1530 -0.0569  0.3221
  646MPD2    C1 9560   0.778   3.985  14.588 -0.0812  0.4246  0.5154
  646MPD2    C2 9561   0.651   4.026  14.588 -0.4254 -0.6520 -0.3966
  646MPD2    C3 9562   0.611   4.139  14.524  0.4286  0.5922 -0.1875
  646MPD2    C4 9563   0.708   4.224  14.476 -0.4455  0.1043 -0.3937
  646MPD2    C5 9564   0.839   4.183  14.475  0.9201 -0.1254  0.2671
  646MPD2     H 9565   0.576   3.969  14.642 -1.0597  1.3576  0.8038
  646MPD2    H1 9566   0.686   4.327  14.450  0.7765  1.1118  2.5803
  646MPD2    H2 9567   0.979   4.023  14.522  0.1337  1.1808  2.5314
  646MPD2    H3 9568   0.911   4.244  14.423  0.2968  0.7306  0.4116
  646MPD2     N 9569   0.475   4.171  14.519  0.3173  0.0140  0.7381
  646MPD2    H5 9570   0.414   4.113  14.577  0.4582  0.8485  1.7160
  646MPD2    N1 9571   0.815   3.860  14.646 -0.0568 -0.0672 -0.5807
  646MPD2    H7 9572   0.907   3.823  14.625  1.4929  3.2163  0.5309
  647TMC3    C1 9573   0.794   3.670  14.798 -0.1068  0.7745  0.0487
  647TMC3    C2 9574   0.708   3.591  14.867 -0.5862  0.1297 -0.5062
  647TMC3    C3 9575   0.757   3.503  14.955  0.3138  0.1878 -0.4636
  647TMC3    C4 9576   0.929   3.654  14.804  0.2930 -0.2238  0.3663
  647TMC3    C5 9577   0.971   3.550  14.885 -0.0988 -0.0117 -0.4575
  647TMC3    C6 9578   0.888   3.470  14.958 -0.6273  0.3177  0.2815
  647TMC3     C 9579   0.743   3.792  14.744  0.2110 -0.1202  0.6761
  647TMC3     O 9580   0.640   3.827  14.798 -0.2458  0.3177  0.2478
  647TMC3     H 9581   0.602   3.611  14.867 -0.8122 -1.0910  0.6066
  647TMC3    H1 9582   1.000   3.716  14.751 -0.2216 -0.5970 -0.7755
  647TMC3    H2 9583   0.922   3.385  15.015  0.1779 -0.1758 -0.9268
  647TMC3    C7 9584   1.110   3.553  14.932 -0.5170  0.0976 -0.0607
  647TMC3    C8 9585   0.671   3.410  15.021 -0.3870  0.1076 -0.4198
  647TMC3    O1 9586   1.132   3.554  15.051  0.0936 -0.3644 -0.1626
  647TMC3    O2 9587   0.726   3.347  15.112 -0.4086 -0.1151  0.0397
  648TMC3    C1 9588   0.078   1.750  16.252  0.1878  0.2206  0.4180
  648TMC3    C2 9589   0.139   1.646  16.181 -0.1079  0.3000  0.6448
  648TMC3    C3 9590   0.134   1.640  16.050  0.1207  0.1112 -0.1219
  648TMC3    C4 9591   0.006   1.837  16.172 -0.2053  0.3614 -0.2911
  648TMC3    C5 9592   4.714   1.816  16.039  0.2403  0.1953  0.8585
  648TMC3    C6 9593   0.057   1.715  15.970 -0.5533  0.0613 -0.7281
  648TMC3     C 9594   0.115   1.788  16.384  0.6583 -0.1073  0.5343
  648TMC3     O 9595   0.049   1.876  16.438 -0.1841 -0.0499  0.4087
  648TMC3     H 9596   0.214   1.588  16.233 -1.7571 -1.4524  1.0729
  648TMC3    H1 9597   4.686   1.921  16.227  2.7331  1.4593  0.2645
  648TMC3    H2 9598   0.038   1.685  15.868  0.4567 -2.3858 -0.1927
  648TMC3    C7 9599   4.646   1.914  15.958 -0.1948  0.0297  0.2773
  648TMC3    C8 9600   0.168   1.515  15.984 -0.2231  0.5427  0.2562
  648TMC3    O1 9601   4.669   1.911  15.837  0.2907 -0.3770 -0.0808
  648TMC3    O2 9602   0.198   1.516  15.866  0.1644 -0.5927 -0.2857
  649TMC3    C1 9603   4.179   2.647  12.561 -0.7733 -0.3511 -0.4158
  649TMC3    C2 9604   4.290   2.566  12.552 -0.2360  0.0794 -0.0973
  649TMC3    C3 9605   4.279   2.441  12.619 -0.3563 -0.4006  0.0893
  649TMC3    C4 9606   4.068   2.620  12.642  0.0401 -0.1089 -1.2651
  649TMC3    C5 9607   4.066   2.497  12.705  0.7341 -0.7479  0.1076
  649TMC3    C6 9608   4.168   2.408  12.689  0.3581 -0.6748  0.7474
  649TMC3     C 9609   4.151   2.742  12.451 -0.7009 -0.3805  0.1000
  649TMC3     O 9610   4.034   2.772  12.434  0.1477  0.4508  0.1668
  649TMC3     H 9611   4.376   2.590  12.490 -0.1038  1.4120  0.6000
  649TMC3    H1 9612   3.990   2.694  12.654  1.2739  0.8118  1.0733
  649TMC3    H2 9613   4.180   2.326  12.759  0.5581 -1.6614 -0.4435
  649TMC3    C7 9614   3.958   2.460  12.793 -0.2053 -0.8703  0.7302
  649TMC3    C8 9615   4.383   2.347  12.611 -0.1269 -0.4191  0.5312
  649TMC3    O1 9616   3.875   2.550  12.820 -0.3578 -0.0191 -0.1881
  649TMC3    O2 9617   4.351   2.235  12.650  0.5575 -0.2331  0.1277
  650TMC3    C1 9618   1.922   4.511  12.754  0.6518 -0.4616  0.3210
  650TMC3    C2 9619   1.955   4.632  12.818  0.9384  0.3667  0.3294
  650TMC3    C3 9620   1.971   0.025  12.740 -0.3192  0.2997 -0.4062
  650TMC3    C4 9621   1.905   4.503  12.619 -0.6599 -0.9484  0.0817
  650TMC3    C5 9622   1.920   4.619  12.550 -0.4594  0.4388  0.4565
  650TMC3    C6 9623   1.970   0.011  12.604  0.0667  0.0105 -0.0641
  650TMC3     C 9624   1.862   4.398  12.827  0.5899  0.3113  0.5828
  650TMC3     O 9625   1.817   4.421  12.940 -0.3673 -0.2974 -0.3117
  650TMC3     H 9626   1.963   4.627  12.926  3.1448 -1.4472  0.1055
  650TMC3    H1 9627   1.854   4.423  12.567 -2.2550 -0.4147  0.8013
  650TMC3    H2 9628   2.007   0.098  12.551  2.5895 -2.0018 -1.6235
  650TMC3    C7 9629   1.822   4.629  12.441 -0.2605  0.3739 -0.5897
  650TMC3    C8 9630   1.988   0.155  12.798  0.0274 -1.1785 -0.0243
  650TMC3    O1 9631   1.763   4.522  12.412 -0.2192 -0.3315  0.8265
  650TMC3    O2 9632   2.067   0.231  12.750 -0.1015 -0.1782 -0.8381
  651MPD2     C 9633   0.524   1.486  10.674 -0.2969 -0.2077  0.2146
  651MPD2    C1 9634   0.510   1.615  10.721 -0.2411  0.5157 -0.1248
  651MPD2    C2 9635   0.612   1.675  10.790 -0.0350  0.2833 -0.0607
  651MPD2    C3 9636   0.734   1.612  10.802  0.0094 -0.2103  0.0238
  651MPD2    C4 9637   0.753   1.489  10.740 -0.0468 -0.7961 -0.7047
  651MPD2    C5 9638   0.643   1.429  10.683  0.2620  0.3381 -0.7750
  651MPD2     H 9639   0.603   1.772  10.836 -1.3102 -0.0901  0.4797
  651MPD2    H1 9640   0.845   1.431  10.738  0.4465 -0.0885  1.5359
  651MPD2    H2 9641   0.453   1.422  10.622  1.5459  0.1389 -2.7426
  651MPD2    H3 9642   0.672   1.337  10.634 -0.4773 -1.5551  2.4055
  651MPD2     N 9643   0.838   1.677  10.875  0.1433  0.1659 -0.6134
  651MPD2    H5 9644   0.823   1.763  10.927 -0.2941  0.5037 -1.2951
  651MPD2    N1 9645   0.381   1.675  10.725  0.6135 -0.8672  0.2149
  651MPD2    H7 9646   0.367   1.755  10.786 -0.0657 -2.4084  2.0715
  652TMC3    C1 9647   1.271   1.732  11.073 -0.0629 -0.1598  0.2691
  652TMC3    C2 9648   1.193   1.668  10.976 -0.2379  0.0828  0.2369
  652TMC3    C3 9649   1.056   1.692  10.982 -0.0323 -0.4485  0.0932
  652TMC3    C4 9650   1.217   1.812  11.164 -0.2653  0.2545  0.0597
  652TMC3    C5 9651   1.083   1.823  11.168 -0.3296 -0.6941 -0.4950
  652TMC3    C6 9652   0.998   1.755  11.086 -0.5795  0.7411  0.1616
  652TMC3     C 9653   1.416   1.744  11.070  0.4558 -0.0014 -0.0359
  652TMC3     O 9654   1.469   1.744  11.181 -0.0063 -0.6613  0.4595
  652TMC3     H 9655   1.239   1.596  10.909 -0.8969 -0.6480  0.5678
  652TMC3    H1 9656   1.272   1.844  11.251  0.3531 -2.2100  0.5802
  652TMC3    H2 9657   0.890   1.757  11.096 -0.6571  1.5457 -0.7657
  652TMC3    C7 9658   1.043   1.946  11.231 -1.2687 -0.0142 -0.2185
  652TMC3    C8 9659   0.966   1.625  10.889  0.0175  0.3552 -0.3216
  652TMC3    O1 9660   0.939   1.954  11.290 -0.6032 -0.3246 -0.4593
  652TMC3    O2 9661   1.013   1.519  10.847 -0.0319 -0.3707  0.0008
  653MPD2     C 9662   4.190   1.302   0.422  0.1602 -0.0342 -0.0710
  653MPD2    C1 9663   4.171   1.394   0.321 -0.6970 -0.7364  0.1215
  653MPD2    C2 9664   4.112   1.339   0.206  0.0833 -0.3165 -1.2549
  653MPD2    C3 9665   4.069   1.211   0.184  0.2709  0.5198 -0.2938
  653MPD2    C4 9666   4.082   1.126   0.287 -0.2699  0.1649 -0.6138
  653MPD2    C5 9667   4.144   1.170   0.407 -0.1392  0.8475 -0.2702
  653MPD2     H 9668   4.098   1.416   0.131  0.8728  1.6903  0.6461
  653MPD2    H1 9669   4.051   1.022   0.282  1.3538 -0.3300 -0.5531
  653MPD2    H2 9670   4.228   1.311   0.523 -0.1566  0.8393 -0.0287
  653MPD2    H3 9671   4.153   1.097   0.486  0.0375  0.4329 -0.6693
  653MPD2     N 9672   4.004   1.171   0.070 -0.0982 -0.3969  0.0587
  653MPD2    H5 9673   3.984   1.245   0.004  1.1465  1.4350  1.7167
  653MPD2    N1 9674   4.214   1.531   0.333 -0.1020 -0.1492 -0.0357
  653MPD2    H7 9675   4.181   1.587   0.255  0.1788 -0.0182 -0.0569
  654TMC3    C1 9676   3.861   1.065  17.610  0.0118 -0.6546  0.6037
  654TMC3    C2 9677   3.791   1.179  17.585 -0.5787 -0.6267  0.4970
  654TMC3    C3 9678   3.711   1.186  17.480 -0.6978  0.5343 -0.5152
  654TMC3    C4 9679   3.832   0.949  17.537 -0.3260 -0.0820  0.2444
  654TMC3    C5 9680   3.741   0.960  17.436  0.6758 -0.9071 -0.3670
  654TMC3    C6 9681   3.692   1.079  17.397 -0.1185  0.3442  0.5160
  654TMC3     C 9682   3.952   1.046   0.037  0.5480 -0.1317 -0.2409
  654TMC3     O 9683   3.987   0.935   0.075  0.6610 -0.6305  0.2707
  654TMC3     H 9684   3.816   1.278  17.622 -1.5616  0.0467 -0.6467
  654TMC3    H1 9685   3.886   0.858  17.559 -1.8546 -1.4482 -1.7627
  654TMC3    H2 9686   3.629   1.089  17.310  1.7268 -2.9236 -1.2102
  654TMC3    C7 9687   3.721   0.846  17.350 -0.4182  0.1014  0.1811
  654TMC3    C8 9688   3.646   1.313  17.450  0.2717 -0.2733  0.8077
  654TMC3    O1 9689   3.631   0.864  17.267 -0.5302  0.4821 -0.0744
  654TMC3    O2 9690   3.634   1.397  17.540 -0.5042 -0.1978 -0.0237
  655MPD2     C 9691   0.466   1.757  15.900 -0.4720 -0.0343  0.1405
  655MPD2    C1 9692   0.412   1.833  15.800 -0.4026 -0.0647  0.1193
  655MPD2    C2 9693   0.436   1.790  15.672 -0.7057 -0.1221 -0.3426
  655MPD2    C3 9694   0.529   1.694  15.638 -0.4232  0.3791  0.9436
  655MPD2    C4 9695   0.599   1.643  15.740  0.3420 -0.0939 -0.7075
  655MPD2    C5 9696   0.556   1.657  15.869  0.3500  0.3229 -0.4294
  655MPD2     H 9697   0.400   1.857  15.595  0.2938 -2.1590 -2.6045
  655MPD2    H1 9698   0.686   1.579  15.728  1.3089  1.1689 -0.4515
  655MPD2    H2 9699   0.443   1.773  16.004  2.2953  0.6080  0.6376
  655MPD2    H3 9700   0.604   1.597  15.945  0.0209  0.5191 -0.0690
  655MPD2     N 9701   0.553   1.661  15.506  0.3454 -0.3299  0.4531
  655MPD2    H5 9702   0.487   1.693  15.436  0.3236  2.2169  1.6806
  655MPD2    N1 9703   0.346   1.956  15.826 -0.6385 -0.1273  0.0980
  655MPD2    H7 9704   0.295   1.993  15.746  0.2977  0.0746 -0.4102
  656TMC3    C1 9705   0.252   2.128  15.968  0.2147 -0.4077 -0.4704
  656TMC3    C2 9706   0.239   2.176  16.094  0.2897  0.0635  0.1136
  656TMC3    C3 9707   0.167   2.290  16.118 -0.0213 -0.2014  0.5121
  656TMC3    C4 9708   0.170   2.174  15.870 -0.4924  0.1374  0.4020
  656TMC3    C5 9709   0.103   2.295  15.888 -0.2544  0.6760 -0.2220
  656TMC3    C6 9710   0.108   2.350  16.010 -1.2469 -0.0040  0.4261
  656TMC3     C 9711   0.355   2.023  15.942  0.5056 -0.0302  0.2664
  656TMC3     O 9712   0.422   1.999  16.041  0.0097 -0.1014  0.0853
  656TMC3     H 9713   0.285   2.135  16.183 -3.3844  0.3623  2.1464
  656TMC3    H1 9714   0.153   2.125  15.775  1.8664 -1.4604  0.8020
  656TMC3    H2 9715   0.056   2.442  16.033 -0.7693  0.6381 -1.0617
  656TMC3    C7 9716   0.032   2.351  15.776 -0.3188 -0.6328  0.3338
  656TMC3    C8 9717   0.065   2.250  16.216  0.4380 -0.1212  0.3423
  656TMC3    O1 9718   0.050   2.294  15.670  0.4019  0.7291  0.3948
  656TMC3    O2 9719   0.060   2.134  16.259 -0.0345  0.0008 -0.1597
  657TMC3    C1 9720   0.143   1.098  15.002 -0.2431  0.6609 -0.2186
  657TMC3    C2 9721   0.031   1.174  15.020 -0.4187 -0.5852  0.3960
  657TMC3    C3 9722   0.032   1.287  14.947 -0.0507 -0.1050 -1.4151
  657TMC3    C4 9723   0.247   1.127  14.920  0.0233 -1.0936 -0.8006
  657TMC3    C5 9724   0.238   1.240  14.843 -0.1450  0.1156 -0.8140
  657TMC3    C6 9725   0.130   1.326  14.861 -0.9782 -0.5599  0.2556
  657TMC3     C 9726   0.149   0.952  15.044 -0.5091  0.0660  0.9867
  657TMC3     O 9727   0.211   0.863  14.985  0.8148  0.4739  0.7733
  657TMC3     H 9728   4.664   1.141  15.073 -0.5723  0.0437  0.5325
  657TMC3    H1 9729   0.333   1.061  14.921 -0.3996 -1.6580 -1.7340
  657TMC3    H2 9730   0.134   1.421  14.808 -0.9000  0.1141  1.4868
  657TMC3    C7 9731   0.366   1.294  14.787 -0.0274  0.0298  0.1478
  657TMC3    C8 9732   4.635   1.373  14.970 -0.6283 -0.2463  0.6163
  657TMC3    O1 9733   0.383   1.416  14.779  0.5162  0.6677  0.2748
  657TMC3    O2 9734   4.594   1.436  14.875 -0.2347  0.3090  0.0907
  658MPD2     C 9735   0.878   1.653  14.724 -0.3689  0.2069 -0.5383
  658MPD2    C1 9736   0.741   1.647  14.740 -0.6313  0.1578  0.1702
  658MPD2    C2 9737   0.652   1.684  14.638 -0.3352  0.3619 -0.0589
  658MPD2    C3 9738   0.700   1.730  14.517 -0.2877  0.2132 -0.0102
  658MPD2    C4 9739   0.839   1.738  14.500 -0.4122  0.6212 -1.0135
  658MPD2    C5 9740   0.925   1.688  14.595  0.5231  0.6599 -0.6806
  658MPD2     H 9741   0.546   1.674  14.656 -0.0084  1.5883  2.6663
  658MPD2    H1 9742   0.884   1.782  14.412  0.1644  0.9569 -0.5542
  658MPD2    H2 9743   0.950   1.615  14.796 -1.3368  1.0965  0.8862
  658MPD2    H3 9744   1.031   1.687  14.569  0.4557  0.4483 -0.9451
  658MPD2     N 9745   0.610   1.798  14.427  0.3830  0.1466 -0.1268
  658MPD2    H5 9746   0.516   1.806  14.465  0.2015  1.2740 -0.8068
  658MPD2    N1 9747   0.679   1.614  14.868 -0.5341 -0.0156  0.3402
  658MPD2    H7 9748   0.579   1.629  14.882 -0.9600 -2.9342  0.4621
  659TMC3    C1 9749   0.660   1.544  15.090 -0.9752  0.1513  0.1381
  659TMC3    C2 9750   0.709   1.569  15.217 -0.2950  0.6518 -0.2008
  659TMC3    C3 9751   0.622   1.542  15.323 -0.0345  0.4986  0.2875
  659TMC3    C4 9752   0.534   1.498  15.069 -0.7122 -0.4508 -0.2583
  659TMC3    C5 9753   0.452   1.479  15.173 -0.1154  0.4734  0.3861
  659TMC3    C6 9754   0.496   1.489  15.303  0.6788 -0.0006 -0.6245
  659TMC3     C 9755   0.750   1.573  14.979  0.5792  0.2275  0.9677
  659TMC3     O 9756   0.870   1.573  15.002  0.1738  0.1139 -0.5916
  659TMC3     H 9757   0.802   1.622  15.234 -0.5615  0.7640  0.9448
  659TMC3    H1 9758   0.501   1.473  14.969  1.4165 -1.1903 -0.7630
  659TMC3    H2 9759   0.428   1.468  15.384  0.2915  2.2350 -0.3592
  659TMC3    C7 9760   0.311   1.490  15.160  0.0147  0.3593 -0.3650
  659TMC3    C8 9761   0.656   1.579  15.456  0.0520  0.3199  0.4133
  659TMC3    O1 9762   0.243   1.447  15.254 -0.3117 -0.1777 -0.4334
  659TMC3    O2 9763   0.769   1.547  15.492  0.4079  0.1383 -0.2980
  660MPD2     C 9764   4.040   0.556  12.519  0.3186  0.4806  0.3651
  660MPD2    C1 9765   3.930   0.621  12.480 -0.3650  0.0428 -0.5898
  660MPD2    C2 9766   3.817   0.586  12.556 -0.2124  0.1733  0.1532
  660MPD2    C3 9767   3.818   0.500  12.670  0.3203  0.1021  0.3273
  660MPD2    C4 9768   3.929   0.426  12.697  0.0740  0.3978 -0.5517
  660MPD2    C5 9769   4.036   0.463  12.622 -0.2279 -0.4850  0.3818
  660MPD2     H 9770   3.719   0.618  12.521 -0.4671 -0.1658  0.5484
  660MPD2    H1 9771   3.940   0.356  12.779 -1.4127  0.9164  0.0878
  660MPD2    H2 9772   4.136   0.575  12.473  0.4638 -0.6851  0.1724
  660MPD2    H3 9773   4.133   0.417  12.641 -0.2725 -0.8597 -0.3278
  660MPD2     N 9774   3.703   0.470  12.740  0.1007 -0.4141  0.0638
  660MPD2    H5 9775   3.711   0.398  12.811 -0.8313 -1.4898 -0.9232
  660MPD2    N1 9776   3.928   0.710  12.373  0.0086 -0.1413 -0.2598
  660MPD2    H7 9777   4.009   0.705  12.311  1.0863  1.1864  1.0207
  661TMC3    C1 9778   3.833   0.862  12.219 -0.3847 -0.2019  0.6469
  661TMC3    C2 9779   3.896   0.807  12.117 -0.9439 -0.3761 -0.3696
  661TMC3    C3 9780   3.868   0.851  11.995 -0.0481 -0.0358 -0.1437
  661TMC3    C4 9781   3.733   0.957  12.204 -0.0428 -0.6693 -0.2702
  661TMC3    C5 9782   3.679   0.972  12.078  0.5865  0.1640 -0.6430
  661TMC3    C6 9783   3.750   0.922  11.968 -0.5914 -0.7347  0.7108
  661TMC3     C 9784   3.830   0.802  12.352  0.2375 -0.2790 -0.8601
  661TMC3     O 9785   3.743   0.834  12.430  0.1702  0.8346 -0.0806
  661TMC3     H 9786   3.978   0.742  12.145 -1.0719 -0.3509  0.0701
  661TMC3    H1 9787   3.680   1.004  12.286 -0.6530 -0.1327 -0.9778
  661TMC3    H2 9788   3.709   0.935  11.869 -1.3844  1.2826  1.2964
  661TMC3    C7 9789   3.532   0.984  12.072  0.0938 -0.3247 -0.5846
  661TMC3    C8 9790   3.922   0.760  11.899  0.0872  0.1817 -1.2964
  661TMC3    O1 9791   3.481   1.063  12.154  0.3475  0.1138 -0.4456
  661TMC3    O2 9792   3.973   0.653  11.941  0.1762  0.6938 -0.5746
  662MPD2     C 9793   3.511   0.283  17.443  0.3125  0.1514  0.2794
  662MPD2    C1 9794   3.499   0.230  17.571 -0.2244  0.1588 -0.3611
  662MPD2    C2 9795   3.503   0.321  17.679  0.2848 -0.8062  0.1197
  662MPD2    C3 9796   3.499   0.453  17.650 -0.0327  0.3067  0.7975
  662MPD2    C4 9797   3.501   0.499  17.525 -0.2047  0.2448 -0.0861
  662MPD2    C5 9798   3.514   0.421  17.421 -0.5897  0.0359 -0.1727
  662MPD2     H 9799   3.484   0.287   0.091 -0.5644  0.3004  0.3313
  662MPD2    H1 9800   3.496   0.605  17.505  1.2259  0.2892 -0.1970
  662MPD2    H2 9801   3.511   0.221  17.354 -2.6767 -0.0696  0.4121
  662MPD2    H3 9802   3.528   0.461  17.321 -0.8212  0.6274  0.0350
  662MPD2     N 9803   3.474   0.552   0.066 -0.1626  0.6236 -0.1415
  662MPD2    H5 9804   3.435   0.643   0.041 -1.6659 -0.1394 -0.5971
  662MPD2    N1 9805   3.483   0.091  17.597 -0.4101 -0.3076  0.0212
  662MPD2    H7 9806   3.491   0.063   0.005  0.9521  0.0514  0.0129
  663TMC3    C1 9807   3.444   4.584  17.562 -0.4500 -0.3379 -0.3445
  663TMC3    C2 9808   3.392   4.577  17.687  0.5934 -0.4582  0.3647
  663TMC3    C3 9809   3.324   4.465   0.038 -0.0292 -0.1659 -0.8817
  663TMC3    C4 9810   3.449   4.477  17.480 -0.2684  0.1547  0.6717
  663TMC3    C5 9811   3.393   4.363  17.525  1.3916 -0.5578 -0.6493
  663TMC3    C6 9812   3.331   4.353  17.643  0.5289  0.0532  0.5356
  663TMC3     C 9813   3.464   4.712  17.502  0.8094 -0.3626 -0.1149
  663TMC3     O 9814   3.447   4.722  17.380  0.0825  0.1243  0.2963
  663TMC3     H 9815   3.370   4.666   0.057 -1.6115 -0.4359 -0.4712
  663TMC3    H1 9816   3.483   4.486  17.377 -1.3391  1.2039  0.4151
  663TMC3    H2 9817   3.262   4.271  17.662 -1.6024  2.0546  1.3454
  663TMC3    C7 9818   3.387   4.257  17.428  0.3270 -0.2997  0.1727
  663TMC3    C8 9819   3.182   4.495   0.062 -0.3741 -0.1969 -0.5227
  663TMC3    O1 9820   3.396   4.284  17.312  0.5798 -0.3199 -0.1255
  663TMC3    O2 9821   3.156   4.611   0.023  0.2083  0.4091 -0.2513
  664MPD2     C 9822   1.643   3.131  17.509 -0.3230  0.1705  0.7394
  664MPD2    C1 9823   1.652   3.266  17.535  0.1185 -0.3120  0.2587
  664MPD2    C2 9824   1.615   3.306  17.666  0.1568 -0.5366  1.0893
  664MPD2    C3 9825   1.586   3.214   0.078  0.3090 -0.0520  0.8721
  664MPD2    C4 9826   1.597   3.080   0.047 -0.0901  0.5580 -0.6572
  664MPD2    C5 9827   1.625   3.036  17.605 -0.1823  0.1933  0.0151
  664MPD2     H 9828   1.611   3.412  17.688 -0.0863 -0.2325 -0.3833
  664MPD2    H1 9829   1.597   3.002   0.122  1.4081 -0.3509 -1.5873
  664MPD2    H2 9830   1.651   3.095  17.407 -0.6647  0.1644  0.7175
  664MPD2    H3 9831   1.628   2.930  17.586 -1.2421  0.2419 -0.4659
  664MPD2     N 9832   1.549   3.255   0.208 -0.3140 -0.4168 -0.3145
  664MPD2    H5 9833   1.567   3.353   0.223 -1.6811 -0.2012 -0.0368
  664MPD2    N1 9834   1.693   3.362  17.445 -0.5294 -0.3514  0.7821
  664MPD2    H7 9835   1.700   3.458  17.477 -0.9541  0.4923 -1.6600
  665TMC3    C1 9836   1.437   3.260   0.416  1.1967 -1.0148  0.6185
  665TMC3    C2 9837   1.351   3.202   0.506 -0.4781 -0.5495 -0.1592
  665TMC3    C3 9838   1.380   3.233   0.639  0.2729 -0.5829 -0.4638
  665TMC3    C4 9839   1.530   3.355   0.451  0.1393  0.3570  0.6744
  665TMC3    C5 9840   1.544   3.392   0.581 -0.1524 -0.1531 -0.2319
  665TMC3    C6 9841   1.471   3.335   0.682 -0.0491  0.4134 -0.2781
  665TMC3     C 9842   1.471   3.182   0.298  0.1341 -0.4198 -0.1852
  665TMC3     O 9843   1.422   3.071   0.285  0.2361 -0.4410 -0.1193
  665TMC3     H 9844   1.295   3.113   0.481  0.3324 -1.0146 -0.2834
  665TMC3    H1 9845   1.588   3.411   0.378  2.1441 -0.1367  1.8774
  665TMC3    H2 9846   1.492   3.356   0.786  0.9519  0.2458 -0.4462
  665TMC3    C7 9847   1.572   3.533   0.598  0.7326  0.4567  0.3350
  665TMC3    C8 9848   1.281   3.211   0.742 -0.3659 -0.1233  0.2137
  665TMC3    O1 9849   1.572   3.600   0.493  0.3093  0.3079 -0.2620
  665TMC3    O2 9850   1.316   3.255   0.854 -0.4344 -0.2013 -0.2942
  666TMC3    C1 9851   1.333   2.902  10.294  0.5689 -0.1592 -0.4612
  666TMC3    C2 9852   1.409   2.861  10.401 -1.1087 -0.3911 -0.0939
  666TMC3    C3 9853   1.528   2.923  10.420 -0.3171  0.0284 -0.4731
  666TMC3    C4 9854   1.367   3.006  10.213 -0.2507  0.1312  0.2157
  666TMC3    C5 9855   1.483   3.069  10.245  0.4076  0.7189  0.1432
  666TMC3    C6 9856   1.561   3.035  10.349  0.1682 -0.0686 -0.3803
  666TMC3     C 9857   1.191   2.915  10.329  0.1205 -0.1196 -0.6190
  666TMC3     O 9858   1.126   2.986  10.252 -0.0941  0.0268  0.0383
  666TMC3     H 9859   1.388   2.779  10.469 -0.7726 -0.1444  0.3099
  666TMC3    H1 9860   1.310   3.037  10.126  0.7278  1.6304  0.1000
  666TMC3    H2 9861   1.643   3.091  10.392  0.7612 -0.1269 -1.4285
  666TMC3    C7 9862   1.487   3.209  10.208 -0.0874  0.0286 -0.4618
  666TMC3    C8 9863   1.607   2.873  10.527  0.1539 -0.3470  0.5762
  666TMC3    O1 9864   1.384   3.273  10.180 -0.4057  0.0439  0.7161
  666TMC3    O2 9865   1.562   2.784  10.597  0.7626  0.0827 -0.0295
  667MPD2     C 9866   2.693   3.101  14.941  0.3178 -0.6434 -0.0613
  667MPD2    C1 9867   2.583   3.110  15.020  0.0834 -0.0368  0.1038
  667MPD2    C2 9868   2.510   3.001  15.034 -0.2844  0.1011  0.2967
  667MPD2    C3 9869   2.535   2.890  14.956 -0.3306 -0.0309  0.3350
  667MPD2    C4 9870   2.637   2.888  14.868  0.0800 -0.6544 -0.6940
  667MPD2    C5 9871   2.712   2.995  14.858 -0.1979  0.0845 -0.2221
  667MPD2     H 9872   2.419   3.003  15.093 -0.2419 -0.4656  0.3833
  667MPD2    H1 9873   2.659   2.805  14.801  0.2388 -0.3283 -1.0475
  667MPD2    H2 9874   2.757   3.186  14.917 -3.2678  1.0671 -3.5415
  667MPD2    H3 9875   2.807   2.996  14.806  1.5376  0.3863  2.9719
  667MPD2     N 9876   2.443   2.777  14.962  0.7964  0.4617  0.6801
  667MPD2    H5 9877   2.459   2.701  14.897 -1.8827 -0.6656  1.3257
  667MPD2    N1 9878   2.551   3.228  15.093  0.1398  0.0363  0.4223
  667MPD2    H7 9879   2.480   3.211  15.164  0.9183 -0.6701  1.0212
  668TMC3    C1 9880   2.600   3.426  15.212 -0.2932 -0.8394 -0.8840
  668TMC3    C2 9881   2.668   3.548  15.229 -0.5034  0.0073 -0.2258
  668TMC3    C3 9882   2.675   3.598  15.359 -0.4085 -0.3630 -0.5593
  668TMC3    C4 9883   2.536   3.373  15.320 -0.3904 -0.2528 -0.5724
  668TMC3    C5 9884   2.536   3.430  15.447 -0.3329 -0.8888  0.6868
  668TMC3    C6 9885   2.613   3.541  15.472  0.4870 -0.1012 -0.0813
  668TMC3     C 9886   2.627   3.342  15.094 -0.1518  0.4867  0.1372
  668TMC3     O 9887   2.722   3.381  15.028 -0.0945  0.0997 -0.2294
  668TMC3     H 9888   2.711   3.592  15.141 -1.7643  1.4794 -0.1094
  668TMC3    H1 9889   2.491   3.274  15.320  1.1228 -0.9517 -0.3354
  668TMC3    H2 9890   2.620   3.588  15.569  0.2283 -0.5970  0.1791
  668TMC3    C7 9891   2.449   3.391  15.556  0.1147  0.6744 -0.6644
  668TMC3    C8 9892   2.742   3.729  15.375 -0.2085 -1.1192 -0.5800
  668TMC3    O1 9893   2.491   3.395  15.672  0.5650 -0.1672 -0.4952
  668TMC3    O2 9894   2.728   3.785  15.484  0.6912  0.7472  0.4199
  669TMC3    C1 9895   0.814   3.388  14.289  0.8100  0.3265 -0.3050
  669TMC3    C2 9896   0.709   3.414  14.202  0.3383  0.2970  0.0712
  669TMC3    C3 9897   0.734   3.503  14.100  0.4116 -0.1978 -0.5459
  669TMC3    C4 9898   0.941   3.420  14.247  0.2667 -0.3127 -0.2993
  669TMC3    C5 9899   0.964   3.497  14.136  0.8635  0.5255 -0.4564
  669TMC3    C6 9900   0.859   3.543  14.061 -0.6968 -0.6145  0.8520
  669TMC3     C 9901   0.793   3.315  14.418  0.4044 -0.5107  0.2228
  669TMC3     O 9902   0.677   3.289  14.439  0.1848 -0.5596 -0.4833
  669TMC3     H 9903   0.606   3.406  14.234  0.8959  1.0849  2.0233
  669TMC3    H1 9904   1.029   3.414  14.311 -0.1635 -2.1632  0.1267
  669TMC3    H2 9905   0.880   3.617  13.984 -0.9085  1.3462  2.6832
  669TMC3    C7 9906   1.083   3.586  14.142  0.3962 -0.5131  0.3804
  669TMC3    C8 9907   0.623   3.568  14.036  0.1592  0.1246  0.1714
  669TMC3    O1 9908   1.142   3.601  14.249 -0.0324  0.2476 -0.4265
  669TMC3    O2 9909   0.525   3.500  14.017  0.1019  0.1169  0.4535
  670MPD2     C 9910   3.844   1.375  13.289  0.6206 -0.0443  0.7067
  670MPD2    C1 9911   3.952   1.357  13.371 -0.4386 -0.0883 -0.1615
  670MPD2    C2 9912   3.934   1.359  13.506 -0.1824  1.2645 -0.7987
  670MPD2    C3 9913   3.808   1.341  13.564 -0.0159 -0.2000 -0.4212
  670MPD2    C4 9914   3.699   1.356  13.480  0.7723  0.4790  0.0504
  670MPD2    C5 9915   3.721   1.375  13.350  0.4568 -0.3530 -0.1669
  670MPD2     H 9916   4.027   1.346  13.559 -0.0204 -0.3018 -1.4748
  670MPD2    H1 9917   3.594   1.353  13.507  0.7920 -1.9171 -0.0821
  670MPD2    H2 9918   3.851   1.372  13.181 -0.7480  0.0186  0.6152
  670MPD2    H3 9919   3.637   1.371  13.282  0.1982 -0.7139  0.1738
  670MPD2     N 9920   3.796   1.320  13.704 -0.1356 -0.0066  0.6897
  670MPD2    H5 9921   3.883   1.294  13.750 -0.2684 -1.6347  0.0501
  670MPD2    N1 9922   4.081   1.361  13.322  0.3728 -0.1328 -0.3867
  670MPD2    H7 9923   4.153   1.373  13.393 -0.1863 -1.4351  0.4140
  671TMC3    C1 9924   3.702   1.223  13.900  0.3003  0.1668 -1.1379
  671TMC3    C2 9925   3.824   1.221  13.958  0.1846 -0.4954  0.4063
  671TMC3    C3 9926   3.836   1.175  14.090  0.7238 -0.3817  0.8319
  671TMC3    C4 9927   3.595   1.174  13.960  0.0338 -0.6742  0.3399
  671TMC3    C5 9928   3.610   1.130  14.089 -0.2438 -0.0485 -0.0483
  671TMC3    C6 9929   3.726   1.136  14.161  0.4771 -0.1386 -0.2980
  671TMC3     C 9930   3.680   1.287  13.770  0.0080 -0.4038  0.9256
  671TMC3     O 9931   3.566   1.304  13.733  0.5579 -0.1592  0.8750
  671TMC3     H 9932   3.909   1.267  13.910  0.5936 -2.4438 -0.7176
  671TMC3    H1 9933   3.500   1.169  13.908 -0.0251  1.5206  0.2419
  671TMC3    H2 9934   3.733   1.121  14.268  0.8490 -1.3550 -0.4895
  671TMC3    C7 9935   3.504   1.043  14.143  0.3519  0.4382  0.3416
  671TMC3    C8 9936   3.946   1.080  14.119 -0.5682  0.2702  0.1129
  671TMC3    O1 9937   3.400   1.052  14.081 -0.6375 -0.5787 -0.0623
  671TMC3    O2 9938   3.915   0.995  14.202 -0.0717  0.0018  0.4774
  672MPD2     C 9939   4.325   1.302   1.812 -0.2515 -0.0003  0.0827
  672MPD2    C1 9940   4.378   1.282   1.691  0.0670  0.2721  0.1052
  672MPD2    C2 9941   4.489   1.348   1.653  0.2433 -0.5072  0.1437
  672MPD2    C3 9942   4.562   1.433   1.742  0.0719 -0.3521 -0.8041
  672MPD2    C4 9943   4.512   1.424   1.881  0.9653 -0.4565  0.3219
  672MPD2    C5 9944   4.395   1.366   1.912  1.0124 -0.2255  0.3027
  672MPD2     H 9945   4.524   1.316   1.555 -4.0776  2.8953 -2.4583
  672MPD2    H1 9946   4.561   1.485   1.955  0.1008  0.5221  0.0841
  672MPD2    H2 9947   4.229   1.258   1.835 -1.0295  1.4280 -0.4724
  672MPD2    H3 9948   4.366   1.373   2.016  0.6305 -0.6966  0.2268
  672MPD2     N 9949   4.672   1.510   1.720  0.2605 -0.5172 -0.2474
  672MPD2    H5 9950   0.010   1.542   1.795  0.8874 -1.8144 -0.1878
  672MPD2    N1 9951   4.321   1.195   1.595 -0.3299 -0.6782 -0.2445
  672MPD2    H7 9952   4.374   1.165   1.514 -2.0862 -1.1908 -1.1986
  673TMC3    C1 9953   4.206   1.017   1.501 -0.0437  0.3378 -0.5588
  673TMC3    C2 9954   4.178   0.887   1.532 -0.4338  0.3256  0.1147
  673TMC3    C3 9955   4.223   0.793   1.443 -0.2163 -0.5073  0.3756
  673TMC3    C4 9956   4.255   1.061   1.375 -0.3734 -0.2536  0.2200
  673TMC3    C5 9957   4.296   0.960   1.291  0.3640  0.5353 -1.4632
  673TMC3    C6 9958   4.290   0.827   1.327 -0.3163  0.1533 -0.5279
  673TMC3     C 9959   4.204   1.117   1.604  0.5984 -0.0763 -0.3067
  673TMC3     O 9960   4.127   1.092   1.692 -0.1528 -0.1071 -0.3655
  673TMC3     H 9961   4.129   0.854   1.623 -0.7909  0.3792 -0.0589
  673TMC3    H1 9962   4.270   1.167   1.362  0.1831 -0.3053  0.4233
  673TMC3    H2 9963   4.327   0.748   1.263  0.8052 -1.9120  2.6823
  673TMC3    C7 9964   4.373   0.988   1.174 -0.1909  0.3808  0.0953
  673TMC3    C8 9965   4.264   0.668   1.504  0.1616  0.0376 -0.0570
  673TMC3    O1 9966   4.435   0.896   1.119 -0.3601  0.1006  0.1989
  673TMC3    O2 9967   4.250   0.562   1.440  0.2847  0.1788 -0.4999
  674MPD2     C 9968   3.914   0.768   0.482 -0.2536 -0.5106 -0.5134
  674MPD2    C1 9969   3.899   0.641   0.539  0.2086  0.3394 -0.0008
  674MPD2    C2 9970   3.895   0.630   0.674  0.0445 -0.4779 -0.4243
  674MPD2    C3 9971   3.910   0.741   0.750  0.6478 -0.2745  0.3386
  674MPD2    C4 9972   3.928   0.860   0.690 -0.6072 -0.3924 -0.0549
  674MPD2    C5 9973   3.919   0.878   0.559  0.2775  0.0853 -0.2149
  674MPD2     H 9974   3.894   0.535   0.726  0.1540  1.2470  2.7169
  674MPD2    H1 9975   3.940   0.953   0.746 -2.2407  0.3881 -1.0055
  674MPD2    H2 9976   3.918   0.800   0.379 -1.3926  2.5245  0.3823
  674MPD2    H3 9977   3.924   0.970   0.504 -0.7523  0.2618 -0.0107
  674MPD2     N 9978   3.902   0.730   0.894 -0.3334  0.0258  0.3153
  674MPD2    H5 9979   3.869   0.642   0.932  0.7579 -1.1879 -1.5396
  674MPD2    N1 9980   3.890   0.537   0.449 -0.0463  0.2933 -0.6320
  674MPD2    H7 9981   3.913   0.559   0.353  0.1379  0.1903 -0.6120
  675TMC3    C1 9982   3.851   0.321   0.372 -0.7247 -0.1263 -0.0861
  675TMC3    C2 9983   3.760   0.222   0.375 -0.7190  0.0919 -0.2067
  675TMC3    C3 9984   3.742   0.147   0.264  0.7025 -0.0764  0.9504
  675TMC3    C4 9985   3.916   0.352   0.257  1.1206  0.8379  0.0402
  675TMC3    C5 9986   3.872   0.295   0.144 -0.1418  0.6399  0.6950
  675TMC3    C6 9987   3.787   0.188   0.146 -0.0302 -0.3495  0.5465
  675TMC3     C 9988   3.849   0.412   0.487 -0.9635 -0.3974 -0.9052
  675TMC3     O 9989   3.794   0.370   0.585  0.0500 -0.5969 -0.0291
  675TMC3     H 9990   3.717   0.193   0.470 -0.2108  0.5193  0.1510
  675TMC3    H1 9991   3.997   0.425   0.258  1.5827  0.3467 -1.1300
  675TMC3    H2 9992   3.758   0.145   0.051  2.3184 -2.6167  0.8864
  675TMC3    C7 9993   3.971   0.289   0.037 -0.6077 -0.2957 -0.2720
  675TMC3    C8 9994   3.630   0.053   0.277 -0.6786  0.1053 -0.3436
  675TMC3    O1 9995   3.927   0.273  17.612  0.5354  0.3350  0.3368
  675TMC3    O2 9996   3.572   0.029   0.172  0.3046  0.0449 -0.3002
  676MPD2     C 9997   1.830   4.366  11.067 -0.2660  0.3188 -0.1327
  676MPD2    C1 9998   1.764   4.328  11.183  1.0011 -0.3825  0.4577
  676MPD2    C2 9999   1.734   4.197  11.194  0.0739 -0.2597  0.3442
  676MPD2    C310000   1.806   4.103  11.125  0.3851 -0.0971  0.4189
  676MPD2    C410001   1.878   4.144  11.009  0.4771  0.3541 -0.1770
  676MPD2    C510002   1.882   4.274  10.975  0.0759  0.2432  0.6866
  676MPD2     H10003   1.665   4.175  11.275 -0.3100 -0.0305  0.0824
  676MPD2    H110004   1.937   4.072  10.954 -1.4051 -0.0502 -1.6555
  676MPD2    H210005   1.830   4.473  11.050 -0.5675  0.0971 -1.5300
  676MPD2    H310006   1.942   4.307  10.891 -0.8799 -0.6333 -0.3261
  676MPD2     N10007   1.799   3.968  11.156  0.2404 -0.2774 -0.1831
  676MPD2    H510008   1.837   3.902  11.090 -1.0077  2.7398 -3.9074
  676MPD2    N110009   1.702   4.420  11.269  0.3916  0.1939  0.1623
  676MPD2    H710010   1.651   4.379  11.347  2.1430 -0.4831  0.9591
  677TMC3    C110011   1.663   4.608  11.384  0.0610  0.6965 -0.3561
  677TMC3    C210012   1.540   4.549  11.404 -0.3312 -0.1633 -0.0342
  677TMC3    C310013   1.479   4.576  11.526 -0.6934 -0.1436  0.0880
  677TMC3    C410014   1.723   4.688  11.477  0.5013 -0.2052 -0.4611
  677TMC3    C510015   1.655   4.713  11.589 -0.3040 -0.5162 -0.1740
  677TMC3    C610016   1.532   4.664  11.617 -0.0198 -0.5227 -0.0798
  677TMC3     C10017   1.756   4.542  11.300  0.7103 -0.4110 -0.4599
  677TMC3     O10018   1.871   4.578  11.278 -0.0282 -0.1030  0.2084
  677TMC3     H10019   1.483   4.508  11.321  1.3006 -0.5996 -0.9348
  677TMC3    H110020   1.829   4.711  11.467  1.3080 -2.5684  2.8737
  677TMC3    H210021   1.471   4.676  11.705  0.4709 -0.9532  0.3226
  677TMC3    C710022   1.709   0.056  11.707 -0.2652 -0.0031 -0.9975
  677TMC3    C810023   1.373   4.483  11.558  0.5384 -0.5232 -0.5728
  677TMC3    O110024   1.636   0.095  11.796 -0.3588 -0.1581 -0.3407
  677TMC3    O210025   1.304   4.462  11.456 -0.2676  0.6655 -0.0594
  678MPD2     C10026   2.343   4.020   2.049  0.3715  0.1007 -0.3296
  678MPD2    C110027   2.332   3.994   1.912 -0.3534  0.2996 -0.6612
  678MPD2    C210028   2.225   4.049   1.844 -0.2976  0.3390 -1.0350
  678MPD2    C310029   2.145   4.138   1.906  0.3638 -0.5393  0.4595
  678MPD2    C410030   2.159   4.166   2.040  0.3069  0.3228  0.0925
  678MPD2    C510031   2.248   4.101   2.118  0.1678 -0.6022  0.1857
  678MPD2     H10032   2.213   4.018   1.741 -1.4257  0.2233 -0.8683
  678MPD2    H110033   2.100   4.241   2.091 -0.9040 -0.6370  0.1031
  678MPD2    H210034   2.425   3.975   2.104  0.3204 -0.5927 -0.8155
  678MPD2    H310035   2.255   4.120   2.224  0.3765  1.3138 -0.1771
  678MPD2     N10036   2.044   4.194   1.824 -1.1314  0.4843  0.4260
  678MPD2    H510037   2.040   4.154   1.731  2.1284 -0.7948  0.8291
  678MPD2    N110038   2.438   3.922   1.851 -0.3593 -0.0808 -0.4892
  678MPD2    H710039   2.429   3.911   1.751  2.4402  1.2755 -0.8868
  679TMC3    C110040   2.797   3.658   1.782 -0.4753 -0.7012 -0.4799
  679TMC3    C210041   2.675   3.680   1.845  0.3260 -0.4101 -0.4572
  679TMC3    C310042   2.612   3.795   1.821 -0.1277  0.7251 -0.0027
  679TMC3    C410043   2.851   3.739   1.685  0.7056 -0.1064  0.2563
  679TMC3    C510044   2.772   3.847   1.661  0.0814  0.0328  0.2736
  679TMC3    C610045   2.652   3.880   1.719 -0.3832 -0.5477  0.2119
  679TMC3     C10046   2.880   3.545   1.821  0.4552 -0.2414 -0.7718
  679TMC3     O10047   2.993   3.549   1.779  0.1045  0.5023  0.2676
  679TMC3     H10048   2.632   3.614   1.919  0.7754 -2.3907 -1.9519
  679TMC3    H110049   2.952   3.730   1.647  0.5732 -1.3950  0.2410
  679TMC3    H210050   2.619   3.982   1.701  2.9247  0.7891  1.5736
  679TMC3    C710051   2.789   3.903   1.525  0.2640  0.8735  0.0584
  679TMC3    C810052   2.523   3.839   1.913 -0.0077 -0.5799 -0.3343
  679TMC3    O110053   2.727   4.003   1.502 -0.4516 -0.4865 -0.5135
  679TMC3    O210054   2.532   3.801   2.026 -0.3500  0.0897  0.1465
  680MPD2     C10055   4.017   2.807  13.751 -0.1132  0.2260 -0.0841
  680MPD2    C110056   3.889   2.841  13.724  0.5800 -0.7833  0.1601
  680MPD2    C210057   3.851   2.969  13.764 -0.1357 -0.0881  0.7949
  680MPD2    C310058   3.934   3.055  13.831 -0.6693 -0.4090  0.1162
  680MPD2    C410059   4.064   3.013  13.863 -0.4600  0.3958  0.1227
  680MPD2    C510060   4.103   2.887  13.826 -0.2324  1.1478 -0.3320
  680MPD2     H10061   3.748   2.994  13.741  0.6786 -0.8133 -3.5034
  680MPD2    H110062   4.132   3.077  13.918  0.2344  1.1899 -1.6442
  680MPD2    H210063   4.057   2.710  13.722 -0.1001  0.2967 -0.3003
  680MPD2    H310064   4.206   2.856  13.840 -1.7849 -3.8422 -0.0306
  680MPD2     N10065   3.905   3.191  13.853 -0.1010  0.2949 -0.4434
  680MPD2    H510066   3.961   3.239  13.922  0.4642  0.0478 -0.7333
  680MPD2    N110067   3.792   2.754  13.660  0.4529 -0.0029 -0.3454
  680MPD2    H710068   3.699   2.787  13.637 -0.0303 -1.1644 -0.0538
  681TMC3    C110069   3.710   2.550  13.577 -1.0746 -0.1850 -0.2024
  681TMC3    C210070   3.591   2.566  13.646  0.0351 -0.4484 -0.0064
  681TMC3    C310071   3.485   2.486  13.617 -0.5193 -0.7760 -0.5594
  681TMC3    C410072   3.719   2.458  13.474  0.6074  0.4217 -0.3833
  681TMC3    C510073   3.613   2.372  13.470 -0.0583 -0.2148  0.1490
  681TMC3    C610074   3.499   2.385  13.535  0.1962 -0.4269 -0.1766
  681TMC3     C10075   3.824   2.638  13.601 -0.0944 -0.0721 -0.1960
  681TMC3     O10076   3.933   2.595  13.567  0.1538  0.2003 -0.4529
  681TMC3     H10077   3.575   2.649  13.714 -1.2970 -0.2801 -0.5289
  681TMC3    H110078   3.820   2.433  13.444  0.5180 -1.1506  0.5989
  681TMC3    H210079   3.417   2.315  13.520  0.8110 -1.3187  0.6815
  681TMC3    C710080   3.621   2.278  13.359 -0.4724  0.0077  0.1009
  681TMC3    C810081   3.356   2.485  13.680  0.0218  0.0099  0.1780
  681TMC3    O110082   3.558   2.168  13.367 -0.3371 -0.2929  0.3704
  681TMC3    O210083   3.260   2.432  13.626  0.8095 -0.7332 -0.5900
  682MPD2     C10084   1.064   4.516  10.373  0.6168  0.6649 -0.3323
  682MPD2    C110085   1.031   4.415  10.460  0.4172  0.4631 -0.6390
  682MPD2    C210086   0.942   4.441  10.569 -0.3834 -0.4214 -0.1031
  682MPD2    C310087   0.897   4.568  10.591 -0.3510 -0.3686 -0.5691
  682MPD2    C410088   0.950   4.666  10.515  0.0832  0.5923  0.4868
  682MPD2    C510089   1.033   4.645  10.408 -0.0143 -0.0659  0.2784
  682MPD2     H10090   0.904   4.352  10.619 -1.1658 -0.2032 -0.3166
  682MPD2    H110091   0.922   0.047  10.532 -0.7669  0.1477  1.7718
  682MPD2    H210092   1.127   4.505  10.286  2.1511 -0.7472  0.9549
  682MPD2    H310093   1.060   0.011  10.350 -0.3381  0.2929  0.6775
  682MPD2     N10094   0.804   4.604  10.692  0.1681 -0.8066 -0.1395
  682MPD2    H510095   0.785   4.703  10.692 -1.9991 -1.2056  1.1511
  682MPD2    N110096   1.054   4.281  10.428  0.4675 -0.2818 -0.3314
  682MPD2    H710097   1.008   4.210  10.484 -0.9426  0.5915 -0.3972
  683TMC3    C110098   0.648   4.714  11.038  0.2186 -0.2846  0.5456
  683TMC3    C210099   0.553   4.639  11.092  0.3718 -1.1543 -0.0522
  683TMC3    C310100   0.491   4.537  11.019  0.4628  0.3095  0.1413
  683TMC3    C410101   0.700   4.672  10.923 -0.4218 -0.0072 -0.0621
  683TMC3    C510102   0.631   4.579  10.848 -0.4774 -0.6352  0.2524
  683TMC3    C610103   0.527   4.506  10.889 -0.5783  0.3212 -0.4673
  683TMC3     C10104   0.755   0.038  11.125 -0.2188 -0.0313  1.2591
  683TMC3     O10105   0.740   0.000  11.241 -0.0832 -0.3923  0.7163
  683TMC3     H10106   0.525   4.653  11.195 -1.6353 -0.7831 -0.6593
  683TMC3    H110107   0.797   4.707  10.890 -0.1600 -1.0537 -0.4084
  683TMC3    H210108   0.471   4.432  10.833 -0.9709 -0.7570  1.3512
  683TMC3    C710109   0.720   4.513  10.753  0.4078 -0.0523  0.2484
  683TMC3    C810110   0.378   4.466  11.084  0.6474 -0.2643  0.1266
  683TMC3    O110111   0.740   4.394  10.772 -0.3525 -0.7308 -0.5658
  683TMC3    O210112   0.320   4.520  11.174 -0.3868  0.1984 -0.3352
  684MPD2     C10113   3.004   3.844  16.773 -0.5203  0.5871 -0.2760
  684MPD2    C110114   3.071   3.874  16.651 -0.2243 -0.4807 -0.0288
  684MPD2    C210115   3.160   3.978  16.647  0.1068 -0.4717  0.0699
  684MPD2    C310116   3.186   4.057  16.754 -0.1549 -0.0728  0.6922
  684MPD2    C410117   3.111   4.026  16.867 -0.2725  0.0307 -0.1287
  684MPD2    C510118   3.019   3.929  16.875 -0.4539  1.0402 -0.4872
  684MPD2     H10119   3.219   3.991  16.557 -0.9911  1.3584 -0.3851
  684MPD2    H110120   3.119   4.095  16.950  0.1905  0.1106 -0.2385
  684MPD2    H210121   2.934   3.761  16.779  1.1921 -0.9380 -1.3407
  684MPD2    H310122   2.956   3.920  16.963 -0.4452  0.7822 -0.5065
  684MPD2     N10123   3.264   4.170  16.759  0.4049 -0.1622 -0.1905
  684MPD2    H510124   3.268   4.215  16.850  0.4776  0.6106 -0.5711
  684MPD2    N110125   3.060   3.795  16.536  0.0736 -0.5950 -0.0546
  684MPD2    H710126   3.107   3.821  16.450  0.0698 -0.7693 -0.1101
  685TMC3    C110127   2.991   3.632  16.389  0.7248 -0.3107 -0.1089
  685TMC3    C210128   2.877   3.632  16.311  0.7589  0.2119  0.2415
  685TMC3    C310129   2.892   3.689  16.189 -0.4905  0.0194 -0.1965
  685TMC3    C410130   3.114   3.642  16.336  0.3945 -0.2231 -0.0936
  685TMC3    C510131   3.131   3.690  16.207  0.2992 -0.4143 -0.0119
  685TMC3    C610132   3.018   3.716  16.136  0.1165 -0.3083 -0.2614
  685TMC3     C10133   2.974   3.685  16.520 -0.1900  0.7076 -0.4181
  685TMC3     O10134   2.906   3.626  16.600  0.2576  0.0060 -0.0226
  685TMC3     H10135   2.786   3.641  16.368 -0.1599  0.4016 -1.2587
  685TMC3    H110136   3.204   3.624  16.394  1.1872  2.6456 -0.4345
  685TMC3    H210137   3.018   3.769  16.042  0.0353 -1.6470 -1.0075
  685TMC3    C710138   3.247   3.774  16.209 -0.0478  0.0802  0.0607
  685TMC3    C810139   2.777   3.670  16.099  0.6813  0.9970 -0.6020
  685TMC3    O110140   3.267   3.834  16.312 -0.6128 -0.8215 -0.5718
  685TMC3    O210141   2.772   3.720  15.987  0.0121 -0.2634 -0.0378
  686MPD2     C10142   0.335   3.661  15.892  0.7273  0.5410 -0.0722
  686MPD2    C110143   0.257   3.560  15.946  0.2238  0.1047 -0.1502
  686MPD2    C210144   0.306   3.427  15.960 -0.4147 -0.2560 -1.1149
  686MPD2    C310145   0.434   3.393  15.909 -0.4119 -1.1461  0.2608
  686MPD2    C410146   0.509   3.499  15.868  0.3064 -0.6196 -0.5416
  686MPD2    C510147   0.459   3.623  15.850 -0.0753 -0.9383  0.0285
  686MPD2     H10148   0.238   3.351  15.997 -0.4669  0.4014  0.1402
  686MPD2    H110149   0.613   3.494  15.839  1.1363  0.2731  2.2449
  686MPD2    H210150   0.305   3.765  15.882  0.9324  0.8273  2.3408
  686MPD2    H310151   0.527   3.699  15.815  0.9743 -1.7001  0.4294
  686MPD2     N10152   0.485   3.263  15.885  0.3504  0.5223  0.2073
  686MPD2    H510153   0.567   3.263  15.826 -0.1582  2.4048 -0.5223
  686MPD2    N110154   0.141   3.602  16.007  0.7530  0.0576  0.4408
  686MPD2    H710155   0.114   3.699  16.000  3.3561  0.4726 -3.3137
  687TMC3    C110156   0.348   3.133  16.030 -0.2854  0.8610 -0.3174
  687TMC3    C210157   0.227   3.071  16.016 -1.0060  0.3702 -0.6264
  687TMC3    C310158   0.150   3.079  16.127  0.2890  0.5860  0.9221
  687TMC3    C410159   0.400   3.191  16.139 -0.3699  0.6302 -0.1244
  687TMC3    C510160   0.313   3.195  16.248 -0.7741  0.0571 -1.0666
  687TMC3    C610161   0.188   3.137  16.245  0.4063  0.0636 -0.3555
  687TMC3     C10162   0.434   3.137  15.914  0.3307  0.4377 -0.1612
  687TMC3     O10163   0.445   3.035  15.849  0.6498 -0.4186 -0.4363
  687TMC3     H10164   0.194   3.031  15.920 -0.8634 -0.3300 -0.3806
  687TMC3    H110165   0.499   3.236  16.142  0.0564 -0.2063 -1.6391
  687TMC3    H210166   0.122   3.136  16.331  0.2020  0.0400 -0.5125
  687TMC3    C710167   0.358   3.244  16.376 -0.2704 -0.0328 -0.0844
  687TMC3    C810168   0.009   3.053  16.113  0.3661  0.5661  0.4354
  687TMC3    O110169   0.275   3.299  16.449  0.5336  0.2025 -0.0586
  687TMC3    O210170   4.669   2.988  16.197 -0.1045  0.6938 -0.1073
  688MPD2     C10171   4.243   2.133  17.613 -0.3956 -0.1349 -0.1594
  688MPD2    C110172   4.359   2.058  17.634  0.7015  0.2315 -0.3606
  688MPD2    C210173   4.452   2.055  17.534 -1.0570  0.2748  0.6848
  688MPD2    C310174   4.435   2.118  17.413  0.0289  0.2834  0.2697
  688MPD2    C410175   4.325   2.201  17.399 -0.2669  0.4891 -0.0710
  688MPD2    C510176   4.228   2.197  17.494 -0.8871 -0.0317 -0.3065
  688MPD2     H10177   4.540   1.995  17.551 -0.9213  0.3881  0.3801
  688MPD2    H110178   4.318   2.262  17.310 -0.4094  0.9487  0.2582
  688MPD2    H210179   4.158   2.131  17.681  0.6551 -1.3482  1.1237
  688MPD2    H310180   4.146   2.267  17.476 -0.3846  0.8643  0.8233
  688MPD2     N10181   4.534   2.111  17.311 -0.6547 -0.4285  0.1739
  688MPD2    H510182   4.522   2.167  17.228  1.2118  0.4584  0.5015
  688MPD2    N110183   4.385   1.985   0.066  0.2236 -0.4433  0.2015
  688MPD2    H710184   4.474   1.935   0.064 -0.6506 -1.8837 -2.1814
  689TMC3    C110185   4.354   1.893   0.283  0.2772 -0.3419  0.9118
  689TMC3    C210186   4.490   1.905   0.296  0.1214 -0.3926  0.5039
  689TMC3    C310187   4.544   1.822   0.390  0.0919  0.0279  0.2370
  689TMC3    C410188   4.275   1.812   0.351 -0.3104 -0.1197 -0.0447
  689TMC3    C510189   4.340   1.719   0.433 -0.6432  0.8354 -0.3073
  689TMC3    C610190   4.471   1.734   0.462  0.3648  0.4390 -0.1446
  689TMC3     C10191   4.304   1.982   0.179 -0.1421 -0.4837 -0.4411
  689TMC3     O10192   4.205   2.049   0.207  0.1470  0.2511 -0.1117
  689TMC3     H10193   4.542   1.995   0.263  0.2335 -0.6271  0.0292
  689TMC3    H110194   4.168   1.804   0.332 -0.5675  0.4493  1.1483
  689TMC3    H210195   4.527   1.669   0.528 -1.4139 -0.2714  0.6624
  689TMC3    C710196   4.306   1.579   0.431 -0.0493 -0.4238 -0.4954
  689TMC3    C810197   4.688   1.828   0.415  0.2673 -0.0831  0.5886
  689TMC3    O110198   4.369   1.510   0.512 -0.0641 -0.0662 -0.2022
  689TMC3    O210199   4.718   1.799   0.533  0.1146  0.5896  0.4063
  690MPD2     C10200   1.062   4.117  15.310 -0.1948  0.2776  0.3522
  690MPD2    C110201   1.152   4.037  15.386 -0.5483  0.1853 -0.3679
  690MPD2    C210202   1.285   4.053  15.369 -0.4914  0.6774 -0.0446
  690MPD2    C310203   1.336   4.145  15.279  0.7187  0.4670  0.5952
  690MPD2    C410204   1.250   4.219  15.198  0.9333  0.1537  0.7467
  690MPD2    C510205   1.112   4.210  15.215 -1.0916  0.7480 -0.0680
  690MPD2     H10206   1.351   3.994  15.432  1.1144 -0.2363 -2.5787
  690MPD2    H110207   1.288   4.288  15.124  0.1122 -0.1188  0.0724
  690MPD2    H210208   0.954   4.107  15.319  0.0207 -0.5042  1.9244
  690MPD2    H310209   1.046   4.256  15.142 -0.5402  1.1043 -0.3434
  690MPD2     N10210   1.471   4.152  15.268  0.0237  0.1222  0.1389
  690MPD2    H510211   1.504   4.209  15.191  0.9548 -0.0038  0.4472
  690MPD2    N110212   1.109   3.942  15.476  0.2407  0.1210 -0.3110
  690MPD2    H710213   1.177   3.884  15.525  1.6154  2.1105  0.1517
  691TMC3    C110214   0.975   3.835  15.626 -0.3012  0.3601  0.5466
  691TMC3    C210215   0.897   3.864  15.731 -0.1477 -0.3413 -0.1746
  691TMC3    C310216   0.889   3.786  15.847  0.1702  0.4389 -0.2643
  691TMC3    C410217   1.075   3.739  15.645  0.1164 -0.0559  0.3020
  691TMC3    C510218   1.071   3.660  15.756  0.2658  0.3005 -0.0658
  691TMC3    C610219   0.977   3.681  15.856 -0.2367  0.3386  0.0262
  691TMC3     C10220   0.983   3.933  15.522 -0.1707 -0.7740  0.3795
  691TMC3     O10221   0.882   4.006  15.502  0.1525 -0.0157  0.5774
  691TMC3     H10222   0.823   3.942  15.715 -0.9138 -0.6710  1.7667
  691TMC3    H110223   1.129   3.705  15.557 -1.2827 -0.1724 -0.5105
  691TMC3    H210224   0.985   3.606  15.935 -1.2294  2.2065  1.8986
  691TMC3    C710225   1.117   3.520  15.745  0.9180 -0.1130 -0.1725
  691TMC3    C810226   0.779   3.795  15.941 -0.4637  0.6004  0.1741
  691TMC3    O110227   1.236   3.513  15.772 -0.3307  0.2250  0.0414
  691TMC3    O210228   0.765   3.696  16.019  0.1982 -0.6835  0.3134
  692TMC3    C110229   3.311   0.766  16.247 -0.5118 -0.0056  0.1294
  692TMC3    C210230   3.385   0.863  16.314 -0.5788  0.1836  0.4116
  692TMC3    C310231   3.487   0.828  16.399  0.8135  0.0975 -0.0155
  692TMC3    C410232   3.347   0.630  16.253 -0.2229 -0.6567  0.2020
  692TMC3    C510233   3.441   0.601  16.345  0.0931  0.7331 -0.3055
  692TMC3    C610234   3.505   0.693  16.426 -0.6214  0.2905  0.1495
  692TMC3     C10235   3.196   0.798  16.169  0.4593  1.1015  0.1895
  692TMC3     O10236   3.150   0.718  16.092 -0.5954 -0.0352 -0.0555
  692TMC3     H10237   3.371   0.968  16.293 -2.3080 -0.0858  0.2171
  692TMC3    H110238   3.295   0.554  16.197 -0.6125 -0.0804 -0.2215
  692TMC3    H210239   3.591   0.660  16.483  0.3441  0.9994 -0.8909
  692TMC3    C710240   3.464   0.465  16.379 -0.0763  0.7836  0.3092
  692TMC3    C810241   3.507   0.910  16.519 -0.2192 -0.1885  0.3603
  692TMC3    O110242   3.485   0.434  16.493  0.2160  0.2499 -0.1737
  692TMC3    O210243   3.583   0.854  16.600  0.4120 -0.3968  0.6769
  693MPD2     C10244   3.019   3.197  11.211  0.0674 -0.0760 -0.2667
  693MPD2    C110245   2.954   3.166  11.094  0.3112  0.1312  0.1643
  693MPD2    C210246   3.014   3.191  10.969  0.2235 -0.2513  0.4549
  693MPD2    C310247   3.143   3.251  10.962 -0.2032  0.6767 -0.2950
  693MPD2    C410248   3.202   3.281  11.085  0.0742 -0.1843 -0.0287
  693MPD2    C510249   3.144   3.253  11.204  1.3909 -0.0672  0.5090
  693MPD2     H10250   2.960   3.147  10.886 -0.8092 -0.0803  1.0381
  693MPD2    H110251   3.305   3.315  11.086 -0.6933  2.0638  0.9484
  693MPD2    H210252   2.980   3.154  11.303 -3.8079  3.0602 -0.4217
  693MPD2    H310253   3.204   3.269  11.293  0.4652 -0.3368  1.1770
  693MPD2     N10254   3.217   3.286  10.845  0.1286 -0.0777  0.1141
  693MPD2    H510255   3.303   3.340  10.852  0.2536 -0.2424 -0.1311
  693MPD2    N110256   2.826   3.114  11.115  0.2714  0.4600 -0.1644
  693MPD2    H710257   2.803   3.104  11.214  1.1334  1.3166  0.1237
  694TMC3    C110258   2.628   3.009  11.076  0.0260  0.0102  0.0138
  694TMC3    C210259   2.559   2.921  10.999  0.4118  0.3339  0.1589
  694TMC3    C310260   2.464   2.847  11.066 -1.4552 -0.4301  0.2614
  694TMC3    C410261   2.601   3.030  11.209  0.0523 -0.6573 -0.0716
  694TMC3    C510262   2.515   2.946  11.269 -0.3099  0.4796  0.6767
  694TMC3    C610263   2.445   2.851  11.205 -0.0356 -0.5953 -0.6298
  694TMC3     C10264   2.735   3.090  11.020 -0.1628  0.7419  0.0237
  694TMC3     O10265   2.744   3.083  10.898  0.1737  0.2600 -0.9264
  694TMC3     H10266   2.598   2.902  10.900  0.6784 -0.0427  0.3349
  694TMC3    H110267   2.643   3.116  11.259 -0.6119 -0.1003 -0.4661
  694TMC3    H210268   2.349   2.815  11.240 -1.5560  2.8808 -1.2328
  694TMC3    C710269   2.471   2.978  11.404 -0.3442  0.3734  0.0827
  694TMC3    C810270   2.376   2.758  10.994  0.7426  0.2364 -0.8454
  694TMC3    O110271   2.514   3.083  11.451 -0.0832  0.1414 -0.1935
  694TMC3    O210272   2.292   2.695  11.055 -0.6652 -0.0315  0.4766
  695MPD2     C10273   3.785   0.022  13.822 -0.0269  0.1192  0.0214
  695MPD2    C110274   3.783   0.146  13.892  0.3875 -0.0040  0.5895
  695MPD2    C210275   3.672   0.229  13.887  0.4762  0.0556 -1.1758
  695MPD2    C310276   3.564   0.192  13.813 -0.1397  0.1607 -0.2966
  695MPD2    C410277   3.560   0.076  13.746 -0.1354  0.3636  0.1988
  695MPD2    C510278   3.672   4.721  13.745  0.8193 -0.1874 -0.1547
  695MPD2     H10279   3.679   0.327  13.931 -1.1133 -0.9278  1.2204
  695MPD2    H110280   3.475   0.041  13.687  0.1361  1.8044 -1.0577
  695MPD2    H210281   3.865   4.671  13.826  2.5837  3.0385  0.4758
  695MPD2    H310282   3.673   4.628  13.690  1.2831  0.3648 -1.0821
  695MPD2     N10283   3.458   0.274  13.825 -0.5063 -0.1887 -0.4472
  695MPD2    H510284   3.476   0.363  13.870 -0.4357 -1.0369  1.1789
  695MPD2    N110285   3.891   0.194  13.963  0.6187  0.0785 -0.1551
  695MPD2    H710286   3.871   0.281  14.012  2.0960  0.8389 -0.8819
  696TMC3    C110287   3.254   0.370  13.777 -0.4462  0.5507 -0.4285
  696TMC3    C210288   3.248   0.411  13.910  0.1555  0.2527  0.1607
  696TMC3    C310289   3.175   0.527  13.932 -0.0445  0.2609  0.2903
  696TMC3    C410290   3.205   0.434  13.668 -0.4466 -0.5680  0.3216
  696TMC3    C510291   3.149   0.552  13.690 -0.4283 -0.6767  0.3994
  696TMC3    C610292   3.122   0.592  13.821 -0.3257 -0.2101 -0.0885
  696TMC3     C10293   3.340   0.259  13.755  0.7294 -0.2366 -0.3683
  696TMC3     O10294   3.318   0.188  13.656 -0.1561  0.4294  0.4279
  696TMC3     H10295   3.278   0.347  13.992  0.0002  2.8650  2.2883
  696TMC3    H110296   3.238   0.407  13.569 -1.8019 -0.7702 -0.0692
  696TMC3    H210297   3.053   0.670  13.851 -0.8134 -0.3573 -0.8387
  696TMC3    C710298   3.207   0.661  13.615 -0.5492  0.5845  0.1114
  696TMC3    C810299   3.215   0.625  14.027 -0.2228 -0.2880 -0.1157
  696TMC3    O110300   3.262   0.647  13.505  0.3672  0.2506  0.1957
  696TMC3    O210301   3.206   0.743  13.991  0.9417 -0.7026  0.1308
  697MPD2     C10302   2.619   2.323  15.784  0.4938 -0.8474 -0.0104
  697MPD2    C110303   2.722   2.269  15.711  0.8252  0.0964 -0.8530
  697MPD2    C210304   2.787   2.350  15.618  0.2266 -0.1268  0.4144
  697MPD2    C310305   2.750   2.482  15.600 -0.1567 -0.7229  0.5792
  697MPD2    C410306   2.648   2.533  15.679 -0.1655  0.0279 -0.9770
  697MPD2    C510307   2.581   2.449  15.760  0.1712 -0.7927  0.3545
  697MPD2     H10308   2.879   2.321  15.567 -1.0174  0.7957 -2.3583
  697MPD2    H110309   2.612   2.634  15.665  1.3863  0.6160 -0.7992
  697MPD2    H210310   2.567   2.252  15.848 -0.0480  0.5226  1.0793
  697MPD2    H310311   2.493   2.482  15.815  2.2796 -0.4429  3.5294
  697MPD2     N10312   2.814   2.559  15.498  0.4457  0.1871 -0.8415
  697MPD2    H510313   2.879   2.517  15.432 -2.2305 -0.9909 -2.7322
  697MPD2    N110314   2.769   2.136  15.729 -0.3918  0.2405 -0.0727
  697MPD2    H710315   2.841   2.107  15.663  0.4998  1.9843  0.1314
  698TMC3    C110316   2.924   2.751  15.423  0.8747 -0.3666  0.3494
  698TMC3    C210317   3.004   2.851  15.476 -0.0670  0.3159 -0.4380
  698TMC3    C310318   3.105   2.903  15.401 -0.9215 -0.5148  0.1480
  698TMC3    C410319   2.952   2.697  15.300  1.3282 -0.3490 -0.0167
  698TMC3    C510320   3.054   2.749  15.231 -0.1247  0.0938  0.6792
  698TMC3    C610321   3.131   2.853  15.275  0.5922  0.5050  0.5581
  698TMC3     C10322   2.818   2.697  15.509  0.3300 -0.4284  0.5479
  698TMC3     O10323   2.778   2.776  15.589  0.6295 -0.0466 -0.4001
  698TMC3     H10324   2.975   2.893  15.572  1.5324 -0.3881  0.3504
  698TMC3    H110325   2.888   2.616  15.266 -1.2286  1.5454  0.3072
  698TMC3    H210326   3.207   2.893  15.209  0.8233  1.0453  1.1435
  698TMC3    C710327   3.045   2.723  15.096  0.4168 -0.2591 -0.0848
  698TMC3    C810328   3.196   2.989  15.468  0.4814  0.7403 -0.4769
  698TMC3    O110329   2.939   2.682  15.053  0.2683 -0.0860 -0.1510
  698TMC3    O210330   3.163   3.031  15.576  0.4274  0.2129 -0.0346
  699TMC3    C110331   3.475   0.468  12.789 -0.3934  0.8981 -0.2050
  699TMC3    C210332   3.476   0.331  12.797 -0.1964 -0.4578  0.1469
  699TMC3    C310333   3.372   0.268  12.868  0.1417  0.1513 -0.1681
  699TMC3    C410334   3.383   0.548  12.848  0.1430  0.3346  0.6196
  699TMC3    C510335   3.284   0.486  12.921  0.0584  0.2604  0.1087
  699TMC3    C610336   3.273   0.348  12.929 -0.8438  0.9121  0.0204
  699TMC3     C10337   3.583   0.531  12.725 -0.4058  0.6896 -0.3541
  699TMC3     O10338   3.558   0.638  12.674 -0.2340 -0.1295 -0.0141
  699TMC3     H10339   3.554   0.273  12.748 -1.0248 -2.8667  1.6976
  699TMC3    H110340   3.404   0.654  12.852  2.4921 -0.0821 -0.4935
  699TMC3    H210341   3.198   0.301  12.991  0.5911 -0.7018  0.5230
  699TMC3    C710342   3.209   0.566  13.011  0.3003  0.1075 -0.2292
  699TMC3    C810343   3.393   0.141  12.931  0.1910 -0.2081 -0.1357
  699TMC3    O110344   3.113   0.508  13.060  0.1207  0.0317 -0.0947
  699TMC3    O210345   3.290   0.084  12.969 -0.2728 -0.4322 -0.4633
  700TMC3    C110346   2.122   2.289  17.419  0.3670 -0.3336 -0.3617
  700TMC3    C210347   2.242   2.224  17.442  0.3328  0.4469  0.2876
  700TMC3    C310348   2.299   2.253  17.563  0.0081 -0.1548  0.1923
  700TMC3    C410349   2.063   2.366  17.520 -0.6047  0.0830  0.0251
  700TMC3    C510350   2.128   2.398  17.632 -0.8931  0.4825 -0.1125
  700TMC3    C610351   2.252   2.341  17.657  0.3166  0.0738  0.5465
  700TMC3     C10352   2.097   2.348  17.284 -0.6268 -0.4534  0.4153
  700TMC3     O10353   2.064   2.279  17.188  0.3814 -0.9400 -0.4496
  700TMC3     H10354   2.297   2.185  17.357 -1.0572  0.2186 -0.5183
  700TMC3    H110355   1.964   2.404  17.496 -0.6911 -1.2576 -1.7977
  700TMC3    H210356   2.300   2.371   0.061  0.3350  1.9447 -0.0602
  700TMC3    C710357   2.101   2.525   0.019  0.2155 -0.1165 -0.0916
  700TMC3    C810358   2.425   2.188  17.592 -0.1239  0.4519 -0.6454
  700TMC3    O110359   2.180   2.553   0.108 -0.1328 -0.3653 -0.0107
  700TMC3    O210360   2.476   2.140  17.491 -0.2242 -0.3192 -0.2511
  701TMC3    C110361   2.276   1.112  15.583  0.0677  0.2241  0.4573
  701TMC3    C210362   2.294   1.093  15.451  0.0589 -0.3431 -0.2544
  701TMC3    C310363   2.377   1.189  15.392 -0.1501  0.9356  0.5108
  701TMC3    C410364   2.325   1.223  15.649  0.3634  0.2376 -0.8366
  701TMC3    C510365   2.379   1.329  15.576 -0.0994 -0.0403  0.0246
  701TMC3    C610366   2.415   1.307  15.446 -0.4984  0.0745 -0.6656
  701TMC3     C10367   2.202   1.012  15.664  0.3118 -0.1430  0.1147
  701TMC3     O10368   2.223   0.994  15.784 -1.2798  0.1766 -0.1631
  701TMC3     H10369   2.272   0.998  15.403 -0.7131 -1.2423  1.8744
  701TMC3    H110370   2.294   1.238  15.751  1.4953  2.0610 -0.7708
  701TMC3    H210371   2.482   1.372  15.391  0.9404  0.4682  1.5795
  701TMC3    C710372   2.360   1.464  15.620 -0.2967  0.3947 -0.0663
  701TMC3    C810373   2.407   1.178  15.251 -0.7182 -0.3575 -0.2477
  701TMC3    O110374   2.341   1.550  15.538  0.3772 -0.3338 -1.2525
  701TMC3    O210375   2.505   1.242  15.215 -0.2392  0.0108  0.3516
  702MPD2     C10376   2.346   3.675  11.273 -0.1301 -0.1233 -0.0500
  702MPD2    C110377   2.253   3.648  11.176  0.0287  1.0814 -0.2943
  702MPD2    C210378   2.273   3.694  11.048  0.0335 -0.4607 -0.7027
  702MPD2    C310379   2.387   3.762  11.010  0.5457 -0.0225 -0.2171
  702MPD2    C410380   2.486   3.780  11.107 -0.7646 -0.1192  0.5743
  702MPD2    C510381   2.456   3.738  11.232 -0.1970  0.5638 -0.1329
  702MPD2     H10382   2.200   3.688  10.969  0.9676 -4.1019 -1.3286
  702MPD2    H110383   2.580   3.829  11.084 -1.4993  0.8112 -0.4209
  702MPD2    H210384   2.336   3.658  11.380  0.1184 -2.6469 -0.4127
  702MPD2    H310385   2.530   3.751  11.311 -0.4495 -1.0514  0.3775
  702MPD2     N10386   2.415   3.819  10.880 -0.0005  0.1399 -0.1199
  702MPD2    H510387   2.504   3.868  10.868  1.7291 -2.9315  0.3084
  702MPD2    N110388   2.124   3.608  11.202 -0.4679  0.2378  0.1647
  702MPD2    H710389   2.065   3.637  11.125 -0.6733 -0.7814 -0.0498
  703TMC3    C110390   2.375   3.907  10.658 -0.0355  0.6455  0.7348
  703TMC3    C210391   2.278   3.994  10.611 -0.1489  0.8377  0.0099
  703TMC3    C310392   2.314   4.107  10.548 -0.0889 -0.3025  0.1936
  703TMC3    C410393   2.511   3.932  10.635  0.0635 -0.4389 -0.2268
  703TMC3    C510394   2.548   4.043  10.559  0.1968 -0.4594  0.2104
  703TMC3    C610395   2.448   4.128  10.518  0.1100 -0.1939  0.7524
  703TMC3     C10396   2.340   3.813  10.765  0.5745  0.1320  0.4756
  703TMC3     O10397   2.227   3.768  10.767 -0.5136 -0.0317 -0.6155
  703TMC3     H10398   2.177   3.984  10.649 -0.8527  1.2821 -1.7942
  703TMC3    H110399   2.578   3.867  10.690  0.7430  1.4997  1.2349
  703TMC3    H210400   2.473   4.223  10.471  1.4399 -2.1141 -2.3358
  703TMC3    C710401   2.679   4.079  10.522  0.8090 -0.8508  0.3236
  703TMC3    C810402   2.231   4.228  10.565 -0.4563  0.4989 -0.0244
  703TMC3    O110403   2.690   4.147  10.421 -0.1247 -0.5850 -0.1826
  703TMC3    O210404   2.293   4.328  10.588 -0.5159 -0.5623 -0.3142
  704TMC3    C110405   4.333   2.172  12.051 -0.0351 -0.1121 -0.1182
  704TMC3    C210406   4.461   2.199  12.014 -0.0512 -0.4478 -0.2849
  704TMC3    C310407   4.555   2.192  12.112  0.5193 -0.1043 -0.9867
  704TMC3    C410408   4.303   2.126  12.176 -0.2276  0.5640 -0.1717
  704TMC3    C510409   4.409   2.102  12.268 -0.6846 -0.3347  0.2968
  704TMC3    C610410   4.537   2.132  12.240  0.4405 -0.1717 -0.4005
  704TMC3     C10411   4.221   2.194  11.966  0.4732 -0.5192 -0.0062
  704TMC3     O10412   4.115   2.199  12.023 -0.2605  0.9706 -0.2244
  704TMC3     H10413   4.487   2.252  11.923 -1.2627 -1.1784 -1.0576
  704TMC3    H110414   4.203   2.087  12.196 -0.2871  0.9495  0.2788
  704TMC3    H210415   4.613   2.116  12.316 -1.3394 -0.0026  1.4059
  704TMC3    C710416   4.402   1.999  12.369 -0.7222  0.7671  0.1908
  704TMC3    C810417   4.681   2.168  12.056  0.0835 -1.1029 -0.6901
  704TMC3    O110418   4.505   1.949  12.400 -0.8599 -0.5510  0.0930
  704TMC3    O210419   4.694   2.132  11.942  0.1514  0.5203  0.2466
  705MPD2     C10420   3.505   0.300  16.988  0.3684  0.2724 -0.4683
  705MPD2    C110421   3.475   0.338  16.861 -0.2643  0.0260 -0.3309
  705MPD2    C210422   3.363   0.414  16.837  0.3060  0.1137 -0.4101
  705MPD2    C310423   3.269   0.451  16.937 -0.0492  0.4671 -0.0121
  705MPD2    C410424   3.297   0.404  17.061 -0.1589 -0.7441 -0.1319
  705MPD2    C510425   3.411   0.333  17.083  0.1586  0.7583  1.0367
  705MPD2     H10426   3.357   0.449  16.735  5.1107  1.1002 -0.3341
  705MPD2    H110427   3.222   0.421  17.137  1.6014  3.4450  0.6455
  705MPD2    H210428   3.595   0.244  17.007  0.2300 -0.2601 -1.4173
  705MPD2    H310429   3.427   0.287  17.180  2.2200  1.5891  1.1016
  705MPD2     N10430   3.150   0.519  16.907 -0.9248 -0.2874 -0.6625
  705MPD2    H510431   3.138   0.526  16.806 -2.2688  0.9885 -0.4170
  705MPD2    N110432   3.567   0.315  16.758  0.8407  0.3114  0.1112
  705MPD2    H710433   3.547   0.371  16.676 -1.0450  2.2351  1.8711
  706TMC3    C110434   3.822   0.187  16.425  0.5493  0.8662 -0.7692
  706TMC3    C210435   3.822   0.317  16.374  0.1099 -0.2227 -0.1278
  706TMC3    C310436   3.794   0.420  16.460 -0.4213  0.5550 -0.1958
  706TMC3    C410437   3.785   0.158  16.558 -0.5186 -0.1549 -0.8596
  706TMC3    C510438   3.744   0.263  16.626 -0.0155  0.4139  0.1223
  706TMC3    C610439   3.739   0.391  16.586 -0.6524  0.3299 -0.6408
  706TMC3     C10440   3.891   0.082  16.359  0.1293  0.1464 -0.8512
  706TMC3     O10441   3.946   4.720  16.429 -0.5420  0.2132 -0.1114
  706TMC3     H10442   3.859   0.340  16.275 -0.6796 -0.3997 -0.4604
  706TMC3    H110443   3.786   0.057  16.596  2.0444  0.1304 -0.1640
  706TMC3    H210444   3.709   0.475  16.647 -0.0326  0.8774 -1.0864
  706TMC3    C710445   3.682   0.241  16.759  0.4110 -0.8314 -0.0831
  706TMC3    C810446   3.815   0.560  16.435 -0.0770 -0.0517  0.0035
  706TMC3    O110447   3.723   0.163  16.842  0.3638  0.3570  0.6324
  706TMC3    O210448   3.801   0.598  16.321 -0.5866 -0.2433 -0.4276
  707TMC3    C110449   0.465   4.315   1.126  0.0397  0.6940  0.6116
  707TMC3    C210450   0.417   4.186   1.128  0.1144 -0.1232 -0.1259
  707TMC3    C310451   0.285   4.159   1.118 -1.0183 -0.1524  0.1877
  707TMC3    C410452   0.373   4.415   1.102 -0.3487 -0.1335 -1.1286
  707TMC3    C510453   0.242   4.386   1.106  0.2354 -0.1288  0.1982
  707TMC3    C610454   0.196   4.259   1.118 -0.1519  0.6360 -0.0789
  707TMC3     C10455   0.609   4.332   1.124  0.1679  0.5874 -0.4923
  707TMC3     O10456   0.667   4.238   1.175  0.4866  0.1054  1.2380
  707TMC3     H10457   0.486   4.102   1.122  0.8080  0.3865  0.7289
  707TMC3    H110458   0.405   4.519   1.099  0.0308 -0.2965 -2.4985
  707TMC3    H210459   0.092   4.227   1.112  0.1916 -0.5096 -0.0096
  707TMC3    C710460   0.152   4.500   1.084 -0.2425 -0.1091 -0.8884
  707TMC3    C810461   0.230   4.027   1.143  0.0801 -0.6052  0.3066
  707TMC3    O110462   0.200   4.592   1.017  0.2751  0.2229  0.1960
  707TMC3    O210463   0.109   4.009   1.121 -0.0639 -0.4529  0.1055
  708MPD2     C10464   2.357   3.581  13.534  0.0968 -0.6514  0.9100
  708MPD2    C110465   2.316   3.456  13.569  0.3109 -0.1050 -0.3147
  708MPD2    C210466   2.388   3.384  13.656 -0.3499  0.0344 -0.4498
  708MPD2    C310467   2.477   3.446  13.742 -0.2664  0.1896  0.1036
  708MPD2    C410468   2.511   3.572  13.715  0.3692 -0.2065 -0.0172
  708MPD2    C510469   2.459   3.638  13.608 -0.0770 -0.4700 -0.7825
  708MPD2     H10470   2.353   3.283  13.674 -0.4473 -0.3989 -3.0039
  708MPD2    H110471   2.574   3.624  13.786 -0.1680  1.0500 -0.4610
  708MPD2    H210472   2.295   3.649  13.479  0.0239 -1.5365 -0.1102
  708MPD2    H310473   2.469   3.745  13.595  1.5867 -0.9590 -3.4859
  708MPD2     N10474   2.532   3.385  13.859 -0.5631 -0.2995 -0.1455
  708MPD2    H510475   2.597   3.440  13.915 -0.2713 -0.9275  0.1308
  708MPD2    N110476   2.205   3.396  13.510 -0.1515  0.0977 -0.3498
  708MPD2    H710477   2.185   3.303  13.545  1.4627  0.5436  1.7314
  709TMC3    C110478   1.997   3.351  13.403  0.1653 -0.1899  0.8822
  709TMC3    C210479   2.002   3.295  13.278 -0.0933 -0.3210 -0.1977
  709TMC3    C310480   2.004   3.157  13.282  0.7512  0.5445  0.2571
  709TMC3    C410481   1.972   3.291  13.517 -0.2085 -0.7263 -0.1580
  709TMC3    C510482   1.982   3.156  13.515 -0.0302  0.0593 -0.3943
  709TMC3    C610483   1.994   3.085  13.391  0.4098  0.3952 -0.2399
  709TMC3     C10484   2.109   3.442  13.420 -0.1319  0.0352  0.2037
  709TMC3     O10485   2.119   3.544  13.351 -0.3204  0.4055  0.2126
  709TMC3     H10486   2.031   3.364  13.199 -2.9587  1.6269  0.4368
  709TMC3    H110487   1.970   3.363  13.599  1.2464 -0.3424 -0.4492
  709TMC3    H210488   2.004   2.977  13.387  2.4611  0.5021  1.8305
  709TMC3    C710489   2.050   3.094  13.629  0.0268 -0.4784 -0.3500
  709TMC3    C810490   1.998   3.080  13.160 -0.1555 -0.4766  0.5202
  709TMC3    O110491   2.086   3.172  13.717 -0.0292  0.7981  0.2772
  709TMC3    O210492   1.947   2.968  13.174  0.4397  0.1512 -0.3944
  710TMC3    C110493   2.614   4.465   0.864 -0.7778  0.6045  0.2153
  710TMC3    C210494   2.693   4.486   0.758 -0.2290  0.3946 -0.2572
  710TMC3    C310495   2.798   4.394   0.744  0.3726 -0.2904  0.2653
  710TMC3    C410496   2.627   4.366   0.950 -0.9908 -0.0150 -0.6592
  710TMC3    C510497   2.736   4.281   0.941  0.7699  0.8854 -0.4488
  710TMC3    C610498   2.825   4.304   0.840 -0.0921  0.9925  0.4076
  710TMC3     C10499   2.532   4.576   0.909 -0.0368  0.4582 -0.4802
  710TMC3     O10500   2.489   4.653   0.826 -0.3476 -0.3905 -0.3139
  710TMC3     H10501   2.663   4.566   0.693  1.1409  0.6772 -0.5410
  710TMC3    H110502   2.570   4.343   1.039  2.3837 -0.1990  1.4731
  710TMC3    H210503   2.905   4.237   0.811 -0.0418  0.2248  2.3137
  710TMC3    C710504   2.762   4.184   1.053  0.2229 -0.5722 -0.4112
  710TMC3    C810505   2.856   4.378   0.616  0.9976  0.3875  0.3988
  710TMC3    O110506   2.673   4.160   1.132 -0.0772 -0.0841  0.1447
  710TMC3    O210507   2.958   4.309   0.609 -0.6916 -0.6220 -0.3710
  711TMC3    C110508   2.814   1.101  15.232  0.1953 -0.4479 -0.2860
  711TMC3    C210509   2.832   1.162  15.354  0.0735 -0.0904  0.2145
  711TMC3    C310510   2.952   1.214  15.393 -0.9574 -0.2984  0.2604
  711TMC3    C410511   2.932   1.092  15.159 -0.6969 -0.2075  0.0690
  711TMC3    C510512   3.051   1.128  15.210  0.0949 -0.1484  0.0369
  711TMC3    C610513   3.067   1.199  15.324  0.8685 -0.0613  0.0119
  711TMC3     C10514   2.725   0.986  15.218 -0.1651 -0.8942 -0.1124
  711TMC3     O10515   2.717   0.936  15.109  0.3951  0.1634  0.3013
  711TMC3     H10516   2.757   1.182  15.430  1.0729 -0.9355  1.4322
  711TMC3    H110517   2.916   1.032  15.070  2.9427 -1.2889  0.1756
  711TMC3    H210518   3.163   1.241  15.352  0.9048  0.0552 -0.2881
  711TMC3    C710519   3.136   1.011  15.232 -0.2128  0.1602  0.4733
  711TMC3    C810520   2.968   1.265  15.530  0.3226  0.8315 -0.0027
  711TMC3    O110521   3.210   1.016  15.332 -0.1794  0.0923  0.4264
  711TMC3    O210522   2.884   1.332  15.591  0.0454  0.1144  0.7725
  712MPD2     C10523   4.309   2.242  13.887  0.0863 -0.5921  0.5463
  712MPD2    C110524   4.315   2.244  13.749 -0.1786  0.1390 -0.4666
  712MPD2    C210525   4.348   2.366  13.688 -0.0040  0.9778 -0.3292
  712MPD2    C310526   4.370   2.480  13.763 -0.6553  0.5812 -0.3677
  712MPD2    C410527   4.357   2.473  13.900  0.5677  0.3283 -0.3556
  712MPD2    C510528   4.333   2.357  13.963  0.1674 -0.3757  0.9598
  712MPD2     H10529   4.345   2.373  13.580  0.7883  0.9917 -0.3530
  712MPD2    H110530   4.375   2.561  13.962 -0.0627 -0.6087  1.1573
  712MPD2    H210531   4.283   2.154  13.945  0.2943 -1.3677 -0.5501
  712MPD2    H310532   4.344   2.358  14.071 -1.6555 -0.2625  1.1496
  712MPD2     N10533   4.401   2.599  13.690 -0.7402 -0.4180  0.1520
  712MPD2    H510534   4.402   2.586  13.589  0.2998 -0.0842  0.1235
  712MPD2    N110535   4.288   2.146  13.659 -0.2211 -0.4266 -0.1285
  712MPD2    H710536   4.297   2.172  13.562 -2.2422 -1.2558 -0.5473
  713TMC3    C110537   4.504   2.801  13.637  0.5899 -0.3626 -0.8618
  713TMC3    C210538   4.638   2.826  13.661  0.1025  0.0501 -0.3399
  713TMC3    C310539   4.709   2.864  13.549  0.4117 -0.2380  0.2418
  713TMC3    C410540   4.448   2.795  13.509 -0.0772 -1.2988 -0.9029
  713TMC3    C510541   4.527   2.826  13.400 -0.3313  0.4712 -0.5405
  713TMC3    C610542   4.658   2.860  13.424  0.6233  0.3192  0.0828
  713TMC3     C10543   4.458   2.713  13.743  0.7933  0.7373  0.1209
  713TMC3     O10544   4.500   2.731  13.858  0.2594  0.5458 -0.5749
  713TMC3     H10545   4.674   2.828  13.763 -2.4640  1.1085  0.5424
  713TMC3    H110546   4.340   2.792  13.511 -0.0990  1.2403  1.8492
  713TMC3    H210547   0.008   2.855  13.342  1.4662 -0.8452  0.8833
  713TMC3    C710548   4.469   2.854  13.270  0.4518 -0.9932  0.5106
  713TMC3    C810549   0.131   2.896  13.558  0.0157  0.0854 -0.0743
  713TMC3    O110550   4.558   2.897  13.201 -0.2423 -0.2178  0.1884
  713TMC3    O210551   0.182   2.951  13.462 -0.0632  0.1842  0.3318
  714MPD2     C10552   1.883   0.965   1.903 -0.0707 -0.2841 -0.2128
  714MPD2    C110553   1.838   0.872   1.816  0.2332  0.3586  0.1181
  714MPD2    C210554   1.779   0.910   1.700  0.5549 -0.4395  0.6424
  714MPD2    C310555   1.751   1.047   1.680 -0.9050 -0.7099 -0.1161
  714MPD2    C410556   1.784   1.137   1.780  0.8934  0.5779 -0.7993
  714MPD2    C510557   1.861   1.100   1.888  0.9554 -0.4188 -0.4281
  714MPD2     H10558   1.753   0.842   1.619 -2.8727  0.6775  0.8094
  714MPD2    H110559   1.758   1.241   1.765 -0.6701  0.3683  0.3465
  714MPD2    H210560   1.943   0.944   1.991  0.6427  0.6103 -0.4888
  714MPD2    H310561   1.888   1.175   1.960 -1.6763  0.7975 -0.7088
  714MPD2     N10562   1.697   1.088   1.558 -0.0426  0.3810 -0.3104
  714MPD2    H510563   1.650   1.017   1.503 -0.6252  1.4988 -1.2780
  714MPD2    N110564   1.859   0.730   1.855 -0.2916  0.2263 -0.2686
  714MPD2    H710565   1.899   0.708   1.945 -2.1353 -1.7622  0.0524
  715TMC3    C110566   1.885   0.499   1.836 -0.3012 -0.5609  0.5226
  715TMC3    C210567   1.937   0.410   1.755 -0.2483  0.3300 -0.4922
  715TMC3    C310568   2.022   0.316   1.804  0.1858 -0.3156  0.3091
  715TMC3    C410569   1.898   0.493   1.974 -0.1225  0.0987 -0.1435
  715TMC3    C510570   1.984   0.399   2.016 -0.3365 -0.1337  0.0048
  715TMC3    C610571   2.044   0.302   1.940 -0.3073  0.6944 -0.4946
  715TMC3     C10572   1.829   0.623   1.773  0.4448 -0.2226 -0.5964
  715TMC3     O10573   1.774   0.613   1.664  0.4920  0.5908  0.2586
  715TMC3     H10574   1.912   0.410   1.649 -0.0230  0.4501 -0.5460
  715TMC3    H110575   1.851   0.560   2.045  3.3040 -1.1549  3.3113
  715TMC3    H210576   2.109   0.227   1.983 -0.5897  0.6842 -0.0829
  715TMC3    C710577   2.008   0.384   2.158 -0.2370  0.5934 -0.3070
  715TMC3    C810578   2.056   0.206   1.715  0.2403  0.3382 -0.2982
  715TMC3    O110579   2.058   0.277   2.185  0.3530  0.5268 -0.2384
  715TMC3    O210580   2.064   0.226   1.593 -0.6727 -0.5058  0.0123
  716MPD2     C10581   1.441   4.118   9.402  0.2887  0.3458 -0.1582
  716MPD2    C110582   1.458   3.982   9.428  0.0636 -0.1757 -0.0184
  716MPD2    C210583   1.586   3.934   9.417 -0.5031 -0.5261 -0.1241
  716MPD2    C310584   1.690   4.015   9.382  0.0406  0.0319  0.3298
  716MPD2    C410585   1.671   4.150   9.356  0.3272  0.4459  0.2705
  716MPD2    C510586   1.540   4.199   9.358 -0.4813 -0.2651 -0.6435
  716MPD2     H10587   1.617   3.833   9.442  1.7780  0.8055  2.4841
  716MPD2    H110588   1.759   4.211   9.338  0.0001  0.8035 -0.1208
  716MPD2    H210589   1.346   4.170   9.398 -0.5377 -1.2360 -0.9585
  716MPD2    H310590   1.519   4.301   9.331  1.8212  0.5974  0.8530
  716MPD2     N10591   1.811   3.961   9.353  0.2775  0.2561 -0.3404
  716MPD2    H510592   1.826   3.863   9.377  1.5758 -0.2683 -3.3132
  716MPD2    N110593   1.343   3.916   9.476  0.1006  0.2412  0.0793
  716MPD2    H710594   1.259   3.970   9.497 -1.0124 -1.0806 -0.9024
  717TMC3    C110595   2.037   3.912   9.300 -0.2007  0.1310  0.0945
  717TMC3    C210596   2.027   3.814   9.397  0.4617  0.2382 -0.3807
  717TMC3    C310597   2.137   3.731   9.417  0.2315 -0.0986  0.3678
  717TMC3    C410598   2.137   3.915   9.208  0.6060 -0.2831  0.2553
  717TMC3    C510599   2.240   3.829   9.228  0.4610  0.9424 -0.4864
  717TMC3    C610600   2.235   3.726   9.320  0.6063  0.3511 -0.1012
  717TMC3     C10601   1.922   4.007   9.287  0.6733  0.3335  0.6282
  717TMC3     O10602   1.928   4.104   9.218 -0.1265  0.4202  0.2319
  717TMC3     H10603   1.974   3.820   9.491  1.2499  0.2962  0.0607
  717TMC3    H110604   2.127   3.968   9.114  0.6452 -0.9705 -0.1412
  717TMC3    H210605   2.326   3.671   9.342  0.8958  0.5039 -0.9448
  717TMC3    C710606   2.362   3.841   9.153  0.5956  0.0543  0.0432
  717TMC3    C810607   2.077   3.612   9.477 -0.4992 -0.7058  0.0227
  717TMC3    O110608   2.442   3.750   9.159  0.1383 -0.0702 -0.2411
  717TMC3    O210609   1.958   3.599   9.466  0.0428 -0.0380  0.0708
  718MPD2     C10610   1.214   2.435  12.716  0.6141 -0.0523 -0.0798
  718MPD2    C110611   1.084   2.384  12.751 -0.2619 -0.9604  0.3112
  718MPD2    C210612   1.062   2.250  12.779 -0.2255  0.8307  0.2151
  718MPD2    C310613   1.166   2.158  12.755  0.2237  0.2809 -0.2982
  718MPD2    C410614   1.293   2.211  12.724 -0.1154 -0.2958 -0.2535
  718MPD2    C510615   1.320   2.348  12.704  0.3990 -0.1940  0.5518
  718MPD2     H10616   0.967   2.214  12.817  0.0658  0.0609  0.2112
  718MPD2    H110617   1.377   2.144  12.711  0.9158  0.7375  0.9967
  718MPD2    H210618   1.232   2.542  12.708 -2.8306  0.3487 -2.6751
  718MPD2    H310619   1.422   2.376  12.683  0.6553 -1.2412  0.3932
  718MPD2     N10620   1.131   2.022  12.749 -0.1560 -0.4961 -0.7197
  718MPD2    H510621   1.032   2.001  12.756 -0.3595  0.0848 -1.7324
  718MPD2    N110622   0.984   2.489  12.764 -0.2922 -0.4579 -0.0014
  718MPD2    H710623   1.014   2.579  12.727 -1.6264 -0.1887 -0.3990
  719TMC3    C110624   0.776   2.586  12.765 -0.0153 -0.7892  0.3003
  719TMC3    C210625   0.665   2.547  12.689  0.4955 -0.2511  0.0808
  719TMC3    C310626   0.655   2.612  12.562  0.1819 -0.1126 -0.3617
  719TMC3    C410627   0.857   2.691  12.725 -0.3171 -0.0554  0.4844
  719TMC3    C510628   0.840   2.748  12.605  0.6207 -0.3440 -0.3129
  719TMC3    C610629   0.738   2.711  12.521  0.4803  0.0856  0.1646
  719TMC3     C10630   0.850   2.467  12.790 -0.7327  1.4525  0.1895
  719TMC3     O10631   0.801   2.360  12.820 -0.0586  0.2593  0.4190
  719TMC3     H10632   0.609   2.459  12.717  0.7990 -0.7603 -0.9215
  719TMC3    H110633   0.935   2.733  12.788 -0.0474 -1.6041  1.1861
  719TMC3    H210634   0.731   2.753  12.421  3.1056 -2.5330 -1.1261
  719TMC3    C710635   0.967   2.783  12.542 -0.5223 -0.9288 -0.5814
  719TMC3    C810636   0.623   2.508  12.459  0.2250 -0.2552  0.3826
  719TMC3    O110637   1.063   2.739  12.604 -0.0311 -0.2176 -0.3004
  719TMC3    O210638   0.576   2.404  12.505 -0.5120  0.3252 -0.6541
  720MPD2     C10639   4.468   3.623  13.908  0.4887 -0.3971 -0.5808
  720MPD2    C110640   4.513   3.751  13.920 -0.2932  0.2449  0.0191
  720MPD2    C210641   4.576   3.794  14.031  0.8036  0.0532  0.3514
  720MPD2    C310642   4.565   3.711  14.140  1.2028  0.0815  0.8339
  720MPD2    C410643   4.508   3.591  14.141  0.3550  1.0441  0.8956
  720MPD2    C510644   4.456   3.545  14.024  0.2136  0.1792 -0.2960
  720MPD2     H10645   4.613   3.895  14.033  2.3852 -0.5474  0.8973
  720MPD2    H110646   4.513   3.526  14.228 -0.2469 -0.4213 -0.1677
  720MPD2    H210647   4.417   3.583  13.822 -3.6578  2.1750  0.6617
  720MPD2    H310648   4.406   3.449  14.014 -2.8054  1.7691 -0.3547
  720MPD2     N10649   4.636   3.762  14.251  0.6448 -0.2043 -0.0164
  720MPD2    H510650   4.680   3.853  14.248  0.9498 -0.2906  1.8582
  720MPD2    N110651   4.503   3.850  13.815  0.7506 -0.0781  0.3243
  720MPD2    H710652   4.541   3.942  13.837 -1.2319  0.5652  1.0337
  721TMC3    C110653   0.034   3.780  14.437  0.0109 -0.1002  0.1859
  721TMC3    C210654   0.059   3.741  14.569 -0.0485  1.1615 -0.2281
  721TMC3    C310655   0.174   3.767  14.623 -0.6812  0.3810 -0.1167
  721TMC3    C410656   0.136   3.844  14.363  0.2873  0.2463  0.2914
  721TMC3    C510657   0.266   3.845  14.420  0.1554  0.5049  0.1910
  721TMC3    C610658   0.290   3.799  14.552 -0.4600  0.9984 -0.0228
  721TMC3     C10659   4.661   3.699  14.368 -0.1884 -0.2884  0.6677
  721TMC3     O10660   4.618   3.591  14.416  0.0750  0.4627 -0.2200
  721TMC3     H10661   4.707   3.681  14.621  0.9343  1.2885  1.3119
  721TMC3    H110662   0.123   3.882  14.263 -2.0383 -1.0208  0.1242
  721TMC3    H210663   0.388   3.821  14.594  0.1599  0.2973 -1.0810
  721TMC3    C710664   0.381   3.879  14.342 -0.2859  0.1686  1.2549
  721TMC3    C810665   0.200   3.740  14.766 -0.0174  0.0745 -0.5637
  721TMC3    O110666   0.366   3.952  14.245  0.1485 -0.0122  0.0814
  721TMC3    O210667   0.317   3.736  14.799 -0.5660 -0.6345 -0.0988
  722MPD2     C10668   3.342   2.440  13.233  0.1529 -0.0927 -0.5176
  722MPD2    C110669   3.284   2.557  13.182 -0.0221  0.1604  0.4848
  722MPD2    C210670   3.151   2.571  13.181 -0.2934  0.2392 -0.0347
  722MPD2    C310671   3.062   2.478  13.230  0.3760 -0.5843 -0.1160
  722MPD2    C410672   3.121   2.373  13.294  0.1413 -0.1611 -0.4050
  722MPD2    C510673   3.257   2.351  13.288 -0.2121  0.1768  0.2028
  722MPD2     H10674   3.109   2.658  13.132  0.1561  0.1416 -0.5857
  722MPD2    H110675   3.054   2.300  13.339 -0.1422 -0.5667 -1.4608
  722MPD2    H210676   3.449   2.427  13.230  0.4738  2.4400  0.2065
  722MPD2    H310677   3.300   2.258  13.324  0.0591 -0.3208 -1.3851
  722MPD2     N10678   2.921   2.486  13.214 -0.8817  0.0405  0.3079
  722MPD2    H510679   2.882   2.576  13.191 -0.1427  0.5977  1.2496
  722MPD2    N110680   3.354   2.649  13.110 -0.5445 -0.1508 -0.6084
  722MPD2    H710681   3.295   2.712  13.057 -2.7506 -1.4749  0.2720
  723TMC3    C110682   2.682   2.413  13.216  0.3793 -0.6803  0.1453
  723TMC3    C210683   2.593   2.315  13.268  0.9553 -0.2875 -0.5665
  723TMC3    C310684   2.461   2.338  13.245  0.7189 -0.1485  0.9226
  723TMC3    C410685   2.639   2.533  13.168 -0.2502 -0.1338 -0.1992
  723TMC3    C510686   2.502   2.546  13.160  0.1170 -0.4510 -0.4636
  723TMC3    C610687   2.410   2.452  13.193 -0.3560  0.8645 -0.4907
  723TMC3     C10688   2.829   2.383  13.228 -0.2761  0.5691 -0.7249
  723TMC3     O10689   2.856   2.269  13.262 -0.5853 -0.5805 -0.5119
  723TMC3     H10690   2.629   2.220  13.304 -1.1441 -1.0534 -0.4670
  723TMC3    H110691   2.703   2.605  13.118 -0.9211 -0.8433 -2.0536
  723TMC3    H210692   2.305   2.477  13.186 -0.6354  0.1232  1.0490
  723TMC3    C710693   2.448   2.653  13.082 -0.1426 -0.2751 -0.1656
  723TMC3    C810694   2.364   2.234  13.270  0.7092  0.0495  0.2299
  723TMC3    O110695   2.357   2.607  13.011 -0.0154  0.6016 -0.1787
  723TMC3    O210696   2.243   2.268  13.285  0.4052  0.2131 -0.3696
  724TMC3    C110697   3.122   0.912   9.929  0.4478 -1.0812 -0.0313
  724TMC3    C210698   3.236   0.936   9.995 -0.1828 -1.0291 -0.2078
  724TMC3    C310699   3.324   0.829  10.005  0.8848  0.9473 -0.1592
  724TMC3    C410700   3.087   0.803   9.863 -0.0656 -0.0220 -0.6688
  724TMC3    C510701   3.174   0.698   9.874  0.0634  0.4957 -0.1911
  724TMC3    C610702   3.286   0.705   9.952 -0.6950 -0.5762 -0.6808
  724TMC3     C10703   3.048   1.028   9.891 -0.3167 -0.3528 -0.6360
  724TMC3     O10704   3.119   1.125   9.863  0.1849  0.5628  0.4305
  724TMC3     H10705   3.244   1.028  10.051 -1.1991  0.6360 -2.8230
  724TMC3    H110706   2.994   0.788   9.810 -0.3062 -3.2776  0.6560
  724TMC3    H210707   3.350   0.618   9.957 -0.6846 -0.4193  2.1593
  724TMC3    C710708   3.167   0.578   9.789  0.2751  0.0041  0.2101
  724TMC3    C810709   3.435   0.829  10.101 -0.2541  0.4334 -0.1092
  724TMC3    O110710   3.261   0.500   9.793 -0.6868 -0.3503 -0.2614
  724TMC3    O210711   3.463   0.720  10.150 -0.7044 -0.4018  0.2591
  725TMC3    C110712   0.396   4.128  12.519  0.2830 -0.1821 -0.1616
  725TMC3    C210713   0.347   4.144  12.391 -0.5849  0.7423  0.3369
  725TMC3    C310714   0.367   4.030  12.316  0.0613 -0.6133 -0.2764
  725TMC3    C410715   0.481   4.035  12.564 -0.5027  0.0983  0.1851
  725TMC3    C510716   0.509   3.930  12.477  0.3621 -0.2623 -0.3666
  725TMC3    C610717   0.446   3.929  12.352 -0.6006 -0.1652 -0.9045
  725TMC3     C10718   0.372   4.240  12.607  0.2783 -0.6318 -0.0433
  725TMC3     O10719   0.357   4.350  12.553  0.4503  0.1429  0.7199
  725TMC3     H10720   0.276   4.224  12.373 -0.7851  0.4320 -0.2445
  725TMC3    H110721   0.537   4.052  12.656 -1.5392  1.1699  0.6130
  725TMC3    H210722   0.459   3.846  12.283 -0.9216  1.0846 -2.4536
  725TMC3    C710723   0.639   3.867  12.464  0.1186  0.4615 -0.4083
  725TMC3    C810724   0.364   4.049  12.172  0.3297 -0.8136 -0.0618
  725TMC3    O110725   0.656   3.785  12.375 -0.2398  0.5957 -0.3919
  725TMC3    O210726   0.388   3.960  12.096 -0.3227 -0.2830 -0.7765
  726MPD2     C10727   2.979   0.986  10.238  0.4009  0.0282  0.0423
  726MPD2    C110728   2.876   1.074  10.261 -0.2982 -0.1509  0.2438
  726MPD2    C210729   2.773   1.043  10.353 -0.1180 -0.0556 -0.1537
  726MPD2    C310730   2.788   0.928  10.428  0.3842 -0.6009  0.5771
  726MPD2    C410731   2.898   0.849  10.416  0.3290  0.0995  0.1842
  726MPD2    C510732   2.996   0.879  10.323  0.4688  0.1703  0.5963
  726MPD2     H10733   2.689   1.111  10.359 -0.7674 -0.4398 -4.3964
  726MPD2    H110734   2.920   0.764  10.479 -0.2021  0.0501  0.3013
  726MPD2    H210735   3.064   1.006  10.173  1.7716  0.6757  2.0123
  726MPD2    H310736   3.075   0.806  10.308  1.2770  1.0567  0.4924
  726MPD2     N10737   2.700   0.888  10.530  0.2177 -0.2788 -0.5172
  726MPD2    H510738   2.743   0.825  10.598  1.4615 -0.5672 -1.5704
  726MPD2    N110739   2.875   1.204  10.208 -0.2088 -0.5282  0.4480
  726MPD2    H710740   2.788   1.256  10.207  0.4222  0.5354  2.0710
  727TMC3    C110741   2.965   1.391  10.102  0.6320 -0.5485 -1.1549
  727TMC3    C210742   3.055   1.478  10.146 -0.0854 -1.4740 -1.2962
  727TMC3    C310743   3.032   1.613  10.120  0.7730  0.3627 -0.6963
  727TMC3    C410744   2.842   1.421  10.049 -0.1841 -0.3708  0.4347
  727TMC3    C510745   2.822   1.558  10.026  0.1836 -0.3584 -0.8957
  727TMC3    C610746   2.923   1.650  10.048  1.0260  0.1378  0.1702
  727TMC3     C10747   2.988   1.261  10.153 -0.1326 -0.8725  0.1614
  727TMC3     O10748   3.108   1.227  10.156  0.5977  0.9490  0.1347
  727TMC3     H10749   3.134   1.443  10.212 -2.3826  1.3896  2.9879
  727TMC3    H110750   2.778   1.345  10.005 -1.7397  1.2100 -0.0458
  727TMC3    H210751   2.894   1.752  10.026  0.3934  0.1189  0.9024
  727TMC3    C710752   2.697   1.610   9.974 -0.2939 -0.3848  0.1886
  727TMC3    C810753   3.103   1.709  10.199  0.0957 -0.3972 -0.2074
  727TMC3    O110754   2.694   1.716   9.909 -0.1720 -0.2074  0.3379
  727TMC3    O210755   3.176   1.667  10.286  0.1298  0.0475 -0.7334
  728TMC3    C110756   1.695   4.160  15.341 -0.4168  0.1841  0.1193
  728TMC3    C210757   1.786   4.177  15.442 -0.3029  0.3585  0.2288
  728TMC3    C310758   1.916   4.218  15.408 -0.1697 -0.6266 -0.9128
  728TMC3    C410759   1.734   4.167  15.214 -0.3327  0.1377 -0.5152
  728TMC3    C510760   1.860   4.213  15.181  0.2133 -0.0286 -0.9261
  728TMC3    C610761   1.952   4.240  15.276 -0.2831  0.2915  0.9609
  728TMC3     C10762   1.558   4.124  15.375 -0.6778 -0.0225  0.2008
  728TMC3     O10763   1.530   4.110  15.494 -0.5231 -0.4053 -0.2401
  728TMC3     H10764   1.765   4.153  15.545 -2.6562  2.0610  0.1723
  728TMC3    H110765   1.661   4.152  15.136  1.8033  1.9991 -2.8632
  728TMC3    H210766   2.051   4.271  15.245  1.3887 -0.7284  5.2920
  728TMC3    C710767   1.904   4.239  15.047 -0.5086 -0.4138 -0.8817
  728TMC3    C810768   2.012   4.201  15.515 -0.2479  0.5084 -0.1595
  728TMC3    O110769   1.866   4.174  14.954  0.3874  0.4079  0.1083
  728TMC3    O210770   1.975   4.152  15.622 -0.5236  0.2637 -0.3634
  729MPD2     C10771   4.238   0.684  16.894 -0.6101  0.4003  0.1378
  729MPD2    C110772   4.354   0.736  16.951 -0.0955  0.0562 -0.3474
  729MPD2    C210773   4.369   0.758  17.084 -0.3447 -0.4693  0.1916
  729MPD2    C310774   4.272   0.712  17.172 -0.3276  0.0801  0.1074
  729MPD2    C410775   4.162   0.635  17.125 -0.0979 -0.4246 -0.6146
  729MPD2    C510776   4.152   0.626  16.986 -0.4041  0.4356  0.1023
  729MPD2     H10777   4.451   0.817  17.122  0.0273 -0.6540 -0.3361
  729MPD2    H110778   4.087   0.594  17.192  0.2470 -0.7555 -0.4287
  729MPD2    H210779   4.228   0.657  16.789  1.1083 -0.5003  0.2009
  729MPD2    H310780   4.067   0.572  16.947 -0.6188  0.6736  0.2401
  729MPD2     N10781   4.290   0.749  17.309  0.6740  0.0427 -0.2722
  729MPD2    H510782   4.371   0.807  17.327  0.7180  0.4508 -1.7594
  729MPD2    N110783   4.454   0.791  16.861 -0.0272 -0.4422 -0.3264
  729MPD2    H710784   4.426   0.806  16.765 -0.3255 -0.3091 -0.2170
  730TMC3    C110785   4.225   0.816  17.521  0.5732  0.4213  0.0145
  730TMC3    C210786   4.283   0.768  17.631  0.3866 -0.4972  0.8495
  730TMC3    C310787   4.363   0.859   0.016  0.0618  0.6260  0.5416
  730TMC3    C410788   4.224   0.944  17.485 -0.3011 -0.0130  0.4656
  730TMC3    C510789   4.294   1.031  17.561 -0.7521  1.0028 -0.4986
  730TMC3    C610790   4.369   0.989  17.665  0.2783  0.2764 -0.2729
  730TMC3     C10791   4.206   0.718  17.418  0.3482  0.1948  0.3170
  730TMC3     O10792   4.139   0.619  17.424 -0.5096  0.4768  0.3612
  730TMC3     H10793   4.288   0.665  17.663  0.9382 -0.9059 -0.5361
  730TMC3    H110794   4.173   0.972  17.393 -0.1469 -0.3020  0.2894
  730TMC3    H210795   4.437   1.058   0.025  0.2996 -1.3834  1.9888
  730TMC3    C710796   4.295   1.171  17.512 -0.0175 -0.1618  0.4722
  730TMC3    C810797   4.474   0.807   0.095 -0.0507 -0.1062 -0.0546
  730TMC3    O110798   4.228   1.185  17.408 -0.1065  0.3973  0.1587
  730TMC3    O210799   4.454   0.710   0.169  0.4040 -0.0863 -0.3399
  731MPD2     C10800   0.006   4.071  12.380 -0.9551  0.0802 -0.2384
  731MPD2    C110801   0.051   3.943  12.346  0.7348  0.3942  0.0096
  731MPD2    C210802   0.107   3.856  12.443 -0.0581 -0.2485  0.1172
  731MPD2    C310803   0.111   3.899  12.578 -0.8799  0.2801 -0.2329
  731MPD2    C410804   0.061   4.026  12.611  0.2805  0.3277  0.1445
  731MPD2    C510805   0.005   4.101  12.510 -0.3444  0.3336  0.1789
  731MPD2     H10806   0.141   3.754  12.427  0.3955  0.2535 -2.0403
  731MPD2    H110807   0.074   4.067  12.711 -2.8009  0.3342  0.5208
  731MPD2    H210808   4.695   4.132  12.297  2.7708  0.0596 -1.7391
  731MPD2    H310809   4.673   4.194  12.526 -0.5478  0.3625 -0.6382
  731MPD2     N10810   0.176   3.823  12.677 -0.3634 -0.4831 -0.2276
  731MPD2    H510811   0.231   3.746  12.639  0.4648 -0.0542  0.1006
  731MPD2    N110812   0.034   3.903  12.211 -0.2014  0.6138  0.0607
  731MPD2    H710813   0.002   3.972  12.144 -0.7544  0.7248  0.4354
  732TMC3    C110814   0.055   3.791  12.006  0.4702 -0.7927  0.0676
  732TMC3    C210815   4.684   3.690  11.997 -0.4236 -0.2165  0.0313
  732TMC3    C310816   4.675   3.613  11.881 -0.2395  0.4486 -0.4382
  732TMC3    C410817   0.145   3.817  11.901  0.5678 -0.0313  0.2868
  732TMC3    C510818   0.135   3.740  11.786  0.1576  0.2255 -1.0568
  732TMC3    C610819   0.046   3.636  11.776 -0.2101 -0.4295 -0.0590
  732TMC3     C10820   0.102   3.799  12.149  0.6408 -0.3563 -0.2305
  732TMC3     O10821   0.173   3.712  12.198  0.0007 -0.0687 -0.1175
  732TMC3     H10822   4.633   3.664  12.089 -0.3830  0.7599  0.3330
  732TMC3    H110823   0.214   3.899  11.916  2.2957 -1.3489 -0.4978
  732TMC3    H210824   0.047   3.577  11.685  1.7085 -0.0272 -0.3060
  732TMC3    C710825   0.219   3.765  11.675  0.2371 -0.0451  0.0884
  732TMC3    C810826   4.647   3.467  11.905  0.6411  0.2324  0.1800
  732TMC3    O110827   0.175   3.741  11.565  0.3650 -0.0074  0.5554
  732TMC3    O210828   4.702   3.397  11.823 -0.2655 -0.1473  0.1758
  733TMC3    C110829   0.887   1.788  12.633 -0.5966 -0.1308 -0.0846
  733TMC3    C210830   1.006   1.800  12.696 -0.0254  0.8978  0.1490
  733TMC3    C310831   1.121   1.831  12.632 -0.6268  0.1949 -0.4342
  733TMC3    C410832   0.878   1.840  12.509  0.1146 -0.4311  0.7343
  733TMC3    C510833   0.987   1.882  12.445 -0.0825 -1.1444 -0.5538
  733TMC3    C610834   1.111   1.871  12.502 -0.0106  0.0029 -0.0130
  733TMC3     C10835   0.759   1.782  12.704  0.2422 -0.2344  0.4769
  733TMC3     O10836   0.759   1.842  12.807 -0.0308 -0.1346  0.4556
  733TMC3     H10837   1.005   1.792  12.804 -0.3395  2.7409  0.2846
  733TMC3    H110838   0.784   1.846  12.456 -0.7244  0.3608  2.2903
  733TMC3    H210839   1.193   1.923  12.453 -0.0927  0.9694  0.8777
  733TMC3    C710840   0.968   1.977  12.340 -0.2431 -1.1585  0.6095
  733TMC3    C810841   1.208   1.921  12.699  0.1470  0.0042  0.5874
  733TMC3    O110842   1.052   1.975  12.251 -0.0048  0.6123  0.0966
  733TMC3    O210843   1.330   1.915  12.689  0.1915 -0.1139 -0.2893
  734MPD2     C10844   2.774   4.511  12.665 -0.1399 -0.2429  0.1571
  734MPD2    C110845   2.791   4.410  12.574 -0.1979 -0.4525 -0.1514
  734MPD2    C210846   2.852   4.440  12.457 -0.0783  0.3964 -0.1685
  734MPD2    C310847   2.890   4.560  12.419  0.7789  0.7421 -0.2880
  734MPD2    C410848   2.868   4.664  12.509  0.2827  0.4305 -0.3167
  734MPD2    C510849   2.821   4.639  12.635  0.2502 -0.6009 -0.1708
  734MPD2     H10850   2.855   4.357  12.387  0.6532  1.2592 -1.1621
  734MPD2    H110851   2.901   0.040  12.474  0.4427  0.5851  0.2671
  734MPD2    H210852   2.738   4.500  12.767 -2.0814  0.2729 -0.4637
  734MPD2    H310853   2.808   0.003  12.700  0.5971  0.2089 -1.1676
  734MPD2     N10854   2.923   4.571  12.283  0.1051  0.5666 -1.0501
  734MPD2    H510855   2.913   4.487  12.226 -0.4808 -0.9572  1.2661
  734MPD2    N110856   2.731   4.282  12.603  0.0874  0.1180  0.1192
  734MPD2    H710857   2.704   4.259  12.698  0.8019 -0.4479  0.1819
  735TMC3    C110858   2.602   4.093  12.541  0.3620  0.5084 -0.2769
  735TMC3    C210859   2.512   4.062  12.444  0.0408  0.9336 -0.2250
  735TMC3    C310860   2.488   3.939  12.386  0.8090  0.1270 -0.0960
  735TMC3    C410861   2.682   3.987  12.575  0.1709  0.3774 -0.0408
  735TMC3    C510862   2.670   3.866  12.506 -0.0950  0.2684  0.5376
  735TMC3    C610863   2.580   3.837  12.403 -0.4897  0.0530  0.2848
  735TMC3     C10864   2.685   4.203  12.499 -0.4365  0.9722  0.8662
  735TMC3     O10865   2.676   4.234  12.385 -0.6531 -0.4901 -0.3492
  735TMC3     H10866   2.441   4.141  12.423 -0.9192  0.2902  0.6062
  735TMC3    H110867   2.776   4.012  12.621  0.4653 -1.2646  0.2552
  735TMC3    H210868   2.561   3.741  12.357  0.6084  0.2014 -0.4615
  735TMC3    C710869   2.803   3.811  12.468 -0.1441 -0.3913 -0.3694
  735TMC3    C810870   2.461   3.953  12.244 -0.0399 -1.0706 -0.3673
  735TMC3    O110871   2.829   3.828  12.352  0.3012  0.0655 -0.4406
  735TMC3    O210872   2.398   3.864  12.182 -0.4333  0.4869  0.4173
  736MPD2     C10873   3.056   3.692  12.709  0.3868 -0.5230  0.1070
  736MPD2    C110874   3.001   3.736  12.587  0.2973  0.3332  0.1585
  736MPD2    C210875   3.089   3.751  12.486 -0.5988 -0.3312 -0.1238
  736MPD2    C310876   3.224   3.716  12.498 -1.6822  0.8249  0.2972
  736MPD2    C410877   3.272   3.670  12.618  0.2533  0.4963  0.0884
  736MPD2    C510878   3.190   3.666  12.719  0.3803 -0.1441  0.6023
  736MPD2     H10879   3.048   3.780  12.390 -2.6497 -1.6262  0.3607
  736MPD2    H110880   3.376   3.644  12.634  0.0447 -1.1104 -1.2679
  736MPD2    H210881   2.990   3.683  12.795 -1.6432 -1.0565 -1.5064
  736MPD2    H310882   3.233   3.649  12.817 -0.3534  0.4958  1.0333
  736MPD2     N10883   3.316   3.720  12.390  0.1497 -0.7678 -0.5476
  736MPD2    H510884   3.409   3.693  12.422  0.1302  2.2462  2.1468
  736MPD2    N110885   2.862   3.763  12.577  0.0379  0.3750  0.0663
  736MPD2    H710886   2.806   3.771  12.661  2.5896 -1.7250  1.9424
  737TMC3    C110887   3.414   3.771  12.179 -0.1075  0.2103  0.3436
  737TMC3    C210888   3.413   3.855  12.074  0.6078  0.7481 -0.2985
  737TMC3    C310889   3.501   3.842  11.970 -0.1736  0.7136 -0.1550
  737TMC3    C410890   3.506   3.675  12.182  0.6383 -0.4805 -0.5039
  737TMC3    C510891   3.601   3.670  12.082  0.5714 -0.2552  0.0188
  737TMC3    C610892   3.597   3.751  11.970 -0.8172 -0.0990 -0.6475
  737TMC3     C10893   3.301   3.777  12.269 -0.3545 -0.3755  0.4653
  737TMC3     O10894   3.206   3.841  12.231  0.1776 -0.3502 -0.2184
  737TMC3     H10895   3.336   3.931  12.065 -0.4773 -0.7412 -3.7801
  737TMC3    H110896   3.500   3.615  12.272 -0.2074  0.7585  0.2792
  737TMC3    H210897   3.670   3.738  11.890 -1.7025  0.0536 -1.4751
  737TMC3    C710898   3.703   3.568  12.102 -0.4930 -0.5674  0.3478
  737TMC3    C810899   3.518   3.969  11.894 -0.3468  0.2334 -0.4022
  737TMC3    O110900   3.674   3.473  12.168  0.1311 -0.2362  0.1255
  737TMC3    O210901   3.486   4.075  11.952  0.2568  0.3502 -0.2244
  738MPD2     C10902   3.425   3.153  15.565 -0.0869 -0.5869 -0.0528
  738MPD2    C110903   3.424   3.087  15.439 -0.0789  0.6292 -0.3864
  738MPD2    C210904   3.518   3.121  15.342 -0.8028 -0.0634 -0.0600
  738MPD2    C310905   3.609   3.216  15.371  0.3286 -0.7083  0.4312
  738MPD2    C410906   3.609   3.276  15.502 -0.3135 -0.5924 -0.7545
  738MPD2    C510907   3.523   3.241  15.593  0.3780  0.6795 -0.0643
  738MPD2     H10908   3.513   3.074  15.245 -2.7391 -0.6635  0.3240
  738MPD2    H110909   3.686   3.337  15.548 -0.5232 -0.0127 -1.1844
  738MPD2    H210910   3.343   3.140  15.634 -0.5925 -1.8706 -0.9148
  738MPD2    H310911   3.521   3.296  15.687 -0.9887  1.4178 -0.5313
  738MPD2     N10912   3.712   3.245  15.282 -0.0424 -0.1427 -0.5304
  738MPD2    H510913   3.789   3.295  15.324  0.7114 -1.2881 -0.5513
  738MPD2    N110914   3.314   3.002  15.403 -0.1851  1.0503 -0.7411
  738MPD2    H710915   3.320   2.945  15.319 -3.5035 -0.5227  0.1303
  739TMC3    C110916   3.839   3.256  15.077 -0.9107  0.5530  0.4763
  739TMC3    C210917   3.819   3.303  14.950 -0.2856 -0.0719 -0.5008
  739TMC3    C310918   3.932   3.357  14.892 -0.3045  0.1676  0.0940
  739TMC3    C410919   3.954   3.260  15.141  0.0358  0.5977 -0.3116
  739TMC3    C510920   4.071   3.294  15.071  0.0695 -0.0958  0.3649
  739TMC3    C610921   4.060   3.348  14.941 -0.2023 -0.3942 -0.1433
  739TMC3     C10922   3.715   3.215  15.145  0.8501  0.1172  0.0238
  739TMC3     O10923   3.622   3.165  15.078 -0.1669  0.2729 -0.1797
  739TMC3     H10924   3.718   3.312  14.912 -0.7578  0.3107  0.8449
  739TMC3    H110925   3.962   3.220  15.242 -4.7686 -1.3770 -0.7370
  739TMC3    H210926   4.152   3.380  14.894 -0.2987  0.6029  0.3381
  739TMC3    C710927   4.187   3.295  15.154  0.8753  0.7217  0.2346
  739TMC3    C810928   3.907   3.397  14.754  0.4685  0.6883  0.4960
  739TMC3    O110929   4.180   3.259  15.272 -0.0826  0.2674 -0.1645
  739TMC3    O210930   3.797   3.367  14.708  0.0937  0.4764 -0.1614
  740TMC3    C110931   4.055   4.551  14.887 -0.3990  0.5201 -0.0154
  740TMC3    C210932   4.090   4.539  15.022  0.0982 -0.2344 -0.1670
  740TMC3    C310933   4.216   4.515  15.058 -0.2144  0.1107 -0.8432
  740TMC3    C410934   4.156   4.548  14.797  0.1721  0.6434 -0.3862
  740TMC3    C510935   4.286   4.512  14.832 -0.7285 -0.4699 -0.3900
  740TMC3    C610936   4.314   4.494  14.965 -1.1164 -0.2068  0.6071
  740TMC3     C10937   3.915   4.574  14.836 -0.4351 -0.1150  0.3832
  740TMC3     O10938   3.906   4.621  14.724 -0.1643  0.0937 -0.6109
  740TMC3     H10939   4.005   4.528  15.088  0.8148 -0.7111  0.6680
  740TMC3    H110940   4.130   4.544  14.691  1.0035 -0.6534 -0.5326
  740TMC3    H210941   4.417   4.489  14.997 -0.7267  1.3761 -0.4351
  740TMC3    C710942   4.372   4.450  14.734  1.1011 -0.0816 -0.0766
  740TMC3    C810943   4.231   4.474  15.199 -0.2244 -0.2147  0.5666
  740TMC3    O110944   4.453   4.362  14.774 -0.7879 -0.1689  0.4403
  740TMC3    O210945   4.140   4.519  15.272  0.3250  0.0230 -0.6533
  741TMC3    C110946   3.802   3.767  14.599  0.3937  0.4945 -0.0124
  741TMC3    C210947   3.692   3.685  14.582 -0.0253 -0.7422  0.4098
  741TMC3    C310948   3.639   3.627  14.695 -0.0945  0.6165  0.3611
  741TMC3    C410949   3.841   3.799  14.730  0.1195  0.3562  0.2313
  741TMC3    C510950   3.774   3.759  14.841  0.4889 -0.2891  0.0245
  741TMC3    C610951   3.674   3.661  14.820  0.2512 -0.4036 -1.0918
  741TMC3     C10952   3.868   3.839  14.485  1.1102  0.2465  0.6925
  741TMC3     O10953   3.975   3.891  14.510 -0.0705 -0.2007  0.1041
  741TMC3     H10954   3.646   3.655  14.488 -1.5341  0.4385  0.7623
  741TMC3    H110955   3.922   3.871  14.741  0.1455  0.6565 -1.8222
  741TMC3    H210956   3.630   3.610  14.905 -1.1005  0.7790 -1.0982
  741TMC3    C710957   3.851   3.732  14.960 -0.0705 -0.0067 -0.0565
  741TMC3    C810958   3.512   3.555  14.678  0.2587  1.1950  0.0164
  741TMC3    O110959   3.972   3.722  14.953 -0.1009 -0.5889  0.8034
  741TMC3    O210960   3.441   3.563  14.783 -0.3888  0.6697  0.0026
  742TMC3    C110961   3.329   2.094  15.453 -0.6238 -0.0415  0.4969
  742TMC3    C210962   3.295   2.135  15.330  0.0340  0.8030  0.8106
  742TMC3    C310963   3.397   2.135  15.234  0.4128 -0.8560 -0.3879
  742TMC3    C410964   3.459   2.095  15.497  0.3434  0.6199 -0.2325
  742TMC3    C510965   3.559   2.114  15.402  0.0605 -0.0422  0.5177
  742TMC3    C610966   3.528   2.127  15.269 -0.2322  0.4971 -0.5979
  742TMC3     C10967   3.227   2.134  15.554  0.0912  0.3683 -0.2270
  742TMC3     O10968   3.149   2.218  15.516 -0.5468  0.1019  0.2120
  742TMC3     H10969   3.192   2.131  15.295  1.0617  2.3786 -2.4976
  742TMC3    H110970   3.486   2.059  15.595  1.0381 -1.0920 -1.0580
  742TMC3    H210971   3.605   2.129  15.192  0.7589  0.6580  0.3955
  742TMC3    C710972   3.682   2.169  15.455  0.7134 -0.4112 -0.2131
  742TMC3    C810973   3.360   2.128  15.092  0.7679 -0.1244  1.2916
  742TMC3    O110974   3.732   2.134  15.560  0.2143 -0.4879  0.1270
  742TMC3    O210975   3.422   2.053  15.021  0.1881  0.5081 -0.2096
  743MPD2     C10976   1.127   3.735   1.904 -0.7919  0.1981  0.1040
  743MPD2    C110977   1.180   3.663   1.799  0.6918 -0.1550  0.0945
  743MPD2    C210978   1.305   3.605   1.815 -0.3092 -0.8291  0.0057
  743MPD2    C310979   1.367   3.604   1.936 -0.7955  0.0681 -0.7013
  743MPD2    C410980   1.315   3.665   2.045 -0.1459 -0.2092 -1.1285
  743MPD2    C510981   1.193   3.731   2.026  0.1725 -0.3943  0.1099
  743MPD2     H10982   1.355   3.556   1.732  2.3075 -1.7895  2.1485
  743MPD2    H110983   1.360   3.672   2.143  0.5313 -1.1468 -1.3661
  743MPD2    H210984   1.038   3.796   1.897  0.7980  2.6051  0.3710
  743MPD2    H310985   1.154   3.777   2.116  2.0103  0.2798  0.5632
  743MPD2     N10986   1.494   3.545   1.947 -0.1936 -0.4037  0.1934
  743MPD2    H510987   1.516   3.487   1.866  1.0936 -0.8619  0.8697
  743MPD2    N110988   1.105   3.653   1.678 -0.0138 -0.1840  0.2098
  743MPD2    H710989   1.015   3.702   1.681 -1.1183 -2.3143  1.6558
  744TMC3    C110990   1.033   3.556   1.463  0.8106  0.3012  0.1547
  744TMC3    C210991   0.910   3.608   1.466 -0.3325  0.2109 -0.2063
  744TMC3    C310992   0.813   3.554   1.381 -0.0898  0.0605  0.2217
  744TMC3    C410993   1.069   3.465   1.370 -0.5781  0.0996 -0.1774
  744TMC3    C510994   0.978   3.429   1.279 -0.0884 -0.5013  0.3631
  744TMC3    C610995   0.848   3.466   1.286  0.0797  1.0894 -1.1717
  744TMC3     C10996   1.141   3.588   1.564  0.3102  0.1402  0.5923
  744TMC3     O10997   1.249   3.536   1.539  0.0957 -0.2825  0.3847
  744TMC3     H10998   0.885   3.682   1.542 -0.6952  0.2525 -0.3673
  744TMC3    H110999   1.166   3.420   1.351 -1.0880 -1.2161  0.2938
  744TMC3    H211000   0.779   3.454   1.203  0.7997  0.3011 -1.6557
  744TMC3    C711001   1.021   3.334   1.176 -0.4764  0.3272  0.0421
  744TMC3    C811002   0.694   3.639   1.363 -0.1576  0.2542  0.2356
  744TMC3    O111003   1.138   3.302   1.170 -0.0943 -0.6529 -0.2956
  744TMC3    O211004   0.692   3.748   1.419 -0.1847  0.2723  0.2296
  745TMC3    C111005   4.147   1.998  13.578 -0.1412  0.7542 -0.0556
  745TMC3    C211006   4.022   1.989  13.630  0.0901  0.1207  0.4863
  745TMC3    C311007   3.916   2.070  13.589  1.0899  0.4054  0.3668
  745TMC3    C411008   4.161   2.072  13.465 -0.1173 -0.0751  0.0480
  745TMC3    C511009   4.056   2.139  13.406 -0.1737  0.2534  0.0484
  745TMC3    C611010   3.939   2.142  13.476 -0.1152 -0.4438  0.4125
  745TMC3     C11011   4.237   2.026  13.685 -0.3901 -0.0427 -0.3832
  745TMC3     O11012   4.222   1.979  13.794  0.2707 -0.2141 -0.2782
  745TMC3     H11013   4.016   1.927  13.718 -1.2853 -2.8432 -1.7101
  745TMC3    H111014   4.260   2.089  13.423 -0.7241  4.9332  0.6074
  745TMC3    H211015   3.865   2.215  13.445  0.9002  0.3880 -0.0500
  745TMC3    C711016   4.080   2.246  13.313  0.3234 -0.0185  0.1163
  745TMC3    C811017   3.845   2.128  13.696  0.6600  0.1877 -0.8613
  745TMC3    O111018   4.016   2.345  13.336  0.2043 -0.3608 -0.1596
  745TMC3    O211019   3.731   2.161  13.673  0.1906  0.5516 -0.2374
  746TMC3    C111020   1.767   3.765  11.265 -0.9511  0.0690  0.3817
  746TMC3    C211021   1.898   3.727  11.276 -0.7263  0.1527 -0.3322
  746TMC3    C311022   1.931   3.602  11.316 -0.0875  0.3600  0.2273
  746TMC3    C411023   1.670   3.676  11.310  0.2773 -0.5685 -0.1592
  746TMC3    C511024   1.708   3.554  11.358 -0.3430  0.3369  1.0749
  746TMC3    C611025   1.838   3.513  11.356  0.3174  0.0709 -0.4954
  746TMC3     C11026   1.727   3.904  11.254 -0.2775 -0.3060  0.2163
  746TMC3     O11027   1.647   3.942  11.340 -0.2355  0.1923 -0.4619
  746TMC3     H11028   1.978   3.791  11.239  0.8259 -1.3739  0.4106
  746TMC3    H111029   1.567   3.710  11.309 -0.2202 -2.0672  0.3315
  746TMC3    H211030   1.866   3.413  11.385 -0.9398 -0.0417  0.3500
  746TMC3    C711031   1.620   3.452  11.327  0.6969 -0.1415  0.2229
  746TMC3    C811032   2.068   3.568  11.321 -0.3124  0.2921 -0.0117
  746TMC3    O111033   1.597   3.445  11.207 -0.7544 -1.0519 -0.0324
  746TMC3    O211034   2.123   3.506  11.407  0.2021 -1.1550 -0.2326
  747TMC3    C111035   4.525   3.514  11.492  0.6702 -0.0262 -0.1166
  747TMC3    C211036   4.456   3.430  11.574  0.0603  0.1284  0.4512
  747TMC3    C311037   4.398   3.497  11.681 -0.2794 -0.1960  0.0249
  747TMC3    C411038   4.547   3.649  11.512  0.8617 -0.0421 -0.0323
  747TMC3    C511039   4.489   3.703  11.617 -0.4027 -0.2454  0.5195
  747TMC3    C611040   4.410   3.632  11.704 -1.1030 -0.0831  0.2743
  747TMC3     C11041   4.594   3.460  11.379  0.5320 -0.9113 -0.1844
  747TMC3     O11042   4.681   3.535  11.339  0.3987  0.2766 -0.0512
  747TMC3     H11043   4.425   3.327  11.559  2.4176 -0.9758  3.0974
  747TMC3    H111044   4.617   3.699  11.446 -0.1784  1.1840 -0.2012
  747TMC3    H211045   4.357   3.686  11.781  2.9910  2.4809  1.3488
  747TMC3    C711046   4.481   3.846  11.617 -0.3746  0.8111 -0.1382
  747TMC3    C811047   4.319   3.422  11.774  0.3551 -0.4359 -0.7255
  747TMC3    O111048   4.440   3.893  11.721 -0.8568 -0.2709  0.3105
  747TMC3    O211049   4.356   3.309  11.807 -0.1468  0.4998 -0.3596
  748MPD2     C11050   0.179   4.337   1.477  0.3849  0.4788  0.3092
  748MPD2    C111051   0.287   4.264   1.509 -0.6382  0.5225  0.3277
  748MPD2    C211052   0.407   4.329   1.502 -0.0950 -0.3615  0.3906
  748MPD2    C311053   0.421   4.462   1.453 -0.4251  0.2886  0.3903
  748MPD2    C411054   0.304   4.529   1.418 -0.4040 -0.3396  0.2710
  748MPD2    C511055   0.188   4.466   1.439  0.0226 -0.3695 -0.8040
  748MPD2     H11056   0.495   4.275   1.537 -0.0186 -0.9763 -0.7538
  748MPD2    H111057   0.293   4.626   1.372 -0.0802 -1.2247 -1.6684
  748MPD2    H211058   0.082   4.293   1.459  0.3818  1.5076 -2.2207
  748MPD2    H311059   0.099   4.506   1.391  0.2184 -0.9203 -1.6338
  748MPD2     N11060   0.554   4.514   1.444  0.2979 -0.4518  0.2587
  748MPD2    H511061   0.633   4.452   1.455  2.1311  2.1613  1.9904
  748MPD2    N111062   0.270   4.126   1.541  0.2260  0.2801 -0.6394
  748MPD2    H711063   0.177   4.084   1.547  0.6393 -0.4761  0.4397
  749TMC3    C111064   0.733   4.666   1.401  0.3553  0.3001  0.4060
  749TMC3    C211065   0.809   4.600   1.497  0.1975  1.0208  0.6580
  749TMC3    C311066   0.939   4.643   1.507 -0.7603 -0.1259  0.0053
  749TMC3    C411067   0.787   0.037   1.311  0.1405  0.5966  0.6899
  749TMC3    C511068   0.915   0.069   1.331 -0.1125  0.2595 -0.0097
  749TMC3    C611069   1.000   0.014   1.428 -0.0809  0.0450  0.3484
  749TMC3     C11070   0.590   4.637   1.393  0.3128 -0.5594  0.0975
  749TMC3     O11071   0.523   0.005   1.341  0.1154  0.5706  0.4143
  749TMC3     H11072   0.759   4.540   1.572  0.6409  1.6791  1.4879
  749TMC3    H111073   0.714   0.095   1.257  0.3428 -0.3297 -0.5823
  749TMC3    H211074   1.102   0.042   1.448  0.1887 -2.1139  1.9415
  749TMC3    C711075   0.981   0.167   1.237 -0.5126  0.7733 -0.3188
  749TMC3    C811076   1.020   4.578   1.603  0.3837 -0.5676  0.2403
  749TMC3    O111077   1.092   0.210   1.273  0.0288 -0.3451  0.0149
  749TMC3    O211078   0.967   4.524   1.701  0.2099  0.2033  0.0564
  750MPD2     C11079   2.193   0.782  11.464  0.3212 -0.1954 -0.2353
  750MPD2    C111080   2.056   0.776  11.422  0.3393  0.3308  0.0478
  750MPD2    C211081   2.003   0.656  11.389  0.0592 -1.1106 -0.6675
  750MPD2    C311082   2.084   0.540  11.386  0.2877  0.1128  0.2286
  750MPD2    C411083   2.217   0.557  11.413 -0.1222 -0.1677  0.8346
  750MPD2    C511084   2.275   0.673  11.453  0.5865  0.2313 -0.1306
  750MPD2     H11085   1.897   0.644  11.370  0.4419 -2.8139 -1.7375
  750MPD2    H111086   2.285   0.472  11.406  0.4749  0.4025 -0.2823
  750MPD2    H211087   2.239   0.872  11.504 -0.6811  0.2145  0.0283
  750MPD2    H311088   2.379   0.677  11.484  0.5716 -2.1600  0.2318
  750MPD2     N11089   2.040   0.414  11.348 -0.4595 -1.0549  0.2916
  750MPD2    H511090   2.118   0.351  11.333 -0.8996 -2.1989  2.8656
  750MPD2    N111091   1.978   0.896  11.425 -0.1018  0.6997 -0.4545
  750MPD2    H711092   2.032   0.979  11.447  1.4530 -0.0823 -1.3268
  751TMC3    C111093   1.903   0.262  11.234 -0.1688  0.4121 -0.0286
  751TMC3    C211094   1.779   0.219  11.185 -0.0190  0.3381 -0.2088
  751TMC3    C311095   1.784   0.121  11.092 -0.8035  0.9336  0.5881
  751TMC3    C411096   2.021   0.202  11.203  0.7423 -0.0159 -0.3146
  751TMC3    C511097   2.017   0.104  11.107  0.4369  0.1575 -0.7789
  751TMC3    C611098   1.899   0.057  11.055 -0.1566  0.5082 -1.0318
  751TMC3     C11099   1.911   0.376  11.323 -0.7160 -0.3119 -0.1014
  751TMC3     O11100   1.816   0.436  11.359 -0.5276 -0.5581 -0.4371
  751TMC3     H11101   1.689   0.268  11.221  0.1272  0.0086  0.5937
  751TMC3    H111102   2.117   0.236  11.240  0.7119  0.2187 -0.4489
  751TMC3    H211103   1.896   4.690  10.993 -0.9431 -1.4814  1.8333
  751TMC3    C711104   2.140   0.031  11.087 -0.3099 -0.5592  0.3105
  751TMC3    C811105   1.668   0.056  11.041 -0.6271  1.0798 -0.0646
  751TMC3    O111106   2.245   0.094  11.081  0.0343 -0.2601  0.4638
  751TMC3    O211107   1.684   4.710  10.939 -0.0510  0.1081 -0.1591
  752TMC3    C111108   0.761   0.500  17.321 -0.1589  0.4557 -0.6751
  752TMC3    C211109   0.654   0.519  17.400  0.1057  0.3353 -0.1705
  752TMC3    C311110   0.649   0.462  17.522  0.0522  0.3230 -0.1518
  752TMC3    C411111   0.869   0.436  17.369 -0.0987 -0.0122  0.6905
  752TMC3    C511112   0.872   0.384  17.496  0.0127  0.3044 -0.3738
  752TMC3    C611113   0.754   0.394  17.568 -0.3100  0.3717  0.3083
  752TMC3     C11114   0.759   0.537  17.180  0.2219  0.8141  0.1605
  752TMC3     O11115   0.868   0.521  17.133 -0.0839 -0.3827 -0.6618
  752TMC3     H11116   0.569   0.575  17.362 -0.0985 -1.3270 -2.1336
  752TMC3    H111117   0.958   0.432  17.306 -1.0422  1.9082 -0.7629
  752TMC3    H211118   0.759   0.352  17.668 -0.8904  1.3379  0.7381
  752TMC3    C711119   0.917   0.246  17.508 -0.7305  0.3187  0.6605
  752TMC3    C811120   0.518   0.462  17.589  0.6081  0.2726  0.0036
  752TMC3    O111121   0.831   0.164  17.515  0.3580 -0.1221  0.5774
  752TMC3    O211122   0.415   0.463  17.525  0.3376  0.4872  0.6541
  753TMC3    C111123   2.476   1.976  13.600  0.4170 -0.8554 -0.2362
  753TMC3    C211124   2.451   1.965  13.730 -0.2798 -0.8247 -0.2134
  753TMC3    C311125   2.397   1.845  13.777 -0.0355  0.1010  0.5830
  753TMC3    C411126   2.459   1.869  13.518 -0.0086 -0.3461  0.4601
  753TMC3    C511127   2.385   1.757  13.560  1.1028 -0.0603 -0.4823
  753TMC3    C611128   2.365   1.743  13.697  0.7822  0.4119 -0.6171
  753TMC3     C11129   2.579   2.069  13.568 -0.0765 -0.2377  0.3711
  753TMC3     O11130   2.550   2.181  13.601  0.2596 -0.0985  0.4222
  753TMC3     H11131   2.479   2.046  13.796 -0.3321 -1.4093  0.5269
  753TMC3    H111132   2.460   1.885  13.411  1.5308 -1.8126  0.2559
  753TMC3    H211133   2.310   1.661  13.742  1.9447  0.0224  0.0780
  753TMC3    C711134   2.390   1.636  13.479 -0.0379  0.3184 -0.0255
  753TMC3    C811135   2.391   1.835  13.924 -0.1419 -0.3026 -1.0222
  753TMC3    O111136   2.479   1.625  13.396  1.0710 -0.1744 -0.4566
  753TMC3    O211137   2.316   1.753  13.969  0.2437  0.4190  0.2104
  754MPD2     C11138   0.969   0.431  13.248 -0.1317  0.1702 -0.3163
  754MPD2    C111139   0.848   0.421  13.308  0.2288 -0.3063 -0.0475
  754MPD2    C211140   0.741   0.394  13.225  0.2129  0.4800  0.4996
  754MPD2    C311141   0.745   0.385  13.088 -0.4081  0.0544  0.3061
  754MPD2    C411142   0.868   0.393  13.036 -0.0796 -0.6427 -0.1696
  754MPD2    C511143   0.983   0.411  13.117  0.2837 -0.2409 -0.1466
  754MPD2     H11144   0.640   0.397  13.263 -0.6795 -2.6854 -1.6080
  754MPD2    H111145   0.876   0.382  12.929  1.0949 -2.6728  0.1272
  754MPD2    H211146   1.056   0.453  13.309 -0.2560  0.0430 -0.0919
  754MPD2    H311147   1.085   0.412  13.082  0.1726 -3.1625 -0.5473
  754MPD2     N11148   0.614   0.376  13.024 -0.2350 -0.1459  0.1429
  754MPD2    H511149   0.533   0.378  13.084 -0.4674 -2.1246 -0.0926
  754MPD2    N111150   0.830   0.449  13.448 -0.7607  0.0708 -0.3154
  754MPD2    H711151   0.904   0.498  13.497 -0.3343 -1.2093  0.3045
  755MPD2     C11152   4.604   0.506  13.498 -0.5650  0.2021  0.1762
  755MPD2    C111153   0.021   0.490  13.516 -0.2208 -0.8358 -0.6114
  755MPD2    C211154   0.093   0.451  13.405  0.0374  0.5725  0.2466
  755MPD2    C311155   0.030   0.424  13.283  0.9992 -0.1337 -0.0041
  755MPD2    C411156   4.618   0.439  13.269 -0.0540  0.3158  0.6926
  755MPD2    C511157   4.547   0.472  13.377  0.2347 -0.0931 -0.3982
  755MPD2     H11158   0.201   0.445  13.410  0.2960  2.1856 -2.7703
  755MPD2    H111159   4.560   0.413  13.182 -1.0915 -1.8360  2.0446
  755MPD2    H211160   4.535   0.534  13.576 -3.6697 -0.4940 -2.3110
  755MPD2    H311161   4.440   0.489  13.371  0.1974 -0.1666  0.0238
  755MPD2     N11162   0.100   0.394  13.157  0.1193  0.0615 -0.1277
  755MPD2    H511163   0.045   0.399  13.072  3.3988 -0.6226 -2.2799
  755MPD2    N111164   0.090   0.504  13.640 -0.7485 -0.5530 -0.7643
  755MPD2    H711165   0.191   0.493  13.642 -1.1076 -3.7116  0.0111
  756MPD2     C11166   1.323   0.855   9.669 -0.1720  0.4007  0.3943
  756MPD2    C111167   1.425   0.933   9.724 -0.1592 -0.5283  0.1574
  756MPD2    C211168   1.515   0.978   9.633 -0.3704  0.6312  0.4259
  756MPD2    C311169   1.517   0.951   9.496 -0.1183  0.2960 -0.4415
  756MPD2    C411170   1.422   0.859   9.449  0.4748 -0.5228 -0.7999
  756MPD2    C511171   1.324   0.811   9.537 -0.0295  0.0387  0.3081
  756MPD2     H11172   1.597   1.038   9.671  0.3099 -0.0807  0.1081
  756MPD2    H111173   1.394   0.840   9.346  1.6034 -0.0865 -1.1765
  756MPD2    H211174   1.234   0.830   9.725  0.2827  0.0134  0.9463
  756MPD2    H311175   1.254   0.735   9.502  1.7527 -0.5022 -2.0442
  756MPD2     N11176   1.632   0.997   9.416 -0.2833 -0.3703 -0.1902
  756MPD2    H511177   1.701   1.057   9.460  0.2916 -1.5635  0.5031
  756MPD2    N111178   1.437   0.976   9.856  0.3466 -0.4965  0.1124
  756MPD2    H711179   1.516   1.031   9.886 -0.9871  0.1899  2.4566
  757MPD2     C11180   1.873   0.308   9.074 -0.4094 -0.3163  0.2486
  757MPD2    C111181   1.765   0.382   9.120 -0.0202 -0.5201  0.1751
  757MPD2    C211182   1.780   0.517   9.139 -0.1436 -0.0701 -0.0064
  757MPD2    C311183   1.902   0.583   9.108 -0.2859  0.0654 -0.1176
  757MPD2    C411184   2.011   0.508   9.062  0.2036 -0.4130 -0.7403
  757MPD2    C511185   1.992   0.374   9.044 -0.3477 -0.8694  0.0179
  757MPD2     H11186   1.694   0.572   9.174  0.3232  0.5457  0.1790
  757MPD2    H111187   2.110   0.548   9.043 -0.2003  0.9372 -0.0666
  757MPD2    H211188   1.874   0.200   9.066  0.1223 -0.3097  0.2495
  757MPD2    H311189   2.071   0.311   9.004 -2.1757 -0.9472 -3.4702
  757MPD2     N11190   1.900   0.727   9.115  0.4372 -0.3534 -0.2543
  757MPD2    H511191   1.812   0.764   9.148  0.9235 -0.0095  0.6412
  757MPD2    N111192   1.637   0.328   9.149 -0.2821 -0.1619  0.2979
  757MPD2    H711193   1.561   0.389   9.175  0.8289  2.0707 -1.7535
  758MPD2     C11194   1.150   0.063  16.241  0.5568  0.2897 -0.3220
  758MPD2    C111195   1.216   4.704  16.329 -0.0239  0.6715 -0.2003
  758MPD2    C211196   1.158   4.694  16.453 -0.2185 -0.5966 -0.0065
  758MPD2    C311197   1.048   0.047  16.497  0.1434  1.0866  0.2261
  758MPD2    C411198   0.991   0.136  16.404  0.6832  0.0581  0.5529
  758MPD2    C511199   1.046   0.145  16.279  0.6051  0.6583  0.3285
  758MPD2     H11200   1.213   4.634  16.525 -1.5474 -2.5570 -0.6252
  758MPD2    H111201   0.905   0.198  16.421  1.4742  1.5613 -0.8769
  758MPD2    H211202   1.192   0.087  16.144  0.0483 -0.8469 -0.8209
  758MPD2    H311203   1.014   0.223  16.211 -0.5928  0.2164  0.3852
  758MPD2     N11204   0.992   0.044  16.629 -0.0293 -0.4311  0.7207
  758MPD2    H511205   0.915   0.107  16.647  1.5672  1.8210 -0.3335
  758MPD2    N111206   1.338   4.645  16.280  0.1038  0.7159  0.0831
  758MPD2    H711207   1.369   4.665  16.186 -2.7232 -0.6494 -1.1580
  759MPD2     C11208   0.056   3.524  10.277  0.2545  0.3126  0.0894
  759MPD2    C111209   0.143   3.493  10.380  0.1635 -0.0306  0.4499
  759MPD2    C211210   0.260   3.571  10.390  0.0999  0.6344 -0.0753
  759MPD2    C311211   0.302   3.662  10.295  0.0653 -0.2256  0.5721
  759MPD2    C411212   0.212   3.688  10.190  0.4754 -1.0163  0.3272
  759MPD2    C511213   0.092   3.619  10.181  0.7964  0.5437 -0.1275
  759MPD2     H11214   0.329   3.543  10.469  0.1547  1.1177  0.0459
  759MPD2    H111215   0.229   3.760  10.111 -1.0596 -1.3326 -0.2907
  759MPD2    H211216   4.686   3.466  10.266  1.1976 -1.2336  0.2720
  759MPD2    H311217   0.031   3.654  10.099  0.5137  0.9791  0.2751
  759MPD2     N11218   0.438   3.700  10.297  0.2153 -0.0333 -0.0199
  759MPD2    H511219   0.487   3.690  10.386  0.3956  0.4770 -0.0584
  759MPD2    N111220   0.111   3.392  10.477  0.3573 -0.6313 -0.2233
  759MPD2    H711221   0.180   3.368  10.547  0.3729  2.7405  0.9338
  760MPD2     C11222   4.683   0.692  11.941  0.0036  0.2830 -0.2447
  760MPD2    C111223   0.093   0.718  11.934 -0.2266 -0.1133 -1.0681
  760MPD2    C211224   0.187   0.615  11.956 -0.2871 -0.1819 -0.1673
  760MPD2    C311225   0.148   0.487  11.994 -0.1010 -0.3220  0.1691
  760MPD2    C411226   0.009   0.471  12.018 -0.0585  0.1531  0.1719
  760MPD2    C511227   4.644   0.573  12.004  0.3093 -0.2097 -0.8861
  760MPD2     H11228   0.292   0.635  11.940  0.1365  1.1797  4.1592
  760MPD2    H111229   4.705   0.370  12.047  0.4837  0.6669  2.3937
  760MPD2    H211230   4.616   0.776  11.928  0.0806  0.3394 -0.2785
  760MPD2    H311231   4.538   0.552  12.015  0.3769 -0.6198 -1.0366
  760MPD2     N11232   0.238   0.379  12.023  0.1450 -0.1972  0.3496
  760MPD2    H511233   0.197   0.287  12.033  0.9698 -0.7409 -1.3524
  760MPD2    N111234   0.137   0.845  11.900  0.0015 -0.1361 -0.2628
  760MPD2    H711235   0.233   0.874  11.914  0.5222 -1.3466 -1.3247
  761MPD2     C11236   1.189   4.611  11.071 -0.1637  0.1500  0.9818
  761MPD2    C111237   1.290   4.595  10.972  0.1292 -0.5689  0.2990
  761MPD2    C211238   1.415   4.639  10.998  0.4104  0.2210  0.0243
  761MPD2    C311239   1.438   4.722  11.098 -0.4559 -0.8776 -0.1931
  761MPD2    C411240   1.340   0.022  11.196  1.2071 -0.3020 -0.0842
  761MPD2    C511241   1.219   4.683  11.180 -0.0952 -0.5074 -0.2106
  761MPD2     H11242   1.492   4.610  10.927 -1.5869 -0.6872 -1.8067
  761MPD2    H111243   1.364   0.078  11.285 -0.1732 -0.3056  0.2810
  761MPD2    H211244   1.087   4.580  11.053  0.4450 -0.7810 -0.9065
  761MPD2    H311245   1.157   4.691  11.268  1.8781  0.6725  1.0923
  761MPD2     N11246   1.559   0.065  11.122 -0.4028 -0.2183 -0.3363
  761MPD2    H511247   1.565   0.119  11.208 -1.4094 -0.7392  0.0532
  761MPD2    N111248   1.260   4.506  10.868 -0.4387 -0.0354  0.1302
  761MPD2    H711249   1.172   4.456  10.878 -1.8877  1.9357 -2.6895
  762MPD2     C11250   1.796   4.467  10.699  1.0893 -0.3705 -0.2061
  762MPD2    C111251   1.763   4.375  10.606  0.0564  0.1511  0.3688
  762MPD2    C211252   1.861   4.284  10.561 -0.6026  0.0590  0.4240
  762MPD2    C311253   1.997   4.308  10.595 -0.3054 -0.4278  0.4326
  762MPD2    C411254   2.031   4.413  10.682 -0.4435 -0.3849  0.5152
  762MPD2    C511255   1.925   4.487  10.737  0.5754 -0.4213 -0.4614
  762MPD2     H11256   1.829   4.217  10.483 -0.4567 -0.7324  1.0469
  762MPD2    H111257   2.131   4.439  10.716  0.3576 -0.9014 -1.4896
  762MPD2    H211258   1.720   4.536  10.734  1.3118 -0.0752 -0.3155
  762MPD2    H311259   1.942   4.563  10.813 -0.8847 -0.8527  0.2969
  762MPD2     N11260   2.091   4.208  10.563 -0.2342 -0.0183  0.2010
  762MPD2    H511261   2.051   4.123  10.525  0.5578 -0.6791  0.8234
  762MPD2    N111262   1.624   4.357  10.576 -0.0043  0.0414  1.1483
  762MPD2    H711263   1.558   4.421  10.619 -1.3120 -1.5903  1.5870
  763MPD2     C11264   3.234   0.678  16.609  0.2157 -0.8617 -0.4452
  763MPD2    C111265   3.103   0.706  16.576  0.8403 -0.9792  0.0904
  763MPD2    C211266   3.046   0.814  16.632  0.3562  0.4015  0.1129
  763MPD2    C311267   3.111   0.897  16.726 -0.6886 -0.7688 -0.2524
  763MPD2    C411268   3.224   0.841  16.781 -0.1768  0.1662 -0.6363
  763MPD2    C511269   3.285   0.734  16.720 -1.3133 -0.1793  0.3277
  763MPD2     H11270   2.947   0.833  16.594 -0.1194 -1.9289  0.1670
  763MPD2    H111271   3.272   0.884  16.868 -0.0378 -1.8447  0.2758
  763MPD2    H211272   3.291   0.600  16.561  1.9751  0.4616 -0.5063
  763MPD2    H311273   3.361   0.683  16.778  0.9513  0.9297 -1.6353
  763MPD2     N11274   3.061   1.019  16.786  0.9023  1.3246  0.3610
  763MPD2    H511275   3.118   1.070  16.853  0.8689  3.6070 -1.3534
  763MPD2    N111276   3.034   0.617  16.489  0.0661  0.4869 -0.4531
  763MPD2    H711277   2.942   0.648  16.457 -0.4235 -0.9395 -0.4409
  764MPD2     C11278   0.982   2.128  17.549 -0.2656 -1.0383  0.8355
  764MPD2    C111279   0.940   1.998  17.518 -0.3150 -0.0765  0.4777
  764MPD2    C211280   0.996   1.896  17.589  0.0306 -0.2611  0.2325
  764MPD2    C311281   1.078   1.924   0.011 -0.3272 -0.3159 -0.4368
  764MPD2    C411282   1.116   2.050   0.051 -0.1978 -0.0103 -0.2649
  764MPD2    C511283   1.068   2.154  17.661  0.3737  0.1686 -0.0582
  764MPD2     H11284   0.967   1.794  17.568 -1.1939 -0.1691  1.4367
  764MPD2    H111285   1.178   2.078   0.135  1.3181  0.0889 -1.4048
  764MPD2    H211286   0.957   2.218  17.494  1.6053 -0.4827  0.9035
  764MPD2    H311287   1.099   2.254  17.689  0.2130 -0.1978  1.4134
  764MPD2     N11288   1.122   1.815   0.084 -0.0480 -0.3488 -0.1897
  764MPD2    H511289   1.087   1.729   0.042 -2.0150  0.2657  0.1651
  764MPD2    N111290   0.862   1.962  17.400  0.0188 -0.6166 -0.0828
  764MPD2    H711291   0.850   1.865  17.373  0.8501 -1.1202  1.4005
  765MPD2     C11292   0.367   4.033  16.149 -0.1931 -0.6088 -0.1482
  765MPD2    C111293   0.427   4.116  16.065  0.0655  0.0998 -0.4664
  765MPD2    C211294   0.542   4.075  15.993 -0.8298  0.0766  0.2607
  765MPD2    C311295   0.593   3.948  16.012 -0.6688  0.3986  0.0633
  765MPD2    C411296   0.530   3.860  16.096  0.0336  0.1965 -0.8828
  765MPD2    C511297   0.415   3.905  16.161 -0.2513  0.3924 -0.1378
  765MPD2     H11298   0.587   4.144  15.923 -3.4587  0.9614 -0.5487
  765MPD2    H111299   0.558   3.757  16.113 -0.9847 -0.2480 -1.8856
  765MPD2    H211300   0.284   4.073  16.206  0.5855 -2.3466  2.1936
  765MPD2    H311301   0.378   3.833  16.233 -0.8526 -0.2324 -1.0761
  765MPD2     N11302   0.704   3.911  15.926 -0.0201  0.7510 -0.2852
  765MPD2    H511303   0.749   3.983  15.870  2.7078 -1.4800 -0.9718
  765MPD2    N111304   0.356   4.238  16.039  0.4373  0.5042  0.1009
  765MPD2    H711305   0.262   4.237  16.078  1.4416 -0.8483  2.4570
  766MPD2     C11306   0.114   3.967  15.585 -0.1165  0.2009 -0.1542
  766MPD2    C111307   0.163   4.090  15.554 -0.1044  0.0367  0.3915
  766MPD2    C211308   0.253   4.110  15.449 -0.7709 -0.1764 -0.7902
  766MPD2    C311309   0.292   4.000  15.377 -0.0110 -0.1959 -0.7891
  766MPD2    C411310   0.237   3.874  15.402  0.2585  0.2780  0.7716
  766MPD2    C511311   0.149   3.857  15.511 -0.1911 -0.5036 -0.0769
  766MPD2     H11312   0.311   4.201  15.438 -4.1746  2.1283  0.1511
  766MPD2    H111313   0.269   3.797  15.332  1.0633  0.4796  0.9218
  766MPD2    H211314   0.046   3.961  15.670  2.1898  0.4105  1.7107
  766MPD2    H311315   0.103   3.763  15.541 -3.2658  0.1722 -2.5943
  766MPD2     N11316   0.382   4.009  15.264  0.0925 -0.0036 -0.0966
  766MPD2    H511317   0.380   3.926  15.206 -1.1159  0.8713 -1.3144
  766MPD2    N111318   0.113   4.193  15.638  0.5157 -0.4116  0.1267
  766MPD2    H711319   0.057   4.163  15.718  1.8664  0.2307  1.3151
  767MPD2     C11320   0.045   4.182  15.197 -0.1735 -0.1773  0.4025
  767MPD2    C111321   0.096   4.300  15.155  0.1616  0.3359  0.6464
  767MPD2    C211322   0.106   4.316  15.020  0.3072 -0.6260 -0.4598
  767MPD2    C311323   0.054   4.220  14.933 -0.1064  0.9745 -0.2652
  767MPD2    C411324   0.010   4.097  14.978 -0.3648  0.3697  0.7094
  767MPD2    C511325   0.001   4.083  15.118  0.4918  0.0162  0.2630
  767MPD2     H11326   0.148   4.403  14.972  0.8225 -1.3735 -1.3623
  767MPD2    H111327   4.694   4.012  14.921 -0.2218 -1.2079  2.9704
  767MPD2    H211328   0.023   4.166  15.302  0.8599 -1.3733  0.4288
  767MPD2    H311329   4.688   3.990  15.161  1.5950 -0.4162  0.1955
  767MPD2     N11330   0.071   4.244  14.793  0.0183  0.4059  0.4090
  767MPD2    H511331   0.108   4.335  14.767  0.0676  0.0510 -0.7600
  767MPD2    N111332   0.162   4.395  15.240  1.1649 -0.2459  0.4133
  767MPD2    H711333   0.180   4.374  15.338  1.7068 -1.0672  0.1409
  768MPD2     C11334   1.671   3.165  10.899 -0.5435 -0.2021 -0.0022
  768MPD2    C111335   1.608   3.069  10.962  0.5055 -0.2781  0.4534
  768MPD2    C211336   1.644   3.038  11.090  0.2546 -0.0035  0.2619
  768MPD2    C311337   1.750   3.097  11.157 -0.6326 -0.2975  0.2714
  768MPD2    C411338   1.810   3.199  11.090  0.0421 -0.3984  0.1231
  768MPD2    C511339   1.771   3.233  10.964  0.2231  0.5739 -0.0084
  768MPD2     H11340   1.585   2.970  11.150 -0.0639 -0.4425 -0.5507
  768MPD2    H111341   1.883   3.259  11.144 -1.0889  0.0351  1.1733
  768MPD2    H211342   1.648   3.196  10.798  0.9916  0.1944 -0.2216
  768MPD2    H311343   1.809   3.317  10.907 -1.3883  1.0046 -0.4476
  768MPD2     N11344   1.777   3.077  11.288  0.3481 -0.1219 -0.1038
  768MPD2    H511345   1.854   3.133  11.320  2.1872 -2.7361  0.0104
  768MPD2    N111346   1.488   3.017  10.909 -0.4837 -0.3487  0.2122
  768MPD2    H711347   1.437   2.968  10.982 -3.4303  1.9860 -0.2726
  769MPD2     C11348   2.340   0.966  14.783  0.2385 -0.1595 -0.2181
  769MPD2    C111349   2.231   0.929  14.859  0.5359  0.3471 -0.0130
  769MPD2    C211350   2.229   0.982  14.992  0.5821  0.0088 -0.1741
  769MPD2    C311351   2.339   1.047  15.048  0.3813  0.0686  0.1766
  769MPD2    C411352   2.441   1.077  14.963  0.0552  0.3913  0.0347
  769MPD2    C511353   2.446   1.037  14.834 -0.6826 -0.5371 -0.5631
  769MPD2     H11354   2.138   0.972  15.049  0.6092  1.7987  0.1801
  769MPD2    H111355   2.529   1.135  14.987 -1.4449  2.0829  1.4593
  769MPD2    H211356   2.351   0.931  14.681  1.6592  0.7113 -0.3702
  769MPD2    H311357   2.527   1.070  14.770 -1.9739  4.3445  0.3429
  769MPD2     N11358   2.324   1.090  15.184  0.0851  0.6166  0.0273
  769MPD2    H511359   2.241   1.056  15.230 -0.2785  0.7862 -0.5058
  769MPD2    N111360   2.119   0.866  14.802 -0.4743  0.1546 -0.4363
  769MPD2    H711361   2.127   0.856  14.701  4.4190 -2.0388  0.1529
  770MPD2     C11362   1.256   0.414  15.094 -0.1572 -0.2769  0.0820
  770MPD2    C111363   1.378   0.357  15.083  0.3504  0.4082  0.2700
  770MPD2    C211364   1.474   0.421  15.021 -0.5769  0.3137 -0.1492
  770MPD2    C311365   1.451   0.549  14.967 -0.0585  0.1960  0.1073
  770MPD2    C411366   1.323   0.602  14.972  0.6013  0.0894  0.1094
  770MPD2    C511367   1.234   0.542  15.045  0.3751 -0.2045 -0.3534
  770MPD2     H11368   1.572   0.375  15.014 -0.5160  0.3675  0.3553
  770MPD2    H111369   1.302   0.704  14.941 -0.8827 -0.0263  0.7686
  770MPD2    H211370   1.179   0.359  15.146 -0.7137  0.9469  0.5203
  770MPD2    H311371   1.139   0.591  15.066  0.8685  0.2675  0.7954
  770MPD2     N11372   1.563   0.619  14.905  0.5400  0.6008 -0.7502
  770MPD2    H511373   1.656   0.577  14.911 -0.1673 -1.1075 -1.8592
  770MPD2    N111374   1.399   0.223  15.130 -0.9945  0.2262  0.1107
  770MPD2    H711375   1.320   0.167  15.161  0.1857 -1.0110  0.9258
  771MPD2     C11376   2.986   3.898  13.675  0.4044 -0.6969 -0.3555
  771MPD2    C111377   2.943   3.975  13.577  0.0316  0.3040  0.8003
  771MPD2    C211378   2.854   3.919  13.481 -0.1566  0.1669 -0.1360
  771MPD2    C311379   2.819   3.787  13.494 -0.3288  0.5674 -0.7395
  771MPD2    C411380   2.864   3.704  13.602 -0.1663  0.3986 -0.3021
  771MPD2    C511381   2.950   3.766  13.687 -0.6727  0.0531 -0.5101
  771MPD2     H11382   2.821   3.980  13.397  0.0625  1.5345  0.7827
  771MPD2    H111383   2.829   3.604  13.626 -0.2955  0.5972  0.3229
  771MPD2    H211384   3.053   3.931  13.754 -0.5109  3.2495 -1.2436
  771MPD2    H311385   2.985   3.701  13.767 -0.2053 -0.3807 -1.0740
  771MPD2     N11386   2.732   3.737  13.399 -0.5184 -0.4823 -0.0362
  771MPD2    H511387   2.709   3.799  13.321 -2.6675 -1.0796  0.1165
  771MPD2    N111388   2.986   4.111  13.567  0.3913 -0.6077  0.1216
  771MPD2    H711389   2.972   4.157  13.478  3.4644  1.0539  0.4833
  772MPD2     C11390   2.629   4.651  13.312 -0.4347 -0.2078 -0.7861
  772MPD2    C111391   2.654   4.607  13.439 -0.3085  0.3356 -0.8833
  772MPD2    C211392   2.555   4.595  13.530 -0.0094  0.4673  0.0318
  772MPD2    C311393   2.427   4.635  13.500 -0.1362  0.3833 -1.0386
  772MPD2    C411394   2.402   4.675  13.371 -0.3072 -0.8844 -0.5877
  772MPD2    C511395   2.500   4.690  13.275  1.1124 -0.0104  0.6270
  772MPD2     H11396   2.573   4.551  13.627 -0.2917 -0.2465 -0.2397
  772MPD2    H111397   2.305   4.701  13.330 -0.0032 -2.9059 -2.6272
  772MPD2    H211398   2.710   4.648  13.240  1.9140 -2.7308  1.9688
  772MPD2    H311399   2.483   4.718  13.172 -0.1074 -2.2351  0.1993
  772MPD2     N11400   2.317   4.629  13.598 -0.5439  0.3178  0.5512
  772MPD2    H511401   2.227   4.651  13.556 -0.0106 -0.0333 -0.7838
  772MPD2    N111402   2.782   4.551  13.476 -0.3025  0.0279 -0.1992
  772MPD2    H711403   2.783   4.503  13.566  1.2055 -0.1144 -0.3038
  773MPD2     C11404   1.730   0.802   0.714  0.5381 -0.0444  0.2528
  773MPD2    C111405   1.707   0.720   0.605 -0.2883  0.2402 -0.1154
  773MPD2    C211406   1.766   0.599   0.612  0.9797 -0.0394  0.6607
  773MPD2    C311407   1.840   0.565   0.723  0.3030 -0.0816 -0.0668
  773MPD2    C411408   1.857   0.645   0.831  0.2608 -0.1155 -0.7124
  773MPD2    C511409   1.799   0.764   0.830  0.3494  0.0124 -0.0097
  773MPD2     H11410   1.756   0.534   0.526  1.8570  2.4012 -1.3073
  773MPD2    H111411   1.921   0.630   0.918  0.8376 -0.3416 -1.1755
  773MPD2    H211412   1.698   0.906   0.714 -1.9900 -0.8265  1.1197
  773MPD2    H311413   1.814   0.832   0.914  0.7444 -1.6702  1.2786
  773MPD2     N11414   1.896   0.434   0.731  0.3474  0.0311  0.2035
  773MPD2    H511415   1.880   0.383   0.645 -1.3892  0.7779  0.0801
  773MPD2    N111416   1.627   0.755   0.492 -0.3284 -0.2174  0.2944
  773MPD2    H711417   1.602   0.682   0.427 -2.9019 -0.2650  1.3337
  774MPD2     C11418   0.552   4.570  14.100 -0.4980 -0.4644  0.7740
  774MPD2    C111419   0.632   4.574  13.986  0.1638  0.3736  0.5368
  774MPD2    C211420   0.645   4.700  13.924  0.0649  0.0314  0.0675
  774MPD2    C311421   0.589   0.090  13.982 -0.5689  0.0612 -0.0925
  774MPD2    C411422   0.522   0.084  14.101 -0.0717  0.0008 -0.0320
  774MPD2    C511423   0.496   4.683  14.162  0.0288  0.0481 -0.0645
  774MPD2     H11424   0.702   4.704  13.832 -0.3853 -0.0636 -0.2176
  774MPD2    H111425   0.463   0.163  14.146 -0.1241  0.5541 -1.0766
  774MPD2    H211426   0.532   4.483  14.161 -0.7110 -1.3805 -0.6105
  774MPD2    H311427   0.432   4.675  14.249  1.0555  0.7360  0.7526
  774MPD2     N11428   0.603   0.208  13.904  0.2225 -0.4212  0.3635
  774MPD2    H511429   0.645   0.194  13.813  0.5111  2.6032  0.0364
  774MPD2    N111430   0.696   4.452  13.956 -0.1522  0.1116 -0.2471
  774MPD2    H711431   0.689   4.381  14.028  0.1148 -2.9129 -3.1777
  775MPD2     C11432   2.512   1.107  15.955 -0.9092 -0.0486 -0.0968
  775MPD2    C111433   2.494   1.228  16.019  0.6217 -0.3292  0.5295
  775MPD2    C211434   2.580   1.333  15.987  0.0603 -0.4630  0.6862
  775MPD2    C311435   2.660   1.329  15.878  0.5056 -0.0952  0.2158
  775MPD2    C411436   2.664   1.211  15.809 -0.0867  0.2194 -0.1717
  775MPD2    C511437   2.582   1.103  15.841 -0.6017  0.8609  0.0730
  775MPD2     H11438   2.562   1.428  16.035  0.0869 -0.4135  0.5982
  775MPD2    H111439   2.732   1.196  15.726  0.0696 -2.0559  0.3859
  775MPD2    H211440   2.461   1.017  15.987 -1.1023 -0.0568 -0.4333
  775MPD2    H311441   2.574   1.012  15.781  0.3271 -0.0361  1.3059
  775MPD2     N11442   2.732   1.452  15.849 -0.2868 -0.1976 -0.2624
  775MPD2    H511443   2.784   1.454  15.763 -1.0355  0.0559 -0.7092
  775MPD2    N111444   2.403   1.222  16.126 -0.4226  0.0804 -0.4445
  775MPD2    H711445   2.347   1.139  16.141 -0.1243 -0.2990 -1.4100
  776MPD2     C11446   2.201   1.373  11.689 -0.0307 -0.5641 -0.2432
  776MPD2    C111447   2.101   1.434  11.612  0.8312  0.4031 -0.1822
  776MPD2    C211448   2.099   1.573  11.602  0.1726  0.1685  0.3566
  776MPD2    C311449   2.193   1.655  11.663 -0.6604  0.1710  0.3733
  776MPD2    C411450   2.295   1.596  11.741  0.5258 -0.6327  0.1563
  776MPD2    C511451   2.301   1.453  11.743  0.9372  0.9227 -0.3964
  776MPD2     H11452   2.018   1.616  11.545  1.4506  1.2065 -0.6802
  776MPD2    H111453   2.370   1.660  11.787  0.7994 -0.3659 -0.6655
  776MPD2    H211454   2.208   1.265  11.697 -0.7901 -0.4325  2.3150
  776MPD2    H311455   2.370   1.409  11.814  1.7646  0.5328 -1.4556
  776MPD2     N11456   2.198   1.799  11.646  0.7575  0.0879  0.6594
  776MPD2    H511457   2.263   1.858  11.696  0.7063 -0.1029  0.9514
  776MPD2    N111458   2.002   1.348  11.547  0.2906  0.0376 -0.2860
  776MPD2    H711459   2.018   1.249  11.561 -2.9674 -0.5669 -0.8234
  777MPD2     C11460   1.541   3.980   0.830  0.2317 -0.5138  0.0987
  777MPD2    C111461   1.562   3.883   0.923  0.9534 -0.5976  0.2484
  777MPD2    C211462   1.573   3.754   0.885 -0.0227  0.1392  0.2075
  777MPD2    C311463   1.566   3.718   0.758 -0.3529  0.7551 -0.3815
  777MPD2    C411464   1.559   3.816   0.661 -0.6032 -0.0592  0.5789
  777MPD2    C511465   1.540   3.945   0.697 -0.1466 -0.0649 -0.1262
  777MPD2     H11466   1.568   3.681   0.965 -1.2711 -0.2139 -0.1924
  777MPD2    H111467   1.574   3.796   0.555 -0.6499 -0.4005  0.6357
  777MPD2    H211468   1.529   4.083   0.861  0.4053  0.1128 -1.9299
  777MPD2    H311469   1.527   4.014   0.615 -1.3511  0.2939  0.3604
  777MPD2     N11470   1.551   3.577   0.725 -0.5960 -0.5002 -0.8891
  777MPD2    H511471   1.545   3.523   0.810  1.5602 -0.1324 -0.4884
  777MPD2    N111472   1.573   3.924   1.058 -0.0429 -0.0438 -0.1420
  777MPD2    H711473   1.581   4.024   1.076 -1.0353  0.1698 -0.9003
  778MPD2     C11474   2.867   4.006  15.324  0.1729 -0.5612 -0.1562
  778MPD2    C111475   2.896   3.893  15.250  0.0713  0.0025 -0.7743
  778MPD2    C211476   2.979   3.890  15.141  0.1324  0.4550 -0.8446
  778MPD2    C311477   3.054   4.008  15.114 -0.1579 -0.3084  0.1454
  778MPD2    C411478   3.034   4.123  15.200 -0.7025 -1.1216  0.6245
  778MPD2    C511479   2.927   4.121  15.288 -0.1909  0.2110  0.5436
  778MPD2     H11480   2.986   3.803  15.077 -1.0069  0.1751 -0.5947
  778MPD2    H111481   3.090   4.216  15.201 -1.3747 -0.6807 -1.3421
  778MPD2    H211482   2.788   4.004  15.398  0.6036  0.0633  0.3173
  778MPD2    H311483   2.923   4.205  15.357  0.2035  1.8987 -1.4917
  778MPD2     N11484   3.154   4.003  15.016  0.2499  0.8384 -0.0313
  778MPD2    H511485   3.160   3.918  14.962 -0.7364  1.5715 -1.3020
  778MPD2    N111486   2.825   3.769  15.269  0.1917  0.3813  0.2968
  778MPD2    H711487   2.840   3.692  15.205 -1.3399  1.0848 -0.9265
  779MPD2     C11488   2.413   2.801  14.561  0.0555  0.2219  1.1122
  779MPD2    C111489   2.538   2.827  14.509 -0.3986 -0.2115 -0.0954
  779MPD2    C211490   2.592   2.952  14.522 -0.2956 -0.8076  0.2473
  779MPD2    C311491   2.521   3.051  14.584 -0.4416  0.2495 -0.2936
  779MPD2    C411492   2.389   3.027  14.623 -0.4280 -0.3150 -0.0870
  779MPD2    C511493   2.332   2.902  14.606 -0.0008 -0.4826 -1.0159
  779MPD2     H11494   2.685   2.978  14.474 -1.2609  0.9896 -0.6425
  779MPD2    H111495   2.325   3.109  14.654 -0.1252 -0.1872  0.1964
  779MPD2    H211496   2.373   2.701  14.551 -0.3532  0.6763 -1.8035
  779MPD2    H311497   2.227   2.903  14.630  0.0878  0.4635 -0.6419
  779MPD2     N11498   2.583   3.177  14.584  0.1600  0.6542  0.0559
  779MPD2    H511499   2.665   3.195  14.528  0.0480  0.9419 -0.0138
  779MPD2    N111500   2.622   2.728  14.463  0.2393 -0.3652 -0.4594
  779MPD2    H711501   2.719   2.748  14.441 -0.5384  4.1105  0.1800
  780MPD2     C11502   2.874   2.855   1.383  0.1205 -0.4723  0.4979
  780MPD2    C111503   2.868   2.790   1.261  0.3728 -0.5417 -0.2906
  780MPD2    C211504   2.959   2.819   1.164 -0.2491  0.4644 -0.6238
  780MPD2    C311505   3.048   2.923   1.182  0.1533 -0.0230  0.6804
  780MPD2    C411506   3.054   2.995   1.296  0.2045  0.2737  0.4535
  780MPD2    C511507   2.968   2.959   1.394 -0.3110  0.3356 -0.3799
  780MPD2     H11508   2.969   2.754   1.077 -1.5113  0.3613 -0.6856
  780MPD2    H111509   3.134   3.066   1.314 -0.1737  0.8871 -0.3168
  780MPD2    H211510   2.809   2.825   1.465  1.6403 -1.0877  1.4851
  780MPD2    H311511   2.984   3.014   1.486 -0.5320  0.2283 -0.2770
  780MPD2     N11512   3.145   2.933   1.080  0.0019 -0.1419  0.6187
  780MPD2    H511513   3.141   2.862   1.007  0.2277 -0.9443  1.3828
  780MPD2    N111514   2.783   2.682   1.256 -0.2073 -0.0239  0.6251
  780MPD2    H711515   2.730   2.668   1.341 -1.4785 -2.5470 -0.5794
  781MPD2     C11516   4.222   4.200  12.539  0.2121  0.4432 -0.7347
  781MPD2    C111517   4.354   4.248  12.558  0.5525  0.0631 -0.5681
  781MPD2    C211518   4.412   4.311  12.445 -0.7671 -0.1623  0.2560
  781MPD2    C311519   4.348   4.327  12.322 -0.4988 -0.3184  0.1022
  781MPD2    C411520   4.221   4.276  12.312 -0.2612 -0.3245 -0.3436
  781MPD2    C511521   4.163   4.201  12.420 -0.1689 -0.3599  0.1334
  781MPD2     H11522   4.512   4.354  12.446  1.0381 -4.4001 -0.5828
  781MPD2    H111523   4.176   4.284  12.214 -1.3658 -0.6313  0.1463
  781MPD2    H211524   4.171   4.141  12.614  0.1214 -0.1228 -1.2421
  781MPD2    H311525   4.068   4.157  12.392 -0.5646  1.1401 -0.8804
  781MPD2     N11526   4.408   4.398  12.214 -0.1049 -0.0460 -0.6017
  781MPD2    H511527   4.345   4.409  12.135 -1.4805 -2.6715  0.1260
  781MPD2    N111528   4.427   4.238  12.689  0.0326 -0.6214  0.1935
  781MPD2    H711529   4.518   4.281  12.688 -1.2579  2.0960  0.1515
  782MPD2     C11530   2.311   0.148  10.381 -0.1504  0.8908  0.2529
  782MPD2    C111531   2.434   0.150  10.442 -0.6253 -0.1490  0.8780
  782MPD2    C211532   2.477   0.263  10.508  0.2710 -0.7585  0.0474
  782MPD2    C311533   2.384   0.368  10.508 -0.6325 -0.2028 -0.6213
  782MPD2    C411534   2.257   0.370  10.450  0.0732 -0.3446 -0.2935
  782MPD2    C511535   2.226   0.256  10.379 -0.1533  1.0601 -0.6264
  782MPD2     H11536   2.576   0.274  10.551  0.7128  1.6413 -1.6156
  782MPD2    H111537   2.188   0.454  10.443  1.0541  0.6343  1.7211
  782MPD2    H211538   2.275   0.059  10.330  0.4415  0.2398  0.9786
  782MPD2    H311539   2.133   0.253  10.322  0.7200  0.8960 -2.0272
  782MPD2     N11540   2.436   0.479  10.579  0.3981 -0.4293  0.1170
  782MPD2    H511541   2.533   0.470  10.610  0.0845 -0.0650  1.1922
  782MPD2    N111542   2.508   0.028  10.443 -0.1855  0.3367 -0.3090
  782MPD2    H711543   2.458   4.663  10.428  0.9337 -0.7255  2.2200
  783MPD2     C11544   2.170   4.383  11.069  0.2643  0.2421  0.5247
  783MPD2    C111545   2.202   4.513  11.039  0.1572  0.1133 -0.4789
  783MPD2    C211546   2.318   4.541  10.963 -0.2237 -0.1885 -0.0257
  783MPD2    C311547   2.397   4.440  10.918 -0.2995  0.5477 -0.1922
  783MPD2    C411548   2.366   4.314  10.952  0.1635 -0.3144 -1.7779
  783MPD2    C511549   2.258   4.286  11.030  0.7949  0.7156  0.5353
  783MPD2     H11550   2.341   4.645  10.942  1.6323 -0.0107  2.8513
  783MPD2    H111551   2.419   4.230  10.910  0.3134 -1.1325  0.0269
  783MPD2    H211552   2.089   4.351  11.134 -0.0281 -3.6517 -1.7236
  783MPD2    H311553   2.261   4.192  11.084 -0.3756  1.1027  1.2598
  783MPD2     N11554   2.498   4.460  10.822  0.0058 -0.0215 -0.3948
  783MPD2    H511555   2.495   4.552  10.779  1.4199  0.7309  1.0805
  783MPD2    N111556   2.111   4.618  11.082 -0.0159  0.6554  0.2626
  783MPD2    H711557   2.025   4.584  11.124 -0.0195 -1.7522 -1.7164
  784MPD2     C11558   4.605   0.423   1.803  0.1149 -0.3179  0.1348
  784MPD2    C111559   4.601   0.558   1.839  0.1558  0.8326  0.7817
  784MPD2    C211560   4.506   0.641   1.780 -0.7374 -0.1953  0.2558
  784MPD2    C311561   4.425   0.597   1.684  0.3527 -0.3277 -0.3433
  784MPD2    C411562   4.436   0.465   1.642  0.2698  0.0869 -0.1257
  784MPD2    C511563   4.516   0.377   1.709  0.2264 -0.0215  0.0603
  784MPD2     H11564   4.508   0.747   1.804 -1.1699 -0.0001 -0.5749
  784MPD2    H111565   4.382   0.432   1.554  1.7197  1.6148 -1.5938
  784MPD2    H211566   4.669   0.351   1.851  0.0934 -0.1331  0.4471
  784MPD2    H311567   4.507   0.272   1.687 -0.4113 -0.3276  1.7749
  784MPD2     N11568   4.335   0.687   1.623 -0.2332  0.7738  0.4642
  784MPD2    H511569   4.328   0.783   1.658 -1.2044  0.5183  0.9611
  784MPD2    N111570   4.695   0.609   1.938  0.2908  0.0220 -0.0863
  784MPD2    H711571   4.693   0.709   1.955  1.3882 -0.1000  0.7572
  785MPD2     C11572   4.520   3.961   9.938  0.1678  0.0917 -0.2860
  785MPD2    C111573   4.548   4.045  10.040  0.2018  0.2078  0.4163
  785MPD2    C211574   4.456   4.135  10.083 -0.3100 -0.4218  0.8097
  785MPD2    C311575   4.334   4.140  10.018 -0.0567  0.4121 -0.0686
  785MPD2    C411576   4.302   4.055   9.912 -0.4251 -0.7150 -0.1508
  785MPD2    C511577   4.394   3.960   9.870 -0.1756  0.8534 -0.9629
  785MPD2     H11578   4.482   4.204  10.162 -0.6568  0.2715  0.3180
  785MPD2    H111579   4.208   4.057   9.859 -0.6078  1.4409  0.2470
  785MPD2    H211580   4.597   3.890   9.910  0.1125 -0.5823  1.2402
  785MPD2    H311581   4.362   3.880   9.803 -1.6146  0.4722  0.1798
  785MPD2     N11582   4.245   4.243  10.066 -0.2512  0.6009  0.0050
  785MPD2    H511583   4.276   4.296  10.147  4.2980  0.1598 -1.4661
  785MPD2    N111584   4.677   4.054  10.104 -0.3972 -0.1299 -0.1232
  785MPD2    H711585   4.682   4.125  10.177 -1.1245  1.8092 -1.9756
  786MPD2     C11586   3.067   2.265  14.697  0.1766  0.4611  0.0162
  786MPD2    C111587   3.180   2.187  14.702 -0.1796  0.2547 -0.5899
  786MPD2    C211588   3.242   2.165  14.823  0.0772  0.7757 -0.0612
  786MPD2    C311589   3.193   2.218  14.937 -0.8934 -0.7531 -0.5398
  786MPD2    C411590   3.078   2.292  14.931  0.2707  0.4944  0.4611
  786MPD2    C511591   3.014   2.314  14.814 -0.0128 -0.0999  0.6300
  786MPD2     H11592   3.343   2.125  14.833  0.1390  0.8687 -0.3152
  786MPD2    H111593   3.029   2.332  15.019  1.1610  1.8960  0.3260
  786MPD2    H211594   3.022   2.289  14.602  1.4183 -0.7652 -0.8853
  786MPD2    H311595   2.922   2.371  14.809 -1.0123 -1.5206  2.8826
  786MPD2     N11596   3.253   2.203  15.063  0.4464 -0.1837 -0.1307
  786MPD2    H511597   3.206   2.259  15.133  1.5125 -1.1163  1.3433
  786MPD2    N111598   3.238   2.132  14.589  0.1171  0.2671 -0.0452
  786MPD2    H711599   3.326   2.083  14.598  0.2911  0.5564 -0.1669
  787MPD2     C11600   3.896   1.883  14.085  0.2138  0.3772  0.1267
  787MPD2    C111601   3.814   1.881  14.194  0.3124 -0.2548  0.2481
  787MPD2    C211602   3.864   1.839  14.317 -0.3849  0.1952 -0.3408
  787MPD2    C311603   3.993   1.800  14.330 -0.2898 -0.5603  0.0626
  787MPD2    C411604   4.081   1.811  14.229  0.3683  0.0760 -0.2967
  787MPD2    C511605   4.031   1.857  14.108 -0.9694  0.0770  0.4576
  787MPD2     H11606   3.796   1.827  14.400 -2.2074 -2.2382 -2.2040
  787MPD2    H111607   4.182   1.772  14.227  1.1669  2.2100 -1.0635
  787MPD2    H211608   3.862   1.927  13.992 -3.4873 -1.1565  0.7503
  787MPD2    H311609   4.089   1.858  14.017 -1.0331  1.1971  0.4205
  787MPD2     N11610   4.033   1.752  14.460 -1.1018 -0.3224  0.3376
  787MPD2    H511611   3.958   1.745  14.527  0.5522  0.9168  2.3310
  787MPD2    N111612   3.674   1.921  14.187  0.5412 -0.0500 -0.4301
  787MPD2    H711613   3.628   1.941  14.098  0.6717 -1.6520 -0.8616
  788MPD2     C11614   0.768   0.057   0.276  0.3385  0.0762  0.0682
  788MPD2    C111615   0.833   4.658   0.249  0.2165  0.0040 -0.6433
  788MPD2    C211616   0.815   4.597   0.128  0.0678  0.2302 -0.5294
  788MPD2    C311617   0.743   4.659   0.035 -0.3249  0.3326 -0.4379
  788MPD2    C411618   0.680   0.062   0.052  0.0732  0.9788  0.0652
  788MPD2    C511619   0.688   0.112   0.180  0.2087  0.0121 -0.4061
  788MPD2     H11620   0.872   4.506   0.109 -0.5452 -0.2879  0.1222
  788MPD2    H111621   0.617   0.103  17.663 -1.6007 -1.6945  0.0052
  788MPD2    H211622   0.760   0.093   0.378  1.7703  4.8521 -1.4942
  788MPD2    H311623   0.630   0.200   0.205 -2.1764 -2.1123  1.5744
  788MPD2     N11624   0.700   4.589  17.610  0.4735  0.0403  0.3270
  788MPD2    H511625   0.627   4.637  17.558  2.1381  1.1800 -0.9865
  788MPD2    N111626   0.893   4.589   0.355 -0.5510  0.2624  0.4709
  788MPD2    H711627   0.922   4.493   0.335  0.1640  0.9334 -1.7859
  789MPD2     C11628   0.762   4.638  16.118  0.5480 -0.5660  0.1965
  789MPD2    C111629   0.729   4.560  16.220 -0.6275  0.0766  0.4859
  789MPD2    C211630   0.675   4.610  16.333 -0.9329  0.1269 -0.6123
  789MPD2    C311631   0.645   0.019  16.339  0.4851 -0.5527 -0.0723
  789MPD2    C411632   0.675   0.104  16.240  0.5132 -0.1690  0.7752
  789MPD2    C511633   0.740   0.048  16.132  0.3805 -0.6111 -1.3931
  789MPD2     H11634   0.652   4.538  16.411  1.3830  1.1491  1.0365
  789MPD2    H111635   0.645   0.209  16.237 -0.3868 -0.3899  2.0405
  789MPD2    H211636   0.810   4.608  16.025  0.8290 -0.3721  0.2770
  789MPD2    H311637   0.778   0.109  16.051 -0.5918  2.7273  0.6640
  789MPD2     N11638   0.572   0.073  16.454  0.0728  1.0151  0.0362
  789MPD2    H511639   0.538   0.168  16.446 -1.5834  0.6792  2.9384
  789MPD2    N111640   0.744   4.421  16.226  0.5609  0.1884 -0.1598
  789MPD2    H711641   0.735   4.389  16.322  3.0435 -2.7066 -0.9203
  790MPD2     C11642   1.744   1.606  13.816  0.0389  0.4233 -0.5011
  790MPD2    C111643   1.848   1.523  13.818  0.3331  0.2553  0.3401
  790MPD2    C211644   1.872   1.435  13.714 -1.0761  0.3017  0.3854
  790MPD2    C311645   1.771   1.413  13.619 -0.1613 -0.0081 -0.2030
  790MPD2    C411646   1.680   1.516  13.612 -0.1775  0.0877  0.3856
  790MPD2    C511647   1.664   1.611  13.708  0.0305  0.7473 -0.3004
  790MPD2     H11648   1.951   1.360  13.716 -1.4111 -0.1073 -1.1687
  790MPD2    H111649   1.605   1.515  13.534 -1.2256 -1.2259  1.4037
  790MPD2    H211650   1.728   1.675  13.898  1.2238 -0.5209  0.5220
  790MPD2    H311651   1.583   1.683  13.702 -1.3673 -0.7970 -0.0609
  790MPD2     N11652   1.779   1.300  13.532  0.6618  0.2813  0.2538
  790MPD2    H511653   1.845   1.225  13.556  0.7705  0.2093 -0.2628
  790MPD2    N111654   1.943   1.528  13.923  0.2462  0.3602  0.1283
  790MPD2    H711655   1.929   1.592  14.000 -0.6805  0.0675  0.1963
  791MPD2     C11656   1.462   0.644  13.001 -0.9303 -0.6103 -0.2552
  791MPD2    C111657   1.411   0.754  13.070  0.5161  0.0811  0.2276
  791MPD2    C211658   1.278   0.797  13.047  0.1203  0.5046 -0.1534
  791MPD2    C311659   1.196   0.725  12.960  0.5906 -0.1111 -0.1104
  791MPD2    C411660   1.248   0.611  12.904 -0.1298 -0.1405 -0.6420
  791MPD2    C511661   1.374   0.569  12.925  0.5743 -0.9313  0.0722
  791MPD2     H11662   1.253   0.892  13.094 -1.3386 -1.3884  2.8715
  791MPD2    H111663   1.197   0.550  12.830  2.2481 -1.2060 -1.3845
  791MPD2    H211664   1.566   0.614  13.008 -0.6092  0.3312 -0.9708
  791MPD2    H311665   1.401   0.467  12.898 -0.2805 -0.5355 -2.2346
  791MPD2     N11666   1.063   0.767  12.947  0.6057 -0.3718 -1.1020
  791MPD2    H511667   1.036   0.850  12.997 -0.4493  0.0585 -2.3808
  791MPD2    N111668   1.496   0.824  13.156  0.5857 -0.1865 -0.2534
  791MPD2    H711669   1.588   0.785  13.142  1.3554  1.5292  0.0198
  792MPD2     C11670   2.474   1.167  11.298 -0.4546  0.5655 -0.2889
  792MPD2    C111671   2.364   1.215  11.229 -0.9540  0.2544  0.0874
  792MPD2    C211672   2.283   1.121  11.172 -0.1896  0.1853  0.2143
  792MPD2    C311673   2.317   0.989  11.174  0.8771 -0.0199  0.0467
  792MPD2    C411674   2.440   0.944  11.222  0.2130  0.2572  0.1796
  792MPD2    C511675   2.511   1.037  11.288  0.6318 -0.3040 -0.7172
  792MPD2     H11676   2.187   1.150  11.132 -0.7307 -1.5836  0.2739
  792MPD2    H111677   2.470   0.840  11.222 -1.8445 -0.3484 -1.3122
  792MPD2    H211678   2.540   1.227  11.360  0.8599 -0.6206 -0.5418
  792MPD2    H311679   2.607   1.001  11.323  0.8673 -0.2581 -1.3075
  792MPD2     N11680   2.229   0.888  11.131 -0.0940 -0.3573  0.4849
  792MPD2    H511681   2.264   0.795  11.148  1.3935 -0.1840 -1.6822
  792MPD2    N111682   2.328   1.350  11.259 -0.2570 -0.1971 -0.5097
  792MPD2    H711683   2.401   1.404  11.304 -0.9470 -1.2804  1.9024
  793MPD2     C11684   1.331   0.742  10.701  0.1326  0.7748  0.6095
  793MPD2    C111685   1.441   0.823  10.667  0.1955 -0.1766  0.3386
  793MPD2    C211686   1.542   0.841  10.760 -0.0341  0.1714 -0.7357
  793MPD2    C311687   1.542   0.756  10.873  0.2274 -0.0084  0.5863
  793MPD2    C411688   1.436   0.680  10.905  0.4638 -1.1027 -0.4731
  793MPD2    C511689   1.327   0.676  10.821  0.1532  0.6076 -0.6143
  793MPD2     H11690   1.635   0.894  10.738  0.0527  0.3795  0.1372
  793MPD2    H111691   1.431   0.624  10.998 -0.0034  0.9836  0.7440
  793MPD2    H211692   1.240   0.735  10.642  0.3537 -0.5068  0.4254
  793MPD2    H311693   1.244   0.613  10.851  1.5469 -1.9302 -2.0784
  793MPD2     N11694   1.656   0.758  10.954 -0.5948 -0.1036  0.4265
  793MPD2    H511695   1.727   0.829  10.933  0.3799 -0.8813  1.0937
  793MPD2    N111696   1.446   0.887  10.535  0.3401 -0.8539  0.4445
  793MPD2    H711697   1.533   0.936  10.517  0.9514 -1.5464  1.4289
  794MPD2     C11698   1.543   1.322  17.546  0.3535 -0.1198  0.4653
  794MPD2    C111699   1.480   1.200  17.520  0.7052 -0.3443  0.1876
  794MPD2    C211700   1.438   1.175  17.388  0.2632 -0.4267  1.0698
  794MPD2    C311701   1.467   1.261  17.285  0.0624 -0.6073 -0.1963
  794MPD2    C411702   1.530   1.380  17.321  0.1543  0.3066 -0.0424
  794MPD2    C511703   1.578   1.405  17.447 -0.0333  0.5500  0.1700
  794MPD2     H11704   1.393   1.080  17.364  1.5920 -1.1659  1.5024
  794MPD2    H111705   1.542   1.460  17.249 -1.8493 -1.0162 -1.8698
  794MPD2    H211706   1.559   1.357  17.647  1.9013  1.0189 -0.1731
  794MPD2    H311707   1.625   1.501  17.462  1.3730  0.0154 -0.8287
  794MPD2     N11708   1.437   1.228  17.148  0.5585 -0.6560 -0.3766
  794MPD2    H511709   1.470   1.288  17.073  0.0376 -0.3511 -0.3614
  794MPD2    N111710   1.460   1.105  17.621 -0.4151  0.6826 -0.3268
  794MPD2    H711711   1.417   1.021  17.583 -0.1673  1.3744 -2.1326
  795MPD2     C11712   4.152   2.890  12.866 -0.9251 -0.2295  0.2929
  795MPD2    C111713   4.076   2.867  12.977  0.0366 -0.1929 -0.9568
  795MPD2    C211714   4.142   2.839  13.100  0.1202  0.3213 -0.2572
  795MPD2    C311715   4.282   2.848  13.116 -0.1503  0.6997  0.1989
  795MPD2    C411716   4.352   2.856  13.003  0.9186 -0.0146 -0.2509
  795MPD2    C511717   4.292   2.877  12.878 -0.8265 -0.0743 -0.0597
  795MPD2     H11718   4.078   2.807  13.181  1.0113 -1.9701 -0.4369
  795MPD2    H111719   4.460   2.846  13.006  0.8964  0.0799  0.6549
  795MPD2    H211720   4.116   2.913  12.766 -0.0587 -1.9815 -0.4232
  795MPD2    H311721   4.352   2.885  12.788  1.0519 -0.2164  1.1644
  795MPD2     N11722   4.340   2.833  13.245 -0.0250  0.2508 -0.1656
  795MPD2    H511723   4.273   2.820  13.320 -1.5707  0.6568 -1.4635
  795MPD2    N111724   3.930   2.855  12.983 -0.2965 -0.1063 -0.2111
  795MPD2    H711725   3.889   2.826  13.071 -0.7404  2.3267  0.3813
  796MPD2     C11726   3.547   4.714  16.197  0.6454 -0.0361  0.8281
  796MPD2    C111727   3.506   0.031  16.325  0.0229 -0.1254  0.0150
  796MPD2    C211728   3.482   0.168  16.345 -0.6575 -0.8710  0.4402
  796MPD2    C311729   3.491   0.258  16.243  0.3315 -0.0052  0.1135
  796MPD2    C411730   3.522   0.212  16.115 -0.1357 -0.9314 -0.6912
  796MPD2    C511731   3.555   0.084  16.096 -0.2169  0.4954 -0.3819
  796MPD2     H11732   3.459   0.209  16.443 -1.6295 -0.7710  0.1738
  796MPD2    H111733   3.527   0.279  16.030 -1.0730 -1.6921 -1.3354
  796MPD2    H211734   3.566   4.610  16.176 -1.0178 -0.2477  0.3750
  796MPD2    H311735   3.584   0.049  15.997 -0.8996  1.7571 -1.0272
  796MPD2     N11736   3.476   0.396  16.259  0.1883 -0.0480 -0.4341
  796MPD2    H511737   3.479   0.458  16.178  0.0747  2.3191  1.3854
  796MPD2    N111738   3.505   4.651  16.427  0.1861 -0.0076 -0.5959
  796MPD2    H711739   3.527   4.555  16.400  1.2160  0.0129  0.1773
  797MPD2     C11740   3.548   3.825   0.561  0.0963  0.1452  0.1407
  797MPD2    C111741   3.664   3.892   0.587 -0.1764  0.1523 -0.1976
  797MPD2    C211742   3.687   4.007   0.516  0.8511  0.3924 -0.0760
  797MPD2    C311743   3.597   4.059   0.431 -0.0955 -0.2209 -0.0414
  797MPD2    C411744   3.472   3.998   0.414  0.1915  0.9455 -0.0473
  797MPD2    C511745   3.450   3.888   0.490 -0.5492 -0.5283 -0.7366
  797MPD2     H11746   3.782   4.060   0.522  1.6419 -0.9894 -0.5678
  797MPD2    H111747   3.391   4.037   0.355  1.6745  2.4006 -1.1217
  797MPD2    H211748   3.516   3.732   0.605  1.6674 -1.1338 -1.4054
  797MPD2    H311749   3.351   3.844   0.500 -0.9893  0.2539 -1.6929
  797MPD2     N11750   3.635   4.173   0.354  0.9220  0.3368 -0.7170
  797MPD2    H511751   3.724   4.213   0.381 -0.8507  2.7472  1.5367
  797MPD2    N111752   3.774   3.847   0.670 -0.3463 -0.1637  0.1663
  797MPD2    H711753   3.857   3.905   0.679 -1.9084  1.9111  1.1005
  798MPD2     C11754   4.318   4.278   0.320  0.1497 -0.0953  0.3963
  798MPD2    C111755   4.185   4.251   0.359 -0.0202 -0.7862 -0.0933
  798MPD2    C211756   4.153   4.153   0.448  0.0035  0.6421  0.3695
  798MPD2    C311757   4.254   4.085   0.516 -0.7086  0.0990 -0.4027
  798MPD2    C411758   4.388   4.103   0.472 -0.4478  0.0164 -0.1927
  798MPD2    C511759   4.413   4.195   0.370 -0.2259 -0.1405 -0.3392
  798MPD2     H11760   4.050   4.138   0.481  0.6425 -2.4911  0.9338
  798MPD2    H111761   4.467   4.046   0.519 -0.5906  0.7338  0.9106
  798MPD2    H211762   4.353   4.351   0.247  0.7489 -2.8933 -2.0858
  798MPD2    H311763   4.512   4.201   0.327  0.4776 -1.7362  1.0540
  798MPD2     N11764   4.228   3.987   0.616 -0.1948  0.5122  0.6624
  798MPD2    H511765   4.306   3.927   0.640 -0.5392  0.1726  0.9278
  798MPD2    N111766   4.085   4.336   0.301  0.4570  0.1215 -0.1182
  798MPD2    H711767   4.129   4.408   0.244 -0.4112  0.2035 -0.6831
  799MPD2     C11768   3.222   1.324  14.861  0.5183 -0.2841 -0.0330
  799MPD2    C111769   3.270   1.228  14.772 -0.3952 -0.6420  0.0445
  799MPD2    C211770   3.250   1.243  14.637  0.7005 -0.2578  0.2682
  799MPD2    C311771   3.182   1.357  14.598  0.3508  0.4604 -0.2246
  799MPD2    C411772   3.143   1.449  14.683  0.2008 -0.3551  0.8684
  799MPD2    C511773   3.167   1.444  14.820 -0.2776  0.3351  0.0929
  799MPD2     H11774   3.287   1.172  14.563 -2.7434 -1.7273 -0.0496
  799MPD2    H111775   3.085   1.531  14.642  0.7228 -0.0299  0.7877
  799MPD2    H211776   3.218   1.312  14.969 -1.4561 -0.5714 -0.1380
  799MPD2    H311777   3.131   1.526  14.880 -0.2090  0.2142  0.2967
  799MPD2     N11778   3.163   1.391  14.465  0.2150 -0.6822  0.0838
  799MPD2    H511779   3.126   1.483  14.445  1.3886 -0.3125 -0.4111
  799MPD2    N111780   3.341   1.118  14.829  0.2206 -0.4582 -0.0203
  799MPD2    H711781   3.377   1.050  14.762 -1.8990 -1.1119 -0.4973
  800MPD2     C11782   3.793   2.292  14.183 -0.0180 -0.5332  0.5362
  800MPD2    C111783   3.928   2.259  14.163  0.1851 -0.2188 -0.5860
  800MPD2    C211784   3.968   2.222  14.034 -0.1297  0.0132 -0.5683
  800MPD2    C311785   3.881   2.201  13.931 -0.5600 -0.7259 -0.5600
  800MPD2    C411786   3.744   2.220  13.963  0.3904 -0.2810  0.3879
  800MPD2    C511787   3.711   2.264  14.082 -0.3326  0.1880 -0.2254
  800MPD2     H11788   4.075   2.230  14.019 -0.2944  2.6918 -0.2285
  800MPD2    H111789   3.663   2.201  13.894  0.0317  0.8517  0.5009
  800MPD2    H211790   3.758   2.339  14.273 -1.7579  1.7193 -1.3165
  800MPD2    H311791   3.606   2.282  14.106  0.0505  1.5263  0.4469
  800MPD2     N11792   3.924   2.137  13.811 -0.4610  0.1919  0.7314
  800MPD2    H511793   4.022   2.109  13.811 -0.5467 -0.0488 -1.4725
  800MPD2    N111794   4.020   2.297  14.262 -0.3555  0.1294 -0.6855
  800MPD2    H711795   3.985   2.340  14.347 -1.5098  0.2886 -1.2420
  801MPD2     C11796   4.057   2.863  14.725  0.2729  0.0010 -0.4776
  801MPD2    C111797   3.997   2.769  14.642 -0.1286 -0.1299  0.4747
  801MPD2    C211798   3.863   2.786  14.604 -0.4303  0.1329 -0.5084
  801MPD2    C311799   3.783   2.884  14.660  0.0849 -0.6569 -0.2346
  801MPD2    C411800   3.853   2.983  14.728 -0.3367  0.7049  0.2238
  801MPD2    C511801   3.981   2.963  14.762  0.3605  0.1928  0.2482
  801MPD2     H11802   3.819   2.709  14.542 -0.5644  1.1073 -1.6225
  801MPD2    H111803   3.799   3.068  14.768  0.5388  0.4743  1.9419
  801MPD2    H211804   4.157   2.852  14.767  1.0309  1.7070 -1.8033
  801MPD2    H311805   4.019   3.023  14.844 -1.6805  0.5524  0.9382
  801MPD2     N11806   3.642   2.898  14.645 -0.0131  0.5895  0.0558
  801MPD2    H511807   3.592   2.974  14.690  1.0432  2.3189 -1.7198
  801MPD2    N111808   4.067   2.656  14.590  0.0889 -0.6066  0.8039
  801MPD2    H711809   4.001   2.588  14.553 -1.7603  1.3926  0.4180
  802MPD2     C11810   2.442   2.914  17.680 -0.4490  1.1538  0.0397
  802MPD2    C111811   2.575   2.953   0.024 -0.1093 -0.2966  0.0272
  802MPD2    C211812   2.668   2.848   0.035 -0.1684  0.2138  0.0688
  802MPD2    C311813   2.628   2.715   0.032 -0.0499 -0.4398  0.4515
  802MPD2    C411814   2.494   2.685   0.014  0.0091  0.0150 -0.4728
  802MPD2    C511815   2.400   2.784  17.684  0.6418 -0.0020  0.5488
  802MPD2     H11816   2.770   2.880   0.053  0.0692 -0.3882 -0.1972
  802MPD2    H111817   2.456   2.584   0.022 -2.1128  0.8832  0.3642
  802MPD2    H211818   2.365   2.990  17.670 -0.3366  1.7506  3.9282
  802MPD2    H311819   2.295   2.761  17.669  0.6586 -0.3054  0.8935
  802MPD2     N11820   2.725   2.620   0.052  0.8105 -0.2683  0.6559
  802MPD2    H511821   2.821   2.650   0.063  0.8079  0.3414 -1.0088
  802MPD2    N111822   2.622   3.086   0.032 -0.3540 -0.5839 -0.0886
  802MPD2    H711823   2.719   3.097   0.062 -0.6413  1.3475  0.1132
  803MPD2     C11824   0.104   1.465  11.615 -0.2059 -0.4271  0.5854
  803MPD2    C111825   0.163   1.484  11.734  0.5126 -0.1121  0.1975
  803MPD2    C211826   0.096   1.449  11.849  0.7132  0.3166 -1.2013
  803MPD2    C311827   4.687   1.395  11.849 -0.0080 -0.0704 -0.4999
  803MPD2    C411828   4.628   1.394  11.726 -0.0159 -0.0114  0.3711
  803MPD2    C511829   4.696   1.422  11.610 -0.1980  0.5707  0.8443
  803MPD2     H11830   0.143   1.462  11.946  0.8611 -3.6903 -0.7460
  803MPD2    H111831   4.528   1.354  11.710  1.7541 -4.1762 -0.3405
  803MPD2    H211832   0.161   1.468  11.523 -0.9143  1.6606  0.2148
  803MPD2    H311833   4.651   1.407  11.512  0.1375  1.0106  0.6211
  803MPD2     N11834   4.629   1.344  11.973 -0.3749  0.6246 -0.0878
  803MPD2    H511835   4.532   1.317  11.965 -0.2698 -0.2290  1.3312
  803MPD2    N111836   0.291   1.543  11.756  0.0952 -0.2067  0.3595
  803MPD2    H711837   0.311   1.571  11.852 -0.1287  1.5526 -0.0967
  804MPD2     C11838   3.799   2.357  17.392  0.1084  0.2557 -0.1483
  804MPD2    C111839   3.823   2.276  17.502 -0.1764  1.2926  0.4016
  804MPD2    C211840   3.866   2.345  17.625 -0.9626 -0.2981 -0.2713
  804MPD2    C311841   3.889   2.482  17.628 -0.7081  0.1903  0.9409
  804MPD2    C411842   3.852   2.551  17.512 -0.7284  0.5062  0.6843
  804MPD2    C511843   3.815   2.494  17.390 -0.5381  0.4186  0.1164
  804MPD2     H11844   3.907   2.285   0.016 -0.2082  0.5371 -0.0309
  804MPD2    H111845   3.850   2.659  17.510  1.4826  0.5669  1.6525
  804MPD2    H211846   3.755   2.320  17.300 -1.2009 -3.5490  2.0123
  804MPD2    H311847   3.783   2.547  17.301  0.7045  0.7118 -0.1684
  804MPD2     N11848   3.963   2.550   0.044 -0.2344 -0.3330  0.1743
  804MPD2    H511849   4.000   2.495   0.120 -0.2533 -1.7909 -0.8570
  804MPD2    N111850   3.823   2.135  17.502  0.3302 -0.2849 -0.1172
  804MPD2    H711851   3.831   2.093  17.594 -1.3566  0.2728  0.2858
  805MPD2     C11852   3.027   1.230  15.824  1.0067  0.3938 -0.7089
  805MPD2    C111853   3.125   1.241  15.719 -0.2513 -0.3619 -0.1886
  805MPD2    C211854   3.252   1.270  15.759 -0.5934  0.7499 -0.7176
  805MPD2    C311855   3.279   1.272  15.897 -0.4846 -0.1094 -0.0233
  805MPD2    C411856   3.183   1.274  15.996  0.0718  0.3922 -0.2564
  805MPD2    C511857   3.053   1.259  15.955 -0.2716  0.3164  0.3425
  805MPD2     H11858   3.330   1.270  15.684 -0.8248  0.2998 -0.9587
  805MPD2    H111859   3.191   1.300  16.101 -1.5167  1.4628 -0.3887
  805MPD2    H211860   2.925   1.200  15.805  0.5204  0.1659  2.2788
  805MPD2    H311861   2.973   1.272  16.027  0.5739 -0.6963  1.4706
  805MPD2     N11862   3.412   1.270  15.948 -0.2240 -1.0290  0.3390
  805MPD2    H511863   3.483   1.288  15.877 -0.7109 -2.3474 -0.4906
  805MPD2    N111864   3.089   1.235  15.582 -0.0959  0.6337 -0.0338
  805MPD2    H711865   3.168   1.219  15.520 -0.3031 -0.1192 -0.1040
  806MPD2     C11866   3.288   4.480   0.517 -0.2220  0.0268  0.0010
  806MPD2    C111867   3.408   4.463   0.570  0.3831 -0.6212  0.2371
  806MPD2    C211868   3.513   4.553   0.540 -0.8810  0.3663 -0.4135
  806MPD2    C311869   3.501   4.640   0.433  0.0276  0.7300  0.8587
  806MPD2    C411870   3.379   4.656   0.374 -0.4171 -0.5954  0.6658
  806MPD2    C511871   3.268   4.576   0.419  0.1597 -0.3552  0.2800
  806MPD2     H11872   3.610   4.552   0.588 -0.0171 -2.0822 -2.2255
  806MPD2    H111873   3.369   0.008   0.295 -0.2787 -0.0609  1.1446
  806MPD2    H211874   3.202   4.420   0.544  0.1660 -1.1331 -1.3392
  806MPD2    H311875   3.173   4.600   0.372  0.7634  2.8188  0.6507
  806MPD2     N11876   3.612   0.002   0.394  0.4812 -0.0119  0.0617
  806MPD2    H511877   3.693   0.014   0.454  0.8453  1.5242 -0.7527
  806MPD2    N111878   3.433   4.366   0.673  0.0933  0.2436 -0.0580
  806MPD2    H711879   3.354   4.309   0.702 -0.3352  2.2466  2.7222
  807MPD2     C11880   3.186   4.249   1.361 -0.3304 -0.2934  0.1795
  807MPD2    C111881   3.255   4.138   1.336  0.3698  0.0436  0.1302
  807MPD2    C211882   3.267   4.041   1.435 -0.3641 -0.5068  0.0688
  807MPD2    C311883   3.196   4.050   1.552  0.2271  0.1086 -0.5740
  807MPD2    C411884   3.110   4.161   1.574 -0.7362  0.4650  0.9819
  807MPD2    C511885   3.106   4.254   1.474  0.6196 -0.1156  0.3100
  807MPD2     H11886   3.330   3.956   1.413  0.7539 -0.0456  1.4896
  807MPD2    H111887   3.041   4.168   1.657 -0.9299  2.3955  0.6408
  807MPD2    H211888   3.146   4.317   1.286  0.6474 -0.2541 -0.3041
  807MPD2    H311889   3.047   4.345   1.484  0.3437 -0.2693  0.0707
  807MPD2     N11890   3.210   3.942   1.643 -0.5349  0.0271  0.0486
  807MPD2    H511891   3.275   3.866   1.624  0.9749  1.5358 -0.8253
  807MPD2    N111892   3.339   4.111   1.225 -0.2519 -0.2072  0.7696
  807MPD2    H711893   3.391   4.024   1.221 -1.2540 -0.7307 -0.8257
  808MPD2     C11894   4.360   1.671   9.636 -0.5679  0.1069  0.7113
  808MPD2    C111895   4.336   1.738   9.756  0.1757 -0.0103 -0.0778
  808MPD2    C211896   4.394   1.859   9.785  0.7689  0.2510  0.0764
  808MPD2    C311897   4.474   1.921   9.689  0.3268  0.3260  0.2454
  808MPD2    C411898   4.508   1.848   9.573  0.1538 -0.4665 -0.4467
  808MPD2    C511899   4.447   1.728   9.548  0.0175  0.0096 -0.6373
  808MPD2     H11900   4.381   1.893   9.887 -1.9866  0.1994 -0.2660
  808MPD2    H111901   4.582   1.885   9.504  0.7400 -1.6237 -0.4405
  808MPD2    H211902   4.312   1.578   9.608  1.6931 -0.9726  0.4346
  808MPD2    H311903   4.469   1.677   9.456  0.3513  0.1256 -0.6226
  808MPD2     N11904   4.542   2.044   9.698 -0.0145 -0.2566  0.5018
  808MPD2    H511905   4.615   2.063   9.631 -1.6401  0.1261 -1.1418
  808MPD2    N111906   4.268   1.682   9.864 -0.1375  0.1045  0.4676
  808MPD2    H711907   4.253   1.732   9.951 -0.4664 -1.0314  1.0797
  809MPD2     C11908   0.417   2.361  10.443 -0.1991  0.0682  0.4748
  809MPD2    C111909   0.435   2.249  10.363  0.0634 -0.4264  0.5533
  809MPD2    C211910   0.372   2.248  10.240 -0.9226 -0.2636 -0.3158
  809MPD2    C311911   0.290   2.354  10.201 -0.6051 -0.4639 -0.0030
  809MPD2    C411912   0.278   2.462  10.283 -0.0954 -0.0600 -0.6091
  809MPD2    C511913   0.341   2.470  10.400  0.5430 -0.2040  0.6490
  809MPD2     H11914   0.403   2.170  10.171 -1.6344 -0.1725 -0.7435
  809MPD2    H111915   0.229   2.553  10.252  0.0484  0.2048 -0.0416
  809MPD2    H211916   0.463   2.362  10.541 -0.3199  3.1282  0.4947
  809MPD2    H311917   0.330   2.555  10.466  1.2819  0.1874  0.2707
  809MPD2     N11918   0.224   2.366  10.081  0.0399  0.5405 -0.0533
  809MPD2    H511919   0.188   2.461  10.069  1.1236  0.9548  0.0333
  809MPD2    N111920   0.513   2.145  10.411 -0.7802 -0.2234 -0.1921
  809MPD2    H711921   0.560   2.164  10.499 -1.0217  0.4908 -0.2181
  810MPD2     C11922   3.633   1.579  11.079 -0.8737  0.0044  0.6689
  810MPD2    C111923   3.705   1.584  10.959  0.3232 -0.0896  0.3000
  810MPD2    C211924   3.717   1.704  10.889  0.1151  0.7607 -0.7465
  810MPD2    C311925   3.672   1.819  10.948 -0.4804  1.0313 -0.0396
  810MPD2    C411926   3.626   1.816  11.080 -0.2626 -0.2263 -0.2826
  810MPD2    C511927   3.595   1.696  11.136  0.0527 -0.0308 -0.1163
  810MPD2     H11928   3.769   1.713  10.795  0.6836 -1.2355 -0.6253
  810MPD2    H111929   3.595   1.903  11.137  1.1827  1.6987 -2.4319
  810MPD2    H211930   3.599   1.487  11.125 -0.1753  0.1104  1.3956
  810MPD2    H311931   3.550   1.688  11.234  1.6919 -3.5859  0.3277
  810MPD2     N11932   3.682   1.942  10.882  0.0407 -0.4832  0.7561
  810MPD2    H511933   3.660   2.030  10.928  2.4206  0.9391 -0.8024
  810MPD2    N111934   3.734   1.459  10.893  0.3876 -0.2987  0.0559
  810MPD2    H711935   3.694   1.380  10.941  0.4276 -0.5901 -0.3897
  811MPD2     C11936   3.391   1.341  10.096 -1.2533  0.4887  0.2618
  811MPD2    C111937   3.472   1.416  10.178  0.5660  0.1994  0.4487
  811MPD2    C211938   3.489   1.553  10.143 -0.1777 -0.3838 -0.7624
  811MPD2    C311939   3.419   1.614  10.044  0.3557  0.8655 -0.0114
  811MPD2    C411940   3.346   1.534   9.960  0.1917  0.4800  0.3777
  811MPD2    C511941   3.330   1.400   9.984 -0.4424  0.2048 -0.1315
  811MPD2     H11942   3.540   1.614  10.217 -0.9281  2.9667 -2.9880
  811MPD2    H111943   3.287   1.567   9.875 -1.3921 -0.1790  1.2189
  811MPD2    H211944   3.354   1.243  10.122  2.8777 -0.7558  1.2986
  811MPD2    H311945   3.273   1.339   9.915 -1.9190  1.3233  0.1103
  811MPD2     N11946   3.442   1.751  10.022 -0.1483  0.4409 -0.0345
  811MPD2    H511947   3.513   1.797  10.078 -0.9831  1.7550 -0.0685
  811MPD2    N111948   3.538   1.349  10.282 -0.5161  0.2018  0.3061
  811MPD2    H711949   3.499   1.257  10.302  3.3238 -1.5757 -0.3637
  812MPD2     C11950   2.688   1.264  12.285 -0.3253  0.5079 -0.4488
  812MPD2    C111951   2.636   1.288  12.403  0.3609 -0.6312  0.4558
  812MPD2    C211952   2.625   1.199  12.511 -0.0354  0.3238  0.4141
  812MPD2    C311953   2.681   1.079  12.495  0.2708  0.5371  0.0346
  812MPD2    C411954   2.740   1.051  12.376 -0.6469  0.1250  0.2122
  812MPD2    C511955   2.746   1.141  12.268 -0.5259 -1.8245 -0.2314
  812MPD2     H11956   2.575   1.216  12.606 -1.0603  0.7322 -0.1939
  812MPD2    H111957   2.800   0.966  12.346  0.7847  1.3697 -0.4917
  812MPD2    H211958   2.714   1.346  12.218 -0.8655  1.2080  0.2000
  812MPD2    H311959   2.780   1.117  12.168 -0.3055  0.3031 -0.6548
  812MPD2     N11960   2.662   0.979  12.591  0.2584  0.1115 -0.2510
  812MPD2    H511961   2.611   1.013  12.672  0.1285 -0.6873 -0.0026
  812MPD2    N111962   2.572   1.415  12.412 -0.2308 -0.1764  0.3762
  812MPD2    H711963   2.563   1.476  12.332 -0.0858 -2.0460 -1.0558
  813MPD2     C11964   1.626   3.133  12.662 -0.3751 -0.0198 -0.4964
  813MPD2    C111965   1.584   3.264  12.637 -0.3413 -0.6261 -0.0079
  813MPD2    C211966   1.491   3.321  12.726 -0.0729  0.5473 -0.0675
  813MPD2    C311967   1.454   3.251  12.842  0.0789  0.1284  0.0529
  813MPD2    C411968   1.497   3.119  12.857 -0.3622  0.0148 -0.4409
  813MPD2    C511969   1.580   3.061  12.764  0.3454 -0.5850 -0.3695
  813MPD2     H11970   1.446   3.419  12.719 -1.1107  0.0069 -1.0701
  813MPD2    H111971   1.472   3.062  12.946 -0.9084  0.8475 -0.0516
  813MPD2    H211972   1.698   3.086  12.596 -0.5043 -1.3200  0.2974
  813MPD2    H311973   1.609   2.958  12.782  2.9821  0.5794  2.0012
  813MPD2     N11974   1.363   3.316  12.927  0.2734 -0.5446 -0.0854
  813MPD2    H511975   1.323   3.406  12.905 -0.0409 -0.3497  1.2888
  813MPD2    N111976   1.638   3.337  12.523 -0.2779 -0.0022  0.2556
  813MPD2    H711977   1.703   3.288  12.462 -1.8799  0.3222 -1.7031
  814MPD2     C11978   2.448   4.511  12.219  0.3061  0.7872  0.6296
  814MPD2    C111979   2.419   4.598  12.115 -0.1357 -0.2780  0.1003
  814MPD2    C211980   2.464   0.008  12.112 -0.0003 -0.0907  0.1096
  814MPD2    C311981   2.550   0.049  12.212 -0.1955 -0.6141  0.2584
  814MPD2    C411982   2.578   4.688  12.320 -0.6121  1.0033  0.7578
  814MPD2    C511983   2.526   4.560  12.324  0.5574 -0.3411 -0.2363
  814MPD2     H11984   2.428   0.073  12.033  2.0942  0.2013 -0.6078
  814MPD2    H111985   2.658   4.709  12.390 -0.8252  0.9462  1.0177
  814MPD2    H211986   2.412   4.409  12.224  0.7712  0.6456  1.0764
  814MPD2    H311987   2.554   4.489  12.401  1.1542 -0.2478 -0.3686
  814MPD2     N11988   2.618   0.176  12.207 -0.3360  0.2758  0.6922
  814MPD2    H511989   2.691   0.188  12.277  0.1845 -0.4019  0.2675
  814MPD2    N111990   2.340   4.557  12.004 -0.4705 -0.0122 -0.3793
  814MPD2    H711991   2.333   4.623  11.928 -2.0085  0.3114  0.0433
  815MPD2     C11992   2.520   3.073  12.164  0.0085 -0.1519 -0.7070
  815MPD2    C111993   2.491   2.938  12.148 -0.0114  0.0390 -0.0444
  815MPD2    C211994   2.368   2.890  12.161 -0.6165 -0.4463 -0.2229
  815MPD2    C311995   2.270   2.973  12.206  0.5341  0.0011 -0.0373
  815MPD2    C411996   2.302   3.104  12.245  0.2397  0.2582 -0.1944
  815MPD2    C511997   2.423   3.154  12.216 -0.1252  0.4763 -0.8090
  815MPD2     H11998   2.343   2.788  12.134  0.3824 -0.8630  0.4332
  815MPD2    H111999   2.227   3.175  12.278  0.8745  1.1946 -0.7830
  815MPD2    H212000   2.614   3.114  12.131 -1.2985  4.8850  1.8705
  815MPD2    H312001   2.447   3.258  12.236 -1.3124  0.9873 -2.0131
  815MPD2     N12002   2.136   2.917  12.227 -0.6209 -0.2518 -0.0366
  815MPD2    H512003   2.114   2.828  12.182 -2.0119 -0.6263  1.4048
  815MPD2    N112004   2.592   2.865  12.086  0.0785 -0.5362 -0.7460
  815MPD2    H712005   2.674   2.912  12.048 -2.0205  2.5903 -1.3332
  816MPD2     C12006   2.606   2.124   0.215 -0.3661 -0.1822 -0.2248
  816MPD2    C112007   2.591   2.138   0.076  0.1099  0.4635 -0.7988
  816MPD2    C212008   2.705   2.131  17.682 -0.8863  0.2375  0.3465
  816MPD2    C312009   2.830   2.103   0.047  0.1174  0.5449  0.5660
  816MPD2    C412010   2.837   2.090   0.186 -0.2619 -0.2434  0.4111
  816MPD2    C512011   2.730   2.103   0.269 -0.0876  0.0267 -0.3919
  816MPD2     H12012   2.706   2.143  17.574 -0.8298  1.4199  0.4700
  816MPD2    H112013   2.932   2.069   0.234 -1.1319  0.0164  2.2219
  816MPD2    H212014   2.516   2.140   0.272 -0.3540 -2.4162  0.4070
  816MPD2    H312015   2.741   2.100   0.377  0.1490  1.4184 -0.3710
  816MPD2     N12016   2.950   2.103  17.650 -0.6902 -0.9527 -0.1302
  816MPD2    H512017   2.934   2.125  17.552 -0.8510 -1.3701 -0.1986
  816MPD2    N112018   2.464   2.179   0.033  0.0092 -0.2507  0.2122
  816MPD2    H712019   2.392   2.191   0.103 -0.9565  1.2125 -1.0347
  817MPD2     C12020   2.166   3.536   9.035  0.0664 -0.3764  0.5742
  817MPD2    C112021   2.065   3.511   9.128  0.3459 -0.2479 -0.0232
  817MPD2    C212022   1.954   3.589   9.132 -0.3114  0.8042  0.1192
  817MPD2    C312023   1.944   3.696   9.041  0.4134 -0.0340  0.2026
  817MPD2    C412024   2.048   3.723   8.960 -0.2832 -0.3526  0.1118
  817MPD2    C512025   2.157   3.642   8.958  0.5549 -0.4333 -0.1666
  817MPD2     H12026   1.884   3.556   9.209 -1.4459  1.6156 -0.5650
  817MPD2    H112027   2.055   3.802   8.886 -2.9572 -0.2281 -0.0017
  817MPD2    H212028   2.251   3.472   9.013 -0.3281 -1.3159  1.7798
  817MPD2    H312029   2.238   3.657   8.886 -0.0224  1.7613 -0.3809
  817MPD2     N12030   1.825   3.775   9.029 -0.1885 -0.1530  0.2462
  817MPD2    H512031   1.822   3.833   8.946  1.6908  0.3662  0.5351
  817MPD2    N112032   2.074   3.403   9.222 -0.0689 -0.0691 -0.2266
  817MPD2    H712033   1.987   3.384   9.270  0.2055 -1.6061 -0.3186
  818MPD2     C12034   1.671   3.696  10.232  0.4778  0.3219 -0.1564
  818MPD2    C112035   1.547   3.639  10.231 -0.4043  0.4181  0.5500
  818MPD2    C212036   1.526   3.504  10.230 -0.5482  0.8760  0.1788
  818MPD2    C312037   1.630   3.415  10.220 -1.0558 -1.4417 -0.1766
  818MPD2    C412038   1.753   3.474  10.200  0.1757  0.2196  0.0836
  818MPD2    C512039   1.774   3.609  10.208  0.4966  0.1398 -0.3503
  818MPD2     H12040   1.426   3.466  10.242 -0.1400 -0.7983 -1.8912
  818MPD2    H112041   1.833   3.406  10.171  0.4273 -0.6054  2.7855
  818MPD2    H212042   1.700   3.800  10.239 -1.1385  0.6566  1.4916
  818MPD2    H312043   1.875   3.647  10.195  0.6502 -0.1267  0.0651
  818MPD2     N12044   1.610   3.271  10.220 -0.0826 -0.1490  0.7365
  818MPD2    H512045   1.687   3.208  10.235 -1.5239 -1.9582  0.5608
  818MPD2    N112046   1.436   3.724  10.235  0.3604  0.2610 -0.4719
  818MPD2    H712047   1.350   3.673  10.245  1.0206 -0.4835  1.2370
  819MPD2     C12048   3.742   0.946  15.939 -0.4659  0.2103  0.0060
  819MPD2    C112049   3.706   0.821  15.984 -0.1561  0.5704  0.1772
  819MPD2    C212050   3.799   0.748  16.053  0.6642  0.2328  0.1847
  819MPD2    C312051   3.918   0.794  16.087  0.8008  0.2263 -0.3229
  819MPD2    C412052   3.960   0.920  16.036 -0.8907 -0.3581  0.0899
  819MPD2    C512053   3.869   0.994  15.970  0.6343  0.5179  0.3629
  819MPD2     H12054   3.774   0.648  16.088 -1.6496 -0.3411 -2.9883
  819MPD2    H112055   4.053   0.972  16.055 -0.7456 -0.2721 -0.8187
  819MPD2    H212056   3.678   1.009  15.878 -2.0075 -1.2793  0.0473
  819MPD2    H312057   3.895   1.093  15.933  1.1682  0.7756  1.4204
  819MPD2     N12058   3.992   0.718  16.171 -0.1874 -0.1439  0.7873
  819MPD2    H512059   3.939   0.640  16.208 -0.9887 -0.3416 -0.7749
  819MPD2    N112060   3.582   0.772  15.933  0.0153 -0.2918 -0.4072
  819MPD2    H712061   3.525   0.830  15.872 -2.6237 -1.1007  1.2919
  820MPD2     C12062   3.102   0.660  15.101  0.4628 -0.2657 -0.3951
  820MPD2    C112063   3.143   0.763  15.186  0.5187 -0.0600 -0.1401
  820MPD2    C212064   3.211   0.732  15.307  0.3179  0.1513 -0.2163
  820MPD2    C312065   3.249   0.601  15.333  0.5364 -0.3212  0.0518
  820MPD2    C412066   3.203   0.507  15.241  0.2850  0.0549 -0.9884
  820MPD2    C512067   3.136   0.530  15.124 -0.3610  0.6521  0.2044
  820MPD2     H12068   3.234   0.801  15.387  0.0739 -0.8101  0.6912
  820MPD2    H112069   3.239   0.406  15.259 -1.7529 -0.8069 -1.7496
  820MPD2    H212070   3.040   0.681  15.014 -0.8250  0.9108  0.8207
  820MPD2    H312071   3.112   0.448  15.057  0.4914  1.3459 -0.9453
  820MPD2     N12072   3.306   0.555  15.447 -0.0675 -0.4765  0.2448
  820MPD2    H512073   3.311   0.457  15.471  0.8845  0.3196  3.2207
  820MPD2    N112074   3.097   0.897  15.161  0.4068  0.3302 -0.2046
  820MPD2    H712075   3.047   0.912  15.074  0.8884 -3.6705 -1.1811
  821MPD2     C12076   4.155   2.430  13.099 -0.4796 -0.5035 -0.2052
  821MPD2    C112077   4.224   2.311  13.125 -0.4229  0.1731 -0.7918
  821MPD2    C212078   4.350   2.295  13.069 -1.0736  0.0490 -0.8856
  821MPD2    C312079   4.408   2.398  12.989 -0.0595 -0.1063 -0.5159
  821MPD2    C412080   4.329   2.512  12.954 -0.2118  0.3429 -0.2442
  821MPD2    C512081   4.208   2.532  13.015  0.2535  0.0160  0.1259
  821MPD2     H12082   4.409   2.209  13.098 -0.3643  0.6390 -0.5662
  821MPD2    H112083   4.367   2.586  12.885  1.6805 -1.1695 -0.8497
  821MPD2    H212084   4.051   2.444  13.126 -0.5958 -0.0407 -0.8749
  821MPD2    H312085   4.157   2.625  12.994  0.6841  0.5188  1.2673
  821MPD2     N12086   4.538   2.388  12.934  0.0819  0.2757 -0.1619
  821MPD2    H512087   4.577   2.473  12.894 -0.3647  0.5310 -0.0589
  821MPD2    N112088   4.171   2.216  13.215 -0.7169  0.0241  0.2901
  821MPD2    H712089   4.215   2.125  13.221  0.3801  0.3758 -2.4394
  822MPD2     C12090   4.500   2.152  15.843  0.9881 -0.2441 -0.4141
  822MPD2    C112091   4.489   2.109  15.972 -0.6019  0.4714 -0.6943
  822MPD2    C212092   4.410   2.178  16.060  0.2942 -0.4149 -0.0952
  822MPD2    C312093   4.351   2.298  16.022 -0.0287  0.6658 -0.1459
  822MPD2    C412094   4.339   2.327  15.888  0.2942  0.3009  0.1190
  822MPD2    C512095   4.415   2.251  15.800 -1.0202  0.2447 -0.4299
  822MPD2     H12096   4.412   2.145  16.163  3.2938  0.9974  0.2919
  822MPD2    H112097   4.301   2.416  15.840 -0.4077 -0.4318 -0.6960
  822MPD2    H212098   4.582   2.111  15.785  0.3307 -1.1561 -0.7087
  822MPD2    H312099   4.428   2.285  15.698 -1.4278 -1.8376 -1.1649
  822MPD2     N12100   4.288   2.372  16.126 -0.7610 -0.6028 -0.1320
  822MPD2    H512101   4.268   2.319  16.210  0.2420 -0.0930  0.4204
  822MPD2    N112102   4.566   2.008  16.030 -0.0858 -0.2030  0.2281
  822MPD2    H712103   4.553   1.994  16.129  0.8054  1.0513  0.5190
  823MPD2     C12104   4.050   2.564  16.924 -0.2292 -0.3308  0.6569
  823MPD2    C112105   4.066   2.474  16.818 -0.6238 -1.0976  0.1914
  823MPD2    C212106   4.089   2.340  16.846  0.1973  0.1060  0.1034
  823MPD2    C312107   4.081   2.290  16.977 -0.0854 -0.1715 -0.1701
  823MPD2    C412108   4.052   2.376  17.083  0.0901  0.3205  0.2546
  823MPD2    C512109   4.044   2.513  17.054 -0.4093 -0.2691  0.3840
  823MPD2     H12110   4.117   2.273  16.766 -0.1360  0.1322 -0.0353
  823MPD2    H112111   4.051   2.353  17.189 -1.0669  1.4427  0.4900
  823MPD2    H212112   4.023   2.666  16.898  0.1053 -1.1676 -3.0118
  823MPD2    H312113   4.032   2.577  17.141 -1.9261  0.6476 -0.4899
  823MPD2     N12114   4.117   2.152  17.008  0.1066 -0.5809  0.3180
  823MPD2    H512115   4.113   2.125  17.106 -1.7830 -1.0807  0.1067
  823MPD2    N112116   4.057   2.532  16.687 -0.3473 -0.6020 -0.4151
  823MPD2    H712117   4.041   2.631  16.675 -1.8672 -0.8584 -0.4885
  824MPD2     C12118   0.096   1.189  16.137 -0.1005  0.2992 -0.4142
  824MPD2    C112119   0.134   1.273  16.039  1.0203  0.2604  0.2093
  824MPD2    C212120   0.168   1.210  15.921  0.6203 -0.3330  0.2112
  824MPD2    C312121   0.183   1.080  15.903 -0.4959 -0.2750 -0.7102
  824MPD2    C412122   0.157   0.999  16.015  0.4749 -0.1352  0.2582
  824MPD2    C512123   0.107   1.054  16.134 -0.0994 -0.2376 -0.0325
  824MPD2     H12124   0.194   1.270  15.834 -1.2297  0.7537  0.3939
  824MPD2    H112125   0.173   0.892  16.014  1.7801  0.0647  0.1908
  824MPD2    H212126   0.064   1.236  16.229  0.5963 -0.5383  0.2548
  824MPD2    H312127   0.078   0.990  16.217  2.0993  1.6812  2.2068
  824MPD2     N12128   0.233   1.033  15.779 -0.3114 -0.0663  0.0917
  824MPD2    H512129   0.251   1.099  15.704  1.0574  0.5564  0.9777
  824MPD2    N112130   0.124   1.412  16.066 -0.1238 -0.0548 -0.4713
  824MPD2    H712131   0.082   1.438  16.155  2.0103  3.4263 -0.4856
  825MPD2     C12132   0.591   0.974  14.985 -0.2281  0.0037  0.3764
  825MPD2    C112133   0.568   1.021  15.112 -0.3513 -0.1235 -0.0816
  825MPD2    C212134   0.654   1.123  15.157 -0.2495  0.0037 -0.1184
  825MPD2    C312135   0.762   1.166  15.083 -0.2926 -0.8712 -0.0659
  825MPD2    C412136   0.780   1.113  14.962 -0.3228  0.5475  0.3426
  825MPD2    C512137   0.698   1.009  14.911 -0.4826  0.1683 -0.5415
  825MPD2     H12138   0.632   1.174  15.250 -0.9300 -0.4879 -0.0124
  825MPD2    H112139   0.861   1.143  14.896 -1.5275  3.1962  0.0428
  825MPD2    H212140   0.533   0.892  14.944  1.0828 -0.0274 -1.3816
  825MPD2    H312141   0.716   0.939  14.830  2.8323  0.0096  0.3515
  825MPD2     N12142   0.850   1.264  15.131  0.6014 -0.8258  0.6223
  825MPD2    H512143   0.928   1.279  15.067  0.6069  0.2447  0.8854
  825MPD2    N112144   0.453   0.987  15.188 -0.2714  0.6838  0.2972
  825MPD2    H712145   0.395   0.911  15.154  2.4334 -0.2554 -2.2434
  826MPD2     C12146   0.775   1.679  13.478 -0.2840  0.3337 -0.5767
  826MPD2    C112147   0.708   1.558  13.480  0.2034  0.5494 -0.3475
  826MPD2    C212148   0.572   1.560  13.473  0.4803 -0.2851 -0.5240
  826MPD2    C312149   0.500   1.682  13.477  0.3160  0.0418 -0.2858
  826MPD2    C412150   0.575   1.799  13.471 -0.1248 -0.4200  0.2283
  826MPD2    C512151   0.711   1.797  13.471  0.2752 -0.2817  0.0123
  826MPD2     H12152   0.522   1.464  13.472  1.7806 -0.9863  1.3268
  826MPD2    H112153   0.526   1.895  13.470  1.5097  0.4295  0.3457
  826MPD2    H212154   0.883   1.682  13.473 -0.3267  1.9265 -0.4697
  826MPD2    H312155   0.765   1.890  13.481 -0.6056  0.3383 -1.0951
  826MPD2     N12156   0.359   1.692  13.484  0.2445 -0.3582 -0.2740
  826MPD2    H512157   0.322   1.786  13.494  0.0346 -0.5848  1.1545
  826MPD2    N112158   0.788   1.438  13.471 -0.4165  0.4191 -0.2396
  826MPD2    H712159   0.886   1.459  13.483 -0.4259 -1.0035  2.2504
  827MPD2     C12160   1.305   2.214  10.563  0.2099 -0.3967  0.1995
  827MPD2    C112161   1.429   2.156  10.537  0.6877 -0.1064 -0.1083
  827MPD2    C212162   1.432   2.057  10.435  0.2497 -0.2086 -0.3030
  827MPD2    C312163   1.316   2.023  10.363 -0.1503 -0.4859  0.7550
  827MPD2    C412164   1.200   2.084  10.392  0.8196 -0.0491 -0.1676
  827MPD2    C512165   1.197   2.182  10.485  0.0976 -0.3497 -0.1219
  827MPD2     H12166   1.524   2.000  10.425  1.1736  0.8835  1.8425
  827MPD2    H112167   1.104   2.070  10.344  0.8113 -1.3449  0.2208
  827MPD2    H212168   1.294   2.283  10.645  3.1213  0.6111 -0.2528
  827MPD2    H312169   1.105   2.238  10.497 -0.2062 -0.6400 -1.1320
  827MPD2     N12170   1.321   1.934  10.256  0.3348 -0.3277  0.5562
  827MPD2    H512171   1.407   1.900  10.214  0.9392 -0.5085  1.9220
  827MPD2    N112172   1.536   2.186  10.623 -0.2115 -0.5432 -0.4232
  827MPD2    H712173   1.523   2.258  10.694 -3.5244 -0.1533 -1.4116
  828MPD2     C12174   4.606   2.547  12.232 -0.0908 -0.9067  0.3853
  828MPD2    C112175   4.567   2.528  12.098 -0.4688  0.3476  0.5355
  828MPD2    C212176   4.660   2.504  12.001 -0.3283 -0.2440 -0.0615
  828MPD2    C312177   0.074   2.503  12.027  0.0957  0.2064  0.2211
  828MPD2    C412178   0.112   2.542  12.152  0.4142  0.1313 -0.0122
  828MPD2    C512179   0.022   2.562  12.251 -0.7794 -0.2486 -0.1715
  828MPD2     H12180   4.625   2.465  11.906  0.1322  0.8714 -0.6921
  828MPD2    H112181   0.214   2.573  12.176  1.0484 -1.5861 -0.5173
  828MPD2    H212182   4.537   2.548  12.316  1.9540 -0.0162  2.0414
  828MPD2    H312183   0.047   2.582  12.355  0.3143 -1.4589 -0.2057
  828MPD2     N12184   0.172   2.465  11.935  0.0868  0.0513  0.0637
  828MPD2    H512185   0.265   2.461  11.974 -0.6144 -1.5213  1.5684
  828MPD2    N112186   4.428   2.519  12.066 -0.3087  0.1889  0.1901
  828MPD2    H712187   4.405   2.515  11.968 -1.4852 -0.5552  0.5035
  829MPD2     C12188   3.815   2.875  11.401 -0.1313 -0.1315 -0.8358
  829MPD2    C112189   3.745   2.906  11.514 -0.0210 -0.1975  0.2152
  829MPD2    C212190   3.794   2.856  11.634  0.0948 -0.4412  0.1901
  829MPD2    C312191   3.912   2.779  11.633  0.1313  0.2576  0.5772
  829MPD2    C412192   3.981   2.754  11.516 -0.1449  0.4090  0.8083
  829MPD2    C512193   3.935   2.811  11.400 -0.7489 -1.1579 -0.3590
  829MPD2     H12194   3.749   2.877  11.731  1.8469  0.1089  0.8738
  829MPD2    H112195   4.075   2.700  11.512 -0.2311  0.4304 -1.3374
  829MPD2    H212196   3.784   2.906  11.302 -2.6351  1.3342  0.4130
  829MPD2    H312197   3.995   2.795  11.311 -0.5186  1.9770 -0.7659
  829MPD2     N12198   3.945   2.719  11.760  0.3771  0.1113  0.0601
  829MPD2    H512199   3.887   2.742  11.839  1.2285  1.3938  0.3103
  829MPD2    N112200   3.638   2.998  11.505  0.7404  0.1649 -0.4568
  829MPD2    H712201   3.615   3.027  11.410  3.1893 -1.0370 -1.4286
  830MPD2     C12202   4.556   0.215  16.274  0.6755  0.0005  0.2114
  830MPD2    C112203   4.451   0.284  16.231 -0.0139 -0.6118  0.1110
  830MPD2    C212204   4.469   0.405  16.165 -0.2977 -0.3466 -0.3530
  830MPD2    C312205   4.592   0.453  16.138 -0.5680 -0.2044  0.6951
  830MPD2    C412206   4.702   0.378  16.170  0.2733 -0.9631  0.1361
  830MPD2    C512207   4.678   0.266  16.246 -0.3845  0.6666  0.6352
  830MPD2     H12208   4.387   0.462  16.121  1.7433  3.2895  0.5592
  830MPD2    H112209   0.082   0.410  16.153 -0.2061 -0.7000 -2.1499
  830MPD2    H212210   4.544   0.125  16.333  1.0819 -0.5353 -0.5187
  830MPD2    H312211   0.044   0.218  16.286  0.7230  1.3286 -1.0215
  830MPD2     N12212   4.613   0.579  16.074 -0.0702 -0.7304 -0.2269
  830MPD2    H512213   4.705   0.600  16.036  0.0158  1.3017  1.1286
  830MPD2    N112214   4.323   0.248  16.275  0.2655  0.0899  0.6335
  830MPD2    H712215   4.309   0.179  16.349 -1.3646 -0.5137 -0.2450
  831MPD2     C12216   4.519   2.432  16.398 -0.0694  0.8423  0.3245
  831MPD2    C112217   4.576   2.321  16.340  0.6209  0.4122 -0.6124
  831MPD2    C212218   4.529   2.193  16.370 -0.1987 -0.4226 -0.2767
  831MPD2    C312219   4.415   2.180  16.450  0.0465 -0.1693  0.2398
  831MPD2    C412220   4.362   2.296  16.514 -0.1236  0.1712  0.0906
  831MPD2    C512221   4.418   2.417  16.490 -0.1055 -0.3590 -0.5444
  831MPD2     H12222   4.580   2.103  16.336 -0.7502 -1.8836  2.7855
  831MPD2    H112223   4.285   2.285  16.589 -1.0759 -0.2690 -0.9586
  831MPD2    H212224   4.553   2.531  16.372 -0.3560  0.6915 -0.6277
  831MPD2    H312225   4.384   2.503  16.546  1.8208  1.2358 -1.8163
  831MPD2     N12226   4.332   2.064  16.444 -0.1540 -0.7895  0.6351
  831MPD2    H512227   4.241   2.075  16.487  0.4507 -1.2139  2.0285
  831MPD2    N112228   4.687   2.343  16.249  0.6254  0.4898  0.6265
  831MPD2    H712229   4.678   2.427  16.193 -0.7074  1.6725  2.5911
  832MPD2     C12230   2.899   2.950  17.446 -0.9390 -0.7289 -0.4940
  832MPD2    C112231   2.897   3.090  17.447  0.0121 -0.5762 -0.5090
  832MPD2    C212232   2.782   3.160  17.410  0.7219 -0.2891  0.1817
  832MPD2    C312233   2.673   3.082  17.367 -0.0849 -0.5842 -0.8427
  832MPD2    C412234   2.680   2.945  17.360 -0.5401 -0.4647 -0.8050
  832MPD2    C512235   2.790   2.882  17.404 -0.4499 -0.1508 -0.6773
  832MPD2     H12236   2.787   3.266  17.388  2.0112 -1.1768 -3.8912
  832MPD2    H112237   2.593   2.882  17.344 -0.0807 -0.7622 -2.1154
  832MPD2    H212238   2.984   2.902  17.493  0.9640  1.9911 -1.1040
  832MPD2    H312239   2.793   2.773  17.413  0.0221 -0.2107 -1.6527
  832MPD2     N12240   2.557   3.136  17.318  0.3168 -0.1212 -0.4112
  832MPD2    H512241   2.477   3.074  17.321  0.3229 -0.1675 -1.3051
  832MPD2    N112242   3.019   3.148  17.485 -0.5757  0.1651  0.2846
  832MPD2    H712243   3.094   3.080  17.491 -1.1331 -0.5801 -1.2028
  833MPD2     C12244   0.690   4.582  12.201 -0.2651 -0.3580 -0.5856
  833MPD2    C112245   0.752   4.695  12.237 -0.2113  0.4849 -0.0751
  833MPD2    C212246   0.851   0.024  12.163 -0.1491 -0.2798 -0.8894
  833MPD2    C312247   0.909   4.667  12.065 -0.0009  0.9319  0.2814
  833MPD2    C412248   0.844   4.549  12.030 -0.1688  1.0252 -0.5616
  833MPD2    C512249   0.732   4.511  12.098 -0.1432  0.6078  0.3757
  833MPD2     H12250   0.894   0.122  12.182  0.6764 -0.6978 -0.5854
  833MPD2    H112251   0.879   4.479  11.955  0.0326  2.0197 -1.4054
  833MPD2    H212252   0.603   4.552  12.257 -1.0617 -0.0571 -1.6637
  833MPD2    H312253   0.682   4.421  12.065 -1.1094  2.4534 -3.1517
  833MPD2     N12254   1.026   4.717  11.995  0.3009  0.0473 -0.6630
  833MPD2    H512255   1.065   0.079  12.037 -0.2772 -0.8627  1.6787
  833MPD2    N112256   0.688   0.046  12.345  0.3825  0.0008  0.2778
  833MPD2    H712257   0.607   0.006  12.391  0.8797 -1.1137  0.1765
  834MPD2     C12258   0.992   0.304  11.082  0.4634 -0.3806  0.0073
  834MPD2    C112259   0.932   0.201  11.143  0.1045  0.3895 -0.0766
  834MPD2    C212260   0.968   0.165  11.275 -0.8784  0.1876  0.1796
  834MPD2    C312261   1.058   0.239  11.350 -0.7785 -0.1101  0.0173
  834MPD2    C412262   1.116   0.346  11.288 -0.3268  0.1410 -0.3444
  834MPD2    C512263   1.087   0.374  11.155 -0.0491  0.5544 -0.0575
  834MPD2     H12264   0.927   0.077  11.323 -0.8938  0.4693  0.6867
  834MPD2    H112265   1.194   0.400  11.340 -0.6425 -1.7053  2.0167
  834MPD2    H212266   0.976   0.332  10.979 -1.5932  1.5728  0.8631
  834MPD2    H312267   1.132   0.455  11.098  2.3414 -0.9213 -0.3174
  834MPD2     N12268   1.082   0.199  11.481 -0.4181 -0.2090 -0.5251
  834MPD2    H512269   1.023   0.128  11.524 -2.0584 -0.1091 -2.6003
  834MPD2    N112270   0.837   0.128  11.071  0.0358 -0.1254 -0.8103
  834MPD2    H712271   0.815   0.163  10.978 -0.9469 -0.6105 -0.7635
  835MPD2     C12272   0.599   2.360  11.372  0.0754  0.1693 -0.7018
  835MPD2    C112273   0.581   2.500  11.400  0.6905  0.1959 -0.2648
  835MPD2    C212274   0.671   2.560  11.485 -0.0936 -0.5962  0.4664
  835MPD2    C312275   0.776   2.486  11.542 -0.6156 -1.1621 -0.5856
  835MPD2    C412276   0.796   2.357  11.502  0.1822  0.0957  0.2413
  835MPD2    C512277   0.708   2.290  11.418 -0.2288  0.0500  0.7416
  835MPD2     H12278   0.654   2.660  11.526 -0.1955 -0.1145 -0.7653
  835MPD2    H112279   0.864   2.289  11.550 -2.4353 -2.1303  0.7739
  835MPD2    H212280   0.527   2.304  11.313 -3.8895  2.1799  2.2920
  835MPD2    H312281   0.714   2.183  11.399  1.4405 -0.1151  2.1788
  835MPD2     N12282   0.854   2.545  11.640 -0.1527  0.5448 -0.4306
  835MPD2    H512283   0.821   2.641  11.649  1.1325  0.6620  2.9919
  835MPD2    N112284   0.467   2.570  11.363 -0.3644  0.0988 -0.0614
  835MPD2    H712285   0.457   2.667  11.390  0.3166 -0.1581  1.1093
  836MPD2     C12286   0.556   3.034  11.925  0.6150 -0.2365 -0.3292
  836MPD2    C112287   0.658   2.986  12.011  0.2925 -0.0651  0.3568
  836MPD2    C212288   0.654   3.038  12.140 -0.7059  0.6106 -0.5493
  836MPD2    C312289   0.551   3.123  12.178  0.6592 -0.2686  0.5735
  836MPD2    C412290   0.446   3.153  12.099 -0.1340  0.7453  0.1921
  836MPD2    C512291   0.453   3.109  11.971 -0.5860 -0.1543 -0.1212
  836MPD2     H12292   0.732   3.017  12.211  0.2597  4.2846 -0.5414
  836MPD2    H112293   0.364   3.221  12.121  1.8297  2.2102  3.0657
  836MPD2    H212294   0.556   3.015  11.818  2.6013  0.5703 -0.4730
  836MPD2    H312295   0.388   3.140  11.890 -0.1514 -2.2247 -1.2696
  836MPD2     N12296   0.543   3.179  12.310  0.1598  0.0407  0.3990
  836MPD2    H512297   0.467   3.242  12.335  0.0232  1.2396 -2.9976
  836MPD2    N112298   0.769   2.907  11.960 -0.1666 -0.3708 -0.2087
  836MPD2    H712299   0.779   2.895  11.860  1.4536  2.3321 -0.3745
  837MPD2     C12300   3.862   2.441   9.906  0.2381 -0.0316  0.2313
  837MPD2    C112301   3.728   2.444   9.945 -0.3681 -0.1700 -0.5946
  837MPD2    C212302   3.662   2.560   9.974 -0.1199 -0.4383 -0.5389
  837MPD2    C312303   3.732   2.676   9.994 -0.1625  0.1557 -0.1760
  837MPD2    C412304   3.864   2.681   9.972  0.8364  0.0571  0.4496
  837MPD2    C512305   3.924   2.568   9.916  0.0405  0.0150  0.2974
  837MPD2     H12306   3.556   2.562   9.995 -0.4559 -1.7364 -2.1622
  837MPD2    H112307   3.925   2.771   9.971 -1.7614  1.8286  0.8530
  837MPD2    H212308   3.912   2.357   9.861 -1.5696 -0.6791 -0.5704
  837MPD2    H312309   4.028   2.579   9.887 -0.1756 -0.8321 -0.8120
  837MPD2     N12310   3.657   2.792  10.020 -0.7725 -0.6533 -0.4466
  837MPD2    H512311   3.557   2.794  10.040 -0.4046 -0.0881  1.3077
  837MPD2    N112312   3.647   2.334   9.934 -0.3906  0.0788  0.5468
  837MPD2    H712313   3.549   2.353   9.951 -0.9091 -1.3839 -0.8125
  838MPD2     C12314   2.201   0.988  11.960 -0.0925 -0.3681 -0.5408
  838MPD2    C112315   2.177   0.856  11.959  0.0833 -0.2163  0.2551
  838MPD2    C212316   2.057   0.818  12.005  0.2039  0.0848  0.5902
  838MPD2    C312317   1.959   0.908  12.051 -0.1887 -0.9435  0.0191
  838MPD2    C412318   1.986   1.036  12.064  0.4014 -0.2446  0.4472
  838MPD2    C512319   2.110   1.069  12.012  0.2473 -0.4782 -0.0235
  838MPD2     H12320   2.033   0.712  12.005 -1.2351  0.4108 -0.5043
  838MPD2    H112321   1.922   1.117  12.096 -0.1703 -1.1011  1.4628
  838MPD2    H212322   2.300   1.031  11.947 -0.4011  0.7066  0.6784
  838MPD2    H312323   2.146   1.170  12.023 -1.3374 -0.2281  2.8097
  838MPD2     N12324   1.830   0.856  12.055 -0.3335  0.5193  0.5395
  838MPD2    H512325   1.820   0.756  12.043 -0.5238  0.7155 -0.9358
  838MPD2    N112326   2.275   0.763  11.924 -0.3289  0.0800  0.3586
  838MPD2    H712327   2.252   0.664  11.928 -0.7208  0.2642  2.4559
  839MPD2     C12328   1.898   0.100  11.926  0.6144  0.2052 -0.0430
  839MPD2    C112329   1.929   0.134  11.797 -0.1811  0.3278 -0.2638
  839MPD2    C212330   2.043   0.201  11.772 -0.2937  0.0925 -0.2005
  839MPD2    C312331   2.132   0.225  11.874  0.1425  0.0936 -0.2596
  839MPD2    C412332   2.093   0.188  11.999  0.3733 -0.1622  0.2576
  839MPD2    C512333   1.982   0.120  12.032 -0.1180 -0.0051  1.0002
  839MPD2     H12334   2.069   0.221  11.669 -0.7290 -1.6238 -0.6540
  839MPD2    H112335   2.168   0.197  12.077  2.3067  1.1404 -1.7514
  839MPD2    H212336   1.811   0.038  11.947  0.4188  0.4549 -0.1146
  839MPD2    H312337   1.967   0.083  12.133 -0.0492  1.9833  1.7497
  839MPD2     N12338   2.253   0.297  11.858  0.3637 -0.1121  0.0884
  839MPD2    H512339   2.290   0.327  11.947 -0.8628 -1.1361  0.9498
  839MPD2    N112340   1.847   0.078  11.690  0.6093  0.3579 -0.1656
  839MPD2    H712341   1.881   0.068  11.595  3.3468  1.9661  0.6127
  840MPD2     C12342   2.193   2.545  10.568  0.2244  0.0191  0.4545
  840MPD2    C112343   2.175   2.510  10.695 -0.0649 -0.6406  0.4641
  840MPD2    C212344   2.246   2.576  10.799 -0.1918 -0.4843  0.8268
  840MPD2    C312345   2.330   2.676  10.761 -0.5429  0.8012  0.3246
  840MPD2    C412346   2.340   2.711  10.633  0.3729 -0.4311  0.8829
  840MPD2    C512347   2.271   2.647  10.536 -0.4667 -0.5143  0.8614
  840MPD2     H12348   2.244   2.549  10.904  1.3241 -0.2930  0.9050
  840MPD2    H112349   2.409   2.793  10.614  1.1411 -1.2934 -0.0679
  840MPD2    H212350   2.131   2.496  10.494  3.4095 -2.8908 -0.3148
  840MPD2    H312351   2.289   2.685  10.436  0.3186  0.7735  1.4993
  840MPD2     N12352   2.392   2.762  10.855  0.4270 -0.3282  0.3259
  840MPD2    H512353   2.429   2.844  10.809 -3.4493  0.0490 -2.1352
  840MPD2    N112354   2.071   2.411  10.712 -0.7171 -0.0993 -0.2197
  840MPD2    H712355   2.022   2.389  10.626  0.1090 -0.7902 -0.5280
  841MPD2     C12356   1.696   2.359  14.448  0.4392  0.9666  0.0403
  841MPD2    C112357   1.720   2.263  14.547  0.0969 -0.4777 -0.0809
  841MPD2    C212358   1.806   2.287  14.651  0.5568 -0.0497 -0.4240
  841MPD2    C312359   1.881   2.403  14.651 -0.2894  1.0587  0.5354
  841MPD2    C412360   1.847   2.502  14.559  0.0788 -0.3917 -0.1490
  841MPD2    C512361   1.758   2.478  14.463  0.5475  0.0833  0.0468
  841MPD2     H12362   1.822   2.207  14.722 -1.4579  0.6335  0.7925
  841MPD2    H112363   1.901   2.596  14.562 -0.3254 -0.1086 -1.8508
  841MPD2    H212364   1.626   2.356  14.366 -0.1428  0.3242  0.5590
  841MPD2    H312365   1.754   2.554  14.385  1.2196  1.1013  0.9997
  841MPD2     N12366   1.976   2.423  14.753 -0.0486  0.4745  0.0871
  841MPD2    H512367   1.975   2.359  14.831  1.0344  0.6058  0.2066
  841MPD2    N112368   1.655   2.136  14.557 -0.0624 -0.1213  1.3262
  841MPD2    H712369   1.681   2.080  14.637  1.5634  0.5686  1.2871
  842MPD2     C12370   1.876   3.908  16.586  0.3412  0.2367  0.3554
  842MPD2    C112371   1.787   3.802  16.585 -0.1795  0.3413 -0.5162
  842MPD2    C212372   1.797   3.712  16.693 -0.1706  0.6038  0.5850
  842MPD2    C312373   1.894   3.729  16.794  0.5301  0.6912 -0.3055
  842MPD2    C412374   1.969   3.848  16.797 -0.1843  0.1719 -0.1574
  842MPD2    C512375   1.964   3.929  16.693  0.3494 -0.1089  0.0362
  842MPD2     H12376   1.717   3.638  16.696  1.0418 -0.8363 -2.2268
  842MPD2    H112377   2.045   3.873  16.870  0.8147  1.4724 -1.6391
  842MPD2    H212378   1.868   3.982  16.507 -2.6619 -1.1865 -0.6913
  842MPD2    H312379   2.027   4.017  16.697  0.7110 -0.3699  0.0900
  842MPD2     N12380   1.921   3.635  16.898  0.0746 -0.6155  0.1955
  842MPD2    H512381   1.986   3.653  16.974 -0.7533  1.2804  0.4551
  842MPD2    N112382   1.694   3.807  16.483 -0.2704 -0.7124  0.0793
  842MPD2    H712383   1.701   3.894  16.431 -1.0902 -0.6700  0.0450
  843MPD2     C12384   0.179   3.076   1.087 -0.4149 -0.6224  0.5046
  843MPD2    C112385   0.064   3.158   1.077 -0.7923 -0.3140 -0.2950
  843MPD2    C212386   0.059   3.267   0.989  0.3069 -0.1101  0.1750
  843MPD2    C312387   0.176   3.290   0.914  0.1184 -0.7754 -0.3790
  843MPD2    C412388   0.272   3.193   0.911 -0.2233  0.2945 -0.0787
  843MPD2    C512389   0.276   3.085   0.999  0.5078 -0.0817 -0.7274
  843MPD2     H12390   4.694   3.332   0.987 -0.7376 -1.5645 -0.9699
  843MPD2    H112391   0.367   3.223   0.869  0.4422 -1.5267  0.1007
  843MPD2    H212392   0.183   2.982   1.142 -2.0042  0.0118  1.7161
  843MPD2    H312393   0.356   3.013   0.995 -0.1808 -0.8482 -0.7329
  843MPD2     N12394   0.196   3.406   0.832  0.2600  0.6281  0.0980
  843MPD2    H512395   0.288   3.413   0.790  0.4481  0.4315  0.4689
  843MPD2    N112396   4.675   3.115   1.158  0.0218  0.5271  0.1324
  843MPD2    H712397   4.699   3.036   1.217 -1.6948 -1.0031 -1.2424
  844MPD2     C12398   2.225   2.720  16.866 -0.0149 -0.3902  0.0380
  844MPD2    C112399   2.335   2.642  16.892  0.1511 -0.7337 -0.0880
  844MPD2    C212400   2.453   2.711  16.941  0.1619 -0.3809 -0.1134
  844MPD2    C312401   2.452   2.847  16.947 -0.7405  0.1643 -0.2831
  844MPD2    C412402   2.345   2.916  16.916  0.4115 -0.2114 -0.4642
  844MPD2    C512403   2.232   2.855  16.873  0.3729 -0.2500  0.0882
  844MPD2     H12404   2.541   2.651  16.960  0.3568 -0.0816 -0.0610
  844MPD2    H112405   2.342   3.024  16.923 -2.6183 -0.0728 -3.8702
  844MPD2    H212406   2.139   2.662  16.834  0.3667 -0.2183 -1.3030
  844MPD2    H312407   2.141   2.913  16.859 -0.4306 -1.2107  1.3119
  844MPD2     N12408   2.576   2.911  16.972  0.4267 -0.2784  0.2553
  844MPD2    H512409   2.646   2.844  17.001  0.6154 -0.2336 -0.0997
  844MPD2    N112410   2.353   2.501  16.880 -0.3325  0.0460 -0.8658
  844MPD2    H712411   2.439   2.469  16.923 -1.7814 -0.3121  1.7887
  845MPD2     C12412   2.921   3.819  17.240  0.3858  0.1686 -0.9867
  845MPD2    C112413   2.802   3.762  17.280  0.8604  0.2943 -0.5610
  845MPD2    C212414   2.793   3.625  17.254 -0.3912  0.5366 -0.7944
  845MPD2    C312415   2.895   3.546  17.202  0.2790  0.0260 -0.2615
  845MPD2    C412416   3.014   3.606  17.174  0.3057 -0.2531 -0.1452
  845MPD2    C512417   3.022   3.742  17.192  0.0566  0.0121 -0.7108
  845MPD2     H12418   2.698   3.577  17.276  0.6183 -2.5045 -3.0614
  845MPD2    H112419   3.101   3.554  17.135  0.8035 -0.4091  1.1779
  845MPD2    H212420   2.931   3.927  17.249 -0.6773  0.1533  0.3893
  845MPD2    H312421   3.111   3.795  17.163 -1.0932  2.3193 -0.0429
  845MPD2     N12422   2.872   3.410  17.165 -0.0897  0.3950  0.0392
  845MPD2    H512423   2.776   3.379  17.168 -0.5579  1.5816 -1.9232
  845MPD2    N112424   2.707   3.849  17.343  0.2630 -0.2293  0.6723
  845MPD2    H712425   2.729   3.948  17.346 -0.9026  0.0273  0.8866
  846MPD2     C12426   4.496   4.338  14.261  0.3412  0.3047 -0.4528
  846MPD2    C112427   4.469   4.469  14.263 -0.8371  0.1928 -0.0058
  846MPD2    C212428   4.415   4.527  14.375 -0.1356  0.7565 -0.3787
  846MPD2    C312429   4.407   4.447  14.489 -0.6087  0.2316 -0.1100
  846MPD2    C412430   4.439   4.315  14.494 -0.5785  0.3122 -0.1047
  846MPD2    C512431   4.483   4.256  14.379  0.1336  0.3422  0.3618
  846MPD2     H12432   4.391   4.632  14.384  2.7208  1.2309  1.5951
  846MPD2    H112433   4.422   4.250  14.579  2.1860  0.2337  0.3709
  846MPD2    H212434   4.529   4.296  14.167 -2.1188  0.3157 -1.3136
  846MPD2    H312435   4.507   4.150  14.371  1.0103  0.6509 -1.1584
  846MPD2     N12436   4.366   4.507  14.609  0.4588 -0.2408  0.5620
  846MPD2    H512437   4.318   4.596  14.601 -1.0050 -1.0330  0.6856
  846MPD2    N112438   4.504   4.557  14.160  0.0003  0.7356 -0.6181
  846MPD2    H712439   4.500   4.657  14.175 -0.4595  0.5359  0.5870
  847MPD2     C12440   4.314   0.688  15.638 -0.5532 -0.6723  0.1101
  847MPD2    C112441   4.297   0.574  15.562 -0.1929 -0.0303  0.0729
  847MPD2    C212442   4.256   0.458  15.617 -0.1297 -0.0418 -0.0044
  847MPD2    C312443   4.233   0.452  15.754 -1.1854 -0.1819 -0.0489
  847MPD2    C412444   4.247   0.568  15.831 -0.9503  0.1793  0.1368
  847MPD2    C512445   4.275   0.687  15.770 -0.5054 -0.6864  0.5300
  847MPD2     H12446   4.234   0.377  15.549 -2.1532  1.7450 -1.4728
  847MPD2    H112447   4.230   0.572  15.937 -0.9746  0.4306  0.1231
  847MPD2    H212448   4.342   0.781  15.590 -0.3819 -1.2925 -0.9912
  847MPD2    H312449   4.285   0.775  15.832  3.8649 -3.1021  3.2760
  847MPD2     N12450   4.218   0.331  15.829 -0.3391  0.1487  0.4249
  847MPD2    H512451   4.227   0.334  15.930 -1.6031 -2.6989  0.6030
  847MPD2    N112452   4.330   0.567  15.424 -0.4054 -0.1719  0.1163
  847MPD2    H712453   4.319   0.476  15.381  1.7026 -0.3317 -0.1092
  848MPD2     C12454   2.164   3.442  16.675 -0.1844  0.8061  0.4918
  848MPD2    C112455   2.233   3.512  16.767  0.0546 -0.1331  0.2382
  848MPD2    C212456   2.270   3.646  16.746 -0.7029  0.3473  0.3309
  848MPD2    C312457   2.235   3.713  16.632 -0.2751  0.8972 -0.2458
  848MPD2    C412458   2.199   3.628  16.527 -0.5072  0.5598  0.4904
  848MPD2    C512459   2.157   3.500  16.547  0.2197  0.8723  0.4953
  848MPD2     H12460   2.323   3.695  16.827  0.2199 -0.0800 -0.0071
  848MPD2    H112461   2.205   3.661  16.424  0.8584 -1.2590 -0.0084
  848MPD2    H212462   2.124   3.342  16.688  0.4905  0.5688  0.7161
  848MPD2    H312463   2.109   3.443  16.468  0.5080  0.3794  0.6745
  848MPD2     N12464   2.267   3.846  16.599 -0.0249  0.8303  0.4670
  848MPD2    H512465   2.219   3.881  16.517  0.1650 -1.5420 -0.6706
  848MPD2    N112466   2.273   3.459  16.892 -0.2035 -0.6278 -0.2527
  848MPD2    H712467   2.342   3.514  16.943  0.4267 -0.7621 -0.9581
  849MPD2     C12468   2.100   2.743  13.746 -0.3211 -0.6087  0.9631
  849MPD2    C112469   2.125   2.876  13.728  0.8022  0.3175 -0.8846
  849MPD2    C212470   2.223   2.937  13.804  0.7050 -0.3252  0.1401
  849MPD2    C312471   2.287   2.871  13.904 -0.1987  0.0347 -0.0484
  849MPD2    C412472   2.252   2.738  13.942  0.5967 -0.5160  0.3153
  849MPD2    C512473   2.166   2.678  13.851 -0.0753 -0.0452  0.2963
  849MPD2     H12474   2.245   3.042  13.788  1.6749 -0.9351 -2.5506
  849MPD2    H112475   2.293   2.687  14.028 -0.5980  0.3865  1.4223
  849MPD2    H212476   2.028   2.693  13.681 -0.2000 -1.2437  1.3214
  849MPD2    H312477   2.153   2.571  13.868 -1.2827 -0.1216 -1.0657
  849MPD2     N12478   2.371   2.953  13.977  0.7633  0.1474  0.4237
  849MPD2    H512479   2.398   3.038  13.929 -1.8817  0.5341 -0.3976
  849MPD2    N112480   2.053   2.951  13.633 -0.5201 -0.1751  0.0682
  849MPD2    H712481   1.988   2.901  13.573 -0.2366  1.1454 -1.3428
  850MPD2     C12482   4.676   1.821  15.006  0.1823  0.0837  0.0134
  850MPD2    C112483   4.685   1.753  15.126  0.4401 -0.6481 -0.0942
  850MPD2    C212484   0.059   1.649  15.135 -0.9434 -0.0873 -0.0360
  850MPD2    C312485   0.148   1.631  15.031 -0.2369 -0.0194 -0.5232
  850MPD2    C412486   0.134   1.693  14.909 -0.5159 -0.8462  0.4232
  850MPD2    C512487   0.049   1.804  14.904 -0.7806  0.1950  0.6512
  850MPD2     H12488   0.080   1.598  15.229  0.3556  0.5366  0.0119
  850MPD2    H112489   0.200   1.678  14.824  0.6101 -0.4346  1.2383
  850MPD2    H212490   4.602   1.900  14.993  0.5113  0.9790  3.6878
  850MPD2    H312491   0.046   1.861  14.812 -4.3305 -0.1525  0.5654
  850MPD2     N12492   0.271   1.564  15.046  0.6151  0.8954 -0.3008
  850MPD2    H512493   0.331   1.597  14.972 -0.0084 -0.5013 -1.4312
  850MPD2    N112494   4.608   1.781  15.240 -0.1101 -0.3471 -0.6642
  850MPD2    H712495   4.625   1.731  15.326  0.2047  0.1735 -0.4246
  851MPD2     C12496   4.396   1.659  16.054  0.8736 -0.2067 -0.5376
  851MPD2    C112497   4.413   1.624  15.928 -0.8232  0.0963 -0.1658
  851MPD2    C212498   4.439   1.487  15.911 -0.2912  0.9073  0.5284
  851MPD2    C312499   4.451   1.403  16.016 -0.6052  0.0262  0.4053
  851MPD2    C412500   4.452   1.454  16.146  0.7444  0.2497 -0.4592
  851MPD2    C512501   4.418   1.579  16.166 -0.1729  0.6214  0.0616
  851MPD2     H12502   4.443   1.437  15.814  0.4106  1.0301  0.4939
  851MPD2    H112503   4.459   1.385  16.229 -1.1903  2.3645  1.4707
  851MPD2    H212504   4.368   1.763  16.068 -0.7888 -0.6912 -0.2385
  851MPD2    H312505   4.412   1.628  16.263 -2.3470 -3.0404  1.7835
  851MPD2     N12506   4.476   1.270  15.983  0.2107  0.1937  0.4265
  851MPD2    H512507   4.454   1.244  15.887 -0.2343  2.2584 -0.0310
  851MPD2    N112508   4.392   1.716  15.827 -0.2929  0.3370  0.2780
  851MPD2    H712509   4.343   1.802  15.849 -0.3585  0.1002  1.0643
  852MPD2     C12510   4.217   0.202   9.700  0.0284  1.0860 -0.0533
  852MPD2    C112511   4.302   0.112   9.766 -0.1120  0.1329  0.3119
  852MPD2    C212512   4.434   0.111   9.730 -0.2007  0.1881 -0.1566
  852MPD2    C312513   4.490   0.203   9.642  0.2344  0.4032 -0.3202
  852MPD2    C412514   4.409   0.294   9.583 -0.4139  0.0882 -0.2794
  852MPD2    C512515   4.272   0.286   9.609 -0.0133  0.8884  0.0718
  852MPD2     H12516   4.489   0.029   9.775  0.6557  0.9097  0.1126
  852MPD2    H112517   4.441   0.362   9.504 -0.8543  1.7845  1.0138
  852MPD2    H212518   4.111   0.210   9.724  0.1300  0.2381  0.6373
  852MPD2    H312519   4.205   0.356   9.560 -0.1828  0.1121 -0.7848
  852MPD2     N12520   4.622   0.182   9.604  0.6091  0.2265 -0.0386
  852MPD2    H512521   4.666   0.099   9.642  0.5622 -0.2491 -1.0083
  852MPD2    N112522   4.259   0.025   9.873 -0.7594 -0.0271  0.4683
  852MPD2    H712523   4.335   4.689   9.907 -0.1545  0.5788  0.1371
  853MPD2     C12524   1.111   4.317  12.284 -0.3351  0.3468  0.0482
  853MPD2    C112525   1.231   4.258  12.306  0.3733  0.1736 -0.3754
  853MPD2    C212526   1.285   4.182  12.204  0.0677 -0.0773 -0.1148
  853MPD2    C312527   1.212   4.163  12.087 -0.4485  0.2668  0.2723
  853MPD2    C412528   1.092   4.227  12.073 -0.0485 -0.4339  0.8512
  853MPD2    C512529   1.038   4.301  12.175  0.1572 -0.3157 -0.3249
  853MPD2     H12530   1.385   4.140  12.210 -0.3478 -0.8281  1.5138
  853MPD2    H112531   1.037   4.229  11.979 -0.4398  0.7990  1.1172
  853MPD2    H212532   1.070   4.382  12.360 -0.7282 -0.5364  0.5964
  853MPD2    H312533   0.949   4.361  12.161 -0.1860 -0.3896  1.5025
  853MPD2     N12534   1.277   4.111  11.973 -0.1387  1.0034 -0.1429
  853MPD2    H512535   1.371   4.075  11.980  0.2232  2.3282  1.7522
  853MPD2    N112536   1.302   4.288  12.426 -0.1751 -0.3677 -0.5934
  853MPD2    H712537   1.261   4.365  12.478  1.1218 -0.0773  0.0205
  854MPD2     C12538   2.401   3.375  12.702 -0.0808 -0.6241 -0.6679
  854MPD2    C112539   2.434   3.491  12.755  0.2655 -0.0154 -0.7997
  854MPD2    C212540   2.549   3.503  12.821 -0.2117  0.3931 -0.1671
  854MPD2    C312541   2.635   3.393  12.836 -0.7886 -0.5615  0.2472
  854MPD2    C412542   2.592   3.271  12.791 -0.1281 -0.7303  0.3176
  854MPD2    C512543   2.479   3.265  12.718  0.2568 -1.2183 -0.1163
  854MPD2     H12544   2.567   3.598  12.871 -1.1298  1.2079 -1.3922
  854MPD2    H112545   2.648   3.181  12.813  0.6242 -0.5648 -0.8779
  854MPD2    H212546   2.314   3.366  12.638  0.5996  1.5789 -1.8998
  854MPD2    H312547   2.458   3.171  12.669  0.0018 -0.4724 -1.4480
  854MPD2     N12548   2.761   3.386  12.905  0.3095 -0.5377 -0.3045
  854MPD2    H512549   2.806   3.295  12.908  0.9685 -0.2033 -0.1197
  854MPD2    N112550   2.339   3.595  12.746 -0.3415  0.2836 -0.0469
  854MPD2    H712551   2.251   3.572  12.702 -1.1301  1.9731  0.6574
  855MPD2     C12552   3.324   3.780  13.635 -0.3520 -0.1288 -0.6597
  855MPD2    C112553   3.367   3.650  13.624  0.2939  0.0470 -0.4679
  855MPD2    C212554   3.318   3.587  13.509 -0.1855 -0.6850 -0.2085
  855MPD2    C312555   3.240   3.651  13.416 -0.4586  0.2922  0.7060
  855MPD2    C412556   3.216   3.784  13.424 -0.6603  0.0775 -0.2465
  855MPD2    C512557   3.266   3.849  13.530  0.0522 -0.8673 -0.6557
  855MPD2     H12558   3.348   3.483  13.498  1.5192 -0.1125 -0.9843
  855MPD2    H112559   3.159   3.840  13.351 -1.6126  0.4951  0.8295
  855MPD2    H212560   3.343   3.844  13.721  2.1491  0.5324 -1.6903
  855MPD2    H312561   3.258   3.957  13.532  1.6533 -0.7972  2.4963
  855MPD2     N12562   3.190   3.588  13.296 -0.2849 -0.9142 -0.1066
  855MPD2    H512563   3.115   3.639  13.251 -0.8991 -1.4116  0.3613
  855MPD2    N112564   3.447   3.575  13.715  0.1300  0.2723 -0.8147
  855MPD2    H712565   3.471   3.480  13.691 -1.2323 -0.0669 -0.8427
  856MPD2     C12566   1.013   4.562  14.240  0.3926 -0.9987  0.3059
  856MPD2    C112567   1.108   4.668  14.240  0.6443 -0.5269  0.3808
  856MPD2    C212568   1.058   0.077  14.244  0.7407 -0.0049 -0.8274
  856MPD2    C312569   0.927   0.098  14.261 -0.5472 -0.6881  0.5580
  856MPD2    C412570   0.838   4.720  14.259 -0.0379 -0.1306  0.1702
  856MPD2    C512571   0.881   4.590  14.256 -0.3910 -0.0326  0.4783
  856MPD2     H12572   1.129   0.159  14.238  0.8220 -0.1918 -2.5090
  856MPD2    H112573   0.731   0.016  14.261  0.1483  1.0085 -0.2864
  856MPD2    H212574   1.050   4.460  14.235 -1.2475 -1.4939 -1.9321
  856MPD2    H312575   0.813   4.505  14.262  1.5124 -1.5273  0.8781
  856MPD2     N12576   0.875   0.228  14.265 -0.3080 -0.2730 -0.0615
  856MPD2    H512577   0.774   0.234  14.275 -0.4286 -0.6086 -1.0987
  856MPD2    N112578   1.247   4.648  14.217 -0.1785  0.4776  0.4874
  856MPD2    H712579   1.300   0.004  14.179 -0.4130  1.2102  1.6478
  857MPD2     C12580   2.241   1.748  13.178 -1.0231  0.4707 -0.1254
  857MPD2    C112581   2.367   1.772  13.128  0.0339 -0.2558 -0.4903
  857MPD2    C212582   2.418   1.892  13.155 -0.4290  0.3840 -0.5248
  857MPD2    C312583   2.346   1.994  13.218 -0.3487 -0.8185 -0.0137
  857MPD2    C412584   2.219   1.967  13.263  0.2081  0.0495 -0.2840
  857MPD2    C512585   2.166   1.842  13.240 -0.6112 -0.1210  0.4462
  857MPD2     H12586   2.519   1.909  13.121  0.1041  2.0076  1.8409
  857MPD2    H112587   2.169   2.045  13.321 -0.4530 -0.4651 -0.1602
  857MPD2    H212588   2.203   1.647  13.171  0.2477  0.0740 -1.3980
  857MPD2    H312589   2.069   1.816  13.279 -0.2324 -5.4220 -2.1252
  857MPD2     N12590   2.416   2.110  13.240 -0.3620 -0.6521  0.2365
  857MPD2    H512591   2.508   2.121  13.199 -0.8856  1.1548 -0.4376
  857MPD2    N112592   2.428   1.668  13.051  0.3202 -0.4926  0.3592
  857MPD2    H712593   2.375   1.582  13.058 -1.9468  0.7635 -1.3350
  858MPD2     C12594   2.948   1.728  17.249 -0.2335 -0.2856  0.9884
  858MPD2    C112595   3.025   1.613  17.239  0.7732  0.1675  0.2837
  858MPD2    C212596   3.067   1.561  17.358  0.4252 -0.7022 -0.0580
  858MPD2    C312597   3.070   1.640  17.474 -1.2528 -0.3622  0.4452
  858MPD2    C412598   2.992   1.754  17.484  0.2540 -0.5029 -0.0374
  858MPD2    C512599   2.923   1.793  17.372  0.1843 -0.0024 -0.6726
  858MPD2     H12600   3.110   1.462  17.361  1.1039 -0.3918  0.6598
  858MPD2    H112601   2.995   1.817  17.573  0.1123 -1.0418  0.3498
  858MPD2    H212602   2.891   1.758  17.162 -1.3483  0.2172  1.8892
  858MPD2    H312603   2.851   1.874  17.373  1.5820  1.2261  0.8466
  858MPD2     N12604   3.135   1.604  17.597 -0.0724  0.4483 -0.3835
  858MPD2    H512605   3.102   1.664  17.672 -0.9836 -1.8702  1.0509
  858MPD2    N112606   3.033   1.552  17.117  0.5753 -0.0467 -0.0271
  858MPD2    H712607   3.034   1.621  17.043 -0.7863 -0.6107 -0.5695
  859MPD2     C12608   1.309   3.036  15.415  0.8686 -0.5368 -0.1856
  859MPD2    C112609   1.414   3.059  15.494 -0.1220 -0.1832  0.3032
  859MPD2    C212610   1.429   2.971  15.600  0.0988  0.6522  0.4965
  859MPD2    C312611   1.348   2.854  15.617 -1.1948 -0.6017  0.0611
  859MPD2    C412612   1.241   2.845  15.530 -0.2563 -0.1022  0.5355
  859MPD2    C512613   1.220   2.933  15.427  0.0812 -0.5613 -0.0446
  859MPD2     H12614   1.511   2.993  15.667  0.4657 -0.0428  0.2820
  859MPD2    H112615   1.171   2.764  15.548 -0.4758 -0.0440 -0.0599
  859MPD2    H212616   1.296   3.110  15.336  2.3875  1.4810  1.4872
  859MPD2    H312617   1.128   2.942  15.370 -0.2321 -0.0833  0.5321
  859MPD2     N12618   1.380   2.753  15.714  0.3641 -0.8820 -0.0828
  859MPD2    H512619   1.314   2.676  15.714 -2.2842  1.3558 -1.7115
  859MPD2    N112620   1.496   3.166  15.460 -0.1543 -0.0053 -0.1465
  859MPD2    H712621   1.468   3.230  15.386  0.1080 -0.5522 -0.7229
  860MPD2     C12622   4.681   3.224  12.077 -0.2865 -1.5870 -0.6337
  860MPD2    C112623   4.582   3.324  12.088 -0.4726  0.1723 -0.5407
  860MPD2    C212624   4.481   3.300  12.179  0.5022  0.4009 -0.3726
  860MPD2    C312625   4.490   3.196  12.270 -0.7239 -0.1104  0.8011
  860MPD2    C412626   4.596   3.109  12.267 -0.2380 -0.0946 -1.1251
  860MPD2    C512627   4.687   3.120  12.170  0.1816  0.4019  0.7628
  860MPD2     H12628   4.395   3.365  12.187 -0.4460 -0.7070 -1.4967
  860MPD2    H112629   4.615   3.024  12.331 -1.9871 -0.7740 -1.5119
  860MPD2    H212630   0.034   3.240  12.001 -0.6239 -0.0475 -0.6420
  860MPD2    H312631   0.057   3.062  12.167  0.0477  0.0451  3.3952
  860MPD2     N12632   4.399   3.202  12.376  0.0224 -0.2884 -0.5280
  860MPD2    H512633   4.326   3.272  12.376  1.3852  1.1193  1.3168
  860MPD2    N112634   4.575   3.444  12.015  0.5221  1.0992  0.0456
  860MPD2    H712635   4.525   3.521  12.059 -0.6185  0.5153 -0.2297
  861MPD2     C12636   3.301   2.011  11.071 -0.5718 -0.3223 -0.3407
  861MPD2    C112637   3.174   1.987  11.124  0.1273 -0.1232  1.3158
  861MPD2    C212638   3.062   2.032  11.063 -0.7907 -0.4783 -0.7363
  861MPD2    C312639   3.068   2.090  10.935  0.4861  0.8056  0.0547
  861MPD2    C412640   3.192   2.103  10.882  0.5326 -0.4341  0.7835
  861MPD2    C512641   3.306   2.070  10.953 -0.3242 -0.8580  0.1783
  861MPD2     H12642   2.967   2.009  11.111  0.0857  1.2705  1.8104
  861MPD2    H112643   3.203   2.139  10.780  1.7042 -0.7383  0.8027
  861MPD2    H212644   3.396   1.984  11.117  0.8540 -0.3815 -3.2827
  861MPD2    H312645   3.402   2.083  10.906 -0.8046  1.8993 -0.0295
  861MPD2     N12646   2.966   2.139  10.859 -0.0542  0.4335 -0.5150
  861MPD2    H512647   2.987   2.189  10.774 -2.8084  0.4893 -1.1798
  861MPD2    N112648   3.154   1.919  11.252 -0.8584  0.5391  0.1878
  861MPD2    H712649   3.057   1.905  11.280 -0.8553 -0.1665 -0.1492
  862MPD2     C12650   2.500   2.420  10.336  0.0320  0.6240  0.1112
  862MPD2    C112651   2.550   2.310  10.404  0.4823  0.5702 -0.3584
  862MPD2    C212652   2.505   2.183  10.369 -0.2428  0.7507  0.1093
  862MPD2    C312653   2.428   2.170  10.251 -0.3462  0.0951  0.5094
  862MPD2    C412654   2.389   2.287  10.182 -0.5901  0.3049 -0.1809
  862MPD2    C512655   2.429   2.407  10.222 -0.2706 -0.4056  0.4642
  862MPD2     H12656   2.517   2.099  10.436 -1.2097 -0.0236 -0.6847
  862MPD2    H112657   2.319   2.276  10.100 -2.1311 -1.8410  1.4227
  862MPD2    H212658   2.519   2.523  10.362 -1.4567  0.6261  1.1430
  862MPD2    H312659   2.390   2.494  10.170 -0.7283 -1.3252 -0.7439
  862MPD2     N12660   2.383   2.041  10.204 -0.1976 -0.0078  0.2000
  862MPD2    H512661   2.313   2.050  10.131  0.1649 -0.5101 -0.2034
  862MPD2    N112662   2.618   2.323  10.523 -0.0680  0.0687  0.1931
  862MPD2    H712663   2.609   2.240  10.582 -0.6673  1.4808  2.1012
  863MPD2     C12664   1.216   0.535  17.084  0.4877 -1.0378 -0.4152
  863MPD2    C112665   1.256   0.409  17.120 -0.1056  0.1129  0.0623
  863MPD2    C212666   1.388   0.378  17.142 -0.2456 -0.1256  0.2232
  863MPD2    C312667   1.491   0.476  17.133 -1.0577  0.0837 -0.1003
  863MPD2    C412668   1.445   0.601  17.109 -0.3722  0.3827 -0.1428
  863MPD2    C512669   1.312   0.630  17.082  0.7095  0.9494  0.3781
  863MPD2     H12670   1.410   0.283  17.188  1.3621 -0.2768 -0.8562
  863MPD2    H112671   1.513   0.686  17.108  0.2739 -0.1183  2.2045
  863MPD2    H212672   1.116   0.574  17.069  0.4412 -0.6529  0.8767
  863MPD2    H312673   1.285   0.732  17.055 -1.7013 -0.0147 -0.8757
  863MPD2     N12674   1.632   0.467  17.156  0.0835 -0.7995  0.1211
  863MPD2    H512675   1.691   0.549  17.152  0.3974 -0.9656  1.4966
  863MPD2    N112676   1.152   0.309  17.111 -1.0041 -0.0549 -0.1165
  863MPD2    H712677   1.059   0.340  17.083 -1.4071  0.9372  2.3302
  864MPD2     C12678   2.032   1.413  17.683 -0.5038 -0.1199  0.6900
  864MPD2    C112679   2.002   1.405  17.546 -0.1236 -0.0966 -0.1835
  864MPD2    C212680   2.037   1.502  17.459 -0.2378  0.4035  0.6241
  864MPD2    C312681   2.134   1.604  17.490 -0.2797 -0.1806  0.4389
  864MPD2    C412682   2.190   1.593  17.617 -0.0728 -0.6172  0.4827
  864MPD2    C512683   2.125   1.512   0.025 -0.0849  0.0177 -0.1593
  864MPD2     H12684   2.010   1.499  17.354  2.0248 -0.6119  0.0650
  864MPD2    H112685   2.277   1.655  17.631 -0.9596  0.5665  0.7703
  864MPD2    H212686   2.003   1.336   0.065  0.2145  0.3280  1.4616
  864MPD2    H312687   2.145   1.528   0.131 -0.1838  0.1315 -0.1567
  864MPD2     N12688   2.172   1.710  17.406  0.4479  0.5737  0.0596
  864MPD2    H512689   2.258   1.758  17.432  0.6699  0.6750 -0.8615
  864MPD2    N112690   1.929   1.289  17.511  0.2560  0.1500  0.1122
  864MPD2    H712691   1.897   1.229  17.586  1.3916 -0.5657  0.0151
  865MPD2     C12692   1.802   1.576  16.724  0.2606 -0.5015 -0.2076
  865MPD2    C112693   1.934   1.604  16.688  0.1956 -0.1368  0.2659
  865MPD2    C212694   1.991   1.723  16.746  0.5584 -0.8863  0.5006
  865MPD2    C312695   1.918   1.802  16.826  0.1464  0.7801 -0.2274
  865MPD2    C412696   1.785   1.777  16.843  0.2983 -0.1148  0.3085
  865MPD2    C512697   1.730   1.665  16.799 -0.1339 -0.5512  0.7272
  865MPD2     H12698   2.098   1.736  16.732  0.3260 -0.1890 -0.6358
  865MPD2    H112699   1.724   1.838  16.909 -0.9637 -1.6295  0.5251
  865MPD2    H212700   1.758   1.482  16.695  0.2298 -0.6942  0.4599
  865MPD2    H312701   1.630   1.634  16.828 -0.1615 -0.5716  0.6071
  865MPD2     N12702   1.977   1.913  16.896 -0.3779  0.3914  0.4766
  865MPD2    H512703   1.914   1.974  16.948 -0.2079  0.6401  0.3944
  865MPD2    N112704   2.002   1.507  16.615 -0.0201 -0.3517 -0.0481
  865MPD2    H712705   1.943   1.430  16.585  0.3359  0.0509 -1.7813
  866MPD2     C12706   3.784   2.108  11.538 -0.2099  0.1326  0.4936
  866MPD2    C112707   3.754   2.094  11.400 -0.1305  0.2503 -0.0627
  866MPD2    C212708   3.638   2.147  11.352 -0.2794 -0.1348  0.0488
  866MPD2    C312709   3.558   2.218  11.435 -0.0203 -1.0218 -0.4293
  866MPD2    C412710   3.578   2.222  11.570  0.1926 -0.9559  0.3460
  866MPD2    C512711   3.689   2.164  11.618  0.0253  0.5605 -0.4690
  866MPD2     H12712   3.626   2.136  11.245  2.1212  0.9034 -0.3264
  866MPD2    H112713   3.522   2.286  11.636 -1.3241 -0.9618 -0.9268
  866MPD2    H212714   3.869   2.059  11.585 -0.6992  0.8901  2.1530
  866MPD2    H312715   3.704   2.162  11.725  0.9205 -0.1808 -0.6034
  866MPD2     N12716   3.447   2.291  11.375  0.5473  0.5735 -0.4319
  866MPD2    H512717   3.393   2.340  11.446 -0.0073 -1.3846  0.5009
  866MPD2    N112718   3.851   2.030  11.312 -0.3948 -0.0074  0.1709
  866MPD2    H712719   3.935   1.995  11.358 -1.3607 -0.9850  1.2057
  867MPD2     C12720   0.858   1.437  16.554  0.0827 -0.5444 -0.2844
  867MPD2    C112721   0.919   1.446  16.676  0.2195 -0.1542 -0.2196
  867MPD2    C212722   0.885   1.553  16.765  0.8212  0.2518 -0.6513
  867MPD2    C312723   0.790   1.645  16.724 -0.1495  0.4768 -0.8346
  867MPD2    C412724   0.732   1.632  16.604 -0.0659 -0.8673  0.2588
  867MPD2    C512725   0.767   1.531  16.522  0.2234  0.4802  0.2567
  867MPD2     H12726   0.928   1.552  16.864 -0.5854 -1.8709 -0.0735
  867MPD2    H112727   0.659   1.702  16.565 -0.9362 -1.5836  0.5919
  867MPD2    H212728   0.877   1.362  16.479  2.6578  0.1589 -0.3189
  867MPD2    H312729   0.717   1.527  16.426  2.0128  0.4525 -0.6605
  867MPD2     N12730   0.746   1.748  16.809  0.0824 -0.2117  0.3853
  867MPD2    H512731   0.669   1.801  16.769 -1.3518 -1.1358  1.8956
  867MPD2    N112732   1.023   1.349  16.699 -0.0906  0.5248 -0.2668
  867MPD2    H712733   1.032   1.279  16.627  1.8252 -1.3762  1.8179
  868MPD2     C12734   3.230   0.916  13.069  0.6103  0.4825  0.5523
  868MPD2    C112735   3.177   0.793  13.084  0.4183  0.3934  0.5603
  868MPD2    C212736   3.070   0.767  13.175  0.5720 -0.4803 -0.0409
  868MPD2    C312737   3.033   0.862  13.256 -0.3469 -0.4117  0.5805
  868MPD2    C412738   3.091   0.984  13.244  0.1323 -0.1998 -0.3057
  868MPD2    C512739   3.179   1.016  13.145 -0.1848  1.1874  0.2009
  868MPD2     H12740   3.030   0.666  13.175  0.1070 -0.3179  2.4427
  868MPD2    H112741   3.071   1.061  13.318  1.9784  0.7387 -0.7914
  868MPD2    H212742   3.296   0.942  12.986 -1.6920 -3.4436 -2.5160
  868MPD2    H312743   3.230   1.111  13.148  2.0832 -0.0292 -0.0530
  868MPD2     N12744   2.946   0.848  13.364  0.7318 -0.5995 -0.1776
  868MPD2    H512745   2.933   0.930  13.423  0.5360 -0.0156 -1.0180
  868MPD2    N112746   3.235   0.701  13.001 -0.5742 -0.1367  0.2087
  868MPD2    H712747   3.314   0.726  12.942 -0.2917 -2.0362 -0.2341
  869MPD2     C12748   3.730   2.416   2.276  0.0804  0.5606 -0.4955
  869MPD2    C112749   3.787   2.445   2.157 -0.0927 -0.1013 -0.2624
  869MPD2    C212750   3.747   2.556   2.081 -0.2000 -0.4238  0.2714
  869MPD2    C312751   3.661   2.647   2.140  0.6709  0.0869 -0.4473
  869MPD2    C412752   3.601   2.611   2.258 -0.5120  0.3119 -0.3001
  869MPD2    C512753   3.631   2.496   2.326 -0.5187  0.3008 -0.2800
  869MPD2     H12754   3.798   2.588   1.991 -1.7975 -0.2374 -0.5678
  869MPD2    H112755   3.520   2.671   2.298  1.0978  1.7524  0.7954
  869MPD2    H212756   3.760   2.331   2.337 -2.4233 -0.6629 -0.9744
  869MPD2    H312757   3.581   2.466   2.418  0.6725  0.2892  0.3627
  869MPD2     N12758   3.645   2.777   2.076  0.2614  0.5778 -0.1290
  869MPD2    H512759   3.692   2.792   1.987 -0.5491  2.3194 -0.2755
  869MPD2    N112760   3.897   2.361   2.127  0.1265  0.3262 -0.2793
  869MPD2    H712761   3.911   2.278   2.183  1.0669  1.2277  0.8155
  870MPD2     C12762   3.223   2.614   1.575 -0.1344  0.3994 -0.0209
  870MPD2    C112763   3.343   2.562   1.605 -0.0821 -0.0527  0.1702
  870MPD2    C212764   3.449   2.579   1.515 -0.0965  0.3692  0.5108
  870MPD2    C312765   3.423   2.650   1.403  0.7385  0.5534  0.1772
  870MPD2    C412766   3.298   2.703   1.375 -0.1545 -0.2504  0.5282
  870MPD2    C512767   3.196   2.679   1.465  0.8197 -0.2744 -0.0238
  870MPD2     H12768   3.535   2.514   1.532 -0.7499 -0.6189  0.0599
  870MPD2    H112769   3.287   2.768   1.289 -0.9886 -1.3422 -0.1966
  870MPD2    H212770   3.136   2.627   1.639  0.9872 -0.9754  1.7438
  870MPD2    H312771   3.097   2.722   1.454  0.7863 -0.6355 -1.1761
  870MPD2     N12772   3.533   2.657   1.318 -0.2725 -0.4236 -0.3797
  870MPD2    H512773   3.609   2.599   1.351  0.2063  0.1644 -0.4454
  870MPD2    N112774   3.347   2.516   1.741 -0.5125 -0.0552  0.3860
  870MPD2    H712775   3.264   2.525   1.798 -0.3743 -0.6702  0.6915
  871MPD2     C12776   4.552   1.658  16.569 -0.0047  0.4657 -0.6787
  871MPD2    C112777   4.546   1.613  16.700 -0.3090 -0.8832  0.2408
  871MPD2    C212778   4.558   1.475  16.719 -0.3720 -0.8442 -0.5941
  871MPD2    C312779   4.595   1.386  16.619 -0.4772  0.1492 -0.2429
  871MPD2    C412780   4.609   1.435  16.490 -0.4365 -0.1118 -0.2034
  871MPD2    C512781   4.590   1.571  16.465 -0.0987  0.2507  0.9807
  871MPD2     H12782   4.541   1.430  16.816 -2.8756  3.2656  0.8590
  871MPD2    H112783   4.644   1.371  16.410 -0.5533  0.7351 -0.9279
  871MPD2    H212784   4.542   1.763  16.547  0.7109  0.5756 -0.4544
  871MPD2    H312785   4.602   1.616  16.367 -2.3117 -0.3847  0.4121
  871MPD2     N12786   4.623   1.250  16.647 -0.0433 -0.5557 -0.1066
  871MPD2    H512787   4.611   1.214  16.742  2.2978  0.3542  0.5219
  871MPD2    N112788   4.497   1.703  16.796 -0.1309  0.1248  0.2715
  871MPD2    H712789   4.492   1.802  16.773 -0.8146 -0.1876 -0.9249
  872MPD2     C12790   0.891   3.845  14.261 -0.4601  0.1935  0.6886
  872MPD2    C112791   0.802   3.938  14.230 -0.8429 -0.2774 -0.1702
  872MPD2    C212792   0.672   3.927  14.269  0.7754  0.3544 -0.7609
  872MPD2    C312793   0.622   3.814  14.332 -0.0890  0.3771  0.9819
  872MPD2    C412794   0.715   3.718  14.369  0.3993  0.1465  0.1467
  872MPD2    C512795   0.851   3.736  14.332  0.2882 -0.0295  0.9473
  872MPD2     H12796   0.598   4.003  14.247 -0.0473 -0.3529 -0.4529
  872MPD2    H112797   0.684   3.633  14.429 -0.5283  0.5020  0.1663
  872MPD2    H212798   0.997   3.853  14.240 -0.1539  1.2122  2.5977
  872MPD2    H312799   0.921   3.662  14.369  0.5933 -1.3052 -2.1248
  872MPD2     N12800   0.484   3.803  14.373  0.3388 -0.0607 -0.4934
  872MPD2    H512801   0.467   3.721  14.430 -0.8478  0.0521 -0.6876
  872MPD2    N112802   0.838   4.058  14.152 -0.1205 -0.6125 -0.2925
  872MPD2    H712803   0.762   4.125  14.151  0.2697 -0.1641  0.1641
  873MPD2     C12804   1.797   4.356   1.038  0.0420 -0.1377 -0.4807
  873MPD2    C112805   1.860   4.287   1.134  0.3578  0.5982 -0.1121
  873MPD2    C212806   1.911   4.161   1.113 -0.0902 -0.4423  0.2074
  873MPD2    C312807   1.883   4.097   0.994  0.0496  0.6105  0.0160
  873MPD2    C412808   1.817   4.168   0.896  0.4362  0.2140  0.1114
  873MPD2    C512809   1.774   4.299   0.917 -0.4980  0.3342 -0.8181
  873MPD2     H12810   1.965   4.109   1.191 -0.0760 -2.2939 -1.0332
  873MPD2    H112811   1.812   4.125   0.797 -0.7354 -1.0826  0.7445
  873MPD2    H212812   1.753   4.452   1.059  0.5701  0.2349 -1.0833
  873MPD2    H312813   1.711   4.350   0.846  0.3492  0.4084 -1.5177
  873MPD2     N12814   1.912   3.965   0.962 -0.4871  0.2531  0.4149
  873MPD2    H512815   1.918   3.937   0.865  0.2943  1.1859  0.1872
  873MPD2    N112816   1.879   4.351   1.260 -0.1920  0.3138  0.8166
  873MPD2    H712817   1.846   4.447   1.257  2.5440  1.1970 -0.2761
  874MPD2     C12818   1.862   4.125  16.006 -0.2502 -0.3314 -0.6544
  874MPD2    C112819   1.817   4.110  16.139 -0.2509 -0.4146  0.0203
  874MPD2    C212820   1.906   4.143  16.242 -0.7870 -0.0998  0.1148
  874MPD2    C312821   2.034   4.183  16.216  0.1929 -0.0434  0.3764
  874MPD2    C412822   2.083   4.188  16.086 -0.3977 -0.2859  0.0469
  874MPD2    C512823   1.991   4.167  15.982 -0.6225 -0.2730 -0.1586
  874MPD2     H12824   1.870   4.146  16.344  1.8392  0.1913  1.0211
  874MPD2    H112825   2.183   4.216  16.058 -1.0589  2.3213  0.3297
  874MPD2    H212826   1.787   4.115  15.928 -2.8521  1.2070  1.6478
  874MPD2    H312827   2.027   4.196  15.884  0.3413  0.5980  0.4500
  874MPD2     N12828   2.118   4.221  16.324  0.2087  0.4209 -0.8642
  874MPD2    H512829   2.087   4.214  16.420 -1.0140 -0.1690 -1.3056
  874MPD2    N112830   1.686   4.077  16.157 -0.8651 -0.1655 -0.1506
  874MPD2    H712831   1.634   4.052  16.073  1.4420 -1.2734 -1.2353
  875MPD2     C12832   3.279   2.565  14.673 -0.0853 -0.2023  0.5169
  875MPD2    C112833   3.147   2.611  14.688 -0.3764 -0.8815  0.1163
  875MPD2    C212834   3.111   2.675  14.805 -0.4652 -0.2136  0.5540
  875MPD2    C312835   3.200   2.664  14.910 -0.3646  0.1996  0.1551
  875MPD2    C412836   3.329   2.618  14.896 -0.4215  0.1417  0.2541
  875MPD2    C512837   3.365   2.566  14.778  0.2174  0.7699 -0.5222
  875MPD2     H12838   3.015   2.724  14.808  0.4253  1.5229  0.2895
  875MPD2    H112839   3.386   2.628  14.988 -1.7413  0.8872  0.9989
  875MPD2    H212840   3.308   2.505  14.587 -1.0684 -0.8807  0.6516
  875MPD2    H312841   3.467   2.532  14.763  0.6206  2.4869 -1.6581
  875MPD2     N12842   3.167   2.713  15.037  0.3823 -1.1529  0.3522
  875MPD2    H512843   3.243   2.726  15.103  1.6624 -2.0622 -0.9653
  875MPD2    N112844   3.043   2.590  14.593  0.0458 -0.1698 -0.0935
  875MPD2    H712845   2.947   2.607  14.621  0.0075 -0.5772  0.0260
  876MPD2     C12846   1.865   3.509  16.386  0.0477  0.1283 -0.1877
  876MPD2    C112847   1.843   3.470  16.256 -0.2251  0.1925 -0.0055
  876MPD2    C212848   1.807   3.341  16.233  0.6965  0.9275 -0.1159
  876MPD2    C312849   1.781   3.250  16.341 -0.3088 -0.6943  0.2659
  876MPD2    C412850   1.788   3.298  16.468  0.4978 -1.1714  0.1898
  876MPD2    C512851   1.826   3.427  16.483  0.1834 -0.2480  0.2135
  876MPD2     H12852   1.801   3.299  16.134 -0.2513  0.8869 -0.0406
  876MPD2    H112853   1.782   3.234  16.555 -0.1492 -1.2423  0.0929
  876MPD2    H212854   1.892   3.611  16.411 -0.5488  0.4800 -0.9570
  876MPD2    H312855   1.851   3.457  16.584 -3.0338 -3.2194  1.9339
  876MPD2     N12856   1.754   3.110  16.313  0.0954 -0.3480 -0.4508
  876MPD2    H512857   1.772   3.073  16.220 -1.4561  0.7159 -1.1756
  876MPD2    N112858   1.880   3.553  16.142  0.0529 -0.4056  0.7518
  876MPD2    H712859   1.873   3.508  16.052  1.6065 -0.7708  0.8209
  877MPD2     C12860   1.722   3.813  15.418 -0.1874 -0.1268 -0.1225
  877MPD2    C112861   1.858   3.845  15.447 -0.2666  0.0961 -0.0634
  877MPD2    C212862   1.946   3.867  15.342 -0.0678 -0.0910  0.2572
  877MPD2    C312863   1.900   3.858  15.211 -0.2795  1.1482 -0.0136
  877MPD2    C412864   1.772   3.814  15.189  0.4226  0.2000  0.1009
  877MPD2    C512865   1.685   3.796  15.288  0.0840 -0.0760 -0.4701
  877MPD2     H12866   2.052   3.885  15.358  0.2848 -1.3097 -0.7127
  877MPD2    H112867   1.741   3.813  15.085 -0.4577 -2.1785  0.3972
  877MPD2    H212868   1.649   3.796  15.496  1.1081  1.2422  1.4159
  877MPD2    H312869   1.589   3.761  15.253  0.6923 -0.8205 -1.3822
  877MPD2     N12870   1.987   3.863  15.101 -1.1681 -0.1985 -0.1741
  877MPD2    H512871   1.943   3.837  15.013  1.8597 -1.2697 -1.3564
  877MPD2    N112872   1.908   3.856  15.584  0.1353 -0.0022 -0.2264
  877MPD2    H712873   2.005   3.881  15.600 -0.1390  0.6980  0.3146
  878MPD2     C12874   1.964   3.054  12.651  0.2285 -0.4542 -0.3719
  878MPD2    C112875   2.009   3.183  12.674  0.1479  0.2818  0.0666
  878MPD2    C212876   2.029   3.216  12.812  0.1937 -0.6595 -0.2453
  878MPD2    C312877   2.004   3.121  12.912 -0.6944  0.2676  0.4169
  878MPD2    C412878   1.954   2.996  12.877 -0.3905 -0.1638  0.1672
  878MPD2    C512879   1.941   2.960  12.748  0.1653 -0.6889 -0.3069
  878MPD2     H12880   2.057   3.318  12.837 -0.1639 -0.3914 -0.9182
  878MPD2    H112881   1.964   2.915  12.950 -0.8454 -2.5229 -2.3947
  878MPD2    H212882   1.948   3.027  12.548  2.1303  0.6130 -0.9563
  878MPD2    H312883   1.924   2.861  12.709 -1.0089 -0.2148 -0.9967
  878MPD2     N12884   2.015   3.156  13.044 -0.2311  0.1710 -0.0002
  878MPD2    H512885   2.056   3.247  13.059  0.9816 -0.0341 -2.0057
  878MPD2    N112886   2.014   3.273  12.565  0.0751  0.0034  0.0539
  878MPD2    H712887   1.993   3.227  12.477 -2.6431 -1.0135  1.2493
  879MPD2     C12888   2.518   0.553  17.177  0.0513 -1.1416 -0.4978
  879MPD2    C112889   2.464   0.489  17.282 -0.3047  0.1468  0.1378
  879MPD2    C212890   2.425   0.359  17.269  0.1386  0.1510  0.0523
  879MPD2    C312891   2.433   0.290  17.153 -0.3972 -0.1608 -0.2720
  879MPD2    C412892   2.489   0.357  17.036 -0.0506 -0.4747  0.4402
  879MPD2    C512893   2.538   0.484  17.061 -0.1235 -0.1322 -0.2723
  879MPD2     H12894   2.386   0.299  17.351 -0.9394  2.2516  1.0798
  879MPD2    H112895   2.484   0.321  16.933  0.9363  0.4325  0.0716
  879MPD2    H212896   2.557   0.654  17.179  0.3799 -1.2463 -1.5403
  879MPD2    H312897   2.578   0.535  16.974  0.0767 -1.5958 -1.0316
  879MPD2     N12898   2.382   0.158  17.136  0.2640 -0.1217 -0.0912
  879MPD2    H512899   2.391   0.130  17.039  0.8938  1.2443 -0.4232
  879MPD2    N112900   2.435   0.573  17.399 -0.1036  0.8193  0.0289
  879MPD2    H712901   2.445   0.670  17.370 -1.4538  1.3362  1.3238
  880MPD2     C12902   4.475   1.281   0.767 -0.6485 -0.1974  0.2072
  880MPD2    C112903   4.380   1.343   0.840 -0.6125  0.6515 -0.2676
  880MPD2    C212904   4.335   1.281   0.955  0.5830 -0.4439 -0.3639
  880MPD2    C312905   4.392   1.167   0.996  0.5896  0.2503 -0.2074
  880MPD2    C412906   4.501   1.114   0.931 -0.6052 -0.3602  0.2644
  880MPD2    C512907   4.543   1.169   0.812 -0.7597  0.8520  0.2057
  880MPD2     H12908   4.238   1.307   0.996 -0.4430 -0.1561 -2.9140
  880MPD2    H112909   4.555   1.022   0.954  2.0335  0.8959 -0.9095
  880MPD2    H212910   4.502   1.335   0.677  0.6387  1.4544  1.5749
  880MPD2    H312911   4.630   1.123   0.767 -2.1000 -1.1872 -0.2872
  880MPD2     N12912   4.337   1.110   1.114 -0.4063 -0.0822 -1.0612
  880MPD2    H512913   4.262   1.159   1.162  1.2516  1.0204  0.3953
  880MPD2    N112914   4.309   1.459   0.784  0.0868 -0.1174  0.0912
  880MPD2    H712915   4.328   1.492   0.690  1.9425 -2.5380 -0.3712
  881MPD2     C12916   3.699   1.408   0.163  1.1254 -0.4655 -0.5492
  881MPD2    C112917   3.725   1.538   0.160  0.7968  0.5636 -0.5970
  881MPD2    C212918   3.787   1.607   0.262 -0.5298 -0.1168 -0.4205
  881MPD2    C312919   3.822   1.535   0.375 -0.0199  0.2915 -0.3502
  881MPD2    C412920   3.804   1.395   0.375 -0.5568  0.6763  0.6320
  881MPD2    C512921   3.742   1.335   0.269  0.5821  0.1888 -0.0304
  881MPD2     H12922   3.816   1.711   0.251 -0.9233 -0.1116 -1.3478
  881MPD2    H112923   3.841   1.342   0.462 -0.0058  0.5916  0.3432
  881MPD2    H212924   3.643   1.352   0.089  0.9667 -0.2407 -0.6009
  881MPD2    H312925   3.718   1.229   0.268  1.1987  0.0529 -0.4551
  881MPD2     N12926   3.890   1.577   0.491 -0.6552 -0.1278  0.1183
  881MPD2    H512927   3.904   1.501   0.557 -1.5550 -0.8636 -0.5404
  881MPD2    N112928   3.728   1.594   0.029  0.3765 -0.0809 -0.2631
  881MPD2    H712929   3.690   1.545  17.638 -2.6438  0.1510  1.0404
  882MPD2     C12930   2.413   4.175  14.413  0.1019 -0.0476  0.1300
  882MPD2    C112931   2.345   4.181  14.537  1.1251  0.3635  0.0534
  882MPD2    C212932   2.204   4.176  14.537  0.0897  0.1928 -0.0924
  882MPD2    C312933   2.135   4.161  14.419  0.2145 -0.9801 -0.0132
  882MPD2    C412934   2.202   4.153  14.298  0.1930 -0.2865 -0.7408
  882MPD2    C512935   2.337   4.160  14.296 -0.9926 -0.2610 -0.4625
  882MPD2     H12936   2.146   4.183  14.629  0.0504  1.7794 -0.2467
  882MPD2    H112937   2.143   4.150  14.207 -0.1967  0.1470 -0.5055
  882MPD2    H212938   2.521   4.174  14.411  0.0516  1.5871 -4.1668
  882MPD2    H312939   2.385   4.168  14.199  0.5623 -0.8447  0.2613
  882MPD2     N12940   1.995   4.171  14.406  0.0566 -0.3221 -0.0450
  882MPD2    H512941   1.963   4.198  14.313  2.9235  0.7136 -0.7405
  882MPD2    N112942   2.426   4.201  14.651 -0.1961 -0.7460  0.1362
  882MPD2    H712943   2.504   4.265  14.639 -2.1113  1.7364  0.9706
  883MPD2     C12944   3.796   4.357  16.524 -0.3234  0.3518  0.2267
  883MPD2    C112945   3.874   4.330  16.410  0.2414  0.8699  1.3477
  883MPD2    C212946   4.007   4.342  16.429  0.6031 -0.6350  0.2683
  883MPD2    C312947   4.065   4.368  16.549  0.2518  0.8407 -0.0327
  883MPD2    C412948   3.983   4.400  16.653  0.4133  0.0579 -0.0642
  883MPD2    C512949   3.848   4.389  16.639 -0.4315  1.0165 -0.3931
  883MPD2     H12950   4.072   4.351  16.343 -1.1652  1.0232 -0.9089
  883MPD2    H112951   4.020   4.421  16.752 -0.3565  2.3714 -0.2654
  883MPD2    H212952   3.688   4.355  16.533 -0.3171  1.2816  0.4539
  883MPD2    H312953   3.784   4.410  16.724 -1.3724  0.1988 -0.9162
  883MPD2     N12954   4.207   4.378  16.562 -0.7101  0.0976 -0.2332
  883MPD2    H512955   4.251   4.352  16.474  1.1356 -1.4784  1.1926
  883MPD2    N112956   3.818   4.322  16.282  0.3924 -0.3356  0.2322
  883MPD2    H712957   3.881   4.296  16.207 -2.5337 -0.2877 -2.2685
  884MPD2     C12958   1.096   4.519  15.576 -0.6217 -0.2139 -0.2703
  884MPD2    C112959   1.089   4.568  15.446 -0.0459 -0.1159  0.2289
  884MPD2    C212960   0.963   4.598  15.396 -0.5217 -0.0258  0.4759
  884MPD2    C312961   0.848   4.559  15.464  0.2022 -0.1082  1.2260
  884MPD2    C412962   0.857   4.490  15.581 -0.1943  0.6892  0.6412
  884MPD2    C512963   0.981   4.486  15.643 -0.5795  1.3213  0.3854
  884MPD2     H12964   0.957   4.647  15.300  0.4120  1.7361  1.3207
  884MPD2    H112965   0.779   4.459  15.649 -0.2845  0.3504  0.3816
  884MPD2    H212966   1.192   4.514  15.628 -0.2743  0.6779 -0.8196
  884MPD2    H312967   0.991   4.446  15.743 -3.7899  1.4659  0.7552
  884MPD2     N12968   0.726   4.596  15.408 -0.2311  0.1720  0.3604
  884MPD2    H512969   0.735   4.643  15.318  0.5074  1.9139  1.3349
  884MPD2    N112970   1.201   4.586  15.373 -0.2296  0.1285 -0.6216
  884MPD2    H712971   1.189   4.636  15.285 -0.5187 -1.6028 -1.5592
  885MPD2     C12972   4.179   4.631   0.461 -0.0545  0.8222  0.3408
  885MPD2    C112973   4.314   4.610   0.413  0.8396  0.0278  0.0971
  885MPD2    C212974   4.332   4.621   0.277  0.1670  0.7560  0.3093
  885MPD2    C312975   4.229   4.655   0.189  0.4489  0.9757 -0.0672
  885MPD2    C412976   4.101   4.687   0.248  0.1256 -0.7994  0.1086
  885MPD2    C512977   4.084   4.682   0.381 -0.4675 -0.3006 -0.4825
  885MPD2     H12978   4.428   4.586   0.241  0.6890  1.0361  1.4347
  885MPD2    H112979   4.012   0.005   0.199  1.1579  1.2522 -0.1286
  885MPD2    H212980   4.152   4.631   0.566 -1.2398 -0.2275  0.0390
  885MPD2    H312981   3.987   4.720   0.413 -1.1746  0.1164 -3.1103
  885MPD2     N12982   4.247   4.659   0.050  0.2158  0.1657  0.4061
  885MPD2    H512983   4.341   4.666   0.011  0.1658 -0.6731  0.1440
  885MPD2    N112984   4.401   4.564   0.509 -0.1361 -0.7330 -0.4702
  885MPD2    H712985   4.369   4.549   0.604  1.1541  0.6438  0.1830
  886MPD2     C12986   0.284   3.099  15.120 -1.0067  0.9507  0.6328
  886MPD2    C112987   0.394   3.122  15.196  0.4101 -0.3826  0.2807
  886MPD2    C212988   0.478   3.218  15.149  0.0492  0.5907  0.2321
  886MPD2    C312989   0.459   3.289  15.026 -0.3876  0.7143 -0.2901
  886MPD2    C412990   0.342   3.261  14.963 -0.1055  0.2678 -0.1194
  886MPD2    C512991   0.257   3.170  15.011  0.0007 -0.7751  0.0019
  886MPD2     H12992   0.563   3.247  15.210 -0.2134 -1.7806  1.6915
  886MPD2    H112993   0.330   3.299  14.862  1.0377 -0.1679 -0.4169
  886MPD2    H212994   0.212   3.021  15.144 -0.7915  0.6434  0.2827
  886MPD2    H312995   0.170   3.142  14.953  1.5549  0.5877 -3.0312
  886MPD2     N12996   0.546   3.385  14.965 -0.1180 -0.0583  1.0451
  886MPD2    H512997   0.520   3.444  14.886 -0.5725 -2.1328 -0.3682
  886MPD2    N112998   0.419   3.063  15.323  1.4737 -0.4455 -0.4513
  886MPD2    H712999   0.501   3.089  15.377 -0.6168  0.1852  2.4284
  887MPD2     C13000   0.999   3.020  15.697  0.7453 -0.0318 -0.2243
  887MPD2    C113001   0.888   3.096  15.664 -0.0489 -0.1187 -0.1555
  887MPD2    C213002   0.901   3.236  15.647  0.5959 -0.2318  0.5073
  887MPD2    C313003   1.013   3.295  15.698  0.0734  0.6726 -0.0693
  887MPD2    C413004   1.126   3.218  15.740 -0.1321 -0.3601 -0.2709
  887MPD2    C513005   1.117   3.081  15.723 -0.1520 -0.0234  0.4831
  887MPD2     H13006   0.817   3.290  15.605 -0.2828 -0.9558  1.3281
  887MPD2    H113007   1.213   3.269  15.779 -1.3865  0.8185  0.9742
  887MPD2    H213008   1.002   2.912  15.695 -0.1598 -0.0729  0.6519
  887MPD2    H313009   1.205   3.027  15.754  0.1269  0.8361  1.2021
  887MPD2     N13010   1.009   3.437  15.704 -0.0590 -0.1624  0.5032
  887MPD2    H513011   0.923   3.483  15.675  0.4345  0.2400 -0.3098
  887MPD2    N113012   0.762   3.028  15.639 -0.5385 -0.8659 -0.5909
  887MPD2    H713013   0.691   3.074  15.582  0.1061  3.0957  1.7599
  888MPD2     C13014   3.329   3.644  15.711  0.1156 -0.8045 -0.2234
  888MPD2    C113015   3.198   3.689  15.704 -0.9225 -0.2328 -1.0411
  888MPD2    C213016   3.164   3.798  15.633 -0.6458 -0.1327 -0.1801
  888MPD2    C313017   3.266   3.868  15.569 -0.7635  0.0473 -0.3530
  888MPD2    C413018   3.395   3.819  15.574  0.1379 -0.0088 -0.8210
  888MPD2    C513019   3.423   3.706  15.640  0.8978  0.3184  0.7154
  888MPD2     H13020   3.061   3.828  15.621 -0.6608 -0.4990 -0.9868
  888MPD2    H113021   3.481   3.865  15.526  2.3814 -2.3453  0.9374
  888MPD2    H213022   3.354   3.550  15.759  1.5724  0.5752  1.7251
  888MPD2    H313023   3.526   3.673  15.628  0.4854 -0.4298 -0.7457
  888MPD2     N13024   3.241   3.996  15.519 -0.4141 -0.6686 -0.2741
  888MPD2    H513025   3.151   4.036  15.546 -0.9943 -0.6730 -2.2104
  888MPD2    N113026   3.100   3.614  15.766 -1.3162 -0.0754 -0.3298
  888MPD2    H713027   3.004   3.631  15.738  0.0055  1.4271 -3.9244
  889MPD2     C13028   2.356   2.880  12.937 -0.4425 -0.4839  0.2405
  889MPD2    C113029   2.432   2.888  13.051 -0.3937 -0.4082  0.3038
  889MPD2    C213030   2.469   3.005  13.100  0.1872 -0.0992 -0.1209
  889MPD2    C313031   2.403   3.118  13.062  0.6919  0.0838  0.1110
  889MPD2    C413032   2.315   3.107  12.952  0.3671 -0.5036  0.5422
  889MPD2    C513033   2.304   2.993  12.880  0.3508 -1.1621 -0.0573
  889MPD2     H13034   2.534   3.000  13.187 -0.8171  2.1263  0.7599
  889MPD2    H113035   2.259   3.194  12.918  0.3103 -0.9513 -0.5089
  889MPD2    H213036   2.365   2.795  12.870  0.5449 -0.3542  0.2017
  889MPD2    H313037   2.248   2.989  12.787  0.4362  0.3864 -0.1817
  889MPD2     N13038   2.426   3.237  13.137 -0.0177  0.6727  0.0861
  889MPD2    H513039   2.510   3.237  13.195 -0.0165  1.2317  0.0829
  889MPD2    N113040   2.500   2.773  13.101 -0.3708 -0.0921 -0.2225
  889MPD2    H713041   2.576   2.783  13.168 -0.6149 -0.0147  0.0422
  890MPD2     C13042   2.065   4.598  14.707 -0.2407 -0.9175  0.1034
  890MPD2    C113043   2.051   4.656  14.833  0.1949 -0.3538 -0.0901
  890MPD2    C213044   2.015   4.576  14.937 -0.2319 -0.0845  0.9051
  890MPD2    C313045   1.993   4.438  14.926 -0.1575  0.6016  0.4268
  890MPD2    C413046   2.015   4.387  14.803 -0.1600  0.1420  0.9352
  890MPD2    C513047   2.048   4.464  14.695 -0.3069  0.5335  0.5090
  890MPD2     H13048   2.009   4.613  15.039 -1.7810  2.2999 -0.0650
  890MPD2    H113049   1.985   4.285  14.782  4.2392 -1.2525  1.4018
  890MPD2    H213050   2.067   4.670  14.626  0.3770 -1.7907 -0.6563
  890MPD2    H313051   2.048   4.417  14.598  1.4431  2.0931 -0.2386
  890MPD2     N13052   1.950   4.370  15.047  0.1211 -0.1449 -0.7467
  890MPD2    H513053   1.949   4.428  15.130  0.0949 -0.4936 -0.5063
  890MPD2    N113054   2.083   0.070  14.834  0.4915 -0.2572 -0.0330
  890MPD2    H713055   2.111   0.105  14.743  1.9111 -0.9631  0.1307
  891MPD2     C13056   4.464   3.802  16.523  0.8858 -0.5193 -0.7103
  891MPD2    C113057   4.371   3.816  16.622 -0.0748 -0.3183 -0.5287
  891MPD2    C213058   4.379   3.744  16.738 -0.3144  0.0231 -0.0559
  891MPD2    C313059   4.496   3.673  16.760  0.1258 -0.6483  0.7970
  891MPD2    C413060   4.597   3.669  16.660  0.1133 -0.6598 -0.3366
  891MPD2    C513061   4.579   3.730  16.535  0.0666 -0.4870 -0.6861
  891MPD2     H13062   4.308   3.754  16.820 -0.9697  0.9273 -0.7428
  891MPD2    H113063   4.696   3.625  16.673  1.3566  3.1720  3.2311
  891MPD2    H213064   4.451   3.864  16.435  0.3284  0.0463 -0.2237
  891MPD2    H313065   4.654   3.726  16.457  1.0828  0.2459  0.2454
  891MPD2     N13066   4.514   3.622  16.895  0.2218  0.1778 -0.6540
  891MPD2    H513067   4.437   3.633  16.959 -0.1311  3.2325 -1.6119
  891MPD2    N113068   4.262   3.898  16.587  0.0573  0.0922  0.0261
  891MPD2    H713069   4.270   3.934  16.492  1.4300  0.1383  0.1554
  892MPD2     C13070   1.122   3.882  14.994 -0.3696  0.9908 -0.3062
  892MPD2    C113071   1.060   3.975  14.914 -0.0685 -0.0891  0.0012
  892MPD2    C213072   1.137   4.032  14.813  0.6588 -0.2815  0.2900
  892MPD2    C313073   1.265   3.986  14.785  0.3851  0.1155  0.3923
  892MPD2    C413074   1.327   3.895  14.874  0.4594 -0.3342 -0.7075
  892MPD2    C513075   1.254   3.845  14.980 -0.0998 -0.4804  0.0344
  892MPD2     H13076   1.094   4.112  14.753  0.3225 -0.6578  0.0370
  892MPD2    H113077   1.428   3.861  14.857  1.5563  2.6154 -0.1334
  892MPD2    H213078   1.061   3.831  15.069  0.0717 -0.4595 -0.9487
  892MPD2    H313079   1.301   3.778  15.052 -1.1018 -1.4415 -0.1986
  892MPD2     N13080   1.347   4.053  14.687 -0.3664 -0.3902  0.0590
  892MPD2    H513081   1.306   4.109  14.613  0.8209  0.5823  0.1306
  892MPD2    N113082   0.930   4.026  14.937  0.3157 -0.2837  0.1845
  892MPD2    H713083   0.904   4.107  14.881  2.4523  0.8951  0.9474
  893MPD2     C13084   3.880   3.242   0.939  0.0047  0.9348  0.1958
  893MPD2    C113085   3.888   3.138   1.028 -0.0818  0.0100 -0.2708
  893MPD2    C213086   3.786   3.118   1.127 -0.4839  0.0250  0.5825
  893MPD2    C313087   3.677   3.205   1.131 -0.4741 -0.5563 -0.0085
  893MPD2    C413088   3.671   3.311   1.044  0.5771 -0.2747  0.3075
  893MPD2    C513089   3.771   3.329   0.952  0.1253 -0.6856  0.1692
  893MPD2     H13090   3.796   3.037   1.198 -1.8842  0.3679  1.1642
  893MPD2    H113091   3.594   3.386   1.052  0.5861 -0.3814  1.3805
  893MPD2    H213092   3.963   3.251   0.870  0.8821  0.9017  1.2444
  893MPD2    H313093   3.761   3.414   0.885  0.1555  0.0453  1.0887
  893MPD2     N13094   3.577   3.182   1.226  0.7661 -0.1670 -0.6263
  893MPD2    H513095   3.490   3.232   1.213  0.0168 -1.3275 -0.1181
  893MPD2    N113096   4.007   3.069   1.029  0.1920 -0.2113  0.4682
  893MPD2    H713097   4.072   3.106   0.959  0.7267 -0.2086  0.9687
  894MPD2     C13098   0.980   0.691   1.295 -0.0448 -0.1432  0.7820
  894MPD2    C113099   1.082   0.684   1.387 -0.0736  0.2253  0.9077
  894MPD2    C213100   1.180   0.784   1.387  0.2349  0.1777  0.6215
  894MPD2    C313101   1.178   0.887   1.292  0.0949 -0.5133 -1.0283
  894MPD2    C413102   1.069   0.897   1.207  0.5975  0.9513 -0.1642
  894MPD2    C513103   0.976   0.794   1.200  0.1344  0.1894  0.2280
  894MPD2     H13104   1.272   0.772   1.441  1.5192 -0.6395 -1.7290
  894MPD2    H113105   1.050   0.980   1.140  0.9151  1.4260  0.3360
  894MPD2    H213106   0.904   0.614   1.288  0.7428 -0.9964  1.7244
  894MPD2    H313107   0.889   0.811   1.138 -0.4783 -1.3020  0.6606
  894MPD2     N13108   1.279   0.976   1.305 -0.1089 -0.6810 -0.2121
  894MPD2    H513109   1.357   0.938   1.358  1.3454  1.0000 -1.1091
  894MPD2    N113110   1.092   0.581   1.484 -0.3121  0.0800 -0.3832
  894MPD2    H713111   1.179   0.576   1.536  0.9252  2.8475 -2.1536
  895MPD2     C13112   1.074   4.126  13.654  0.0039  0.0750  0.3967
  895MPD2    C113113   1.018   4.106  13.535  0.0999 -0.0325 -0.0110
  895MPD2    C213114   0.979   3.978  13.503  0.4946  0.5785 -1.5069
  895MPD2    C313115   0.969   3.880  13.602 -0.3368 -0.7991 -0.6902
  895MPD2    C413116   1.018   3.908  13.729 -0.3534  1.1004 -0.1964
  895MPD2    C513117   1.073   4.032  13.752  0.3613 -0.1431 -0.3330
  895MPD2     H13118   0.927   3.963  13.409  2.0678  1.1269 -2.4596
  895MPD2    H113119   1.003   3.844  13.816 -1.4978  1.1877 -0.3304
  895MPD2    H213120   1.125   4.219  13.680 -1.5981  0.5024  2.0561
  895MPD2    H313121   1.089   4.055  13.857  0.4393  0.4519 -0.4793
  895MPD2     N13122   0.891   3.761  13.571 -0.2424 -0.2611 -0.7119
  895MPD2    H513123   0.856   3.749  13.477 -0.6743 -1.2863 -0.4210
  895MPD2    N113124   0.997   4.203  13.435  0.5956  0.0934  0.0585
  895MPD2    H713125   0.947   4.187  13.348  0.2529  2.3749 -0.1733
  896MPD2     C13126   2.830   0.762   2.051  0.0194 -0.1753 -1.1403
  896MPD2    C113127   2.805   0.887   2.002 -0.0396  0.9211 -0.0790
  896MPD2    C213128   2.684   0.903   1.940 -0.2788  0.1810 -0.1637
  896MPD2    C313129   2.587   0.800   1.944  0.0684 -0.3128  0.2739
  896MPD2    C413130   2.612   0.682   2.008 -0.1787  0.0599 -0.0149
  896MPD2    C513131   2.735   0.666   2.062  0.1073  0.0330 -0.1097
  896MPD2     H13132   2.665   0.989   1.877 -2.5390  0.4186  0.8249
  896MPD2    H113133   2.544   0.598   2.013 -2.4751  1.7900 -1.9511
  896MPD2    H213134   2.924   0.742   2.100 -1.8300  1.7257  3.1962
  896MPD2    H313135   2.747   0.571   2.113 -0.8535 -1.3593 -2.4892
  896MPD2     N13136   2.463   0.824   1.881 -0.5690 -0.1556  0.4561
  896MPD2    H513137   2.435   0.920   1.863  0.3956  0.0616  0.1197
  896MPD2    N113138   2.911   0.981   2.003  0.2002  0.2702  0.3332
  896MPD2    H713139   2.994   0.953   2.054  0.4003  0.1547 -0.0567
  897MPD2     C13140   3.877   2.721  10.401 -0.0113  1.0951 -0.2412
  897MPD2    C113141   3.925   2.830  10.472  0.2417  0.5325 -0.6123
  897MPD2    C213142   3.851   2.949  10.476 -1.2580  0.4398  0.0576
  897MPD2    C313143   3.722   2.953  10.431 -0.0874  0.3755  0.5037
  897MPD2    C413144   3.671   2.850  10.355  0.5846 -0.3800 -0.0874
  897MPD2    C513145   3.752   2.741  10.342 -0.4224  0.8021 -0.0407
  897MPD2     H13146   3.895   3.035  10.524  0.2709 -0.8034  0.8786
  897MPD2    H113147   3.567   2.857  10.326  0.7335 -0.3223 -0.6045
  897MPD2    H213148   3.922   2.626  10.375 -1.7903  0.7192 -1.9267
  897MPD2    H313149   3.701   2.652  10.309 -0.1954  0.8372 -0.4872
  897MPD2     N13150   3.653   3.062  10.477  0.2146 -0.5809  0.3873
  897MPD2    H513151   3.710   3.131  10.526 -1.7387  0.3533  1.3710
  897MPD2    N113152   4.042   2.805  10.538  0.5075  0.5046 -0.6478
  897MPD2    H713153   4.080   2.712  10.524 -0.7670  0.2184 -2.2982
  898MPD2     C13154   0.275   3.302   0.532 -0.7343  0.3045  0.4055
  898MPD2    C113155   0.380   3.338   0.448 -0.1997 -0.0652  0.2495
  898MPD2    C213156   0.359   3.410   0.332  0.3580  0.7858  0.1905
  898MPD2    C313157   0.233   3.446   0.300 -0.6334  0.5611  0.4502
  898MPD2    C413158   0.129   3.408   0.382  0.2716 -0.4912 -0.1877
  898MPD2    C513159   0.152   3.343   0.496  0.5489  0.0926 -0.4685
  898MPD2     H13160   0.441   3.434   0.266 -0.6528  0.8377 -1.0565
  898MPD2    H113161   0.029   3.450   0.370  1.1462  2.6433  3.3348
  898MPD2    H213162   0.293   3.238   0.618  1.4852 -0.1504 -0.3820
  898MPD2    H313163   0.071   3.314   0.561  3.7103 -0.5850  3.2139
  898MPD2     N13164   0.216   3.518   0.180  0.5946  0.0104  0.7446
  898MPD2    H513165   0.286   3.524   0.107  0.0893  0.4163  0.2885
  898MPD2    N113166   0.518   3.316   0.483 -0.3366 -0.1011  0.1622
  898MPD2    H713167   0.591   3.342   0.417  0.2000 -0.0880  0.7567
  899MPD2     C13168   1.776   4.487  17.352 -0.4647  0.5412  0.6746
  899MPD2    C113169   1.813   4.588  17.437  0.3245  0.2738  0.1926
  899MPD2    C213170   1.774   4.590  17.568  0.9292  0.8242  0.0677
  899MPD2    C313171   1.687   4.495  17.613 -0.3042  0.2454  0.5443
  899MPD2    C413172   1.655   4.383  17.538 -0.0418  0.0353  0.7383
  899MPD2    C513173   1.698   4.388  17.406  0.4144 -0.1664  0.9629
  899MPD2     H13174   1.801   4.669  17.637  1.7036  1.4733 -0.9819
  899MPD2    H113175   1.583   4.307  17.564 -2.2565  2.2215  1.0042
  899MPD2    H213176   1.810   4.495  17.249  0.5178  1.1490  1.0398
  899MPD2    H313177   1.665   4.311  17.336 -0.5864  1.7981 -0.7522
  899MPD2     N13178   1.615   4.499   0.052  0.1296  0.0213 -0.6675
  899MPD2    H513179   1.541   4.432   0.070  0.8112 -0.3428  0.7866
  899MPD2    N113180   1.877   4.704  17.369  0.9556 -0.1497 -0.1813
  899MPD2    H713181   1.871   4.702  17.267  2.4766 -0.4702 -0.2652
  900MPD2     C13182   1.549   1.289  12.919 -0.0014 -0.0335 -0.3988
  900MPD2    C113183   1.603   1.277  12.793 -0.0243 -0.0451  0.8017
  900MPD2    C213184   1.525   1.312  12.681 -0.2139 -0.7900 -0.7535
  900MPD2    C313185   1.415   1.393  12.702 -0.0671  0.1135 -0.2769
  900MPD2    C413186   1.366   1.413  12.831  0.1056 -0.0079  0.2563
  900MPD2    C513187   1.439   1.369  12.935  0.7931  0.2307 -0.3189
  900MPD2     H13188   1.559   1.282  12.582 -1.4206 -3.5632 -0.2964
  900MPD2    H113189   1.285   1.481  12.854 -0.2787 -0.8450  1.3540
  900MPD2    H213190   1.601   1.254  13.008 -0.9307  0.0811  0.1879
  900MPD2    H313191   1.412   1.396  13.036  0.5173  0.6646 -0.5118
  900MPD2     N13192   1.341   1.415  12.585 -0.3622  0.1962  0.1285
  900MPD2    H513193   1.368   1.368  12.499 -1.5329  1.2924 -0.8311
  900MPD2    N113194   1.723   1.206  12.781  0.0956  0.5005 -0.5108
  900MPD2    H713195   1.780   1.192  12.864 -1.1532 -0.1729  0.2516
  901MPD2     C13196   1.794   0.283  13.091  0.7731 -0.1844 -0.2798
  901MPD2    C113197   1.874   0.289  12.976  0.3021 -0.4535 -0.5964
  901MPD2    C213198   1.906   0.414  12.918  0.5166 -0.6145 -0.5945
  901MPD2    C313199   1.865   0.529  12.986  0.0550  0.8999 -0.4184
  901MPD2    C413200   1.792   0.522  13.105 -0.4766  0.1687  0.5294
  901MPD2    C513201   1.761   0.401  13.151  0.3570 -0.2910 -1.2209
  901MPD2     H13202   1.951   0.417  12.820  1.1154  0.0114 -0.2993
  901MPD2    H113203   1.753   0.611  13.152 -1.2868  0.2238 -0.2674
  901MPD2    H213204   1.777   0.184  13.131  4.3841 -0.4257  0.7163
  901MPD2    H313205   1.706   0.380  13.242 -1.0636  2.2058 -1.5176
  901MPD2     N13206   1.907   0.640  12.912  0.3850 -0.9429 -0.3422
  901MPD2    H513207   1.974   0.631  12.836  0.4512 -0.4393 -0.3444
  901MPD2    N113208   1.907   0.165  12.911  0.8459 -0.2926  0.2839
  901MPD2    H713209   1.871   0.080  12.954 -0.2059 -0.5459 -1.0932
  902MPD2     C13210   0.965   3.978  12.605 -1.3501 -0.1944  0.2276
  902MPD2    C113211   0.872   3.933  12.510 -0.0414 -0.6741 -0.5686
  902MPD2    C213212   0.918   3.903  12.386 -0.5405  0.2464 -0.0485
  902MPD2    C313213   1.049   3.909  12.348  0.3265 -0.2377  0.2604
  902MPD2    C413214   1.145   3.949  12.448 -0.1050 -0.4271  0.2860
  902MPD2    C513215   1.099   3.986  12.573  0.0010  0.5334  0.5855
  902MPD2     H13216   0.850   3.874  12.307 -0.4085  0.6352 -0.3063
  902MPD2    H113217   1.252   3.951  12.428 -0.2915  1.0974 -0.5867
  902MPD2    H213218   0.947   4.012  12.706  0.1584  1.1811  0.0292
  902MPD2    H313219   1.171   4.010  12.650  0.8573 -1.6181  0.4340
  902MPD2     N13220   1.096   3.877  12.218  0.4698 -0.3855  0.0263
  902MPD2    H513221   1.193   3.891  12.192  0.3178  0.3921 -0.1093
  902MPD2    N113222   0.739   3.926  12.541 -0.0952 -0.4771 -0.5926
  902MPD2    H713223   0.706   3.976  12.624 -1.3538 -1.0159 -0.7713
  903MPD2     C13224   0.649   3.970  11.463  0.3913 -0.6501  0.2492
  903MPD2    C113225   0.656   3.966  11.601  1.0586  0.2907 -0.2566
  903MPD2    C213226   0.557   3.911  11.679  0.2025 -0.3037 -0.0364
  903MPD2    C313227   0.441   3.852  11.619 -0.4380 -0.0171 -0.8375
  903MPD2    C413228   0.431   3.867  11.478 -0.2805 -0.0403  0.0758
  903MPD2    C513229   0.534   3.927  11.415  0.0468  0.1517  0.4735
  903MPD2     H13230   0.571   3.910  11.786  0.7770  0.5874 -0.1049
  903MPD2    H113231   0.341   3.848  11.420  0.2257  1.0210 -1.0588
  903MPD2    H213232   0.730   3.993  11.396  0.8219  1.3237  1.4458
  903MPD2    H313233   0.525   3.934  11.307 -1.9482  0.1970  0.6581
  903MPD2     N13234   0.344   3.813  11.708  0.1003 -0.5226  0.2541
  903MPD2    H513235   0.360   3.827  11.807  1.1410 -2.5572  0.3834
  903MPD2    N113236   0.789   3.980  11.655 -0.0397  0.8175 -0.0068
  903MPD2    H713237   0.863   3.986  11.586 -0.1845 -0.2093 -0.2499
  904MPD2     C13238   0.064   3.130  13.840  0.3310  0.6699  0.2125
  904MPD2    C113239   0.145   3.247  13.839  0.3290  0.1186  0.2428
  904MPD2    C213240   0.270   3.244  13.907  0.5900  0.0860  0.8399
  904MPD2    C313241   0.309   3.138  13.983  0.3715 -0.3404 -0.1637
  904MPD2    C413242   0.222   3.030  13.994 -0.7112  0.0959 -0.1773
  904MPD2    C513243   0.112   3.024  13.915  0.1404 -0.0519  0.2509
  904MPD2     H13244   0.332   3.333  13.905  0.3495  0.2587  1.4299
  904MPD2    H113245   0.244   2.950  14.064  0.7296 -1.4126 -2.3664
  904MPD2    H213246   4.688   3.125  13.795  0.2094 -0.2686  0.5917
  904MPD2    H313247   0.051   2.937  13.938  0.3115 -0.8708 -2.3449
  904MPD2     N13248   0.434   3.143  14.053 -0.0671  0.1327 -0.0643
  904MPD2    H513249   0.495   3.218  14.021  0.9074 -1.3508 -1.6622
  904MPD2    N113250   0.104   3.371  13.779 -0.4736  0.1866  0.1640
  904MPD2    H713251   0.171   3.447  13.785  0.3223 -0.4084 -1.1657
  905MPD2     C13252   0.105   3.344  13.124  0.0578  0.2542  0.1862
  905MPD2    C113253   0.128   3.446  13.212  0.3051  0.0132 -0.0003
  905MPD2    C213254   0.251   3.469  13.257  0.0793  0.0129  0.2405
  905MPD2    C313255   0.360   3.399  13.202 -0.4558  0.2112 -0.2469
  905MPD2    C413256   0.341   3.318  13.094 -0.0747 -0.1767 -0.5199
  905MPD2    C513257   0.213   3.282  13.068 -0.4345 -0.0867  0.2491
  905MPD2     H13258   0.270   3.546  13.331  2.9362 -0.2950 -0.1885
  905MPD2    H113259   0.423   3.266  13.045 -0.8554 -2.1793  0.3366
  905MPD2    H213260   0.008   3.311  13.089  0.7430 -0.5065 -0.9957
  905MPD2    H313261   0.178   3.206  12.998 -0.5340  0.1499  0.0407
  905MPD2     N13262   0.497   3.414  13.253  0.0685  0.0361  0.5035
  905MPD2    H513263   0.573   3.353  13.223 -0.2211 -0.0249 -0.1105
  905MPD2    N113264   0.019   3.511  13.271 -0.5496  0.8638 -0.0693
  905MPD2    H713265   4.651   3.464  13.263  1.1223 -2.5406  1.5533
  906MPD2     C13266   2.313   3.000  11.661 -0.7170  0.1758 -0.6088
  906MPD2    C113267   2.334   2.882  11.598  1.2678 -0.1395  0.0237
  906MPD2    C213268   2.289   2.762  11.655  0.0069 -0.1841 -0.3240
  906MPD2    C313269   2.232   2.768  11.783  0.5449 -0.0222  0.2460
  906MPD2    C413270   2.225   2.885  11.850  0.2069 -0.7006 -0.0717
  906MPD2    C513271   2.253   3.003  11.786 -0.1450 -0.0239 -0.5100
  906MPD2     H13272   2.292   2.664  11.608 -2.1534  0.3927 -1.6454
  906MPD2    H113273   2.178   2.895  11.947  1.7427 -2.8187  0.8882
  906MPD2    H213274   2.330   3.095  11.611  2.2328 -0.3125 -0.5763
  906MPD2    H313275   2.247   3.094  11.845 -0.4480 -1.1018  1.1192
  906MPD2     N13276   2.199   2.647  11.842 -0.2633  0.3255  0.0636
  906MPD2    H513277   2.219   2.566  11.784 -1.9617  2.9234 -4.1583
  906MPD2    N113278   2.401   2.878  11.470 -0.3643 -0.3625 -0.1818
  906MPD2    H713279   2.376   2.792  11.421  1.3578  0.5295 -2.6170
  907MPD2     C13280   1.318   1.468  15.852  0.2398  0.2325  0.1274
  907MPD2    C113281   1.384   1.454  15.732  0.4628 -0.4266  0.0221
  907MPD2    C213282   1.520   1.433  15.750 -0.4254 -0.0155 -0.8524
  907MPD2    C313283   1.581   1.427  15.873 -1.1351  0.6895  0.4842
  907MPD2    C413284   1.505   1.441  15.992 -0.5735  0.3982  0.1629
  907MPD2    C513285   1.372   1.461  15.978 -0.7065  0.6780 -0.4915
  907MPD2     H13286   1.578   1.409  15.662  3.3941 -1.9929  2.2039
  907MPD2    H113287   1.541   1.455  16.093 -2.5527  1.4284  0.7175
  907MPD2    H213288   1.213   1.493  15.855  0.2172 -0.2926  3.5935
  907MPD2    H313289   1.304   1.498  16.055 -1.3179  0.0594 -0.7283
  907MPD2     N13290   1.718   1.394  15.870 -0.2749 -0.2143 -0.0855
  907MPD2    H513291   1.755   1.388  15.776 -2.0309  0.8939 -0.8598
  907MPD2    N113292   1.323   1.446  15.608 -0.5298  0.6393 -0.0972
  907MPD2    H713293   1.380   1.435  15.525  0.5800  0.0048  0.7554
  908MPD2     C13294   4.551   2.236  10.197 -0.2046  0.4512  0.0380
  908MPD2    C113295   4.419   2.278  10.209  0.3181  0.0969  0.5838
  908MPD2    C213296   4.371   2.372  10.303 -0.1183 -0.0243 -0.2433
  908MPD2    C313297   4.465   2.425  10.386 -0.0976  0.0539 -0.3466
  908MPD2    C413298   4.600   2.387  10.371  0.3130  0.1532 -0.1377
  908MPD2    C513299   4.632   2.281  10.295  0.0293  0.2882 -0.6523
  908MPD2     H13300   4.267   2.403  10.308  0.8022  3.0095 -0.0154
  908MPD2    H113301   4.677   2.423  10.438 -1.1684  0.8960  1.1673
  908MPD2    H213302   4.587   2.166  10.123 -0.3834  0.3214  0.0735
  908MPD2    H313303   0.016   2.257  10.295  0.1160  0.6585  1.3007
  908MPD2     N13304   4.416   2.510  10.490  0.3919  0.0344 -0.5368
  908MPD2    H513305   4.315   2.511  10.494  0.3800 -0.4957 -0.6627
  908MPD2    N113306   4.330   2.216  10.117  0.0935 -0.2489  0.2700
  908MPD2    H713307   4.364   2.163  10.038  0.6469  0.4890  0.0053
  909MPD2     C13308   4.323   0.869  11.902  0.2054 -0.1945  0.5061
  909MPD2    C113309   4.226   0.950  11.838  0.0620  0.0511 -0.6160
  909MPD2    C213310   4.149   1.026  11.919  0.4624 -0.2144 -0.6504
  909MPD2    C313311   4.167   1.014  12.058 -0.1557  0.2598  0.2562
  909MPD2    C413312   4.257   0.932  12.119 -0.4332  0.9722  0.0499
  909MPD2    C513313   4.343   0.868  12.039 -0.0399 -0.1078  0.6674
  909MPD2     H13314   4.091   1.105  11.873  0.9564  0.4939 -0.0565
  909MPD2    H113315   4.272   0.929  12.227  1.2622  0.7810 -0.1930
  909MPD2    H213316   4.385   0.801  11.845 -1.2922 -0.3589 -0.9484
  909MPD2    H313317   4.410   0.796  12.085  1.3790  1.4915  1.0889
  909MPD2     N13318   4.095   1.112  12.133  0.0554  0.5750  0.4193
  909MPD2    H513319   4.041   1.179  12.079 -2.5782 -0.7043  1.4967
  909MPD2    N113320   4.209   0.948  11.698 -0.3877  0.2541 -0.3458
  909MPD2    H713321   4.140   1.011  11.658 -0.5671  0.1533 -0.1974
  910MPD2     C13322   0.347   2.420  15.583  0.2071  0.3402  0.2912
  910MPD2    C113323   0.473   2.427  15.532 -0.6421 -0.5078  0.3615
  910MPD2    C213324   0.484   2.512  15.424  0.1742  0.4459  0.5662
  910MPD2    C313325   0.379   2.574  15.359  0.6396 -0.4977 -0.2084
  910MPD2    C413326   0.253   2.551  15.407  0.3005  0.7629  0.1770
  910MPD2    C513327   0.238   2.483  15.523  0.4765  0.3025  0.0115
  910MPD2     H13328   0.584   2.514  15.382  0.5636 -0.9348  1.4386
  910MPD2    H113329   0.157   2.585  15.369  0.9700  2.6390  0.1628
  910MPD2    H213330   0.312   2.356  15.663  0.9399  0.3597  0.6285
  910MPD2    H313331   0.140   2.472  15.569  0.4091 -0.0128 -0.2055
  910MPD2     N13332   0.374   2.656  15.244  0.0495  0.1002 -1.2840
  910MPD2    H513333   0.279   2.680  15.217 -1.1057 -0.4404  2.2762
  910MPD2    N113334   0.580   2.358  15.583 -0.6649  0.2341 -0.2033
  910MPD2    H713335   0.664   2.348  15.528 -0.1104  0.4257  0.6130
  911MPD2     C13336   2.865   2.798  16.642  0.5242  0.3291  0.1608
  911MPD2    C113337   2.850   2.936  16.619 -1.1571  1.1067 -0.1193
  911MPD2    C213338   2.721   2.991  16.614 -0.5999 -0.2463  0.0623
  911MPD2    C313339   2.609   2.907  16.635  0.0114 -0.4649 -0.0598
  911MPD2    C413340   2.629   2.769  16.655 -0.0135  0.1913 -0.3154
  911MPD2    C513341   2.754   2.717  16.657  0.6837 -0.1010 -0.0810
  911MPD2     H13342   2.712   3.099  16.616  4.7492  0.2015  1.2263
  911MPD2    H113343   2.544   2.701  16.650  0.0553  0.2151 -1.7461
  911MPD2    H213344   2.959   2.745  16.632 -1.1210 -2.5890  0.3716
  911MPD2    H313345   2.755   2.608  16.654  0.6500 -0.0564 -1.7688
  911MPD2     N13346   2.477   2.950  16.632 -0.2971 -0.0995 -0.0719
  911MPD2    H513347   2.413   2.878  16.663 -0.7629 -0.2894 -1.4545
  911MPD2    N113348   2.973   3.010  16.606 -0.2153 -0.1469 -0.0267
  911MPD2    H713349   3.057   2.953  16.610  1.0575  1.5970 -2.1347
  912MPD2     C13350   2.245   2.562  16.167  1.0595  0.5971  0.0699
  912MPD2    C113351   2.203   2.598  16.290 -0.1408 -1.4596  0.2202
  912MPD2    C213352   2.179   2.499  16.385 -0.1956  0.0073  0.1440
  912MPD2    C313353   2.218   2.372  16.363 -0.1086 -0.5416 -0.5202
  912MPD2    C413354   2.253   2.337  16.236  0.4426  1.2187  0.4848
  912MPD2    C513355   2.265   2.430  16.139  0.5806 -0.2621  0.2958
  912MPD2     H13356   2.162   2.532  16.487 -2.6538 -0.5513 -0.0844
  912MPD2    H113357   2.291   2.237  16.215  0.7297  1.9715 -2.5440
  912MPD2    H213358   2.263   2.634  16.089  0.4823 -0.3961 -0.9782
  912MPD2    H313359   2.303   2.408  16.040  0.8151 -0.0586  0.3409
  912MPD2     N13360   2.215   2.281  16.472 -0.1409 -0.4672  0.2597
  912MPD2    H513361   2.168   2.320  16.553 -1.4329 -1.6956  0.1121
  912MPD2    N113362   2.183   2.731  16.309  0.3260  0.3360 -0.2864
  912MPD2    H713363   2.205   2.793  16.232 -0.2605  0.7674 -0.1101
  913MPD2     C13364   4.365   3.848  10.901  0.2916 -0.3379  0.8171
  913MPD2    C113365   4.299   3.950  10.966  0.0124 -0.0497  0.2503
  913MPD2    C213366   4.240   4.048  10.895  0.3215  0.4785  0.5035
  913MPD2    C313367   4.242   4.034  10.752  0.0675 -0.3569  0.7104
  913MPD2    C413368   4.314   3.941  10.686  0.2565 -0.2913 -0.4367
  913MPD2    C513369   4.381   3.845  10.760  0.3247 -0.4469  0.2741
  913MPD2     H13370   4.173   4.118  10.943 -0.6536  0.5873 -1.0033
  913MPD2    H113371   4.320   3.935  10.578 -2.5834  0.0404 -0.6067
  913MPD2    H213372   4.411   3.765  10.954 -0.0983 -0.9560  0.1918
  913MPD2    H313373   4.433   3.759  10.720  0.6512 -0.0021 -0.2627
  913MPD2     N13374   4.165   4.127  10.671 -0.8397 -0.2755  0.1048
  913MPD2    H513375   4.166   4.105  10.572 -3.0639 -0.5580  0.1309
  913MPD2    N113376   4.278   3.940  11.105  0.4275 -0.1720 -0.1791
  913MPD2    H713377   4.338   3.870  11.148  2.0774  0.9566 -0.6504
  914MPD2     C13378   1.551   0.157  12.097  0.1901 -0.4915 -0.1627
  914MPD2    C113379   1.598   0.248  12.184  0.1719  0.0853 -0.3701
  914MPD2    C213380   1.679   0.210  12.285 -0.2328  0.5130 -0.3540
  914MPD2    C313381   1.708   0.076  12.303 -0.1495 -0.6371  0.1824
  914MPD2    C413382   1.638   4.705  12.224  0.4326  0.3722  0.0048
  914MPD2    C513383   1.565   0.021  12.118 -0.2122 -0.7513  0.3535
  914MPD2     H13384   1.707   0.276  12.365 -0.4648  0.9148 -0.6056
  914MPD2    H113385   1.664   4.599  12.223 -1.7670 -0.1827  0.9840
  914MPD2    H213386   1.487   0.188  12.016  1.0513  2.1639  0.1891
  914MPD2    H313387   1.515   4.668  12.057 -1.0820 -0.6815  0.9655
  914MPD2     N13388   1.790   0.041  12.412  0.6236 -0.5286  0.0217
  914MPD2    H513389   1.835   0.120  12.458  3.2920 -1.6485 -0.6439
  914MPD2    N113390   1.561   0.383  12.156  0.1881  0.4707  0.4045
  914MPD2    H713391   1.520   0.409  12.067 -1.9492  0.8188  1.5053
  915MPD2     C13392   4.057   4.534  15.966 -0.7329 -0.0242  0.1588
  915MPD2    C113393   3.967   4.631  15.924 -0.1337 -0.9120  0.9500
  915MPD2    C213394   3.933   0.016  16.007  0.7803  0.1542  0.6870
  915MPD2    C313395   3.959   0.008  16.143 -0.2196  0.3018 -0.4220
  915MPD2    C413396   4.038   4.626  16.193 -0.3553  0.8938 -0.0953
  915MPD2    C513397   4.088   4.535  16.101 -0.3343 -0.2857  0.6461
  915MPD2     H13398   3.890   0.107  15.966  0.3518 -0.0577  0.6583
  915MPD2    H113399   4.066   4.606  16.295  1.5390  0.0544 -0.7802
  915MPD2    H213400   4.084   4.447  15.907  0.3432 -0.7468  1.7170
  915MPD2    H313401   4.152   4.456  16.138  0.5987 -0.7472 -1.8985
  915MPD2     N13402   3.892   0.096  16.226 -0.1108  0.3738 -0.1418
  915MPD2    H513403   3.839   0.165  16.173 -0.3601 -1.0116 -1.7146
  915MPD2    N113404   3.928   4.633  15.790  0.1302 -0.3099  0.6321
  915MPD2    H713405   3.891   4.720  15.754  2.4533  0.7442  0.7588
  916MPD2     C13406   2.123   2.860  15.934  0.2441 -0.5266 -0.5334
  916MPD2    C113407   2.029   2.759  15.938  0.3975  0.2188 -0.5979
  916MPD2    C213408   2.039   2.652  15.856 -0.6660  0.3586  0.5868
  916MPD2    C313409   2.143   2.642  15.760  0.3804 -1.1971 -0.8342
  916MPD2    C413410   2.235   2.745  15.756 -0.3035 -0.3745 -0.4174
  916MPD2    C513411   2.227   2.852  15.842  0.1935  0.4059 -0.0609
  916MPD2     H13412   1.969   2.570  15.863 -2.4276  1.6702 -1.3861
  916MPD2    H113413   2.328   2.738  15.702 -0.1162 -1.4929  0.0571
  916MPD2    H213414   2.116   2.943  16.003 -0.4925  0.0647 -1.3195
  916MPD2    H313415   2.315   2.915  15.855  0.5220  0.4634 -2.5054
  916MPD2     N13416   2.155   2.529  15.683  0.5384 -0.1464  0.1985
  916MPD2    H513417   2.080   2.462  15.698  0.6693 -0.6156 -1.2435
  916MPD2    N113418   1.927   2.775  16.032  0.3024 -0.4331  0.5545
  916MPD2    H713419   1.919   2.867  16.076  0.7543  0.4188 -1.1491
  917MPD2     C13420   3.009   0.420  10.954  0.6901  0.0707  0.6817
  917MPD2    C113421   3.058   0.499  11.058  0.9452  0.3724  0.8299
  917MPD2    C213422   3.088   0.634  11.040 -0.4949 -0.2744 -0.7446
  917MPD2    C313423   3.064   0.683  10.911  0.5544  0.5538  0.5839
  917MPD2    C413424   3.027   0.606  10.802  0.5481 -0.3369  0.2722
  917MPD2    C513425   3.005   0.473  10.830 -0.0142 -0.3508  0.0492
  917MPD2     H13426   3.124   0.702  11.116 -1.9554 -0.5916  0.2047
  917MPD2    H113427   3.009   0.644  10.702 -1.5434  0.7326  1.0427
  917MPD2    H213428   2.969   0.321  10.972 -0.6584  0.7099  1.1676
  917MPD2    H313429   2.966   0.404  10.756  0.7990  1.0143 -1.6494
  917MPD2     N13430   3.088   0.821  10.899 -0.2996 -0.2012 -0.5161
  917MPD2    H513431   3.139   0.869  10.972 -1.2376 -1.3651  0.9208
  917MPD2    N113432   3.071   0.433  11.184  0.4449  0.1140  0.4163
  917MPD2    H713433   3.040   0.337  11.195  0.3541  0.3919  2.5049
  918MPD2     C13434   3.243   0.973  11.997 -0.0087 -0.2064 -0.2443
  918MPD2    C113435   3.341   0.891  11.941  0.0073 -0.5987  0.4858
  918MPD2    C213436   3.304   0.787  11.861 -0.7787  0.2411  0.3614
  918MPD2    C313437   3.170   0.759  11.831  0.3977 -0.8451  0.5329
  918MPD2    C413438   3.075   0.842  11.892  0.0398 -0.4472  0.3492
  918MPD2    C513439   3.112   0.945  11.972 -0.0207 -0.8243 -0.2149
  918MPD2     H13440   3.381   0.726  11.816  0.4871  2.3906 -0.3229
  918MPD2    H113441   2.968   0.822  11.887 -0.0628  0.0116  0.7852
  918MPD2    H213442   3.266   1.053  12.066 -1.7642  0.1603 -0.0891
  918MPD2    H313443   3.034   1.000  12.021 -2.4974 -3.8230 -0.7981
  918MPD2     N13444   3.146   0.644  11.756  0.1893  0.7304 -0.0452
  918MPD2    H513445   3.222   0.608  11.698  0.3752  0.5191  0.3273
  918MPD2    N113446   3.479   0.896  11.976  0.3072 -0.0238 -0.2737
  918MPD2    H713447   3.549   0.848  11.922  0.1394 -0.1931 -0.3411
  919MPD2     C13448   3.639   4.170  11.726 -0.2320 -0.2851 -0.5395
  919MPD2    C113449   3.616   4.045  11.681  0.7515 -0.9865 -0.6159
  919MPD2    C213450   3.654   4.006  11.554  0.3773  0.3112 -0.0341
  919MPD2    C313451   3.726   4.096  11.478 -0.3705 -0.2328  0.0603
  919MPD2    C413452   3.731   4.225  11.514 -0.5098 -0.0137  0.0845
  919MPD2    C513453   3.690   4.261  11.633  0.0482  0.0987 -0.2964
  919MPD2     H13454   3.630   3.911  11.508  2.6173 -0.3062  0.0801
  919MPD2    H113455   3.777   4.303  11.454 -0.2372 -0.1634  0.1004
  919MPD2    H213456   3.606   4.205  11.823  2.1337  0.3574  0.0503
  919MPD2    H313457   3.699   4.366  11.661  2.4840 -0.5967  1.5139
  919MPD2     N13458   3.782   4.070  11.354 -0.1765  0.2392 -0.3618
  919MPD2    H513459   3.795   4.150  11.294 -0.1640 -1.1321 -2.1854
  919MPD2    N113460   3.568   3.943  11.764  0.1175 -0.8282 -0.0486
  919MPD2    H713461   3.567   3.846  11.735 -3.1877 -0.9672  0.5441
  920MPD2     C13462   3.703   4.595  10.710 -0.0396 -0.4965  0.0064
  920MPD2    C113463   3.661   4.467  10.659  0.6936  0.3462  0.0626
  920MPD2    C213464   3.702   4.348  10.721  0.6316  0.1740 -0.0143
  920MPD2    C313465   3.778   4.352  10.833 -0.3503  0.5191  0.3842
  920MPD2    C413466   3.821   4.476  10.878  0.4267  0.4311 -0.2366
  920MPD2    C513467   3.785   4.593  10.820  0.0011 -0.5441  0.1532
  920MPD2     H13468   3.660   4.256  10.681  1.6502  0.1681 -1.0488
  920MPD2    H113469   3.878   4.482  10.970  0.2672  0.5708 -0.1470
  920MPD2    H213470   3.670   4.690  10.669  1.2187  0.0950  0.3719
  920MPD2    H313471   3.817   4.689  10.859  1.8123 -0.5279 -1.3997
  920MPD2     N13472   3.810   4.234  10.912 -0.2923 -0.4336 -0.0769
  920MPD2    H513473   3.837   4.237  11.010  0.7296  0.0919 -0.3761
  920MPD2    N113474   3.571   4.457  10.549  0.3344 -0.1075  0.2836
  920MPD2    H713475   3.539   4.364  10.522  0.6151 -0.8969  2.6077
  921MPD2     C13476   3.472   3.875  16.868 -0.1622  0.0939  0.0373
  921MPD2    C113477   3.520   3.841  16.740  1.0378  0.5225 -0.8353
  921MPD2    C213478   3.466   3.727  16.680 -0.0180 -0.2381 -0.7401
  921MPD2    C313479   3.363   3.653  16.736  0.1514 -0.2661  0.2719
  921MPD2    C413480   3.313   3.698  16.855  0.5930 -0.4211  0.4694
  921MPD2    C513481   3.381   3.793  16.926 -1.3400  0.5692 -0.6236
  921MPD2     H13482   3.493   3.706  16.577  0.3853  2.0678 -1.1003
  921MPD2    H113483   3.224   3.660  16.904  0.1751 -0.6858 -0.4982
  921MPD2    H213484   3.503   3.960  16.928  0.3552 -0.6197  0.7772
  921MPD2    H313485   3.343   3.834  17.018  3.8980  0.6212  1.5233
  921MPD2     N13486   3.293   3.542  16.676  0.2354  0.6701  0.1142
  921MPD2    H513487   3.222   3.492  16.729  0.8863  0.5315  0.8766
  921MPD2    N113488   3.628   3.908  16.673 -0.0361 -0.1226 -0.1893
  921MPD2    H713489   3.672   3.850  16.602  1.5307  0.1676  0.5577
  922MPD2     C13490   0.252   0.715   0.095  0.2252  0.1312 -0.4776
  922MPD2    C113491   0.224   0.804  17.679 -0.5675 -0.5222  0.7021
  922MPD2    C213492   0.089   0.849  17.659  0.1060 -0.6796 -0.5442
  922MPD2    C313493   4.712   0.811   0.059 -0.4906  1.0577 -0.5926
  922MPD2    C413494   0.027   0.727   0.160 -0.5743  0.3123  0.1548
  922MPD2    C513495   0.150   0.677   0.181 -0.4130 -0.0439  0.1884
  922MPD2     H13496   0.052   0.912  17.579  0.2495  0.5672  0.3677
  922MPD2    H113497   4.675   0.680   0.224  0.1007 -1.6902 -0.5409
  922MPD2    H213498   0.347   0.665   0.111 -0.3511 -0.9286 -0.3411
  922MPD2    H313499   0.169   0.608   0.262 -0.6671  1.3564  1.4473
  922MPD2     N13500   4.583   0.864   0.041 -0.1102  0.0004  0.1537
  922MPD2    H513501   4.560   0.931  17.658  0.7506 -1.1645 -1.1960
  922MPD2    N113502   0.320   0.842  17.576 -0.3319  0.8136  0.5408
  922MPD2    H713503   0.282   0.899  17.501 -2.0576 -1.9171 -0.6878
  923MPD2     C13504   2.100   3.218   9.806 -0.1129  0.2136  0.3505
  923MPD2    C113505   1.986   3.285   9.757 -0.1440  0.4337 -0.1763
  923MPD2    C213506   2.007   3.393   9.664  0.6993 -0.0078 -0.4509
  923MPD2    C313507   2.137   3.437   9.636 -0.2826 -0.5207 -0.0844
  923MPD2    C413508   2.245   3.380   9.702  0.4598 -0.3217 -0.8580
  923MPD2    C513509   2.227   3.271   9.784  0.4828  0.8268 -0.0531
  923MPD2     H13510   1.926   3.452   9.622  0.8392  0.4442 -0.0915
  923MPD2    H113511   2.343   3.417   9.678 -0.0864  1.3770 -0.4791
  923MPD2    H213512   2.083   3.129   9.866 -1.6917  1.3990  1.6515
  923MPD2    H313513   2.312   3.221   9.830  1.5360  1.7736 -0.9646
  923MPD2     N13514   2.171   3.542   9.550 -0.0200 -0.0749 -0.0905
  923MPD2    H513515   2.268   3.571   9.551 -0.3049  1.0080 -3.4552
  923MPD2    N113516   1.853   3.258   9.808 -0.1105  0.2047  0.0252
  923MPD2    H713517   1.833   3.165   9.844 -3.1663  0.4501 -1.0952
  924MPD2     C13518   1.423   1.140  15.481  0.5870 -0.2422  0.7622
  924MPD2    C113519   1.429   1.081  15.598 -0.5490 -0.3039 -0.1631
  924MPD2    C213520   1.552   1.062  15.650 -0.0174 -0.1831  0.8311
  924MPD2    C313521   1.668   1.095  15.591 -0.2169  0.0121  0.2373
  924MPD2    C413522   1.665   1.133  15.462 -0.2091 -0.0240 -0.4946
  924MPD2    C513523   1.537   1.164  15.408  0.2341 -0.5262 -0.0798
  924MPD2     H13524   1.543   1.036  15.755  0.0453  2.0786  1.3803
  924MPD2    H113525   1.750   1.152  15.397  0.2175 -1.1455 -0.2643
  924MPD2    H213526   1.330   1.175  15.439  1.9819  0.3251 -1.8804
  924MPD2    H313527   1.535   1.207  15.309 -1.8209  1.2077  0.7116
  924MPD2     N13528   1.800   1.094  15.653 -0.1670  0.5247 -0.3667
  924MPD2    H513529   1.879   1.132  15.601  0.3279  0.6785  0.4927
  924MPD2    N113530   1.318   1.059  15.681  0.3477  0.3256 -0.1774
  924MPD2    H713531   1.328   1.018  15.773  1.2477  0.5944 -0.1595
  925MPD2     C13532   0.204   3.574  15.012 -0.3936 -0.2482 -0.4221
  925MPD2    C113533   0.094   3.647  14.968 -0.4694 -1.1684 -0.1263
  925MPD2    C213534   4.706   3.664  15.052  0.3865 -0.0785 -0.4030
  925MPD2    C313535   4.714   3.615  15.187  0.2226 -0.5660 -0.4992
  925MPD2    C413536   0.105   3.554  15.228 -0.2018  0.1808  0.8927
  925MPD2    C513537   0.215   3.535  15.147  0.4183 -0.4293 -0.2676
  925MPD2     H13538   4.617   3.716  15.020 -1.0006 -0.5479  2.6786
  925MPD2    H113539   0.120   3.512  15.326 -0.4161 -1.3311  0.2692
  925MPD2    H213540   0.283   3.542  14.945 -0.1126  0.5549 -0.4620
  925MPD2    H313541   0.297   3.486  15.197 -0.3532 -0.0360  1.4194
  925MPD2     N13542   4.614   3.629  15.286  0.0576  0.3311 -0.0510
  925MPD2    H513543   4.631   3.587  15.377 -0.4263 -1.2248 -0.6796
  925MPD2    N113544   0.085   3.703  14.838 -0.5170 -0.2068  0.1812
  925MPD2    H713545   4.715   3.731  14.804 -0.5878 -1.0462 -0.3030
  926MPD2     C13546   3.706   2.132  13.118 -0.0492  0.2311 -0.4244
  926MPD2    C113547   3.739   2.269  13.138  0.1524 -0.0559 -0.6359
  926MPD2    C213548   3.803   2.336  13.031  0.6744  0.1686  0.2913
  926MPD2    C313549   3.844   2.268  12.913 -0.2241  0.4696 -0.2018
  926MPD2    C413550   3.821   2.132  12.908  0.2364 -0.1041 -0.2412
  926MPD2    C513551   3.757   2.065  13.008  0.3552  0.0540 -0.7645
  926MPD2     H13552   3.817   2.443  13.043  1.2912  0.1164  0.0735
  926MPD2    H113553   3.851   2.074  12.821 -0.5406  0.8871 -1.1684
  926MPD2    H213554   3.663   2.070  13.196 -0.5189  1.6451  0.4361
  926MPD2    H313555   3.758   1.957  13.003  0.0726  0.0946 -1.5635
  926MPD2     N13556   3.938   2.323  12.813 -0.1792  0.2195 -0.2066
  926MPD2    H513557   3.988   2.261  12.751 -3.5876 -2.1208 -0.6120
  926MPD2    N113558   3.708   2.330  13.265 -0.3930  0.2964  1.3733
  926MPD2    H713559   3.732   2.428  13.266 -0.2682  0.3220 -2.5700
  927MPD2     C13560   2.752   4.546   0.307  0.5056 -0.1003 -0.3786
  927MPD2    C113561   2.829   4.464   0.383 -0.5851 -0.8215  0.3584
  927MPD2    C213562   2.943   4.412   0.331 -0.0899  0.1800  0.8820
  927MPD2    C313563   2.988   4.442   0.201 -0.3911  0.4159  0.4430
  927MPD2    C413564   2.906   4.521   0.124 -0.1946 -0.0613 -0.0951
  927MPD2    C513565   2.788   4.568   0.172  0.6839  0.1443  0.0598
  927MPD2     H13566   3.004   4.355   0.400  2.0818 -1.1894 -2.1753
  927MPD2    H113567   2.932   4.553   0.024  1.5444  0.4591  0.5012
  927MPD2    H213568   2.663   4.581   0.359  0.7595 -0.2047  0.1254
  927MPD2    H313569   2.727   4.632   0.110 -1.3358 -1.2326  0.6499
  927MPD2     N13570   3.115   4.405   0.151  0.0616  0.0305 -0.1538
  927MPD2    H513571   3.164   4.326   0.191 -1.7849 -1.0254  0.0468
  927MPD2    N113572   2.791   4.446   0.520  0.3037  0.3985  0.0643
  927MPD2    H713573   2.702   4.486   0.547 -0.3769  0.1611 -1.8305
  928MPD2     C13574   0.821   3.115   0.961 -0.3844  0.8085  0.0922
  928MPD2    C113575   0.925   3.190   1.001 -0.4061 -0.0079 -0.1527
  928MPD2    C213576   1.041   3.189   0.924 -0.0935  0.2348 -0.5970
  928MPD2    C313577   1.045   3.122   0.805 -0.3580  0.0511  0.5189
  928MPD2    C413578   0.936   3.043   0.762  0.3612 -0.1207 -0.8294
  928MPD2    C513579   0.829   3.036   0.848  0.6012  0.4513 -0.3223
  928MPD2     H13580   1.124   3.253   0.952 -0.4365  0.6623 -0.5498
  928MPD2    H113581   0.921   2.990   0.668  0.7956 -0.3814 -0.7545
  928MPD2    H213582   0.732   3.111   1.022 -0.4746  0.2739 -0.0751
  928MPD2    H313583   0.745   2.976   0.814  0.9227  1.3286 -2.6600
  928MPD2     N13584   1.159   3.147   0.715  0.0474 -0.2870  0.3704
  928MPD2    H513585   1.152   3.096   0.628 -0.7754  1.9708 -0.8716
  928MPD2    N113586   0.917   3.266   1.117 -0.2749  0.0204  0.3525
  928MPD2    H713587   0.827   3.278   1.162  0.0578 -1.2632  1.3816
  929MPD2     C13588   2.020   2.837  10.815 -0.1720  0.3887 -0.8966
  929MPD2    C113589   1.900   2.773  10.833 -0.0133 -0.6336 -0.5488
  929MPD2    C213590   1.800   2.798  10.739  0.2442  0.2646 -0.3445
  929MPD2    C313591   1.826   2.885  10.627  0.1624 -0.2753  0.5643
  929MPD2    C413592   1.951   2.939  10.610 -0.1038  0.1017 -0.9044
  929MPD2    C513593   2.045   2.915  10.704 -0.2020 -0.0198 -0.6565
  929MPD2     H13594   1.702   2.773  10.778  0.1854  1.4320  0.2657
  929MPD2    H113595   1.973   3.004  10.527 -0.0529  1.5962  0.2728
  929MPD2    H213596   2.101   2.814  10.883 -0.5068 -2.2851 -1.3861
  929MPD2    H313597   2.145   2.949  10.679 -0.9575  2.3507 -0.4495
  929MPD2     N13598   1.732   2.924  10.531 -0.4884 -0.4677 -0.2028
  929MPD2    H513599   1.756   3.005  10.474  2.2286 -1.6177 -0.7036
  929MPD2    N113600   1.892   2.676  10.932  0.6462 -0.8046 -0.0129
  929MPD2    H713601   1.968   2.655  10.996  1.2292  1.3020 -0.0344
  930MPD2     C13602   3.556   0.757  14.373  0.4653 -0.3528  0.0195
  930MPD2    C113603   3.502   0.824  14.268  0.0552 -0.4048 -0.1125
  930MPD2    C213604   3.415   0.756  14.186  0.4706 -0.3681 -0.1650
  930MPD2    C313605   3.365   0.634  14.219 -0.6252 -0.8773 -0.9072
  930MPD2    C413606   3.410   0.570  14.331  0.2383 -0.3315  0.6740
  930MPD2    C513607   3.507   0.631  14.412  0.1859 -0.6781 -0.8324
  930MPD2     H13608   3.373   0.818  14.108 -0.1425 -1.3900 -0.6338
  930MPD2    H113609   3.385   0.469  14.362  2.8726 -1.2692 -0.3117
  930MPD2    H213610   3.621   0.805  14.445  1.5945 -0.6978 -0.7600
  930MPD2    H313611   3.555   0.587  14.499 -1.8751  0.2711  0.7994
  930MPD2     N13612   3.271   0.568  14.135 -0.7117 -0.5783  0.6653
  930MPD2    H513613   3.272   0.468  14.151  0.2548 -0.4562  1.3821
  930MPD2    N113614   3.555   0.953  14.236  0.5987  0.2290 -0.2043
  930MPD2    H713615   3.640   0.978  14.286  1.6325 -1.3501 -1.1898
  931MPD2     C13616   3.064   3.967   1.104  0.1978  0.3455 -0.1522
  931MPD2    C113617   2.947   4.034   1.142  0.2742  0.0209 -0.2391
  931MPD2    C213618   2.885   3.991   1.253 -0.3445  0.4606  0.6380
  931MPD2    C313619   2.942   3.892   1.332  0.2263 -0.1127  0.4560
  931MPD2    C413620   3.059   3.823   1.286  0.3649 -0.2207  0.5518
  931MPD2    C513621   3.118   3.868   1.178  0.0492 -0.1948  0.3343
  931MPD2     H13622   2.786   4.031   1.275 -0.2693  0.4248  1.0350
  931MPD2    H113623   3.102   3.736   1.335  0.0335 -1.1371 -0.7694
  931MPD2    H213624   3.113   3.988   1.010  1.2450 -0.4742  0.2064
  931MPD2    H313625   3.201   3.814   1.134  0.6033  1.5291 -0.7126
  931MPD2     N13626   2.890   3.837   1.452  0.5408 -0.1061  0.4971
  931MPD2    H513627   2.927   3.753   1.494 -0.1529 -1.0087 -0.7060
  931MPD2    N113628   2.895   4.137   1.057  0.2357  0.0259  0.5756
  931MPD2    H713629   2.961   4.185   0.996  2.5144 -1.4126  1.9243
  932MPD2     C13630   0.178   4.267  11.169 -0.4427 -0.2207  0.0653
  932MPD2    C113631   0.294   4.234  11.098 -0.2913  0.5346 -0.7441
  932MPD2    C213632   0.326   4.107  11.077  0.3422  0.1874  1.0224
  932MPD2    C313633   0.268   4.001  11.139 -0.6570 -0.4310 -0.1546
  932MPD2    C413634   0.159   4.033  11.223  0.0952  0.1429 -0.2948
  932MPD2    C513635   0.103   4.161  11.224 -0.8791 -0.2951  0.2595
  932MPD2     H13636   0.413   4.092  11.014  2.1273  1.4331  3.1846
  932MPD2    H113637   0.116   3.954  11.282  0.0532  0.9482  0.7411
  932MPD2    H213638   0.145   4.370  11.180  0.2270  0.0318 -0.3436
  932MPD2    H313639   0.013   4.179  11.282  0.0225  0.9973  1.2720
  932MPD2     N13640   0.324   3.866  11.131 -0.6806  0.0622 -0.2838
  932MPD2    H513641   0.278   3.797  11.189 -2.6050  1.2488 -0.4050
  932MPD2    N113642   0.377   4.337  11.047 -0.5208  0.2864  0.0804
  932MPD2    H713643   0.460   4.306  10.997 -1.2764 -1.3276 -0.1735
  933MPD2     C13644   0.364   3.531   1.227 -0.2936 -0.4359 -0.0562
  933MPD2    C113645   0.458   3.615   1.276  0.3074  0.1676  0.1808
  933MPD2    C213646   0.437   3.752   1.275  0.0036  0.2768 -0.4796
  933MPD2    C313647   0.329   3.803   1.212 -0.3826  0.4340  0.2581
  933MPD2    C413648   0.229   3.720   1.169 -0.3002 -0.1411  0.1693
  933MPD2    C513649   0.244   3.583   1.178 -0.1238  0.5381 -0.0023
  933MPD2     H13650   0.504   3.822   1.323  0.3392 -0.4350  0.0922
  933MPD2    H113651   0.139   3.762   1.125 -1.9548 -2.8045  1.0164
  933MPD2    H213652   0.363   3.423   1.238 -0.0251 -0.4379 -0.0553
  933MPD2    H313653   0.164   3.519   1.144 -1.0027  1.7834 -0.2600
  933MPD2     N13654   0.328   3.946   1.194 -0.4108 -0.2723 -0.3598
  933MPD2    H513655   0.417   3.992   1.211 -0.3177 -0.2005 -1.0423
  933MPD2    N113656   0.579   3.561   1.320  0.2262  0.7283 -0.4958
  933MPD2    H713657   0.578   3.460   1.318 -0.2508  0.6988  1.0284
  934MPD2     C13658   2.048   0.505   2.661  0.3361 -0.2033  0.1029
  934MPD2    C113659   2.061   0.385   2.596 -0.3410  0.3695 -0.5060
  934MPD2    C213660   2.049   0.382   2.460  0.4491  0.0151  0.3944
  934MPD2    C313661   2.020   0.494   2.387 -0.2044 -0.5403  0.2538
  934MPD2    C413662   2.019   0.621   2.454  0.3542 -0.1430 -1.0960
  934MPD2    C513663   2.034   0.622   2.588  0.5642 -0.6282 -0.2110
  934MPD2     H13664   2.054   0.288   2.406 -2.3101  0.0032  0.1894
  934MPD2    H113665   1.995   0.710   2.397  0.7262  0.6644  0.0110
  934MPD2    H213666   2.044   0.514   2.769 -1.4568  1.4163 -0.0894
  934MPD2    H313667   2.016   0.719   2.633 -1.8429 -0.6944 -1.0793
  934MPD2     N13668   1.997   0.492   2.244 -0.0573  0.1252 -0.2825
  934MPD2    H513669   1.966   0.583   2.212 -0.1822  0.1106 -0.2020
  934MPD2    N113670   2.096   0.266   2.663  0.1409 -0.3604 -0.0198
  934MPD2    H713671   2.106   0.184   2.605 -0.9861 -0.7355  0.3069
  935MPD2     C13672   2.235   4.446   1.650 -0.1268  0.2196 -0.1408
  935MPD2    C113673   2.198   4.534   1.547 -0.0128  0.5543  0.1112
  935MPD2    C213674   2.156   4.656   1.590 -0.5054 -0.2177 -0.2017
  935MPD2    C313675   2.132   4.683   1.725 -0.1875 -0.4780  0.0184
  935MPD2    C413676   2.157   4.592   1.821 -0.1803 -0.5220 -0.5533
  935MPD2    C513677   2.204   4.470   1.783  0.4083  0.0177  0.0883
  935MPD2     H13678   2.134   0.013   1.518  1.2929  0.7595  0.2992
  935MPD2    H113679   2.162   4.614   1.928 -1.1546  0.2702 -0.6686
  935MPD2    H213680   2.291   4.355   1.634 -0.3037 -0.4890  3.2870
  935MPD2    H313681   2.245   4.399   1.854  1.0783  0.9546  0.6307
  935MPD2     N13682   2.082   0.085   1.776  0.4774 -0.4369  0.1385
  935MPD2    H513683   2.071   0.085   1.877 -1.6400 -0.6828 -0.0948
  935MPD2    N113684   2.191   4.503   1.406 -0.0052 -0.4368 -0.0940
  935MPD2    H713685   2.151   4.577   1.349 -0.3247 -2.0583 -1.9618
  936MPD2     C13686   0.857   2.186  12.159  0.1487  0.0972 -0.3949
  936MPD2    C113687   0.850   2.198  12.296  0.0041 -0.4456 -0.2309
  936MPD2    C213688   0.792   2.309  12.362 -0.0634  0.3698 -0.4369
  936MPD2    C313689   0.749   2.410  12.284  0.6307 -0.4143  0.3310
  936MPD2    C413690   0.785   2.413  12.154  0.5972  0.0207 -0.2697
  936MPD2    C513691   0.822   2.297  12.090  0.2874 -0.2765  0.2844
  936MPD2     H13692   0.768   2.306  12.468  0.7247 -1.3654 -0.3092
  936MPD2    H113693   0.775   2.501  12.092  1.7795  0.5567  0.3015
  936MPD2    H213694   0.909   2.106  12.108  0.4749  2.2008 -3.3720
  936MPD2    H313695   0.844   2.301  11.984 -2.7902  0.2448 -0.3261
  936MPD2     N13696   0.691   2.522  12.344 -0.1479 -0.5341 -0.4622
  936MPD2    H513697   0.705   2.612  12.299  0.3242  0.5288  1.8092
  936MPD2    N113698   0.889   2.083  12.376 -0.3249 -0.3570  0.0608
  936MPD2    H713699   0.867   2.093  12.474 -1.8646 -1.5001 -0.1619
  937MPD2     C13700   3.935   3.401  12.108 -0.0303  0.5140  0.0341
  937MPD2    C113701   3.914   3.504  12.020 -0.1965 -0.3809 -0.0031
  937MPD2    C213702   4.012   3.536  11.928 -0.4793  0.5513  0.1863
  937MPD2    C313703   4.124   3.458  11.921 -0.1213  0.9056  0.2497
  937MPD2    C413704   4.134   3.354  12.001 -0.0253  0.2657 -0.9457
  937MPD2    C513705   4.042   3.318  12.096  0.2917  0.5217 -0.1311
  937MPD2     H13706   4.002   3.621  11.862 -2.1720  1.2733  1.3796
  937MPD2    H113707   4.227   3.298  11.996 -0.1795 -0.0519 -0.1239
  937MPD2    H213708   3.879   3.391  12.201 -0.6176 -1.9946 -0.5930
  937MPD2    H313709   4.064   3.238  12.167 -1.2997  0.4503  0.2959
  937MPD2     N13710   4.222   3.496  11.833 -0.0351 -0.5833  0.0093
  937MPD2    H513711   4.183   3.579  11.790  1.4630  0.5517  0.8399
  937MPD2    N113712   3.811   3.592  12.029 -0.0413  0.1895 -0.6284
  937MPD2    H713713   3.810   3.685  11.989  3.1743  0.4633 -0.0382
  938MPD2     C13714   0.980   0.428   0.798  0.3276 -0.3258 -0.2866
  938MPD2    C113715   1.058   0.448   0.907 -0.1762  0.2480 -0.2581
  938MPD2    C213716   1.044   0.365   1.013  0.0643  0.2205 -0.4566
  938MPD2    C313717   0.949   0.258   1.008  0.6248 -0.1893  0.6539
  938MPD2    C413718   0.876   0.239   0.896  0.7077  0.1265 -0.9733
  938MPD2    C513719   0.882   0.330   0.792 -0.6624 -0.5231 -0.4669
  938MPD2     H13720   1.088   0.384   1.110 -0.4495 -2.0987  0.2505
  938MPD2    H113721   0.799   0.163   0.888  0.8495 -0.3318  2.2640
  938MPD2    H213722   0.994   0.496   0.714  0.9941 -0.9422 -0.6714
  938MPD2    H313723   0.823   0.325   0.702  0.4973 -2.1888 -1.1466
  938MPD2     N13724   0.911   0.176   1.120 -0.0885  0.3975  0.4037
  938MPD2    H513725   0.827   0.122   1.104 -0.3403 -0.0062  3.0867
  938MPD2    N113726   1.137   0.566   0.922  0.1019 -0.0879  0.1624
  938MPD2    H713727   1.189   0.571   1.009  0.7165 -0.3192 -0.1861
  939MPD2     C13728   2.941   1.077   1.632 -0.4863  0.2039 -0.1510
  939MPD2    C113729   2.967   1.214   1.602  0.5588  0.2666 -0.1749
  939MPD2    C213730   3.077   1.242   1.526 -0.3177 -0.7796  0.6713
  939MPD2    C313731   3.165   1.140   1.498 -0.5169 -0.7048  0.3270
  939MPD2    C413732   3.137   1.007   1.524 -0.5896 -0.2844  0.0375
  939MPD2    C513733   3.023   0.982   1.588  0.5561 -0.0559  0.1087
  939MPD2     H13734   3.098   1.347   1.506  1.5115 -1.3826 -0.6299
  939MPD2    H113735   3.199   0.924   1.490 -0.5727 -0.2406 -0.0393
  939MPD2    H213736   2.860   1.038   1.692 -0.7311  0.7832 -0.1004
  939MPD2    H313737   2.978   0.884   1.602  1.0672 -0.0211  2.1014
  939MPD2     N13738   3.282   1.176   1.429 -0.1374  0.1971 -0.6776
  939MPD2    H513739   3.301   1.275   1.416  1.0950  0.3275  1.9093
  939MPD2    N113740   2.874   1.302   1.656  0.3642  0.2571 -0.2878
  939MPD2    H713741   2.801   1.266   1.717 -0.6396 -1.6574 -2.5976
  940MPD2     C13742   0.571   1.994  13.798 -0.5019  0.6485  0.0864
  940MPD2    C113743   0.664   1.900  13.830  0.0971 -0.5651  0.0896
  940MPD2    C213744   0.793   1.901  13.773  0.0410  0.2980 -0.2939
  940MPD2    C313745   0.831   2.008  13.687 -0.0127 -1.1835 -0.1382
  940MPD2    C413746   0.739   2.105  13.666 -0.3371 -0.0737 -0.6515
  940MPD2    C513747   0.612   2.099  13.718  0.4060 -0.1428 -0.1608
  940MPD2     H13748   0.867   1.822  13.785  0.4372  0.7035 -0.0824
  940MPD2    H113749   0.748   2.189  13.597 -1.0460  1.3555  1.0139
  940MPD2    H213750   0.470   2.001  13.837 -0.5301  0.2811  0.0771
  940MPD2    H313751   0.544   2.180  13.693 -2.3219 -2.1184  0.8572
  940MPD2     N13752   0.961   2.010  13.629 -0.1594 -0.2390 -0.4172
  940MPD2    H513753   0.982   2.086  13.565  3.4213 -1.9925 -1.3686
  940MPD2    N113754   0.626   1.781  13.900  0.0737  0.4873  0.2650
  940MPD2    H713755   0.698   1.710  13.899 -1.2099 -0.8279  0.8469
  941MPD2     C13756   1.611   1.286   9.059  0.7166  0.6449  0.1302
  941MPD2    C113757   1.621   1.328   9.189  0.3299 -0.7534  0.0023
  941MPD2    C213758   1.509   1.304   9.271 -0.4909 -0.4561 -0.1011
  941MPD2    C313759   1.406   1.222   9.226 -0.7981 -0.0408 -0.1124
  941MPD2    C413760   1.411   1.164   9.100  0.3120 -0.3453 -0.0949
  941MPD2    C513761   1.514   1.203   9.015 -0.0575  0.1087 -0.0373
  941MPD2     H13762   1.517   1.312   9.379  1.3223  3.2208 -0.5119
  941MPD2    H113763   1.338   1.098   9.053  0.2669  1.0305 -1.9765
  941MPD2    H213764   1.695   1.306   8.993  0.0001  2.1974 -0.3068
  941MPD2    H313765   1.504   1.172   8.911  0.6927 -0.4097  0.0517
  941MPD2     N13766   1.295   1.182   9.305 -0.6895 -0.1060 -0.1790
  941MPD2    H513767   1.239   1.108   9.263 -1.0533  0.4995 -0.7674
  941MPD2    N113768   1.728   1.404   9.244  0.5035 -0.1443  0.1919
  941MPD2    H713769   1.725   1.429   9.342 -1.3433  1.4394 -0.2895
  942MPD2     C13770   0.129   3.042  10.221  0.1751 -0.3484 -0.0388
  942MPD2    C113771   0.109   2.940  10.128  0.2611  0.3355  0.6066
  942MPD2    C213772   0.207   2.847  10.116  0.0790  0.6600 -0.7643
  942MPD2    C313773   0.332   2.849  10.180  0.2772  0.9725  0.4522
  942MPD2    C413774   0.343   2.946  10.272  0.8124  0.2957  0.2352
  942MPD2    C513775   0.248   3.045  10.289  0.2463  0.3114  0.4814
  942MPD2     H13776   0.179   2.770  10.045  0.0065 -0.8385  0.8881
  942MPD2    H113777   0.435   2.967  10.326  1.1359 -0.3652 -0.0636
  942MPD2    H213778   0.068   3.131  10.235 -0.9664 -1.0704 -0.4650
  942MPD2    H313779   0.260   3.129  10.357 -2.7889  1.3092 -0.2187
  942MPD2     N13780   0.438   2.754  10.163 -0.2984 -0.2428  0.2876
  942MPD2    H513781   0.513   2.770  10.229  2.3987 -0.7708 -2.6297
  942MPD2    N113782   0.008   2.937  10.030 -0.6538  0.0982  0.7946
  942MPD2    H713783   0.005   2.857   9.968 -0.1360  0.1073  0.7591
  943MPD2     C13784   4.022   0.822   9.465  0.2158 -0.4106  0.4020
  943MPD2    C113785   4.001   0.699   9.519  0.0031  0.2630  0.3447
  943MPD2    C213786   3.934   0.597   9.452 -0.3856  0.4798 -0.0632
  943MPD2    C313787   3.870   0.632   9.329  0.3598  0.0169  0.2198
  943MPD2    C413788   3.886   0.763   9.283  0.3805  0.3182  0.1114
  943MPD2    C513789   3.964   0.849   9.352  0.2477  0.6557  0.0703
  943MPD2     H13790   3.940   0.497   9.493  0.8556  0.2561 -0.7942
  943MPD2    H113791   3.833   0.805   9.198  0.3675 -1.4943 -0.7856
  943MPD2    H213792   4.075   0.901   9.516 -1.4468 -0.0298  1.5379
  943MPD2    H313793   3.961   0.946   9.303  2.3291  0.0232 -1.2831
  943MPD2     N13794   3.781   0.544   9.256  0.0687  0.1978  0.4909
  943MPD2    H513795   3.739   0.590   9.176  0.1391 -0.9909 -0.2311
  943MPD2    N113796   4.054   0.678   9.649  0.5655  0.2382  0.2546
  943MPD2    H713797   4.095   0.757   9.698  1.2478  0.4069 -0.5869
  944MPD2     C13798   4.294   4.464  11.147  0.8143  0.2740 -0.4168
  944MPD2    C113799   4.324   4.577  11.218 -0.5039 -0.1239 -0.1839
  944MPD2    C213800   4.223   4.636  11.284 -0.5842  0.4871 -0.5830
  944MPD2    C313801   4.090   4.598  11.277  0.5741 -0.1660 -0.0554
  944MPD2    C413802   4.062   4.482  11.199 -0.1600 -0.3889  0.0601
  944MPD2    C513803   4.168   4.421  11.137  0.2858  0.4893  0.6448
  944MPD2     H13804   4.245   0.008  11.333 -0.1122 -0.5219  1.1081
  944MPD2    H113805   3.964   4.437  11.189 -0.0603 -0.4439 -0.7136
  944MPD2    H213806   4.365   4.405  11.090 -1.5202 -4.6653  1.8071
  944MPD2    H313807   4.151   4.326  11.086  2.8174  0.2844  0.2155
  944MPD2     N13808   3.997   4.670  11.361 -0.2976  0.4902  0.2797
  944MPD2    H513809   4.032   0.024  11.419 -0.0717  0.0698  0.6964
  944MPD2    N113810   4.455   4.632  11.223 -0.3925 -0.4988  0.2967
  944MPD2    H713811   4.459   4.722  11.271 -3.4795 -0.5972  0.7460
    1TCq1    O113812   2.323   1.116  14.282  0.5978 -0.4425 -0.0296
    1TCq1    C113813   2.357   1.149  14.409  0.6136  0.2266 -0.1204
    1TCq1    O213814   2.278   1.181  14.497 -0.0439 -0.0607 -0.2491
    1TCq1    C213815   2.495   1.174  14.415 -0.6342 -0.2346 -0.1010
    1TCq1    C313816   2.582   1.125  14.319  0.1352  0.0427  0.7797
    1TCq1    C413817   2.719   1.135  14.335  0.2968 -0.4060 -0.8670
    1TCq1    C513818   2.774   1.203  14.434 -0.1454 -0.5804  0.2060
    1TCq1    C613819   2.685   1.256  14.522 -0.0725 -0.6777  0.3368
    1TCq1    C713820   2.550   1.243  14.526  0.2377 -0.0403  0.1885
    1TCq1    C813821   2.742   1.372  14.593 -0.0313 -0.3294 -0.8910
    1TCq1    O413822   2.843   1.355  14.656 -0.3356 -0.3828  0.2929
    1TCq1    C913823   2.806   1.086  14.232 -0.6002  0.5007  0.7207
    1TCq1    O513824   2.760   1.028  14.126 -0.0168 -0.3207  0.3702
    1TCq1    O613825   2.927   1.119  14.240 -0.7469  0.4016 -0.1375
    1TCq1    H113826   2.396   1.129  14.218 -0.2644 -1.4834 -1.2498
    1TCq1    H213827   2.549   1.060  14.239 -1.0243  1.0454  0.4398
    1TCq1    H313828   2.878   1.232  14.435 -0.3252  0.0717 -0.0574
    1TCq1    H413829   2.487   1.297  14.595  0.3740  1.0535 -0.5477
    2MPD2     C13830   2.669   1.797  14.872  0.2416  0.1356  0.4651
    2MPD2    C113831   2.568   1.798  14.777  0.0620  0.4247 -0.0030
    2MPD2    C213832   2.560   1.683  14.697  0.6394  0.8440  0.0695
    2MPD2    C313833   2.655   1.581  14.701  0.8639  0.0191 -0.0714
    2MPD2    C413834   2.758   1.596  14.792 -0.0119 -0.5108  0.0496
    2MPD2    C513835   2.763   1.700  14.880 -0.3501 -0.8661 -0.2244
    2MPD2     H13836   2.484   1.671  14.620 -1.4508 -0.8598  2.4089
    2MPD2    H113837   2.838   1.524  14.798 -1.1503 -1.4379  3.9822
    2MPD2    H213838   2.669   1.878  14.944  2.6257  0.4829  0.0694
    2MPD2    H313839   2.847   1.710  14.947 -1.3139  1.0774  0.7133
    2MPD2     N13840   2.644   1.469  14.615 -0.0677 -0.1624 -0.1172
    2MPD2    H513841   2.569   1.468  14.547 -0.9023 -1.3433  0.8331
    2MPD2    N113842   2.491   1.911  14.772  0.8712  0.0176 -0.2254
    2MPD2    H713843   2.537   1.990  14.816 -0.4947  0.0055  1.2126
    3TMC2    C113844   2.339   2.070  14.686 -0.8998 -0.4750  0.2121
    3TMC2    C213845   2.417   2.171  14.745  1.0924  0.5428 -0.7232
    3TMC2    C313846   2.392   2.304  14.702  0.6679 -1.0171  0.7034
    3TMC2    C413847   2.250   2.098  14.591  0.1351  0.4826  0.1649
    3TMC2    C513848   2.231   2.227  14.553  0.2403 -0.5114 -0.1897
    3TMC2    C613849   2.303   2.335  14.604  0.2653 -0.1423 -0.4123
    3TMC2     C13850   2.379   1.932  14.695 -0.1323  0.3519  0.6831
    3TMC2     O13851   2.315   1.841  14.646 -0.8824  0.5437  0.3889
    3TMC2     H13852   2.485   2.149  14.827 -0.0738  0.3647  0.2045
    3TMC2    H113853   2.194   2.022  14.539  0.8934 -0.0699  0.1663
    3TMC2    H213854   2.307   2.436  14.563  0.0997  0.4332  0.9912
    3TMC2    C713855   2.208   2.222  14.405 -0.2505  0.3587 -0.0355
    3TMC2    C813856   2.493   2.403  14.735  0.0048  0.2657 -0.9315
    3TMC2    O113857   2.111   2.164  14.370 -0.4480  0.0907  0.2588
    3TMC2    O213858   2.468   2.523  14.759  0.1175 -0.3515 -0.2730
    3TMC2    O513859   2.615   2.361  14.698 -0.0219  0.4471 -0.5747
    3TMC2    H513860   2.634   2.270  14.668 -0.3964  0.6496 -1.4140
    4MPD2     C13861   2.152   2.744  13.278 -0.1199  0.3523  0.8320
    4MPD2    C113862   2.155   2.645  13.371 -0.5074  0.1059 -0.0505
    4MPD2    C213863   2.256   2.657  13.466  0.5475  0.1125  0.7374
    4MPD2    C313864   2.338   2.766  13.473  0.4939 -0.1003  0.0478
    4MPD2    C413865   2.327   2.869  13.386  1.0690  0.5999 -0.2059
    4MPD2    C513866   2.230   2.861  13.294 -0.5941 -0.3136  0.2776
    4MPD2     H13867   2.283   2.578  13.535  0.8281 -0.4661 -0.0410
    4MPD2    H113868   2.396   2.953  13.382  1.2087  0.4536 -0.8694
    4MPD2    H213869   2.083   2.739  13.195  1.1541  3.4947 -0.4326
    4MPD2    H313870   2.213   2.927  13.210 -3.9332 -2.7637 -1.0269
    4MPD2     N13871   2.442   2.752  13.570  0.0400 -0.1092 -0.6444
    4MPD2    H513872   2.426   2.673  13.632  0.5091  1.9650  2.1556
    4MPD2    N113873   2.067   2.544  13.355  0.4731  0.8841 -0.0040
    4MPD2    H713874   2.013   2.549  13.270 -1.8213  2.2649  1.5101
    5TCq2    C113875   2.547   2.837  13.587 -0.1789  0.2068  0.3979
    5TCq2    O213876   2.587   2.939  13.518 -0.2065  0.7339  0.5972
    5TCq2    C213877   2.621   2.794  13.698 -0.1546  0.4038 -0.3926
    5TCq2    C313878   2.754   2.838  13.708  0.0392 -0.0904  0.1297
    5TCq2    C413879   2.816   2.826  13.826 -0.2788  0.0678  0.1292
    5TCq2    C513880   2.753   2.767  13.933  0.1576  0.1445  0.0913
    5TCq2    C613881   2.640   2.689  13.905  0.0568  0.4546  0.2074
    5TCq2    C713882   2.564   2.706  13.794 -0.0431 -0.7583  0.2957
    5TCq2    C813883   2.588   2.602  14.009 -0.8173 -1.0682 -1.0199
    5TCq2    O413884   2.598   2.634  14.129  0.5407  0.0697  0.3753
    5TCq2    C913885   2.929   2.915  13.856 -0.5082 -0.9414 -0.5734
    5TCq2    O513886   3.005   2.924  13.758  0.4027  0.2255 -0.0636
    5TCq2    O613887   2.949   2.952  13.974 -0.6032 -0.0162  0.2434
    5TCq2    H213888   2.794   2.904  13.632 -1.5214 -0.0002 -0.6072
    5TCq2    H313889   2.801   2.759  14.030  0.6938  3.7051  0.1339
    5TCq2    H413890   2.458   2.681  13.794 -0.5442  1.4669 -0.6071
    6MPD1     C13891   1.221   3.553  12.424  0.2876  0.9121  0.1142
    6MPD1    C113892   1.132   3.536  12.524 -0.5466 -0.6071 -0.5609
    6MPD1    C213893   1.127   3.408  12.583  0.1942  0.5158 -0.1253
    6MPD1    C313894   1.201   3.300  12.540  1.2057 -0.2261  0.0218
    6MPD1    C413895   1.293   3.322  12.437 -0.4773  0.1085 -0.3162
    6MPD1    C513896   1.294   3.447  12.377 -0.1659 -0.5252  0.3584
    6MPD1     H13897   1.052   3.382  12.657  0.4970 -2.1299 -0.7400
    6MPD1    H113898   1.365   3.251  12.399  0.4825  1.1002 -0.3496
    6MPD1    H213899   1.247   3.645  12.373  1.0443  1.5495  1.6510
    6MPD1    H313900   1.363   3.464  12.294 -0.1675  1.7954  0.8142
    6MPD1     N13901   1.202   3.167  12.593 -0.0251  0.3442 -0.9014
    6MPD1    H513902   1.274   3.108  12.555  1.6880  1.9997 -0.2467
    6MPD1    N113903   1.065   3.646  12.574  0.4044 -0.5235 -0.1881
    6MPD1    H613904   0.978   3.637  12.627  0.1395  2.2532 -0.1527
    6MPD1    H713905   1.045   3.718  12.505 -0.6290 -2.1996 -1.6372
    7MPD2     C13906   1.206   2.801  13.362  0.2316  0.3141  0.3378
    7MPD2    C113907   1.258   2.725  13.254  0.7127  0.0456  0.0119
    7MPD2    C213908   1.356   2.631  13.282  0.0269  0.4330  0.0050
    7MPD2    C313909   1.399   2.609  13.413 -0.0228  0.2141  0.0862
    7MPD2    C413910   1.340   2.677  13.522 -0.4777  0.4704 -0.3734
    7MPD2    C513911   1.241   2.765  13.489 -0.0572  0.1828  0.1832
    7MPD2     H13912   1.389   2.581  13.191 -2.6196 -0.7753 -0.3062
    7MPD2    H113913   1.366   2.655  13.625 -0.7156 -1.6006 -0.7574
    7MPD2    H213914   1.116   2.861  13.349 -0.0788 -0.1941  0.1351
    7MPD2    H313915   1.194   2.804  13.578  0.1168 -0.4826  0.5631
    7MPD2     N13916   1.502   2.513  13.420 -0.2556 -0.7804  0.2927
    7MPD2    H513917   1.536   2.475  13.332 -2.3948 -1.6572 -0.1588
    7MPD2    N113918   1.217   2.727  13.118  0.1677  0.3974 -0.4493
    7MPD2    H713919   1.243   2.650  13.058  2.6883  1.0486 -0.1795
    8TMC3    C113920   1.685   2.393  13.483 -0.2038 -0.3245 -0.4292
    8TMC3    C213921   1.809   2.419  13.519 -0.5593  0.0232  0.3723
    8TMC3    C313922   1.901   2.398  13.420 -0.1640  0.2762 -0.3207
    8TMC3    C413923   1.649   2.317  13.372 -0.5135 -0.0740  0.1351
    8TMC3    C513924   1.746   2.314  13.269 -0.3301 -0.0853 -0.4386
    8TMC3    C613925   1.874   2.352  13.291  0.2203 -0.1613 -0.6077
    8TMC3     C13926   1.580   2.482  13.527 -0.6470 -0.1147 -0.1200
    8TMC3     O13927   1.589   2.531  13.638  0.1929  0.3392  0.4288
    8TMC3     H13928   1.833   2.477  13.607 -0.4803  0.2554  0.1982
    8TMC3    H113929   1.552   2.269  13.365 -0.6769  0.0612  1.6657
    8TMC3    H213930   1.950   2.335  13.216  1.6131  2.5211  0.2159
    8TMC3    C713931   1.685   2.362  13.142 -0.6965  0.4988  0.2744
    8TMC3    C813932   2.024   2.463  13.454  0.5251 -0.3902  0.7721
    8TMC3    O113933   1.568   2.391  13.149  0.2387 -0.4489  0.1628
    8TMC3    O213934   2.055   2.472  13.575  0.1914  0.2071  0.0709
    9TMC3    C113935   1.174   2.998  12.749  0.0267 -0.5442  0.5301
    9TMC3    C213936   1.280   2.928  12.688 -0.6542 -0.1982 -0.3694
    9TMC3    C313937   1.338   2.826  12.759 -0.0250  0.6359  0.9093
    9TMC3    C413938   1.126   2.959  12.872 -0.0257 -0.4474 -0.1310
    9TMC3    C513939   1.183   2.852  12.933 -0.2760 -0.4374 -0.1215
    9TMC3    C613940   1.291   2.785  12.879 -0.1646 -0.6578  0.2565
    9TMC3     C13941   1.130   3.126  12.699 -0.4436  0.7237 -0.1473
    9TMC3     O13942   1.046   3.183  12.764 -0.5983 -0.0632 -0.2267
    9TMC3     H13943   1.331   2.956  12.597 -1.6179 -0.0400 -0.8695
    9TMC3    H113944   1.047   3.016  12.918 -0.3836  1.4556 -3.1020
    9TMC3    H213945   1.333   2.699  12.928 -0.6954 -1.5042 -0.7648
    9TMC3    C713946   1.138   2.826  13.064 -0.6458 -0.0251  0.1828
    9TMC3    C813947   1.460   2.762  12.701 -0.0856 -0.6706  0.7006
    9TMC3    O113948   1.085   2.917  13.124 -0.2376 -0.5983 -0.1824
    9TMC3    O213949   1.468   2.749  12.584 -0.4385 -0.0536  0.0882
   10MPD2     C13950   1.814   2.392  12.792 -0.0349 -0.1762 -0.2538
   10MPD2    C113951   1.738   2.417  12.908 -0.3298  0.0391  0.2128
   10MPD2    C213952   1.636   2.507  12.899 -0.1002  0.0770 -0.2200
   10MPD2    C313953   1.604   2.579  12.785  0.8009 -0.2097  0.0915
   10MPD2    C413954   1.682   2.559  12.676 -0.4843  0.6958 -0.2028
   10MPD2    C513955   1.788   2.471  12.675 -0.9904 -0.0945 -0.4647
   10MPD2     H13956   1.572   2.535  12.982 -1.3526 -0.7307 -0.8948
   10MPD2    H113957   1.676   2.619  12.586  1.8225  0.3072 -0.6205
   10MPD2    H213958   1.897   2.323  12.787 -0.4161 -0.5620 -1.2437
   10MPD2    H313959   1.847   2.470  12.584 -2.6823 -0.7063 -1.5643
   10MPD2     N13960   1.521   2.690  12.798  1.1122  0.5618  0.4303
   10MPD2    H513961   1.511   2.716  12.896 -0.4443 -2.8705  1.1918
   10MPD2    N113962   1.771   2.352  13.029  0.1282 -0.0819  0.1799
   10MPD2    H713963   1.850   2.288  13.041  1.6694  1.1866 -3.2339
   11MPD2     C13964   2.261   2.210  14.113 -0.2079 -0.1835  0.3902
   11MPD2    C113965   2.311   2.311  14.198  0.2634 -0.1728 -0.2480
   11MPD2    C213966   2.390   2.413  14.141  0.0203  0.3408  0.4732
   11MPD2    C313967   2.429   2.398  14.010  0.1303 -0.2610  0.3899
   11MPD2    C413968   2.386   2.292  13.937  0.1067  0.4033  0.5512
   11MPD2    C513969   2.290   2.209  13.983 -1.2969  0.2851  0.0050
   11MPD2     H13970   2.424   2.497  14.199  1.5094 -0.1133  0.2692
   11MPD2    H113971   2.413   2.272  13.834  0.0590 -0.7854  0.7640
   11MPD2    H213972   2.201   2.129  14.152  1.1261 -0.4763  1.8470
   11MPD2    H313973   2.271   2.122  13.920  1.9556  0.4461 -1.2320
   11MPD2     N13974   2.517   2.492  13.953 -0.3840  0.1580  0.1433
   11MPD2    H513975   2.537   2.475  13.855  0.0939 -1.0959  0.4549
   11MPD2    N113976   2.295   2.306  14.339  0.8468  0.5887 -0.0896
   11MPD2    H713977   2.348   2.374  14.393  1.5239  1.3833 -1.7652
    1MPD1     C13978   3.909   3.710  16.872 -0.8708 -0.0424 -0.0056
    1MPD1    C113979   3.838   3.595  16.854  0.0985 -0.0826 -0.6754
    1MPD1    C213980   3.788   3.537  16.971  0.4688  0.4681 -0.9996
    1MPD1    C313981   3.771   3.608  17.090  0.1054 -0.3831 -0.6277
    1MPD1    C413982   3.828   3.735  17.095 -0.3564  0.2959  0.1770
    1MPD1    C513983   3.894   3.781  16.987 -0.1499 -0.3234  0.0818
    1MPD1     H13984   3.729   3.447  16.958  2.8163 -1.1014 -0.6954
    1MPD1    H113985   3.832   3.798  17.183  0.2806  2.3384 -1.3128
    1MPD1    H213986   3.963   3.750  16.787 -0.5153  0.6600  0.5488
    1MPD1    H313987   3.938   3.880  16.997  0.9085 -0.6368 -1.5694
    1MPD1     N13988   3.717   3.561  17.209  0.0740  0.1916 -0.4198
    1MPD1    H513989   3.714   3.634  17.279 -1.5793  0.9015 -1.2358
    1MPD1    N113990   3.847   3.530  16.732 -0.0173 -0.5738 -0.5428
    1MPD1    H613991   3.825   3.598  16.659 -1.0170 -0.0729  0.2265
    1MPD1    H713992   3.777   3.456  16.728 -0.9047  0.1907  1.1145
    2MPD1     C13993   3.558   2.593   0.048 -0.4622 -0.1465 -0.1494
    2MPD1    C113994   3.586   2.689   0.147  0.5275  0.3798 -0.4771
    2MPD1    C213995   3.596   2.818   0.106  0.0775  0.0444 -0.4985
    2MPD1    C313996   3.573   2.859  17.663  0.3836 -0.3949 -0.4087
    2MPD1    C413997   3.538   2.763  17.567 -0.0506  0.0189 -0.3958
    2MPD1    C513998   3.535   2.631  17.608  0.1334  0.6389  0.1108
    2MPD1     H13999   3.620   2.893   0.180 -1.4440 -0.0461  0.0688
    2MPD1    H114000   3.540   2.787  17.461  1.5324  0.4785 -0.2588
    2MPD1    H214001   3.550   2.488   0.075  1.1059 -0.4364 -0.8581
    2MPD1    H314002   3.525   2.558  17.529  0.9903 -1.0549  1.5757
    2MPD1     N14003   3.604   2.995  17.625 -0.5296 -0.0239  0.4066
    2MPD1    H514004   3.658   3.044   0.007  0.0131  0.3534 -0.2641
    2MPD1    N114005   3.590   2.649   0.290 -0.2747 -0.5308 -0.0226
    2MPD1    H614006   3.638   2.560   0.297  0.3370 -0.1059  1.1790
    2MPD1    H714007   3.646   2.716   0.343 -1.5641  2.2400 -2.1622
    3TMC3    C114008   3.610   3.191  17.494  0.5154  0.2186 -0.3125
    3TMC3    C214009   3.658   3.265  17.604  0.8898 -0.0278 -0.3248
    3TMC3    C314010   3.720   3.385  17.582 -0.2455  0.1301  0.5709
    3TMC3    C414011   3.604   3.260  17.372  0.4091  0.7948  0.2018
    3TMC3    C514012   3.658   3.387  17.362  0.3153 -0.0180  0.4945
    3TMC3    C614013   3.721   3.456  17.463 -0.3396  0.1383  0.2775
    3TMC3     C14014   3.572   3.054  17.504 -1.3086 -0.2111  0.2621
    3TMC3     O14015   3.505   3.012  17.410 -0.2584 -0.3950  0.4265
    3TMC3     H14016   3.647   3.229   0.017 -1.7476 -1.5547 -1.1233
    3TMC3    H114017   3.555   3.216  17.285  0.3039  0.1617  0.5806
    3TMC3    H214018   3.773   3.549  17.444  1.9099 -1.0821  0.4209
    3TMC3    C714019   3.673   3.432  17.227  0.0574 -0.4623  0.2946
    3TMC3    C814020   3.725   3.467   0.013  0.0898  0.6379 -0.5103
    3TMC3    O114021   3.652   3.346  17.141 -0.2119 -0.3811  0.5880
    3TMC3    O214022   3.713   3.406   0.116  1.2170  0.3046 -0.1778
    4MPD1     C14023   3.865   3.878   0.291  0.1407  0.3306 -0.7899
    4MPD1    C114024   3.853   3.915   0.160 -0.2575 -0.2595  0.2977
    4MPD1    C214025   3.828   3.816   0.068 -0.1137 -0.3393  0.1027
    4MPD1    C314026   3.793   3.687   0.099  0.3086 -0.2883 -0.2557
    4MPD1    C414027   3.802   3.657   0.234  0.1537  0.1256  0.5956
    4MPD1    C514028   3.855   3.743   0.329 -0.2119 -0.6115  0.0483
    4MPD1     H14029   3.838   3.839  17.651  0.8176  0.0434  0.2722
    4MPD1    H114030   3.786   3.554   0.264  1.0416 -0.6810 -1.6737
    4MPD1    H214031   3.886   3.949   0.370 -0.8349  2.7947 -2.7547
    4MPD1    H314032   3.860   3.722   0.435 -2.6272  1.6143  0.5896
    4MPD1     N14033   3.758   3.600  17.683 -0.8228  0.0883  0.5873
    4MPD1    H514034   3.744   3.639  17.590 -0.1161 -2.0036 -0.3912
    4MPD1    N114035   3.921   4.030   0.120  0.7065 -0.0171 -0.2548
    4MPD1    H614036   3.924   4.102   0.192  2.0671 -0.8237  0.4808
    4MPD1    H714037   3.895   4.068   0.029 -2.8728 -0.5661  0.5492
    1TCq1    O114038   1.311   0.620   1.895  0.2595  0.2870 -0.1083
    1TCq1    C114039   1.391   0.660   1.799 -0.1039 -0.1746 -0.3691
    1TCq1    O214040   1.371   0.639   1.679  0.3928  0.1812 -0.2266
    1TCq1    C214041   1.429   0.790   1.846 -0.6466  0.0726  0.0547
    1TCq1    C314042   1.514   0.801   1.952  0.5798  0.6940  0.1085
    1TCq1    C414043   1.548   0.929   1.984 -0.0889  0.1611  0.4558
    1TCq1    C514044   1.499   1.036   1.911  1.1032  0.4234  0.1504
    1TCq1    C614045   1.420   1.018   1.806  1.0164 -0.7257 -0.3437
    1TCq1    C714046   1.386   0.893   1.768 -0.8633  0.1043 -0.4093
    1TCq1    C814047   1.366   1.126   1.724  1.8618  0.1808  0.2035
    1TCq1    O414048   1.314   1.095   1.623 -0.0638 -0.1823  0.1835
    1TCq1    C914049   1.573   0.969   2.120 -0.5419 -0.7081  0.8420
    1TCq1    O514050   1.621   0.888   2.201 -0.8969  1.0010 -0.5013
    1TCq1    O614051   1.505   1.063   2.162 -0.0047  0.0665 -0.8261
    1TCq1    H114052   1.307   0.679   1.974 -3.9162 -0.2781  0.0808
    1TCq1    H214053   1.521   0.724   2.028 -0.1797 -0.2953 -0.8196
    1TCq1    H314054   1.536   1.133   1.940  1.7700  0.1540  0.2081
    1TCq1    H414055   1.320   0.882   1.683 -1.6201 -5.1092  0.8240
    2MPD1     C14056   1.362   1.620   1.566  0.2173 -1.0501 -0.2827
    2MPD1    C114057   1.413   1.615   1.694 -0.3399  0.2755 -0.3376
    2MPD1    C214058   1.420   1.489   1.759  0.0190  0.1165 -0.0953
    2MPD1    C314059   1.386   1.370   1.702  0.3097  0.7692 -0.2449
    2MPD1    C414060   1.329   1.380   1.575  0.1810 -0.3758  0.3931
    2MPD1    C514061   1.321   1.504   1.510  0.0392  0.3851  0.1201
    2MPD1     H14062   1.463   1.490   1.859 -2.5624 -0.4688  1.0184
    2MPD1    H114063   1.284   1.294   1.526  0.2173  0.7521 -1.6232
    2MPD1    H214064   1.351   1.720   1.525  0.8426  0.1112  2.3255
    2MPD1    H314065   1.272   1.498   1.413  1.7810 -0.9790 -0.6715
    2MPD1     N14066   1.396   1.251   1.770 -0.9715 -0.1224 -0.1921
    2MPD1    H514067   1.447   1.244   1.858  0.6022  1.5813 -0.9731
    2MPD1    N114068   1.444   1.741   1.757  0.1462  0.1161 -0.9217
    2MPD1    H614069   1.482   1.804   1.686 -1.2774  1.6484 -0.3410
    2MPD1    H714070   1.519   1.739   1.826  0.5909 -0.4417 -1.4256
    1TCq1    O114071   0.550   4.438   9.225  0.3475  0.1345 -0.1052
    1TCq1    C114072   0.506   4.316   9.263  0.1597  0.2602 -0.7394
    1TCq1    O214073   0.459   4.296   9.377 -0.2764 -0.1766 -1.1447
    1TCq1    C214074   0.578   4.209   9.185  0.0614 -0.2400 -0.2509
    1TCq1    C314075   0.695   4.223   9.116 -0.6622  0.1032 -1.0937
    1TCq1    C414076   0.734   4.114   9.039 -0.0222  0.3870 -0.5083
    1TCq1    C514077   0.677   3.989   9.059  0.7772 -0.2793  0.4093
    1TCq1    C614078   0.562   3.980   9.131 -0.1937 -0.2317  0.2968
    1TCq1    C714079   0.507   4.094   9.187  0.1837  0.7593 -0.4636
    1TCq1    C814080   0.492   3.851   9.153  0.0247  0.5033  0.3957
    1TCq1    O414081   0.381   3.854   9.204 -0.6794 -0.0785  0.4106
    1TCq1    C914082   0.870   4.119   8.980  0.2171  0.1457  1.1768
    1TCq1    O514083   0.904   4.019   8.907 -0.1614 -0.2501 -0.5084
    1TCq1    O614084   0.940   4.218   9.009  0.1322 -0.0450 -0.0562
    1TCq1    H114085   0.579   4.442   9.131  2.6884 -0.1196  0.6098
    1TCq1    H214086   0.755   4.313   9.125  1.2594 -1.2868 -0.1047
    1TCq1    H314087   0.738   3.908   9.020 -0.0123 -0.2433 -0.8780
    1TCq1    H414088   0.411   4.102   9.237  1.0397  0.6779  1.2225
    2MPD1     C14089   0.508   3.337   9.114 -0.5421 -0.0222  0.0113
    2MPD1    C114090   0.585   3.384   9.016 -0.2585  0.2877  0.5518
    2MPD1    C214091   0.593   3.527   9.013  0.5336  0.1047  0.8129
    2MPD1    C314092   0.541   3.611   9.107  0.0229 -0.4987  0.9239
    2MPD1    C414093   0.458   3.555   9.201  0.1968 -0.0453 -0.8332
    2MPD1    C514094   0.442   3.414   9.206 -0.5565  0.1390  0.6708
    2MPD1     H14095   0.652   3.570   8.933  0.0935  0.6036  0.7651
    2MPD1    H114096   0.406   3.614   9.276 -1.1731 -1.4157 -0.6964
    2MPD1    H214097   0.483   3.231   9.117 -3.4856  0.5876 -3.1148
    2MPD1    H314098   0.363   3.383   9.273  0.5109 -0.2043  1.7671
    2MPD1     N14099   0.563   3.746   9.100 -0.5032 -0.0616  0.2697
    2MPD1    H514100   0.632   3.776   9.031  0.8679 -2.6437  0.5180
    2MPD1    N114101   0.622   3.301   8.908  0.3957  0.4776 -0.0429
    2MPD1    H614102   0.649   3.206   8.934  0.4739  0.4035 -0.3909
    2MPD1    H714103   0.693   3.332   8.842  0.7781 -1.9449 -0.7724
    1MPD1     C14104   2.833   3.356  12.470  0.4968  0.4929 -0.1065
    1MPD1    C114105   2.916   3.441  12.405  0.4429  0.1078  0.1977
    1MPD1    C214106   2.860   3.511  12.299  0.3351 -0.3235 -0.0310
    1MPD1    C314107   2.722   3.512  12.270 -0.3682 -0.2463  0.2538
    1MPD1    C414108   2.647   3.430  12.347  0.6910  0.2525 -0.4918
    1MPD1    C514109   2.705   3.345  12.434 -0.2098  0.5177 -0.1218
    1MPD1     H14110   2.932   3.557  12.231  1.7349  0.7191  2.1499
    1MPD1    H114111   2.545   3.410  12.315  0.8758  0.0211 -0.9353
    1MPD1    H214112   2.874   3.283  12.539  0.9344 -0.4009 -1.3125
    1MPD1    H314113   2.644   3.279  12.494 -3.0077  1.8457 -1.5425
    1MPD1     N14114   2.674   3.587  12.161  0.0959  0.0712  0.0377
    1MPD1    H514115   2.742   3.634  12.103  1.3295 -1.1140  0.5370
    1MPD1    N114116   3.053   3.426  12.425 -0.1936  0.1797 -0.8479
    1MPD1    H614117   3.104   3.507  12.388 -0.2708 -1.1768 -3.9492
    1MPD1    H714118   3.076   3.398  12.520 -0.7861  0.4449 -0.6271
    2MPD1     C14119   2.687   3.282  11.919  0.4729  0.3501  0.0493
    2MPD1    C114120   2.782   3.365  11.870  0.5821 -0.1783 -0.1644
    2MPD1    C214121   2.788   3.388  11.736 -0.7100 -0.0349 -0.1784
    2MPD1    C314122   2.686   3.353  11.649 -0.4729  0.4419 -0.2061
    2MPD1    C414123   2.590   3.266  11.701 -0.1299 -0.0281  0.1634
    2MPD1    C514124   2.591   3.238  11.834  0.2665 -0.0081 -0.3130
    2MPD1     H14125   2.865   3.454  11.699  1.1154 -2.5931 -0.9078
    2MPD1    H114126   2.504   3.231  11.644 -0.1593 -1.5262  1.1226
    2MPD1    H214127   2.679   3.256  12.024 -2.4014 -2.6997 -0.9301
    2MPD1    H314128   2.504   3.189  11.877  0.0808 -0.9715 -1.8000
    2MPD1     N14129   2.678   3.389  11.511 -0.1468 -0.0686 -0.4694
    2MPD1    H514130   2.604   3.349  11.455  1.1557  0.6814 -2.7594
    2MPD1    N114131   2.885   3.412  11.955 -0.2254  0.3586  0.3079
    2MPD1    H614132   2.932   3.487  11.906  1.2748 -1.1591 -0.6083
    2MPD1    H714133   2.858   3.415  12.054  0.4455  1.0626  0.4660
    3MPD1     C14134   2.135   3.028  11.123  0.2643 -0.2998  0.8844
    3MPD1    C114135   2.153   3.085  11.248 -0.0909 -0.0534 -0.4178
    3MPD1    C214136   2.238   3.196  11.253  0.4478  0.2867 -0.0612
    3MPD1    C314137   2.302   3.245  11.138 -0.4447 -0.6116  0.6918
    3MPD1    C414138   2.286   3.182  11.017  0.2737 -0.3637  0.2607
    3MPD1    C514139   2.195   3.078  11.012 -0.5085 -0.3557  0.5051
    3MPD1     H14140   2.239   3.232  11.355  2.9363 -2.6848  0.9266
    3MPD1    H114141   2.327   3.211  10.921  1.5564 -1.6141  0.4236
    3MPD1    H214142   2.080   2.935  11.113  0.9404 -0.7558  1.4800
    3MPD1    H314143   2.161   3.045  10.915  2.1365  0.9180 -0.8302
    3MPD1     N14144   2.406   3.341  11.165 -0.1873  0.2581  0.6180
    3MPD1    H514145   2.437   3.364  11.259  0.2848 -0.6433  0.6802
    3MPD1    N114146   2.095   3.032  11.361 -0.4416  0.5038 -0.0635
    3MPD1    H614147   2.074   2.933  11.357  0.6666  0.2873 -0.4896
    3MPD1    H714148   2.135   3.064  11.450 -0.1719  1.3637 -0.4897
    4MPD2     C14149   2.204   3.840  11.529 -0.1773 -0.6200  0.1564
    4MPD2    C114150   2.334   3.873  11.563 -0.5148 -0.1634  0.2401
    4MPD2    C214151   2.390   3.993  11.527  0.1102 -0.8885  0.0106
    4MPD2    C314152   2.321   4.086  11.447 -0.3851  0.1303 -0.5627
    4MPD2    C414153   2.182   4.059  11.430 -0.3737  0.1185 -0.3329
    4MPD2    C514154   2.125   3.938  11.466 -0.4027  0.3778  0.2213
    4MPD2     H14155   2.488   4.020  11.562  1.4129 -4.1899 -1.0627
    4MPD2    H114156   2.135   4.142  11.378 -1.0295 -0.2792 -0.3819
    4MPD2    H214157   2.166   3.739  11.540 -1.8276 -0.2015 -1.6092
    4MPD2    H314158   2.021   3.913  11.447 -1.0206  2.5256  0.7686
    4MPD2     N14159   2.377   4.208  11.407  0.3909 -0.1083 -0.0936
    4MPD2    H514160   2.314   4.278  11.369  1.1486  1.1996  1.0390
    4MPD2    N114161   2.424   3.798  11.644  0.5854 -0.3653  0.5193
    4MPD2    H714162   2.521   3.823  11.663  0.2963  0.6937  0.6123
    5TMC3    C114163   2.511   3.605  11.747  0.2242 -0.1560 -0.2488
    5TMC3    C214164   2.486   3.586  11.878 -0.1360  0.2309 -0.1840
    5TMC3    C314165   2.568   3.639  11.971  0.2665 -0.4511 -0.2252
    5TMC3    C414166   2.622   3.679  11.718 -0.8987 -0.4787 -0.5891
    5TMC3    C514167   2.699   3.741  11.809 -0.0773  0.2150 -0.1174
    5TMC3    C614168   2.675   3.719  11.945 -0.4275  0.7970  0.6931
    5TMC3     C14169   2.397   3.670  11.686  0.8523  0.4372 -0.4745
    5TMC3     O14170   2.296   3.606  11.677 -0.1408  0.0699  0.1410
    5TMC3     H14171   2.393   3.541  11.913 -1.0798  1.8425 -0.6221
    5TMC3    H114172   2.654   3.677  11.615  0.9172  0.7246 -0.0640
    5TMC3    H214173   2.732   3.771  12.021 -0.7951  2.1117  0.0655
    5TMC3    C714174   2.754   3.863  11.764 -0.3660 -0.3757 -1.0321
    5TMC3    C814175   2.549   3.576  12.104 -0.2932 -0.1219  0.2152
    5TMC3    O114176   2.708   3.889  11.654 -0.5575 -0.5400  0.0030
    5TMC3    O214177   2.456   3.502  12.128  0.8005  0.5253  0.3893
    6TMC3    C114178   2.754   3.469  11.306  0.4495 -0.5196 -0.0296
    6TMC3    C214179   2.646   3.406  11.250 -0.2110 -0.7698 -0.2739
    6TMC3    C314180   2.619   3.437  11.117  0.2938  0.3770  0.0694
    6TMC3    C414181   2.838   3.558  11.236 -0.6241 -0.5968  0.4141
    6TMC3    C514182   2.792   3.591  11.109 -0.1667  0.0157  0.7602
    6TMC3    C614183   2.695   3.530  11.048  0.0085 -0.6141  0.2837
    6TMC3     C14184   2.778   3.451  11.446 -0.9057  0.9785 -0.0097
    6TMC3     O14185   2.884   3.497  11.484 -0.1933  0.6328 -0.1368
    6TMC3     H14186   2.599   3.325  11.304  3.4345 -0.3929  3.5197
    6TMC3    H114187   2.922   3.602  11.288  0.6290 -0.0193 -2.1087
    6TMC3    H214188   2.685   3.549  10.942 -0.4882 -2.8775 -0.0694
    6TMC3    C714189   2.842   3.707  11.042  0.2871 -0.0395 -0.0914
    6TMC3    C814190   2.489   3.392  11.066 -0.0293 -0.2302 -0.3025
    6TMC3    O114191   2.783   3.760  10.948  0.4082  0.1561  0.0845
    6TMC3    O214192   2.470   3.404  10.950  0.0693  0.1492  0.8482
    7MPD2     C14193   3.020   4.294  11.719  0.4348  0.5244 -0.3134
    7MPD2    C114194   2.911   4.248  11.652  0.6202 -0.1978 -0.4682
    7MPD2    C214195   2.847   4.130  11.700  0.1481  0.0616  0.2696
    7MPD2    C314196   2.898   4.052  11.800 -0.2806  0.1827  0.0099
    7MPD2    C414197   3.008   4.099  11.863  0.1390  0.0249  0.3044
    7MPD2    C514198   3.059   4.228  11.829 -0.1605  0.2685  0.7789
    7MPD2     H14199   2.762   4.094  11.644 -1.0041  1.0620  1.3839
    7MPD2    H114200   3.054   4.048  11.947  2.0945  0.6245 -0.3905
    7MPD2    H214201   3.077   4.384  11.697  1.7778  0.3769  2.6675
    7MPD2    H314202   3.152   4.262  11.874  0.2707  2.1348 -1.4946
    7MPD2     N14203   2.846   3.929  11.842  0.9827 -0.6632  0.1818
    7MPD2    H514204   2.883   3.889  11.927 -1.8563 -1.2567  1.1072
    7MPD2    N114205   2.841   4.300  11.541 -0.2695  0.0496  0.3654
    7MPD2    H714206   2.751   4.261  11.518  0.3362 -0.0443 -1.8153
    8TMC3    C114207   2.764   4.457  11.398  0.2071 -0.7726  0.2425
    8TMC3    C214208   2.793   4.437  11.262 -0.6639  0.0655  0.1419
    8TMC3    C314209   2.703   4.369  11.183 -0.0457  0.3762 -0.2383
    8TMC3    C414210   2.649   4.413  11.443 -0.2669  0.0841 -0.3295
    8TMC3    C514211   2.551   4.369  11.364  0.4822 -0.5541 -0.1770
    8TMC3    C614212   2.577   4.358  11.228 -0.8776 -0.3493  0.0976
    8TMC3     C14213   2.876   4.420  11.483  0.4185  0.5505 -0.6307
    8TMC3     O14214   2.988   4.468  11.460  0.1179  0.0374  0.8300
    8TMC3     H14215   2.890   4.470  11.228 -0.1095 -0.5193  1.1542
    8TMC3    H114216   2.617   4.431  11.545  1.2807  3.8660 -0.5034
    8TMC3    H214217   2.506   4.322  11.154 -1.5378  0.8589  0.1399
    8TMC3    C714218   2.513   4.239  11.410 -0.3820  0.9007  0.0352
    8TMC3    C814219   2.741   4.245  11.122 -0.1670 -0.4585  0.8894
    8TMC3    O114220   2.605   4.175  11.457  0.1986  0.2117 -0.0161
    8TMC3    O214221   2.659   4.151  11.121  0.3948  0.3278  0.4197
    9MPD2     C14222   3.093   4.144  11.063 -0.7096 -0.7915 -0.1241
    9MPD2    C114223   2.954   4.129  11.070 -0.1281 -0.2412  0.4561
    9MPD2    C214224   2.902   4.001  11.082  0.7060  0.0110 -0.1903
    9MPD2    C314225   2.988   3.893  11.086  0.0359 -0.9770  0.0739
    9MPD2    C414226   3.120   3.910  11.094 -0.1451 -0.8514 -0.2783
    9MPD2    C514227   3.170   4.032  11.059 -0.0547  0.0967  0.1973
    9MPD2     H14228   2.795   3.984  11.095  0.6873 -0.8553 -1.4729
    9MPD2    H114229   3.194   3.830  11.088  1.8442  0.9139  0.6982
    9MPD2    H214230   3.149   4.234  11.084 -2.8674  0.5244  0.0070
    9MPD2    H314231   3.277   4.040  11.070  0.3361 -3.1585 -1.0889
    9MPD2     N14232   2.948   3.761  11.112 -0.2826 -0.4664  0.1607
    9MPD2    H514233   3.007   3.693  11.158  1.4791  0.6677 -0.4182
    9MPD2    N114234   2.880   4.245  11.100 -0.6358 -0.2923 -0.8107
    9MPD2    H714235   2.938   4.327  11.113 -1.9155  0.3196  1.0435
    1MPD1     C14236   0.937   2.249  17.115  0.0103 -0.3985  0.2684
    1MPD1    C114237   1.008   2.133  17.119 -0.4081  0.2370  0.2229
    1MPD1    C214238   1.028   2.065  17.006  0.4302 -0.7089  0.3286
    1MPD1    C314239   0.961   2.102  16.892 -0.1043  0.4970  0.2871
    1MPD1    C414240   0.900   2.225  16.885 -0.0163 -0.3595  0.1339
    1MPD1    C514241   0.891   2.295  16.996 -0.2919  0.3951 -0.0422
    1MPD1     H14242   1.073   1.967  17.015 -1.2715 -1.3676  1.6358
    1MPD1    H114243   0.850   2.262  16.796 -1.2213 -1.2749  0.4421
    1MPD1    H214244   0.908   2.306  17.203  1.4968 -0.4947  0.8297
    1MPD1    H314245   0.850   2.396  16.994  1.5599  1.1471 -0.4327
    1MPD1     N14246   0.962   2.020  16.777  0.0141 -0.1674 -0.3778
    1MPD1    H514247   0.901   2.050  16.701 -0.8256  1.3287  0.8781
    1MPD1    N114248   1.092   2.106  17.233 -0.6775 -0.1175  0.3396
    1MPD1    H614249   1.115   2.007  17.238 -2.5333 -0.4429  2.1744
    1MPD1    H714250   1.060   2.141  17.323  0.3310 -1.2222  1.1278
    2MPD1     C14251   1.506   1.232  16.442  0.3253  0.1505  0.5292
    2MPD1    C114252   1.513   1.291  16.567 -0.5509  0.3514  0.6591
    2MPD1    C214253   1.455   1.420  16.576 -0.3611 -0.7596  0.5244
    2MPD1    C314254   1.397   1.490  16.474 -0.6155  0.1148  0.0336
    2MPD1    C414255   1.385   1.427  16.353 -0.2582 -0.2318  0.3848
    2MPD1    C514256   1.442   1.302  16.342  0.7446 -0.4309  0.4510
    2MPD1     H14257   1.457   1.474  16.670 -1.1566 -0.9894  0.6703
    2MPD1    H114258   1.348   1.480  16.266  0.9842  0.8381  0.5004
    2MPD1    H214259   1.549   1.140  16.402  2.5593  1.1031  0.7331
    2MPD1    H314260   1.434   1.242  16.252  0.2991  0.1712  0.0823
    2MPD1     N14261   1.347   1.620  16.494 -0.3985 -0.1764 -0.5422
    2MPD1    H514262   1.351   1.657  16.588 -4.0360  1.0200 -0.8780
    2MPD1    N114263   1.606   1.249  16.665  0.0547  0.3583 -0.0624
    2MPD1    H614264   1.607   1.147  16.663  0.2558  0.3549  0.1258
    2MPD1    H714265   1.576   1.266  16.761 -0.0927 -1.3618  0.2031
    3TCq2    C114266   1.295   1.708  16.403  0.5280  0.3749  1.0833
    3TCq2    O214267   1.303   1.702  16.280  0.6250  0.0909 -0.1239
    3TCq2    C214268   1.203   1.811  16.469  0.5274 -0.5319 -0.5087
    3TCq2    C314269   1.167   1.909  16.380  0.7115  0.0373  0.0407
    3TCq2    C414270   1.052   1.978  16.401 -0.2365  0.1708  0.0361
    3TCq2    C514271   0.989   1.973  16.518 -0.2713 -0.1757  0.4309
    3TCq2    C614272   1.030   1.877  16.611 -0.5018 -0.1169  0.7112
    3TCq2    C714273   1.130   1.790  16.584  0.0619 -0.5160  1.1424
    3TCq2    C814274   1.036   1.908  16.750  0.1335  0.6752 -0.6184
    3TCq2    O414275   1.121   1.851  16.819  0.5090  0.4560 -0.0831
    3TCq2    C914276   1.019   2.079  16.301  0.3926  0.1281 -0.3906
    3TCq2    O514277   0.939   2.164  16.335  0.2708 -0.2000  0.0410
    3TCq2    O614278   1.103   2.096  16.214 -0.5171  0.0458 -0.0983
    3TCq2    H214279   1.217   1.919  16.284 -1.7272 -0.5290 -1.2744
    3TCq2    H314280   0.905   2.041  16.531 -1.0641 -1.2129  0.7293
    3TCq2    H414281   1.152   1.710  16.653 -1.8377 -0.6194  1.6265
    1TCq1    O114282   4.538   1.237  12.691  0.5995  0.0039  0.5594
    1TCq1    C114283   4.574   1.367  12.686  0.2206  0.3126  0.1235
    1TCq1    O214284   4.680   1.400  12.644  0.3683 -0.1327 -0.5159
    1TCq1    C214285   4.497   1.437  12.786 -0.5623 -0.0741 -0.8431
    1TCq1    C314286   4.354   1.431  12.777 -0.4422  0.0797  0.0630
    1TCq1    C414287   4.291   1.517  12.859 -0.0683  0.3179 -0.2998
    1TCq1    C514288   4.353   1.609  12.941 -0.0837 -0.2599  0.2691
    1TCq1    C614289   4.493   1.605  12.958 -0.2210  0.1436 -0.1338
    1TCq1    C714290   4.568   1.518  12.876  0.2835  0.0430  0.1839
    1TCq1    C814291   4.559   1.716  13.029  0.0691  0.4817  0.1870
    1TCq1    O414292   4.503   1.807  13.087 -0.0423  0.3769 -0.4176
    1TCq1    C914293   4.150   1.528  12.846 -0.4311  0.4816 -0.3683
    1TCq1    O514294   4.092   1.433  12.789 -1.2275 -0.3795  0.1680
    1TCq1    O614295   4.089   1.606  12.925  0.2614 -0.2606  0.1955
    1TCq1    H114296   4.485   1.220  12.772  0.2198 -2.5803 -0.2341
    1TCq1    H214297   4.301   1.373  12.703  1.2349  0.2255 -1.2691
    1TCq1    H314298   4.299   1.690  12.987  0.6154 -0.5021  1.5353
    1TCq1    H414299   4.676   1.518  12.864  0.2713 -1.6087  0.0965
    2MPD2     C14300   0.053   1.889  13.114  0.3772 -0.5783  0.2104
    2MPD2    C114301   0.072   1.756  13.088  0.1644 -0.2669  0.3695
    2MPD2    C214302   0.198   1.698  13.088 -0.3002 -0.2158  0.7270
    2MPD2    C314303   0.309   1.773  13.127 -0.9157 -0.7845  0.2612
    2MPD2    C414304   0.287   1.904  13.163 -0.3880 -0.2586  0.1949
    2MPD2    C514305   0.161   1.962  13.152 -0.3386 -0.3206  0.2359
    2MPD2     H14306   0.208   1.595  13.055 -0.0863  0.5786 -1.7389
    2MPD2    H114307   0.368   1.972  13.185  0.7361 -1.5719  0.1134
    2MPD2    H214308   4.685   1.949  13.102 -0.4134 -2.4146 -3.3289
    2MPD2    H314309   0.154   2.069  13.166 -1.3883 -0.2126 -1.1316
    2MPD2     N14310   0.432   1.706  13.115 -0.6389 -0.4027  0.4007
    2MPD2    H514311   0.440   1.605  13.113 -2.2632 -0.5381  0.9479
    2MPD2    N114312   4.687   1.677  13.040 -0.2399  0.2876 -0.2257
    2MPD2    H714313   4.693   1.579  13.014 -0.5324  0.1818  0.1045
    3TCq1    O114314   1.114   1.628  13.102 -0.2835  0.6390 -0.5955
    3TCq1    C114315   1.021   1.687  13.183 -0.0049 -0.0974 -0.9030
    3TCq1    O214316   1.022   1.801  13.225 -0.1353 -0.0386 -0.1615
    3TCq1    C214317   0.887   1.639  13.141  0.3577 -0.3762  0.0477
    3TCq1    C314318   0.880   1.503  13.138  0.0405  0.3765 -0.2773
    3TCq1    C414319   0.751   1.452  13.117  0.7636  0.2648 -0.3775
    3TCq1    C514320   0.644   1.544  13.096  0.4539 -0.1477 -0.6524
    3TCq1    C614321   0.668   1.679  13.101  0.0648  0.1154  0.0185
    3TCq1    C714322   0.790   1.729  13.123  0.2079  0.1399 -0.1065
    3TCq1    C814323   0.556   1.772  13.113  0.1255 -0.6028 -0.1941
    3TCq1    O414324   0.577   1.893  13.124  0.2581  0.2421  0.2598
    3TCq1    C914325   0.729   1.309  13.130  0.4819 -1.0370  0.2898
    3TCq1    O514326   0.608   1.269  13.104  0.1674 -0.9478  0.4121
    3TCq1    O614327   0.831   1.236  13.142  0.1119 -0.4617 -0.2118
    3TCq1    H114328   1.085   1.547  13.055 -0.1841  0.3462 -0.1515
    3TCq1    H214329   0.957   1.437  13.176 -2.2476 -2.1102  0.0158
    3TCq1    H314330   0.544   1.504  13.103  0.4807  0.1067  1.1128
    3TCq1    H414331   0.803   1.836  13.135 -0.9221  0.2224  0.3116
    1MPD2     C14332   1.211   2.393  14.716  0.6487  0.8442 -1.3893
    1MPD2    C114333   1.125   2.396  14.828 -0.2677 -0.2290  0.7034
    1MPD2    C214334   1.170   2.337  14.948 -0.0186  0.4539 -0.4499
    1MPD2    C314335   1.286   2.266  14.944  0.0732  0.1412 -0.1042
    1MPD2    C414336   1.364   2.253  14.835  0.0604  0.9609  0.0114
    1MPD2    C514337   1.333   2.331  14.723 -0.2574  0.6893  0.1475
    1MPD2     H14338   1.104   2.328  15.034  1.4412  0.0335  0.6163
    1MPD2    H114339   1.455   2.194  14.823 -0.3235  0.6661 -1.5041
    1MPD2    H214340   1.186   2.449  14.627 -2.2711  0.7878 -0.5944
    1MPD2    H314341   1.400   2.333  14.637 -0.4513  0.8246 -0.0016
    1MPD2     N14342   1.300   2.188  15.054  0.1865 -0.0821 -0.4525
    1MPD2    H514343   1.232   2.199  15.128 -1.0165  0.3560 -1.6301
    1MPD2    N114344   0.996   2.456  14.812 -0.8101 -0.2492  0.2747
    1MPD2    H714345   0.981   2.484  14.716 -1.3444  1.7039  0.9267
    2TMC3    C114346   0.778   2.522  14.867  0.0459 -1.0102 -0.3911
    2TMC3    C214347   0.697   2.524  14.975 -0.0642  0.7300  0.0313
    2TMC3    C314348   0.574   2.469  14.958  0.1931  0.5406 -0.0831
    2TMC3    C414349   0.735   2.463  14.751  0.5166  0.1772  0.4648
    2TMC3    C514350   0.606   2.427  14.735 -0.2343  0.3247  0.6516
    2TMC3    C614351   0.523   2.422  14.841  0.0306 -0.3246  0.2277
    2TMC3     C14352   0.905   2.474  14.912  0.2521 -0.1044  0.2154
    2TMC3     O14353   0.912   2.441  15.029 -0.4587 -0.1431  0.0733
    2TMC3     H14354   0.726   2.572  15.068  2.8695 -2.7408  0.9403
    2TMC3    H114355   0.800   2.445  14.667 -0.7204 -2.4559  0.0929
    2TMC3    H214356   0.433   2.362  14.835  0.4493 -1.2085  2.8043
    2TMC3    C714357   0.548   2.448  14.607  0.0219  0.2294  0.5204
    2TMC3    C814358   0.538   2.376  15.061  0.7515  0.0889  0.0724
    2TMC3    O114359   0.621   2.489  14.518 -0.7424  0.3091 -0.1542
    2TMC3    O214360   0.428   2.321  15.076  0.9232  0.4078 -0.7175
    3TCq1    O114361   4.135   2.872  14.163 -0.8962  0.0511 -0.3151
    3TCq1    C114362   4.188   2.749  14.190  0.0981 -0.1431 -0.4450
    3TCq1    O214363   4.135   2.643  14.158  0.0921 -0.1903  0.5560
    3TCq1    C214364   4.313   2.762  14.251  0.2590 -0.6037  0.2241
    3TCq1    C314365   4.322   2.852  14.354 -0.7133 -0.5351  0.5820
    3TCq1    C414366   4.420   2.867  14.438  0.3369 -0.3253  0.0190
    3TCq1    C514367   4.517   2.768  14.430 -0.4314 -0.2733 -0.3122
    3TCq1    C614368   4.511   2.668  14.332 -0.4096 -0.4823  0.4331
    3TCq1    C714369   4.409   2.659  14.245  0.0468  0.0289  0.4916
    3TCq1    C814370   4.629   2.583  14.297  0.3732 -0.1826  0.3222
    3TCq1    O414371   4.624   2.519  14.193  0.3330 -0.1383 -0.3472
    3TCq1    C914372   4.433   2.980  14.527 -1.1933 -0.2265 -0.4302
    3TCq1    O514373   4.532   2.985  14.609 -0.0092 -0.2108 -0.1488
    3TCq1    O614374   4.366   3.082  14.489 -0.0930 -0.6523  0.4332
    3TCq1    H114375   4.203   2.942  14.173 -0.1843 -0.3092 -2.5491
    3TCq1    H214376   4.247   2.928  14.377  0.3734  0.8203 -0.3511
    3TCq1    H314377   4.606   2.777  14.491  0.8380 -1.6431 -1.9494
    3TCq1    H414378   4.411   2.587  14.164 -1.2253 -0.8680  1.2625
    4MPD2     C14379   0.175   2.484  14.254 -0.7978 -0.5355 -0.5302
    4MPD2    C114380   0.122   2.519  14.376  0.0939  0.3680  0.3688
    4MPD2    C214381   0.210   2.503  14.486  0.0385  0.4431  0.0475
    4MPD2    C314382   0.342   2.465  14.481 -0.4849  1.2739  0.2620
    4MPD2    C414383   0.389   2.429  14.356 -0.0854 -0.4006  0.6184
    4MPD2    C514384   0.307   2.442  14.251 -0.5744  0.2221 -0.2620
    4MPD2     H14385   0.185   2.536  14.586 -3.1814 -1.2310 -0.2021
    4MPD2    H114386   0.488   2.392  14.334  0.8155  1.2887  1.8265
    4MPD2    H214387   0.124   2.489  14.159 -0.7848  3.8350 -0.3342
    4MPD2    H314388   0.337   2.413  14.151  0.1676  0.2916 -0.0583
    4MPD2     N14389   0.410   2.452  14.603  0.2853 -0.1378  0.5967
    4MPD2    H514390   0.357   2.460  14.689  1.0391  0.6962  0.9823
    4MPD2    N114391   4.721   2.572  14.400 -0.4212 -0.0699  0.8268
    4MPD2    H714392   4.701   2.606  14.493 -0.4208  1.3331  0.3196
    5TMC2    C114393   1.159   1.922  15.306 -0.3023 -0.8266  0.2854
    5TMC2    C214394   1.245   1.857  15.387 -0.1917 -0.7036 -0.4132
    5TMC2    C314395   1.382   1.879  15.371  0.3766  0.5274  0.0396
    5TMC2    C414396   1.203   1.985  15.197  0.2582  0.1632  0.1333
    5TMC2    C514397   1.338   1.992  15.182  0.0900 -0.1033  0.7462
    5TMC2    C614398   1.431   1.955  15.271 -1.1110  0.1566  0.0151
    5TMC2     C14399   1.020   1.932  15.342 -0.3420  0.0521  0.6938
    5TMC2     O14400   0.971   1.837  15.400 -0.2341 -0.0422  0.2695
    5TMC2     H14401   1.202   1.793  15.463 -0.0682 -0.4223 -0.1060
    5TMC2    H114402   1.131   2.018  15.123 -2.2395 -2.8666  1.2054
    5TMC2    H214403   1.537   1.967  15.249 -0.7087  0.5064  2.1293
    5TMC2    C714404   1.388   2.079  15.074 -0.4014 -0.3258  0.0877
    5TMC2    C814405   1.476   1.791  15.436 -0.0022  0.0348 -0.2440
    5TMC2    O114406   1.504   2.067  15.032  0.7329 -0.2663  0.3836
    5TMC2    O214407   1.588   1.772  15.383  0.1520  0.2392  0.6032
    5TMC2    O514408   1.420   1.742  15.549  0.2885  0.1342 -0.3177
    5TMC2    H514409   1.342   1.800  15.560  0.4824 -0.5086  4.3259
    6MPD2     C14410   0.561   2.162  15.271  0.5451  0.0160  0.5762
    6MPD2    C114411   0.668   2.236  15.218  0.2416 -0.0424  0.5304
    6MPD2    C214412   0.801   2.203  15.233 -0.1225 -0.3932  0.0575
    6MPD2    C314413   0.831   2.092  15.301  0.1438 -0.1870 -0.1398
    6MPD2    C414414   0.726   2.011  15.359 -0.4236 -0.8956 -0.0273
    6MPD2    C514415   0.593   2.046  15.337 -0.1091 -0.1410 -0.2256
    6MPD2     H14416   0.878   2.268  15.192  1.6191 -1.5450  1.4729
    6MPD2    H114417   0.754   1.916  15.402  0.6264 -0.2448  0.7139
    6MPD2    H214418   0.459   2.179  15.236  0.0920  0.8207  2.3174
    6MPD2    H314419   0.508   1.996  15.380  0.8075 -0.6507  0.9755
    6MPD2     N14420   0.965   2.051  15.297 -0.3370  0.6492 -0.5214
    6MPD2    H514421   1.033   2.122  15.273 -1.1505  1.4198 -0.5320
    6MPD2    N114422   0.651   2.340  15.125 -0.2996 -0.1779  0.7400
    6MPD2    H714423   0.731   2.379  15.077 -1.0463  1.1736  0.5904
  945NH4     N114424   3.606   4.375  14.007 -0.1498  0.0560 -0.2545
  945NH4     H214425   3.633   4.432  14.089 -0.0218  0.6560 -0.7121
  945NH4     H314426   3.563   4.445  13.942 -0.9209 -0.5430 -0.3961
  945NH4     H414427   3.547   4.295  14.039 -0.0973  0.7849  1.6486
  945NH4     H514428   3.699   4.352  13.967  0.2678  0.2747  0.6084
  946SOD     NA14429   1.431   1.461  11.915  0.6414  0.0340  0.1244
  947SOD     NA14430   3.599   0.240   1.343 -0.0657  0.3199  0.3781
  948SOD     NA14431   4.034   1.975  10.512 -0.2962  0.1403  0.2334
  949SOD     NA14432   1.831   1.784  16.335  0.1841 -0.3343  0.0464
  950SOD     NA14433   0.231   3.896   9.469  0.3670  0.5302 -0.4053
  951SOD     NA14434   1.484   2.490   0.457 -0.2199  0.1536  0.1098
  952SOD     NA14435   1.137   1.685  11.873 -0.1390 -0.0532 -0.1839
  953SOD     NA14436   2.004   0.154   5.152 -0.0107  0.0854  0.3480
  954SOD     NA14437   3.907   1.471  12.944 -0.1495 -0.0977 -0.5851
  955SOD     NA14438   1.067   2.312  16.188  0.3156  0.6942 -0.1220
  956SOD     NA14439   2.076   1.239  14.585  0.1199 -0.2493  0.0088
  957SOD     NA14440   3.730   2.351  11.178  0.2370 -0.5283 -0.0080
  958SOD     NA14441   1.343   2.154  16.237 -0.3153  0.2250  0.3377
  959SOD     NA14442   4.052   1.622  10.633 -0.2277 -0.2833  0.4316
  960SOD     NA14443   2.218   0.343  12.606  0.1898  0.3236  0.2150
  961SOD     NA14444   1.011   1.225  13.030  0.1312 -0.5982  0.3665
  962SOD     NA14445   2.697   0.281  10.013 -0.2912  0.1882 -0.0624
  963SOD     NA14446   3.043   0.961   2.620  0.2220  0.2900  0.1388
  964SOD     NA14447   1.109   2.309   6.479  0.2618  0.2964 -0.2446
  965SOD     NA14448   4.474   0.923  10.225  0.1019  0.1964  0.3284
  966SOD     NA14449   1.104   0.821   2.790  0.4398  0.0665 -0.1268
  967SOD     NA14450   0.876   4.551  11.629  0.2025  0.0554  0.0816
  968SOD     NA14451   3.646   1.157   9.632  0.4600 -0.3147  0.3112
  969SOD     NA14452   0.508   1.255  12.920 -0.1189 -0.2623 -0.2772
  970SOD     NA14453   4.693   0.587  11.455  0.2521 -0.1881 -0.2274
  971SOD     NA14454   4.689   4.420   4.860 -0.1616  0.2493 -0.1032
  972SOD     NA14455   2.931   0.139  13.330 -0.0745 -0.0641 -0.5636
  973SOD     NA14456   3.994   2.896   1.635  0.3016  0.0624 -0.3373
  974SOD     NA14457   0.364   2.293   2.758 -0.6471 -0.6720  0.0684
  975SOD     NA14458   0.282   0.490  11.418 -0.0865 -0.2511  0.6219
  976SOD     NA14459   2.948   0.013  15.499  0.2496 -0.0784 -0.3707
  977SOD     NA14460   0.874   0.684  10.036  1.1489  0.5366  0.0431
  978SOD     NA14461   1.445   3.460   1.475  0.0559 -0.0619  0.3040
  979SOD     NA14462   0.317   1.540  10.326 -0.6330 -0.6141 -0.0358
  980SOD     NA14463   1.295   2.482  13.878 -0.0729 -0.6662 -0.1040
  981SOD     NA14464   3.951   4.436   8.818  0.2407 -0.1239 -0.4567
  982SOD     NA14465   2.479   1.817   9.098 -0.1112  0.0286 -0.2851
  983SOD     NA14466   2.991   4.454  16.549  0.0274 -0.2723  0.0611
  984SOD     NA14467   3.621   3.077   2.648  0.4106  0.3197  0.2892
  985SOD     NA14468   4.526   3.689   1.375 -0.1744  0.3334 -0.1456
  986SOD     NA14469   1.840   2.766  15.350  0.0560  0.4397  0.3049
  987SOD     NA14470   1.132   3.433  10.447 -0.3322  0.5306 -0.3808
  988SOD     NA14471   4.365   2.732   7.884 -0.0433  0.7240 -0.0111
  989SOD     NA14472   2.516   0.507   1.686 -0.4426 -0.1676  0.5591
  990SOD     NA14473   1.411   4.028  16.974  0.1413  0.1445 -0.0834
  991SOD     NA14474   1.666   2.118  14.197  0.1631 -0.4059  0.1713
  992SOD     NA14475   2.961   1.070  14.031  0.4349 -0.2845  0.3351
  993SOD     NA14476   1.069   1.391  11.865 -0.3261  0.3695  0.1657
  994SOD     NA14477   4.633   2.859  14.770 -0.1922 -0.0950 -0.2828
  995SOD     NA14478   4.627   1.212  10.121  0.1404 -0.3019  0.2963
  996SOD     NA14479   2.852   2.642  12.809 -0.0102 -0.2385  1.1125
  997SOD     NA14480   4.197   2.284   2.479 -0.3620  0.1530  0.3013
  998SOD     NA14481   2.332   3.397   2.807 -0.6734 -0.3903 -0.0684
  999SOD     NA14482   2.560   3.942   1.080  0.3277  0.1508 -0.3552
 1000SOD     NA14483   4.322   2.282   9.384  0.0378 -0.1560 -0.3334
 1001SOD     NA14484   3.086   0.998  14.343 -0.7959  0.1112  0.2099
 1002SOD     NA14485   0.331   1.498   0.490  0.0418  0.1496 -0.1622
 1003SOD     NA14486   3.281   2.035   0.282  0.2776 -0.0213 -0.1584
 1004SOD     NA14487   0.232   3.010  14.392 -0.2175 -0.0199 -0.3296
 1005SOD     NA14488   3.535   1.925  14.861  0.2621  0.0661 -0.2073
 1006SOD     NA14489   0.722   3.670  12.198  0.1348 -0.3268 -0.3321
 1007SOD     NA14490   1.774   1.341  14.565 -0.0105  0.4850  0.2697
 1008SOD     NA14491   2.111   0.037   0.016 -0.0136 -0.3286 -0.2362
 1009SOD     NA14492   2.234   2.324  11.129 -0.1281  0.1404  0.1047
 1010SOD     NA14493   3.892   2.126   5.800  0.0658 -0.2550  0.0518
 1011SOL     OW14494   3.934   2.681   1.768 -0.3468 -0.5001  0.3063
 1011SOL    HW114495   3.844   2.701   1.795 -0.6160  0.5293 -1.3402
 1011SOL    HW214496   3.928   2.586   1.758 -0.8678 -0.4780  0.3824
 1012SOL     OW14497   3.417   4.450   5.178 -0.1151  0.4821 -0.1243
 1012SOL    HW114498   3.441   4.522   5.119  2.4184  0.2899  0.6921
 1012SOL    HW214499   3.356   4.408   5.118 -0.6882  0.6931  0.3053
 1013SOL     OW14500   0.108   1.404   9.279  0.2430  0.2498 -0.0744
 1013SOL    HW114501   0.107   1.363   9.365 -1.7289  3.2321  1.3441
 1013SOL    HW214502   0.024   1.451   9.274 -0.4823 -0.9449  0.7811
 1014SOL     OW14503   4.105   1.753   5.950  0.2301 -0.4175 -0.2547
 1014SOL    HW114504   4.162   1.676   5.953  1.7956  0.7856  0.6600
 1014SOL    HW214505   4.165   1.822   5.976  0.0987 -0.7566  0.9292
 1015SOL     OW14506   2.989   0.860   0.833 -0.2356 -0.2337  0.0474
 1015SOL    HW114507   3.082   0.875   0.818 -0.6087  2.5566  0.3894
 1015SOL    HW214508   2.952   0.897   0.753 -0.3968 -0.7032 -0.0971
 1016SOL     OW14509   2.371   3.153   3.018  0.2823  0.2893 -0.2757
 1016SOL    HW114510   2.434   3.129   3.086  0.8878  0.9074 -0.6137
 1016SOL    HW214511   2.318   3.199   3.082  0.3288  0.2634 -0.2185
 1017SOL     OW14512   0.155   2.219   1.143 -0.4147 -0.2000 -0.4925
 1017SOL    HW114513   0.249   2.214   1.128 -0.3818 -1.8350  0.2459
 1017SOL    HW214514   0.150   2.216   1.239  1.0508  1.8063 -0.3743
 1018SOL     OW14515   1.414   2.787  11.177 -0.2777  0.5097  0.3134
 1018SOL    HW114516   1.485   2.810  11.236  2.2169  0.2901 -2.5787
 1018SOL    HW214517   1.338   2.834  11.211 -1.3286 -0.3323 -0.8953
 1019SOL     OW14518   1.313   2.351   6.564  0.0449 -0.6145 -0.2132
 1019SOL    HW114519   1.387   2.322   6.617 -0.0301 -0.6847 -0.1480
 1019SOL    HW214520   1.293   2.430   6.615 -2.0723 -2.0135  1.1222
 1020SOL     OW14521   4.326   3.669   1.856  0.3046  0.3205  0.0014
 1020SOL    HW114522   4.259   3.655   1.923 -1.0782  1.1747 -1.1874
 1020SOL    HW214523   4.371   3.587   1.875 -0.8566  0.1619  2.0429
 1021SOL     OW14524   2.552   1.663   7.596  0.2639  0.2569 -0.0417
 1021SOL    HW114525   2.613   1.593   7.617 -1.2265 -0.7337  1.0032
 1021SOL    HW214526   2.483   1.626   7.541  0.0790  0.4492  0.0618
 1022SOL     OW14527   1.086   3.630   4.880  0.1375  0.3343 -0.0621
 1022SOL    HW114528   1.076   3.702   4.818 -1.3996 -1.4363 -1.9169
 1022SOL    HW214529   1.044   3.559   4.830  0.1106 -1.0053  1.8734
 1023SOL     OW14530   3.758   2.763  11.989  0.6247  0.6291  0.2142
 1023SOL    HW114531   3.675   2.794  11.951  0.6684  0.5658  0.0654
 1023SOL    HW214532   3.747   2.765  12.084  0.9393 -1.1530  0.2809
 1024SOL     OW14533   0.331   3.434   6.668 -0.1536  0.1199  0.3780
 1024SOL    HW114534   0.328   3.404   6.759  0.6686  0.8312  0.6466
 1024SOL    HW214535   0.422   3.409   6.652  0.3266  2.0134  0.1626
 1025SOL     OW14536   0.833   1.684   2.070 -0.4852 -1.0133 -0.7534
 1025SOL    HW114537   0.924   1.691   2.096 -0.4733 -3.2963 -0.1924
 1025SOL    HW214538   0.833   1.713   1.979 -0.2508  0.8162 -0.1650
 1026SOL     OW14539   0.277   2.936  16.608 -0.0696  0.0775 -0.2008
 1026SOL    HW114540   0.291   2.961  16.699 -0.7472 -1.3521  0.3017
 1026SOL    HW214541   0.193   2.976  16.587  0.5578  0.9691 -1.0093
 1027SOL     OW14542   0.169   0.573   9.569 -0.1897  0.2903 -0.0549
 1027SOL    HW114543   0.200   0.639   9.506  0.7674  1.0284  1.1919
 1027SOL    HW214544   0.228   0.576   9.645 -1.1645 -1.0245  0.7596
 1028SOL     OW14545   1.160   2.820   6.759 -0.6645 -0.1633  0.2519
 1028SOL    HW114546   1.097   2.892   6.765  0.5180  0.8286  0.7283
 1028SOL    HW214547   1.102   2.751   6.792 -0.8142  0.1901  0.7248
 1029SOL     OW14548   2.287   2.067   9.227 -0.0280  0.2793 -0.3620
 1029SOL    HW114549   2.276   1.973   9.241  2.6655 -0.3960 -2.7895
 1029SOL    HW214550   2.322   2.076   9.139 -0.2350 -1.8932 -0.6593
 1030SOL     OW14551   1.897   2.545   8.530  0.0432 -0.2612  0.5266
 1030SOL    HW114552   1.942   2.561   8.613 -0.4851 -2.5978  1.2613
 1030SOL    HW214553   1.911   2.452   8.515 -3.8327 -0.6677 -0.5563
 1031SOL     OW14554   3.252   3.546   6.088 -0.0019  0.8039  0.0629
 1031SOL    HW114555   3.259   3.619   6.027 -1.1229  0.6918 -0.1971
 1031SOL    HW214556   3.156   3.538   6.092  0.1317 -0.6105  0.4594
 1032SOL     OW14557   2.334   1.092   4.107  0.7646  0.1069  0.2376
 1032SOL    HW114558   2.401   1.059   4.167  1.2388  0.1261 -0.2763
 1032SOL    HW214559   2.342   1.037   4.029  2.1737  2.3594 -1.2328
 1033SOL     OW14560   4.468   3.425   1.879  0.2428  0.5907  0.0733
 1033SOL    HW114561   4.428   3.368   1.813 -0.7446  0.8584  0.4255
 1033SOL    HW214562   4.555   3.436   1.842 -0.3017  1.8444 -0.7963
 1034SOL     OW14563   0.570   2.867  10.501 -0.0658  0.2731 -0.4713
 1034SOL    HW114564   0.503   2.922  10.542  0.3867  0.2010  0.3496
 1034SOL    HW214565   0.636   2.936  10.510  1.5449 -1.6996  2.7567
 1035SOL     OW14566   2.492   0.402   3.017 -0.1286 -0.3680 -0.3838
 1035SOL    HW114567   2.469   0.309   3.014  0.3883 -0.4058 -3.1042
 1035SOL    HW214568   2.427   0.443   2.960 -0.5207 -1.9823 -1.0853
 1036SOL     OW14569   4.681   4.588   6.703 -0.5190  0.5166  0.3124
 1036SOL    HW114570   0.043   4.634   6.707  1.0372 -2.4571  1.5373
 1036SOL    HW214571   4.692   4.515   6.762 -0.5130  1.9964  2.1425
 1037SOL     OW14572   1.601   2.767  16.805  0.1775 -0.6646 -0.5412
 1037SOL    HW114573   1.598   2.673  16.823 -2.2472 -0.0578  2.3632
 1037SOL    HW214574   1.678   2.776  16.749  1.0424  0.4114  0.8190
 1038SOL     OW14575   4.127   1.736  11.604 -0.1517  0.2917  0.4524
 1038SOL    HW114576   4.122   1.814  11.658 -0.1407  0.9913 -0.5573
 1038SOL    HW214577   4.031   1.730  11.598 -0.2495  2.1074  0.1778
 1039SOL     OW14578   1.896   2.571   9.589 -0.0797 -0.0123 -0.3242
 1039SOL    HW114579   1.932   2.658   9.607 -1.8154 -0.0249  3.1702
 1039SOL    HW214580   1.976   2.529   9.556  0.4653  1.4017 -0.8112
 1040SOL     OW14581   2.258   4.233  10.203  0.2432  0.4844 -0.0631
 1040SOL    HW114582   2.170   4.215  10.169  0.8877  0.6044 -1.8402
 1040SOL    HW214583   2.304   4.149  10.195 -1.4961 -0.4628 -0.1943
 1041SOL     OW14584   0.089   4.396   2.758 -0.5325  0.4123 -0.6492
 1041SOL    HW114585   0.098   4.429   2.668 -0.2834 -0.2722 -0.8748
 1041SOL    HW214586   0.008   4.347   2.742 -0.5174  0.2907 -0.3537
 1042SOL     OW14587   0.772   2.471   8.596 -0.3165  0.6134 -0.0314
 1042SOL    HW114588   0.807   2.465   8.685 -0.1842  1.0061 -0.0552
 1042SOL    HW214589   0.850   2.511   8.559  0.0283  0.9428  1.0510
 1043SOL     OW14590   4.611   3.778  15.762  0.0681 -0.1943  0.2699
 1043SOL    HW114591   4.550   3.832  15.812 -0.6478 -0.5583 -0.2048
 1043SOL    HW214592   4.688   3.802  15.813  0.6236 -2.8088  0.6363
 1044SOL     OW14593   0.298   4.463  16.522 -0.2141 -0.5507  1.0344
 1044SOL    HW114594   0.267   4.444  16.434  0.1372  0.1889  0.7469
 1044SOL    HW214595   0.229   4.518  16.559 -2.3725 -1.9136 -0.9478
 1045SOL     OW14596   4.402   0.196   0.484  0.0638  0.6310  0.5526
 1045SOL    HW114597   4.432   0.287   0.489  1.1004  0.1910  2.2842
 1045SOL    HW214598   4.481   0.156   0.446 -0.1239  1.2956 -0.5402
 1046SOL     OW14599   1.506   4.536   3.930 -0.0253 -0.1319 -0.0337
 1046SOL    HW114600   1.447   4.471   3.891 -2.1884  0.5994  2.0127
 1046SOL    HW214601   1.590   4.523   3.885  0.5683 -1.1893  1.3531
 1047SOL     OW14602   1.171   4.015   2.771 -0.0968  0.9272 -0.2444
 1047SOL    HW114603   1.212   4.058   2.695  0.6304  0.6983  0.0141
 1047SOL    HW214604   1.236   3.952   2.804 -3.5648 -1.9832  0.9863
 1048SOL     OW14605   0.674   2.101  12.964  0.6835  0.0669 -0.4419
 1048SOL    HW114606   0.636   2.031  13.018 -1.1438  1.6369  0.3010
 1048SOL    HW214607   0.594   2.121  12.916 -1.5540 -1.8199  2.4543
 1049SOL     OW14608   0.330   0.088   6.938  0.2507  0.1401  0.4636
 1049SOL    HW114609   0.415   0.094   6.894 -2.2891 -2.8676 -4.7795
 1049SOL    HW214610   0.351   0.150   7.008  1.0658  1.3660 -0.8642
 1050SOL     OW14611   4.300   2.593   4.829  0.0691 -0.1659 -0.2176
 1050SOL    HW114612   4.204   2.588   4.832  0.1174 -0.2818  1.4050
 1050SOL    HW214613   4.316   2.621   4.739 -1.7349  0.5662 -0.3186
 1051SOL     OW14614   3.279   2.427   6.934  0.3096  0.3063  0.4706
 1051SOL    HW114615   3.284   2.469   7.020  1.2784  1.1701 -0.0107
 1051SOL    HW214616   3.339   2.354   6.951 -0.1532 -0.5136 -1.4178
 1052SOL     OW14617   1.201   0.460   2.235 -0.2464 -0.1405  0.2924
 1052SOL    HW114618   1.168   0.374   2.263 -0.7120 -0.4310 -1.1344
 1052SOL    HW214619   1.163   0.520   2.300 -0.8789  1.4122 -1.5203
 1053SOL     OW14620   1.903   2.241   6.263  0.1346  0.6828 -0.2458
 1053SOL    HW114621   1.902   2.301   6.337  0.7376 -0.0358  0.3528
 1053SOL    HW214622   1.960   2.170   6.293  0.3064  1.0453  0.2845
 1054SOL     OW14623   1.680   1.426   0.208 -0.1925 -0.0333 -0.0671
 1054SOL    HW114624   1.629   1.355   0.170  0.8168 -1.0600  0.5002
 1054SOL    HW214625   1.717   1.383   0.285 -1.8827  1.0247  1.3444
 1055SOL     OW14626   3.904   3.343   7.599  0.2939 -0.3420  0.2422
 1055SOL    HW114627   3.986   3.390   7.587 -1.4374  3.1680  2.0842
 1055SOL    HW214628   3.915   3.275   7.666  1.1310  1.1159  1.5885
 1056SOL     OW14629   0.896   4.162  17.165 -0.4663  0.2226 -0.3307
 1056SOL    HW114630   0.930   4.134  17.080 -1.1658  0.8932 -0.8411
 1056SOL    HW214631   0.805   4.181  17.142 -0.9736 -0.7265  0.9077
 1057SOL     OW14632   0.041   4.085   4.216 -0.4984  0.0381  0.3456
 1057SOL    HW114633   4.708   4.017   4.255  0.1614  0.2181  1.5867
 1057SOL    HW214634   0.087   4.112   4.296  0.4972  1.8744 -0.8623
 1058SOL     OW14635   4.033   3.541   1.608  0.6957  0.1423  0.0116
 1058SOL    HW114636   4.078   3.625   1.619 -0.4583  1.0326 -2.0614
 1058SOL    HW214637   3.989   3.553   1.523  0.2098 -0.0766  0.2323
 1059SOL     OW14638   3.350   1.793   3.873  0.0286  0.5262  0.1304
 1059SOL    HW114639   3.318   1.795   3.783  0.7774 -2.8014 -0.2043
 1059SOL    HW214640   3.393   1.707   3.877 -1.2755 -0.0661  1.1810
 1060SOL     OW14641   2.365   2.374   9.411 -0.4980  0.0998  0.3832
 1060SOL    HW114642   2.447   2.350   9.456 -1.1544 -2.3026  0.2886
 1060SOL    HW214643   2.391   2.364   9.319  1.2437 -0.2556  0.9167
 1061SOL     OW14644   2.283   0.984   7.162 -0.2509 -0.1042  0.3530
 1061SOL    HW114645   2.191   0.957   7.168 -0.5255  0.6349 -0.5735
 1061SOL    HW214646   2.281   1.058   7.102 -1.4792 -0.3870  0.0329
 1062SOL     OW14647   3.701   2.178   8.481  0.0204  0.0696  0.3402
 1062SOL    HW114648   3.633   2.115   8.505 -0.5361 -0.3598 -2.3937
 1062SOL    HW214649   3.658   2.262   8.466 -1.5484 -0.8613 -0.3808
 1063SOL     OW14650   4.336   1.235   3.159  0.2578  0.1422  0.0760
 1063SOL    HW114651   4.248   1.259   3.187  0.1122  0.0420 -0.2901
 1063SOL    HW214652   4.366   1.161   3.212 -1.5015  0.8600  2.0339
 1064SOL     OW14653   1.203   0.685   9.272  0.3342  0.3315 -0.3973
 1064SOL    HW114654   1.190   0.639   9.355  0.3632  1.3751  0.1904
 1064SOL    HW214655   1.196   0.609   9.215  0.9066 -1.2516  1.6264
 1065SOL     OW14656   3.806   1.099  12.719 -0.5905  0.1472 -0.0536
 1065SOL    HW114657   3.770   1.102  12.630  0.2236  1.9522 -0.3268
 1065SOL    HW214658   3.802   1.006  12.742 -1.7458  0.0385 -0.7314
 1066SOL     OW14659   3.430   1.855  15.728 -0.7842  0.4662  0.1371
 1066SOL    HW114660   3.391   1.788  15.785  1.8229 -0.5378  0.7278
 1066SOL    HW214661   3.522   1.829  15.735 -1.0896 -1.1953 -2.0152
 1067SOL     OW14662   2.356   3.946   6.690  0.4533  0.8048 -0.2602
 1067SOL    HW114663   2.442   3.965   6.653  1.6134 -1.0471  1.4826
 1067SOL    HW214664   2.333   3.874   6.632 -0.3175  0.2566  0.7224
 1068SOL     OW14665   1.687   0.399   6.800 -0.6011  0.3368 -0.0364
 1068SOL    HW114666   1.680   0.333   6.731  1.4955  0.2492 -0.1807
 1068SOL    HW214667   1.607   0.379   6.848  0.2708 -0.9980  0.8340
 1069SOL     OW14668   2.872   3.420   6.413  0.0212 -0.3433 -1.0158
 1069SOL    HW114669   2.856   3.328   6.391 -5.7223  0.5194 -0.3544
 1069SOL    HW214670   2.967   3.417   6.406 -0.1108 -2.8962 -1.7869
 1070SOL     OW14671   4.277   1.614   6.437 -0.9023  0.4137  0.2126
 1070SOL    HW114672   4.325   1.548   6.487 -2.1728 -1.0437 -0.4757
 1070SOL    HW214673   4.216   1.545   6.410  2.4572 -2.8688  1.0076
 1071SOL     OW14674   0.006   3.525   4.181  0.2727 -0.0721  0.2839
 1071SOL    HW114675   0.101   3.521   4.194  0.2963  2.4095  0.8977
 1071SOL    HW214676   0.000   3.547   4.088  2.1892 -0.3510  0.0928
 1072SOL     OW14677   0.668   1.069   1.259 -0.6252 -0.3371  0.4373
 1072SOL    HW114678   0.737   1.127   1.226  0.1534 -1.1591  0.6396
 1072SOL    HW214679   0.708   1.036   1.339 -0.6527  1.1007  1.0392
 1073SOL     OW14680   3.203   1.936   2.835 -0.1222  0.0457 -0.4765
 1073SOL    HW114681   3.211   1.900   2.923 -1.3726 -0.9994 -0.8067
 1073SOL    HW214682   3.114   1.971   2.836 -0.5958 -1.1257 -1.9959
 1074SOL     OW14683   4.519   0.671   8.093 -0.4468 -0.1390  0.0675
 1074SOL    HW114684   4.447   0.674   8.030  1.6302  1.0312 -2.2414
 1074SOL    HW214685   4.592   0.661   8.032 -0.3439  2.9157 -0.3083
 1075SOL     OW14686   1.434   2.687   7.924 -0.8416  0.1527  0.4233
 1075SOL    HW114687   1.380   2.689   7.845 -0.5051  1.0280  0.2235
 1075SOL    HW214688   1.496   2.759   7.915 -1.3917  0.6695  0.7589
 1076SOL     OW14689   4.286   0.751   4.729 -0.0224  0.1580 -0.0831
 1076SOL    HW114690   4.199   0.744   4.691 -0.6821 -0.1167  1.4897
 1076SOL    HW214691   4.308   0.826   4.674 -2.4971 -1.3228 -3.0700
 1077SOL     OW14692   2.758   3.642  10.692 -0.2612 -0.2937 -0.1346
 1077SOL    HW114693   2.693   3.572  10.685 -1.3730  0.2155  5.1295
 1077SOL    HW214694   2.755   3.675  10.782  5.1141 -1.1060  0.3320
 1078SOL     OW14695   1.005   2.966  16.471  0.0689  0.4076  0.1719
 1078SOL    HW114696   1.072   2.994  16.408 -0.0539 -0.4011 -0.3183
 1078SOL    HW214697   1.016   3.033  16.539 -2.4074  0.4263  0.5437
 1079SOL     OW14698   3.045   4.165   3.317  0.1021 -0.1720  0.7306
 1079SOL    HW114699   2.979   4.153   3.249  1.2523 -2.0277 -0.0749
 1079SOL    HW214700   3.118   4.186   3.257  1.1741 -0.6343  1.8704
 1080SOL     OW14701   1.362   1.489  10.090  0.4760 -0.0923 -0.3221
 1080SOL    HW114702   1.302   1.529  10.152  1.5000 -0.4701  0.9138
 1080SOL    HW214703   1.442   1.509  10.139  1.7667 -2.8033 -1.3168
 1081SOL     OW14704   0.365   2.227   8.465  0.2069 -0.2954 -0.4609
 1081SOL    HW114705   0.428   2.299   8.465  0.6440 -0.6783 -1.1518
 1081SOL    HW214706   0.335   2.243   8.555 -0.2270  0.2151 -0.6972
 1082SOL     OW14707   0.375   4.608   8.117 -0.6879 -0.0413  0.4723
 1082SOL    HW114708   0.360   4.513   8.114 -0.2964 -0.0816 -0.1980
 1082SOL    HW214709   0.297   4.638   8.070 -0.3625  0.6092  0.3574
 1083SOL     OW14710   3.093   4.536   4.563  0.0569  0.4517  0.4324
 1083SOL    HW114711   3.058   4.546   4.651 -0.7570  2.8549 -0.1840
 1083SOL    HW214712   3.013   4.508   4.517 -0.4275  1.9498  0.3839
 1084SOL     OW14713   1.796   0.267  10.186  0.1381  0.2962 -0.3108
 1084SOL    HW114714   1.751   0.186  10.209  0.5007 -0.4019 -2.0601
 1084SOL    HW214715   1.730   0.335  10.195  0.5496  0.7715 -0.8750
 1085SOL     OW14716   4.147   2.516   0.468 -0.5857 -0.6610 -0.3892
 1085SOL    HW114717   4.095   2.591   0.497  1.4255  1.6252 -2.7297
 1085SOL    HW214718   4.196   2.492   0.547  0.5585 -0.5606 -1.0821
 1086SOL     OW14719   3.764   1.238   4.721 -0.7409 -0.0431 -0.1726
 1086SOL    HW114720   3.762   1.146   4.696 -3.2754  0.3066 -1.1903
 1086SOL    HW214721   3.738   1.281   4.640  0.4205 -0.3248 -0.7053
 1087SOL     OW14722   1.471   2.670   1.688 -0.0599  0.1074  0.0320
 1087SOL    HW114723   1.424   2.587   1.687 -1.0635  0.6640  0.9840
 1087SOL    HW214724   1.405   2.731   1.721 -0.5154 -0.0277 -0.6245
 1088SOL     OW14725   4.334   0.881   8.102 -0.2356  0.6380 -0.3027
 1088SOL    HW114726   4.276   0.806   8.088 -0.4380  0.7071  0.1490
 1088SOL    HW214727   4.410   0.841   8.144  1.4061  0.9474 -3.0051
 1089SOL     OW14728   1.521   3.331   1.751  0.6349  0.0100  0.6556
 1089SOL    HW114729   1.584   3.260   1.764  0.4654 -0.4093 -0.7559
 1089SOL    HW214730   1.480   3.305   1.668  2.8456 -1.2207 -0.0426
 1090SOL     OW14731   3.794   1.766   1.730  0.1229  0.6169  0.3725
 1090SOL    HW114732   3.779   1.800   1.642  0.5595 -1.5368 -0.5323
 1090SOL    HW214733   3.830   1.844   1.772  0.4038 -0.7924  2.7479
 1091SOL     OW14734   4.134   3.771   3.951 -0.4323 -0.0966  0.1066
 1091SOL    HW114735   4.074   3.715   3.902  0.5672 -0.8415 -0.2558
 1091SOL    HW214736   4.181   3.706   4.002  2.0459  1.2153 -0.4949
 1092SOL     OW14737   3.147   0.730   6.848 -0.0548  0.0972  0.7006
 1092SOL    HW114738   3.139   0.755   6.940 -0.4891  1.0422  0.4074
 1092SOL    HW214739   3.161   0.636   6.859  1.7179  0.4396  1.3970
 1093SOL     OW14740   0.512   2.585   5.804 -0.2357  0.5266  0.0597
 1093SOL    HW114741   0.449   2.553   5.868  0.1480  0.7471  0.5477
 1093SOL    HW214742   0.471   2.552   5.724 -1.9730  1.8909  0.3998
 1094SOL     OW14743   0.325   0.652   3.057 -0.0323  0.1430 -0.2882
 1094SOL    HW114744   0.280   0.722   3.011  0.4259  0.4106 -0.3280
 1094SOL    HW214745   0.336   0.686   3.146 -0.4570  0.8634 -0.5133
 1095SOL     OW14746   4.649   1.560   0.164  0.0561  0.6193 -0.0248
 1095SOL    HW114747   0.014   1.602   0.164  1.0459 -1.5303  5.4947
 1095SOL    HW214748   4.631   1.565   0.070 -0.0496  2.4076  0.0877
 1096SOL     OW14749   3.093   2.300   2.736  0.3010 -0.2204  0.0488
 1096SOL    HW114750   3.023   2.293   2.800 -1.3607  0.1598 -1.7422
 1096SOL    HW214751   3.039   2.304   2.657  0.7205 -1.3972 -0.2916
 1097SOL     OW14752   2.210   3.502  17.540  0.0756 -0.0539 -0.4027
 1097SOL    HW114753   2.232   3.530  17.451 -3.8487 -2.2192 -2.0630
 1097SOL    HW214754   2.123   3.543  17.547  0.1616  0.3186 -1.4602
 1098SOL     OW14755   0.460   2.886   1.231  0.6051  0.1046 -0.0242
 1098SOL    HW114756   0.402   2.873   1.306  1.3725 -0.3280  0.5037
 1098SOL    HW214757   0.546   2.852   1.256  0.9245  2.1998  1.6973
 1099SOL     OW14758   0.605   2.194   5.571  0.3803 -0.1335 -0.4350
 1099SOL    HW114759   0.580   2.216   5.661 -0.2738  2.0941 -1.1467
 1099SOL    HW214760   0.692   2.157   5.584  0.5159 -0.2585 -1.7213
 1100SOL     OW14761   2.948   4.522   1.043 -0.3810  0.0549 -0.1113
 1100SOL    HW114762   2.918   4.499   1.131 -2.2133 -0.5002 -0.8636
 1100SOL    HW214763   2.907   4.608   1.035 -0.6850 -0.1984 -1.3004
 1101SOL     OW14764   0.922   3.035   6.801  0.6570  0.2684  0.2499
 1101SOL    HW114765   0.947   3.057   6.711  0.7929 -2.4402 -0.3504
 1101SOL    HW214766   0.832   3.068   6.804  0.2385 -0.5847 -2.2140
 1102SOL     OW14767   0.396   1.868  11.528  0.1587  0.4954  0.3166
 1102SOL    HW114768   0.477   1.891  11.573 -0.6438 -0.5965  2.3330
 1102SOL    HW214769   0.391   1.936  11.462 -3.5549 -1.5248 -1.5057
 1103SOL     OW14770   1.001   2.706   4.224 -0.0852 -0.0127  0.8449
 1103SOL    HW114771   1.016   2.622   4.268  0.0163  1.1866  3.0888
 1103SOL    HW214772   0.928   2.677   4.171  0.1235  0.4831  0.2911
 1104SOL     OW14773   3.366   2.812   7.031  0.0477  0.0875 -0.6109
 1104SOL    HW114774   3.313   2.877   6.985  0.6073  0.7012 -0.3887
 1104SOL    HW214775   3.439   2.872   7.043  0.6476 -0.5920 -0.8286
 1105SOL     OW14776   3.002   3.623   3.509  0.6726 -0.6889  0.1184
 1105SOL    HW114777   3.054   3.703   3.502 -1.1623  0.4157 -0.8577
 1105SOL    HW214778   2.924   3.665   3.546  2.3760  1.6471  1.0697
 1106SOL     OW14779   3.885   1.071   7.594  0.4772  0.1791 -0.2351
 1106SOL    HW114780   3.925   1.139   7.648 -1.8124 -0.9712  2.9111
 1106SOL    HW214781   3.896   0.998   7.654  1.5400  0.2976 -0.2785
 1107SOL     OW14782   2.101   3.023   1.374 -0.5952  0.4339 -0.1970
 1107SOL    HW114783   2.141   3.105   1.343 -2.1891  0.9895 -0.8169
 1107SOL    HW214784   2.126   2.966   1.302  1.0564  2.4142 -1.2011
 1108SOL     OW14785   2.689   3.453   6.079  0.0214 -0.1104  0.5192
 1108SOL    HW114786   2.648   3.425   5.997 -4.1428  1.1408  2.2049
 1108SOL    HW214787   2.731   3.536   6.060  2.1612 -2.1710 -3.8304
 1109SOL     OW14788   3.911   1.553   9.040  0.3726  0.7028  0.3289
 1109SOL    HW114789   3.877   1.633   9.000 -0.7180  0.4849  0.8019
 1109SOL    HW214790   3.917   1.498   8.961 -3.3911 -1.9688  1.8741
 1110SOL     OW14791   4.575   2.933   6.122  0.3314 -0.1057 -0.3824
 1110SOL    HW114792   4.520   2.958   6.048  0.7094  2.0984  0.0951
 1110SOL    HW214793   4.537   2.982   6.195 -0.2000 -0.0551 -0.6917
 1111SOL     OW14794   4.079   0.885  15.368  0.0924  0.0657 -0.4657
 1111SOL    HW114795   4.175   0.886  15.373  0.2567 -0.6145 -3.0326
 1111SOL    HW214796   4.069   0.978  15.348 -1.6276  0.0647  0.4851
 1112SOL     OW14797   2.789   2.733   4.449  0.4225 -0.0607  0.6978
 1112SOL    HW114798   2.817   2.771   4.366 -1.4149 -0.2683 -0.0193
 1112SOL    HW214799   2.796   2.637   4.442 -1.5352 -0.2917  1.6402
 1113SOL     OW14800   0.499   1.137   9.348 -0.2052  0.1260  0.0937
 1113SOL    HW114801   0.587   1.153   9.313 -0.1586  1.4267  0.8211
 1113SOL    HW214802   0.458   1.072   9.290  1.1627  0.2337 -1.0160
 1114SOL     OW14803   4.044   0.505  11.081 -0.2974 -0.0230  0.1700
 1114SOL    HW114804   4.095   0.577  11.118  0.2693 -1.1446  1.6142
 1114SOL    HW214805   3.960   0.545  11.058  1.2525  2.3465 -1.3385
 1115SOL     OW14806   2.313   4.199   4.680  0.1698  0.3427 -0.2560
 1115SOL    HW114807   2.302   4.290   4.708  0.1720  0.4812 -0.6966
 1115SOL    HW214808   2.348   4.202   4.591 -1.7944  2.0053 -0.9770
 1116SOL     OW14809   3.392   4.234   7.700 -0.0844  0.2074 -0.0475
 1116SOL    HW114810   3.353   4.147   7.691  1.2468 -0.4901  0.8353
 1116SOL    HW214811   3.434   4.249   7.616 -0.3500 -3.6022 -0.8611
 1117SOL     OW14812   2.122   1.283   3.089  0.4981  0.6254 -0.2237
 1117SOL    HW114813   2.090   1.328   3.167 -1.1621 -1.8693  0.5244
 1117SOL    HW214814   2.049   1.267   3.030 -0.3023 -0.1777  0.9915
 1118SOL     OW14815   0.001   1.068   8.566  0.5821  0.4316  0.0036
 1118SOL    HW114816   4.677   1.072   8.650 -1.7973  2.7440 -1.4385
 1118SOL    HW214817   0.038   1.155   8.555  2.2826 -0.4152 -1.1375
 1119SOL     OW14818   0.059   0.382   4.915 -0.6109 -0.0880 -0.0815
 1119SOL    HW114819   0.126   0.408   4.852 -0.0753  1.2549  1.0451
 1119SOL    HW214820   0.043   0.292   4.886 -1.9797 -0.1626  0.8942
 1120SOL     OW14821   3.660   0.484   5.031  0.0048 -0.4451 -0.2525
 1120SOL    HW114822   3.635   0.573   5.057 -3.2805 -1.2840 -0.4883
 1120SOL    HW214823   3.664   0.494   4.936  0.6677 -3.1548 -0.5065
 1121SOL     OW14824   1.546   3.559   2.860  0.0991 -0.0498 -0.3740
 1121SOL    HW114825   1.564   3.497   2.931  0.7401 -0.0916 -0.5771
 1121SOL    HW214826   1.627   3.610   2.861  1.7333 -2.6427  0.0398
 1122SOL     OW14827   3.340   3.962   0.129 -0.0630 -0.2902 -0.6275
 1122SOL    HW114828   3.429   3.986   0.153 -0.0799  0.2608 -1.0944
 1122SOL    HW214829   3.345   3.867   0.139 -0.8648 -0.2646 -0.0018
 1123SOL     OW14830   1.845   1.552  16.316  0.7860  0.1341 -0.2495
 1123SOL    HW114831   1.839   1.521  16.225 -1.4095  0.1366 -0.1097
 1123SOL    HW214832   1.834   1.473  16.368 -0.4038 -0.9578 -2.1210
 1124SOL     OW14833   1.629   1.173   0.863 -0.0825  0.1819 -0.6733
 1124SOL    HW114834   1.536   1.193   0.867 -0.0239  0.2442  0.4524
 1124SOL    HW214835   1.644   1.193   0.771 -0.2551  1.6855 -0.3784
 1125SOL     OW14836   1.080   1.057  11.166  0.1314 -0.1495  0.3238
 1125SOL    HW114837   1.074   1.138  11.115 -1.1210 -1.8161 -2.1643
 1125SOL    HW214838   1.110   0.989  11.106 -0.4727 -1.5494  1.6156
 1126SOL     OW14839   2.387   0.049   4.233  0.1014 -0.2086 -0.1738
 1126SOL    HW114840   2.363   0.019   4.320  2.3296 -1.1243  0.1192
 1126SOL    HW214841   2.365   0.142   4.234 -1.5359 -0.5501 -2.8291
 1127SOL     OW14842   2.759   3.092   0.343  0.3555 -0.1706  0.0308
 1127SOL    HW114843   2.696   3.057   0.406 -0.1322 -0.5552 -0.6801
 1127SOL    HW214844   2.737   3.184   0.358 -2.1815 -0.8044  0.0911
 1128SOL     OW14845   2.381   0.471   2.742 -0.7908 -0.4442 -0.4256
 1128SOL    HW114846   2.408   0.466   2.650 -1.7105  0.9520 -0.7707
 1128SOL    HW214847   2.302   0.417   2.735 -1.7019  0.5713  2.1168
 1129SOL     OW14848   3.911   0.496   6.724  0.1139 -0.2522 -0.4718
 1129SOL    HW114849   3.923   0.405   6.751 -0.5738 -0.4703 -0.8795
 1129SOL    HW214850   3.886   0.539   6.805 -1.9198 -0.9915 -0.6925
 1130SOL     OW14851   0.190   1.093   0.215 -0.1107  0.0697 -0.6364
 1130SOL    HW114852   0.133   1.169   0.202  1.9707  1.8832  0.8786
 1130SOL    HW214853   0.140   1.034   0.271  0.0569  1.2373  0.7384
 1131SOL     OW14854   1.637   3.706   8.587  0.3636  0.0957  0.6474
 1131SOL    HW114855   1.716   3.664   8.622  0.2849 -2.0812 -1.8162
 1131SOL    HW214856   1.581   3.716   8.663  0.4273  0.1773  0.6835
 1132SOL     OW14857   0.059   2.689  11.617  0.2079  0.2348 -0.2910
 1132SOL    HW114858   0.034   2.621  11.679 -0.7137  0.1846 -0.7200
 1132SOL    HW214859   4.715   2.756  11.631 -2.4675 -2.2374 -1.1266
 1133SOL     OW14860   0.043   1.044  13.297  0.4384  0.1867  0.3830
 1133SOL    HW114861   4.717   0.966  13.325 -1.5322  1.7644  1.4045
 1133SOL    HW214862   4.716   1.064  13.217  1.4524 -0.6285 -0.4276
 1134SOL     OW14863   4.080   0.435   8.199  0.4628  0.2514 -0.3071
 1134SOL    HW114864   4.079   0.365   8.265  0.4015  2.2281  1.8182
 1134SOL    HW214865   4.067   0.384   8.119  1.8440 -0.2598 -0.2098
 1135SOL     OW14866   2.338   0.397  15.462 -0.2951  0.3435  0.6432
 1135SOL    HW114867   2.271   0.431  15.402  0.8998  0.6416 -0.5289
 1135SOL    HW214868   2.280   0.391  15.538 -1.7098 -2.4836 -0.6816
 1136SOL     OW14869   4.676   0.270   6.340 -0.4446 -0.1183 -0.0222
 1136SOL    HW114870   0.008   0.192   6.329 -0.5343 -0.2165  0.2375
 1136SOL    HW214871   4.710   0.304   6.423 -1.1175 -1.5801  0.8343
 1137SOL     OW14872   0.167   0.460   8.801  0.2452 -0.2760 -0.3306
 1137SOL    HW114873   0.118   0.543   8.800  2.8440  1.2595 -1.1581
 1137SOL    HW214874   0.187   0.449   8.894  2.5481 -3.0444 -1.1555
 1138SOL     OW14875   3.156   4.014  13.126 -0.3309 -0.1090  0.0542
 1138SOL    HW114876   3.114   4.061  13.054  0.8100 -0.1754 -0.6435
 1138SOL    HW214877   3.244   4.037  13.100 -1.2431  1.4715 -1.6055
 1139SOL     OW14878   2.318   4.267   3.809 -0.4680 -0.3663  0.4190
 1139SOL    HW114879   2.343   4.234   3.895  1.0832  5.0618  2.0411
 1139SOL    HW214880   2.234   4.309   3.829 -1.2902 -1.6532 -0.3465
 1140SOL     OW14881   1.705   2.773   5.607 -0.0560 -0.3379 -0.6266
 1140SOL    HW114882   1.743   2.700   5.655  1.0063  0.6474  0.0287
 1140SOL    HW214883   1.778   2.787   5.548  0.5982 -0.6415  0.1117
 1141SOL     OW14884   4.656   3.551   8.174 -0.1890  0.2559 -0.5451
 1141SOL    HW114885   4.653   3.460   8.204 -1.3819  0.5827  0.3544
 1141SOL    HW214886   4.563   3.575   8.176 -0.8416 -2.4758  1.2904
 1142SOL     OW14887   2.469   1.062  10.226  0.3305 -0.1408 -0.7051
 1142SOL    HW114888   2.468   1.040  10.319  3.1077  0.6806 -0.4921
 1142SOL    HW214889   2.527   0.991  10.201 -1.1275 -1.6362  0.1076
 1143SOL     OW14890   2.378   2.470   4.237  0.3245 -0.2849 -0.7143
 1143SOL    HW114891   2.327   2.511   4.307  0.0863 -1.7252 -0.0326
 1143SOL    HW214892   2.309   2.463   4.172 -2.1446  1.7430  1.7059
 1144SOL     OW14893   4.073   0.154   6.310  0.2909  0.2446  0.2002
 1144SOL    HW114894   3.992   0.165   6.260 -0.0907 -2.5443  0.1587
 1144SOL    HW214895   4.035   0.108   6.386 -0.4051 -0.8995 -0.8358
 1145SOL     OW14896   4.697   4.625   9.729 -0.4191 -0.2349  0.3173
 1145SOL    HW114897   4.665   4.554   9.673 -2.0448  0.9572 -0.2681
 1145SOL    HW214898   0.071   4.627   9.722 -0.5615  1.0397 -1.3063
 1146SOL     OW14899   2.108   0.553   9.605  0.5796 -0.0944  0.2262
 1146SOL    HW114900   2.048   0.511   9.544 -0.3894  0.0338  1.0955
 1146SOL    HW214901   2.100   0.507   9.688  0.4520 -0.3629  0.0649
 1147SOL     OW14902   2.718   2.053  13.877 -0.3639 -0.0912  0.3147
 1147SOL    HW114903   2.764   2.083  13.799 -1.0665  0.3766  0.0780
 1147SOL    HW214904   2.780   2.081  13.944 -0.1767  1.7612 -0.6303
 1148SOL     OW14905   0.449   4.677  10.591  0.0377  0.1958 -0.3104
 1148SOL    HW114906   0.455   4.596  10.541  1.1258  1.3022 -1.9620
 1148SOL    HW214907   0.378   4.643  10.646 -1.0547 -1.2214 -2.6128
 1149SOL     OW14908   0.329   4.391  16.817 -0.0411  0.3033  0.4146
 1149SOL    HW114909   0.356   4.440  16.740  2.4194  0.3278  1.2950
 1149SOL    HW214910   0.363   4.436  16.895 -1.3154  0.2599  1.0082
 1150SOL     OW14911   2.999   2.990   7.533 -0.0204  0.6240  0.1235
 1150SOL    HW114912   3.088   3.020   7.520  0.0135 -0.7850 -2.9155
 1150SOL    HW214913   2.985   3.017   7.624 -2.2365 -0.5725  0.1363
 1151SOL     OW14914   1.051   2.443   1.112  0.2801 -0.0412  0.8168
 1151SOL    HW114915   1.060   2.511   1.179 -0.0298 -0.0489  0.8687
 1151SOL    HW214916   1.067   2.498   1.036 -2.1761  0.2285  0.5046
 1152SOL     OW14917   3.726   0.303   8.591  0.4362  0.3069  0.5455
 1152SOL    HW114918   3.673   0.348   8.526  0.1314 -1.3857 -0.3630
 1152SOL    HW214919   3.700   0.346   8.673 -0.6657 -1.8292  1.3210
 1153SOL     OW14920   1.519   2.003   1.638 -0.1242 -0.1453 -0.1688
 1153SOL    HW114921   1.493   2.084   1.681 -1.2542  0.6209 -2.2972
 1153SOL    HW214922   1.614   2.014   1.639 -0.4300  2.2328  0.7980
 1154SOL     OW14923   2.158   4.378   6.888  0.4312 -0.3493 -0.2242
 1154SOL    HW114924   2.126   4.288   6.886  1.5060 -0.7696  1.2647
 1154SOL    HW214925   2.114   4.407   6.968  0.5332 -2.4649  0.6102
 1155SOL     OW14926   3.810   0.836   2.474  0.2945 -0.3173 -0.0033
 1155SOL    HW114927   3.758   0.770   2.520 -0.1992  0.1652  0.1206
 1155SOL    HW214928   3.861   0.780   2.415 -1.8635 -0.4663 -1.7231
 1156SOL     OW14929   3.168   3.591   9.908 -0.3270  0.3568 -0.1093
 1156SOL    HW114930   3.120   3.565   9.986  0.8808  0.1350  0.5501
 1156SOL    HW214931   3.145   3.532   9.835 -1.1220  0.4528  0.0708
 1157SOL     OW14932   1.171   2.260   3.145 -0.1593  0.0654  0.1482
 1157SOL    HW114933   1.152   2.247   3.052  2.8886 -0.7288 -0.3723
 1157SOL    HW214934   1.208   2.176   3.170  1.2149  1.0277  1.3976
 1158SOL     OW14935   1.165   0.104   4.090 -0.2088  0.1479  1.0758
 1158SOL    HW114936   1.093   0.078   4.033  0.0921  1.3347  0.1461
 1158SOL    HW214937   1.247   0.095   4.041 -1.2680 -2.2792 -0.2136
 1159SOL     OW14938   4.505   4.135  13.955  0.0189  0.1095  0.9016
 1159SOL    HW114939   4.508   4.230  13.946 -2.8937  0.0065 -0.9904
 1159SOL    HW214940   4.416   4.114  13.928 -0.1278  1.4903  0.3511
 1160SOL     OW14941   3.572   1.489  16.389 -0.1225  0.2818 -0.4549
 1160SOL    HW114942   3.516   1.560  16.418  0.3408  0.6246 -0.3944
 1160SOL    HW214943   3.506   1.421  16.377  0.9841 -0.9313  0.2731
 1161SOL     OW14944   0.158   0.616  16.005  0.5148  0.1922 -0.2327
 1161SOL    HW114945   0.180   0.690  15.948 -1.8763  0.4033 -0.8650
 1161SOL    HW214946   0.213   0.548  15.966 -0.6056 -0.9260  0.1347
 1162SOL     OW14947   0.461   2.509   6.444 -0.0220 -0.4086  0.2937
 1162SOL    HW114948   0.381   2.477   6.402 -0.7858  0.3176  1.1868
 1162SOL    HW214949   0.419   2.587   6.481  0.9078 -0.7061  1.9637
 1163SOL     OW14950   3.882   4.651  17.004  0.2297 -0.8521 -0.0591
 1163SOL    HW114951   3.886   0.012  17.053  1.0550 -0.2501 -1.1185
 1163SOL    HW214952   3.788   4.634  17.005 -0.1728  1.2047 -3.0564
 1164SOL     OW14953   3.796   0.391   1.357 -0.5957  0.4281 -0.1338
 1164SOL    HW114954   3.890   0.385   1.346 -0.1312  0.3001  3.6956
 1164SOL    HW214955   3.776   0.475   1.316 -2.0493  0.3248  0.3456
 1165SOL     OW14956   3.837   2.581   8.569 -1.0506  0.7008  0.6068
 1165SOL    HW114957   3.895   2.631   8.626  0.2419  0.2353 -0.3162
 1165SOL    HW214958   3.899   2.551   8.503 -0.6617  0.8233  0.9156
 1166SOL     OW14959   1.557   1.426   6.000 -0.3800  0.1939  0.4387
 1166SOL    HW114960   1.607   1.361   6.050  2.1754 -0.0984 -2.5092
 1166SOL    HW214961   1.620   1.440   5.929 -0.0336 -1.3095  0.4358
 1167SOL     OW14962   3.733   0.810  13.923 -0.2111  0.2575  0.6843
 1167SOL    HW114963   3.716   0.734  13.978 -0.4701 -1.7613 -2.2446
 1167SOL    HW214964   3.647   0.814  13.881  0.0184  0.1318  0.2018
 1168SOL     OW14965   2.537   3.922   1.292 -0.0531  0.2286  0.0107
 1168SOL    HW114966   2.463   3.893   1.345  0.6355 -0.8288  0.4127
 1168SOL    HW214967   2.600   3.956   1.356 -0.4044  0.7008  0.1013
 1169SOL     OW14968   1.631   2.584   8.497  0.5220  0.1233  0.1497
 1169SOL    HW114969   1.724   2.572   8.520  0.3890  0.4244  0.8669
 1169SOL    HW214970   1.637   2.611   8.405  3.2661 -0.9824 -0.0067
 1170SOL     OW14971   2.270   0.890   2.188  0.0538  0.6929  0.2094
 1170SOL    HW114972   2.208   0.933   2.246 -0.8092 -0.1742 -0.0719
 1170SOL    HW214973   2.307   0.969   2.148 -0.5518  0.0467 -1.6079
 1171SOL     OW14974   4.071   1.301   9.635  0.4350  0.7719  0.0707
 1171SOL    HW114975   4.138   1.232   9.636 -1.2343 -0.8917 -0.9125
 1171SOL    HW214976   4.116   1.378   9.669 -0.5636  2.3749 -2.2492
 1172SOL     OW14977   2.296   0.560   9.340  0.2141 -0.2333 -0.5957
 1172SOL    HW114978   2.235   0.594   9.406  0.5864  0.8048 -0.7777
 1172SOL    HW214979   2.270   0.468   9.346 -0.2780 -0.0445  0.1861
 1173SOL     OW14980   2.869   3.227  13.983  0.2468 -0.0954  0.5794
 1173SOL    HW114981   2.908   3.251  14.067 -2.0976 -2.5012  2.3227
 1173SOL    HW214982   2.887   3.133  13.980 -0.6151 -0.2878  1.3803
 1174SOL     OW14983   2.711   1.854  15.230  1.0618 -0.3007  0.2728
 1174SOL    HW114984   2.780   1.913  15.198  1.0415  0.6806  2.0532
 1174SOL    HW214985   2.650   1.926  15.246  0.2830 -0.1869 -3.2129
 1175SOL     OW14986   0.208   1.531   7.449  0.3684  0.5049 -0.0255
 1175SOL    HW114987   0.287   1.561   7.404 -0.4435  2.0187 -0.4237
 1175SOL    HW214988   0.153   1.609   7.444  2.2413  1.9269  1.0851
 1176SOL     OW14989   3.627   1.523   7.935  0.2146  0.0924  0.3502
 1176SOL    HW114990   3.537   1.554   7.923 -0.1240 -0.9866  0.0617
 1176SOL    HW214991   3.676   1.604   7.925 -0.1372  0.2300 -0.2721
 1177SOL     OW14992   3.880   3.814  12.461 -0.2056  0.0956  0.0198
 1177SOL    HW114993   3.844   3.875  12.525 -0.0454  2.0703 -1.7302
 1177SOL    HW214994   3.975   3.823  12.467 -0.2746 -0.7063  2.0453
 1178SOL     OW14995   3.588   0.403   4.501  0.4545 -0.1840 -0.1211
 1178SOL    HW114996   3.571   0.463   4.428 -0.2225  1.2175  1.1930
 1178SOL    HW214997   3.593   0.314   4.468 -3.1398 -0.8121  1.0206
 1179SOL     OW14998   2.254   0.520   4.698  0.4819 -0.0018 -0.7237
 1179SOL    HW114999   2.328   0.567   4.737  0.1849  0.1363 -0.3221
 1179SOL    HW215000   2.281   0.518   4.606 -0.0832  0.7370 -0.9133
 1180SOL     OW15001   3.323   1.696   5.224  0.1107  0.0636 -0.5957
 1180SOL    HW115002   3.348   1.603   5.224  1.7150  0.5049 -1.0452
 1180SOL    HW215003   3.247   1.689   5.281 -0.2913  0.2424 -1.1152
 1181SOL     OW15004   1.535   2.116   3.202  0.0863 -0.4652 -0.2149
 1181SOL    HW115005   1.499   2.076   3.123 -0.0946 -2.2655  0.7669
 1181SOL    HW215006   1.492   2.200   3.219  0.1945 -0.8331  1.8841
 1182SOL     OW15007   3.191   0.233   4.026 -0.4211 -0.0033  0.1150
 1182SOL    HW115008   3.228   0.175   4.093 -0.1184 -0.4857 -0.4571
 1182SOL    HW215009   3.102   0.203   4.009 -0.4059 -0.2162  0.4027
 1183SOL     OW15010   1.853   1.375  12.401 -0.7908 -0.3008  0.5511
 1183SOL    HW115011   1.803   1.297  12.426 -0.4132 -1.3147 -1.8137
 1183SOL    HW215012   1.799   1.415  12.333  1.3306 -0.6466 -1.3587
 1184SOL     OW15013   0.067   2.614   6.072  0.4228  0.3801  0.2074
 1184SOL    HW115014   0.064   2.678   6.143  2.6155 -1.1860  1.7175
 1184SOL    HW215015   0.004   2.660   6.017  0.8539  2.2504  1.2898
 1185SOL     OW15016   3.802   4.590   8.949  0.0774 -0.6893  0.0157
 1185SOL    HW115017   3.741   4.662   8.966 -0.6909 -1.3333  0.0065
 1185SOL    HW215018   3.747   4.511   8.944 -1.8114  0.6979 -1.3270
 1186SOL     OW15019   1.664   0.430   7.743  0.0821 -0.7086  0.5175
 1186SOL    HW115020   1.644   0.523   7.748 -1.9948 -1.1367  0.0463
 1186SOL    HW215021   1.751   0.421   7.783  1.6980 -0.0611 -2.7880
 1187SOL     OW15022   4.211   0.513   0.984  0.4913  0.6778 -0.0507
 1187SOL    HW115023   4.299   0.547   1.002  0.5713 -0.7435  2.3231
 1187SOL    HW215024   4.203   0.562   0.903  2.7478 -0.0697 -0.7393
 1188SOL     OW15025   2.912   0.881   9.574  0.1939 -0.0239 -0.2279
 1188SOL    HW115026   2.925   0.835   9.491 -0.4086  0.2112 -0.4566
 1188SOL    HW215027   2.825   0.843   9.588 -0.5356  2.2939  1.5091
 1189SOL     OW15028   2.920   4.589  17.323 -0.1586 -0.1750  0.1896
 1189SOL    HW115029   2.875   4.586  17.407  0.8427 -0.6761  0.7066
 1189SOL    HW215030   2.979   4.662  17.345 -2.9209  2.1561 -0.1896
 1190SOL     OW15031   4.216   2.981   6.525 -0.5937  0.1108 -0.2568
 1190SOL    HW115032   4.169   2.977   6.608 -1.0834  0.8568 -0.4931
 1190SOL    HW215033   4.147   2.994   6.459  0.6416  0.6526 -1.4512
 1191SOL     OW15034   3.677   2.586   4.587 -0.7342 -0.0582 -0.0197
 1191SOL    HW115035   3.745   2.623   4.530 -0.7106 -0.3012 -0.1494
 1191SOL    HW215036   3.659   2.667   4.636 -1.0502 -0.1110 -0.0474
 1192SOL     OW15037   2.726   2.721   5.556 -0.6272 -0.3494  0.3805
 1192SOL    HW115038   2.699   2.813   5.556  1.0270  0.1214  0.0836
 1192SOL    HW215039   2.783   2.727   5.480 -0.2112 -0.6190  0.6752
 1193SOL     OW15040   1.841   0.255   5.028 -0.5723  0.4259  0.2022
 1193SOL    HW115041   1.813   0.340   5.060 -1.1405  0.7610 -1.2015
 1193SOL    HW215042   1.756   0.211   5.029 -0.3717 -0.0130 -1.3750
 1194SOL     OW15043   3.727   3.792  17.412  0.3246  0.9349 -0.2372
 1194SOL    HW115044   3.674   3.871  17.424  0.4677  1.1188 -0.8121
 1194SOL    HW215045   3.813   3.834  17.412  0.0684  1.4249 -2.7935
 1195SOL     OW15046   2.008   4.238  12.467 -0.0672 -0.1009 -0.0771
 1195SOL    HW115047   2.063   4.314  12.448 -1.0293 -0.0402 -2.5204
 1195SOL    HW215048   1.935   4.250  12.406  0.1245  0.3687 -0.2156
 1196SOL     OW15049   0.733   3.920   5.961  0.2180  0.6911  0.2601
 1196SOL    HW115050   0.741   3.825   5.972 -1.5079  0.2091 -2.4759
 1196SOL    HW215051   0.644   3.929   5.997  0.2451  1.5997  0.1060
 1197SOL     OW15052   1.096   1.331   8.553  0.3661 -0.0711 -0.3647
 1197SOL    HW115053   1.121   1.386   8.627  1.0264  1.0087 -1.3773
 1197SOL    HW215054   1.181   1.295   8.525  0.8867  1.4222 -0.7121
 1198SOL     OW15055   2.748   3.784   3.281  0.2588  0.5135 -1.0802
 1198SOL    HW115056   2.711   3.871   3.295 -0.2403  0.0073  0.6737
 1198SOL    HW215057   2.827   3.791   3.227  0.1980 -1.5214 -1.4306
 1199SOL     OW15058   3.748   2.720   5.264 -0.1095 -0.0099  0.7679
 1199SOL    HW115059   3.705   2.754   5.186 -1.4845 -0.0536  1.4995
 1199SOL    HW215060   3.776   2.804   5.301 -0.6172 -0.0465  1.2356
 1200SOL     OW15061   1.017   1.350   1.871 -0.2099 -0.4174 -0.1972
 1200SOL    HW115062   1.072   1.378   1.944 -2.0773  0.6459  0.7979
 1200SOL    HW215063   1.037   1.418   1.807  1.0218  0.4929  1.1560
 1201SOL     OW15064   1.640   0.666  16.676  0.1011 -0.0041  0.5264
 1201SOL    HW115065   1.650   0.590  16.733  1.5000  0.1562  0.4850
 1201SOL    HW215066   1.614   0.627  16.593  0.3276 -1.6032  1.2001
 1202SOL     OW15067   3.274   0.266   8.216  0.3606 -0.4988 -0.3062
 1202SOL    HW115068   3.348   0.238   8.270  0.3059  2.1654  1.1767
 1202SOL    HW215069   3.226   0.316   8.283 -0.0276  0.8351 -1.6031
 1203SOL     OW15070   3.182   4.661   0.870  0.1829  0.0786  0.3489
 1203SOL    HW115071   3.185   4.565   0.868 -1.2771  0.0032  1.3373
 1203SOL    HW215072   3.098   4.680   0.828 -0.1927  2.6229  2.2204
 1204SOL     OW15073   4.592   2.262   3.672 -0.3126 -0.0855  0.1932
 1204SOL    HW115074   4.520   2.321   3.647 -0.5879 -0.1978  0.7113
 1204SOL    HW215075   4.646   2.254   3.593  1.3070 -0.2331  1.3147
 1205SOL     OW15076   2.155   2.912   3.187 -0.3736  0.1044 -0.0816
 1205SOL    HW115077   2.220   2.843   3.169 -2.6813 -2.7269  2.3751
 1205SOL    HW215078   2.115   2.933   3.102 -2.6530 -2.5470  0.3434
 1206SOL     OW15079   4.440   2.403   9.186  0.3798 -0.4356 -0.0696
 1206SOL    HW115080   4.527   2.425   9.154  0.2355 -0.8863 -0.7578
 1206SOL    HW215081   4.392   2.486   9.182 -0.2353 -0.7275  1.3985
 1207SOL     OW15082   0.630   3.694   3.824  0.9417  0.2821 -0.1115
 1207SOL    HW115083   0.549   3.668   3.867  0.8617  0.9639  0.1459
 1207SOL    HW215084   0.653   3.774   3.871 -1.0677  0.1238  1.1203
 1208SOL     OW15085   1.305   1.457  13.885 -0.7538  0.4076 -0.2275
 1208SOL    HW115086   1.225   1.505  13.908  0.0466  0.6933  1.9999
 1208SOL    HW215087   1.315   1.482  13.793  1.1134  0.3916 -0.0323
 1209SOL     OW15088   3.062   4.032   8.596  0.0417 -0.3471 -0.0804
 1209SOL    HW115089   3.003   4.008   8.525 -0.2592  1.0595 -0.2999
 1209SOL    HW215090   3.041   3.971   8.667  1.4814 -0.7614 -0.0090
 1210SOL     OW15091   1.847   0.415  14.669  0.2495  0.4317 -0.4610
 1210SOL    HW115092   1.815   0.428  14.579  0.4252  0.7097 -0.4857
 1210SOL    HW215093   1.905   0.340  14.659 -0.7081 -0.1850 -1.4514
 1211SOL     OW15094   2.505   3.762   3.678 -1.2905  0.9847  0.4147
 1211SOL    HW115095   2.554   3.822   3.623  0.5233 -1.9106 -1.0972
 1211SOL    HW215096   2.539   3.678   3.648  0.7541  2.1882 -0.6361
 1212SOL     OW15097   0.658   4.327  10.321 -0.0562 -0.1009  0.2541
 1212SOL    HW115098   0.705   4.296  10.399 -0.4840 -3.7165 -0.8942
 1212SOL    HW215099   0.729   4.334  10.257  1.1759 -1.5291  1.4496
 1213SOL     OW15100   2.507   4.420   8.090 -0.2950  0.1176 -0.1452
 1213SOL    HW115101   2.567   4.346   8.084  0.3400  0.6115  0.2338
 1213SOL    HW215102   2.469   4.424   8.002 -1.1518  0.9515  0.2590
 1214SOL     OW15103   3.762   1.888   8.633 -0.1911  0.0327  0.1754
 1214SOL    HW115104   3.742   1.906   8.725 -3.1501 -0.4793 -0.3562
 1214SOL    HW215105   3.817   1.963   8.610 -2.3529  2.5712  3.2676
 1215SOL     OW15106   0.464   1.187   6.597  0.0456  0.0285  0.3368
 1215SOL    HW115107   0.450   1.267   6.547 -0.6004  0.0189  0.5044
 1215SOL    HW215108   0.557   1.190   6.623 -0.2701 -0.6518  1.5460
 1216SOL     OW15109   4.398   3.459   7.606  0.4295 -0.3402 -0.3030
 1216SOL    HW115110   4.484   3.426   7.631  1.9433  2.3890 -1.8897
 1216SOL    HW215111   4.430   3.548   7.597 -2.9499  0.8791 -0.1751
 1217SOL     OW15112   1.214   0.832   3.232  0.4651  0.6503  0.6762
 1217SOL    HW115113   1.243   0.770   3.300 -1.3748 -1.0799 -0.1229
 1217SOL    HW215114   1.125   0.850   3.262 -0.5454 -2.3643 -0.4932
 1218SOL     OW15115   3.929   0.319  14.737 -0.1044 -0.4712  0.3587
 1218SOL    HW115116   3.928   0.403  14.690 -0.9463 -0.8383 -0.2539
 1218SOL    HW215117   3.884   0.269  14.669 -0.3722 -0.9791  0.9176
 1219SOL     OW15118   1.070   1.128   1.494  0.4461  0.6976 -0.5371
 1219SOL    HW115119   1.082   1.053   1.436  0.7066 -0.1298  0.5788
 1219SOL    HW215120   1.142   1.113   1.555 -0.4553  1.4389  0.7109
 1220SOL     OW15121   3.743   1.839  12.686 -0.5645  0.7147  0.2312
 1220SOL    HW115122   3.826   1.844  12.732 -1.0688 -0.5728  1.2790
 1220SOL    HW215123   3.725   1.933  12.679  1.2891  1.1060  0.6939
 1221SOL     OW15124   0.703   4.356  15.184  0.0690 -0.4618  0.1267
 1221SOL    HW115125   0.749   4.312  15.255 -1.6769 -0.9520  0.9536
 1221SOL    HW215126   0.615   4.330  15.212  0.0393 -2.6936 -2.0383
 1222SOL     OW15127   2.086   3.296   6.932 -0.1354 -0.2788  0.0459
 1222SOL    HW115128   2.177   3.279   6.955  0.1654  0.3017 -0.7267
 1222SOL    HW215129   2.091   3.291   6.837 -1.6940  1.9968 -0.1605
 1223SOL     OW15130   2.864   2.594   9.205  0.3658  0.5325 -0.1090
 1223SOL    HW115131   2.905   2.679   9.191  0.2049  0.6181 -0.0593
 1223SOL    HW215132   2.858   2.561   9.115 -0.8406 -0.6915  0.4117
 1224SOL     OW15133   3.058   2.760  11.961  0.4730  0.0533  0.0049
 1224SOL    HW115134   3.103   2.821  11.903  2.1106  0.3857  1.6466
 1224SOL    HW215135   3.004   2.826  12.004 -0.7783 -0.8431 -0.1731
 1225SOL     OW15136   0.306   1.158   2.509  0.1108  0.2373  0.1365
 1225SOL    HW115137   0.322   1.148   2.603  1.3822 -1.1675 -0.2404
 1225SOL    HW215138   0.363   1.088   2.479  0.5928  0.9641 -0.6279
 1226SOL     OW15139   3.386   0.273  10.102  0.1947  0.3322  0.1954
 1226SOL    HW115140   3.414   0.308  10.018 -0.0441 -1.7266 -0.7425
 1226SOL    HW215141   3.471   0.242  10.135 -0.4068 -0.1030  1.3391
 1227SOL     OW15142   4.554   3.036   3.349  0.3103 -0.3819  0.4418
 1227SOL    HW115143   4.459   3.036   3.360  0.2540  0.0175 -0.0325
 1227SOL    HW215144   4.584   3.126   3.361 -1.5327 -0.2107  3.7587
 1228SOL     OW15145   0.849   0.601  16.280  0.1180  0.0623 -0.1847
 1228SOL    HW115146   0.808   0.515  16.272 -0.2546  0.2354 -0.1374
 1228SOL    HW215147   0.839   0.635  16.191 -2.9975  0.5285  0.3516
 1229SOL     OW15148   3.194   2.640   3.186  0.8190  0.1260 -0.1145
 1229SOL    HW115149   3.115   2.692   3.200 -1.8588 -3.6966 -1.0803
 1229SOL    HW215150   3.205   2.646   3.091  1.6429 -0.2062 -0.0449
 1230SOL     OW15151   1.628   1.886  14.192 -1.2208 -0.3135 -0.2830
 1230SOL    HW115152   1.679   1.805  14.198 -0.0033  0.3965 -0.9554
 1230SOL    HW215153   1.557   1.865  14.132  0.2762 -1.2469 -1.7420
 1231SOL     OW15154   1.253   4.256   7.785 -0.1296  0.7702 -0.5338
 1231SOL    HW115155   1.345   4.232   7.773 -0.6363 -0.9328 -1.0925
 1231SOL    HW215156   1.214   4.169   7.795  0.1282  1.1326  3.8605
 1232SOL     OW15157   1.618   2.046  13.483 -0.4933 -0.3919 -0.1260
 1232SOL    HW115158   1.702   2.050  13.438 -0.8534 -1.1696 -0.8656
 1232SOL    HW215159   1.608   1.953  13.506  1.6082  0.1324  2.8359
 1233SOL     OW15160   0.040   1.123  14.225  0.2888  0.8199  0.4596
 1233SOL    HW115161   0.098   1.049  14.243  0.5550  0.8547 -0.2408
 1233SOL    HW215162   0.102   1.193  14.205  0.1024 -0.2980 -4.0941
 1234SOL     OW15163   1.510   0.001  17.104  0.0023 -0.4573  0.3019
 1234SOL    HW115164   1.421   0.036  17.107  0.6183  1.0808  0.8586
 1234SOL    HW215165   1.555   0.083  17.125  0.7272 -1.1167  1.2902
 1235SOL     OW15166   0.457   3.494   2.814 -0.0151  0.1761  0.2590
 1235SOL    HW115167   0.474   3.399   2.810  0.1518  0.2038  0.3043
 1235SOL    HW215168   0.478   3.502   2.907  0.0904  2.6741  0.0089
 1236SOL     OW15169   0.854   1.295   6.944 -0.4268 -0.2741  0.3403
 1236SOL    HW115170   0.906   1.343   7.009 -0.1724 -0.9643  0.6439
 1236SOL    HW215171   0.844   1.207   6.981 -2.0794  0.4240  1.5518
 1237SOL     OW15172   0.974   1.548   1.075 -0.2228 -0.1435 -0.4018
 1237SOL    HW115173   0.981   1.516   0.985 -1.2773 -1.5297  0.0066
 1237SOL    HW215174   0.914   1.621   1.059 -0.7374 -0.7246 -1.1766
 1238SOL     OW15175   1.960   0.327   5.833  0.0858  0.4128 -0.4282
 1238SOL    HW115176   1.895   0.265   5.800 -0.1193 -0.5056  1.7096
 1238SOL    HW215177   2.043   0.280   5.826 -0.7539 -1.1813  0.1084
 1239SOL     OW15178   0.596   4.712  12.964 -0.8319  0.1624 -0.0990
 1239SOL    HW115179   0.668   0.052  12.975 -1.5004  0.9612 -0.1854
 1239SOL    HW215180   0.549   4.713  13.048 -0.6959 -0.7851 -0.0125
 1240SOL     OW15181   4.279   0.867   1.861  0.1131  0.2882 -0.0573
 1240SOL    HW115182   4.200   0.906   1.899  0.2743  1.5091 -0.9760
 1240SOL    HW215183   4.342   0.934   1.885  0.3596  0.2404 -0.5656
 1241SOL     OW15184   2.682   2.763   2.813  0.1179  0.4837  0.3367
 1241SOL    HW115185   2.622   2.695   2.843  1.7351  0.5237  3.6452
 1241SOL    HW215186   2.767   2.720   2.826 -0.2206  0.3119  1.9821
 1242SOL     OW15187   3.611   4.430   5.856  0.5983 -0.2995 -0.1550
 1242SOL    HW115188   3.659   4.401   5.779 -0.2026  0.4285 -0.9169
 1242SOL    HW215189   3.580   4.513   5.821  1.2290  0.1978  0.4430
 1243SOL     OW15190   2.302   2.037   9.564  0.3243  0.0661 -0.1040
 1243SOL    HW115191   2.319   2.076   9.478  2.1859 -1.2493 -0.3050
 1243SOL    HW215192   2.348   1.955   9.549  0.8414  0.4791 -0.7947
 1244SOL     OW15193   1.241   3.045   5.077 -0.3020 -0.2900 -0.7445
 1244SOL    HW115194   1.221   2.964   5.029  3.2034 -2.0864  0.8093
 1244SOL    HW215195   1.312   3.073   5.020  0.9755 -0.1185  0.9293
 1245SOL     OW15196   4.001   1.530   5.515 -0.4200 -0.3783  0.1104
 1245SOL    HW115197   3.986   1.505   5.424 -2.2834 -0.7356  0.5114
 1245SOL    HW215198   4.075   1.472   5.535 -1.9159 -2.5713 -0.6479
 1246SOL     OW15199   4.014   1.898  16.668 -0.2707  0.1371 -0.1095
 1246SOL    HW115200   4.007   1.950  16.588 -1.6018  0.8080  0.4498
 1246SOL    HW215201   4.073   1.957  16.715 -2.7696  1.0362  1.9440
 1247SOL     OW15202   1.281   1.239   5.424  0.4205  0.0292 -0.3605
 1247SOL    HW115203   1.324   1.159   5.395 -0.8572 -0.3676 -1.1438
 1247SOL    HW215204   1.349   1.275   5.482  1.7757 -0.8275 -1.4096
 1248SOL     OW15205   1.696   4.593   1.226 -0.0866 -0.2780  0.6465
 1248SOL    HW115206   1.625   4.624   1.284 -0.4785 -0.5121  0.2899
 1248SOL    HW215207   1.656   4.591   1.139  0.9710  2.2129  0.1201
 1249SOL     OW15208   1.558   2.863   1.305 -0.4021 -0.1695  0.1558
 1249SOL    HW115209   1.487   2.826   1.252  0.9267 -3.5665  0.7428
 1249SOL    HW215210   1.521   2.941   1.346 -1.9297  0.7354 -2.8738
 1250SOL     OW15211   4.011   4.695  12.985  0.0889 -0.2953  0.3625
 1250SOL    HW115212   3.956   4.627  13.025 -0.3652 -1.0536 -1.5540
 1250SOL    HW215213   4.085   4.704  13.045  0.3985 -0.6371  0.0308
 1251SOL     OW15214   2.904   4.424  16.760  0.2214 -0.6144  0.2127
 1251SOL    HW115215   2.974   4.423  16.826 -0.4276 -2.0886  0.8581
 1251SOL    HW215216   2.847   4.356  16.796  0.2946 -0.1343  1.2349
 1252SOL     OW15217   4.505   1.276  15.599  0.0708  0.5399 -0.1467
 1252SOL    HW115218   4.568   1.206  15.615  0.9156  1.0700 -1.1703
 1252SOL    HW215219   4.565   1.350  15.597  0.8506 -0.0799  0.3361
 1253SOL     OW15220   3.468   1.740  16.478 -0.5072 -0.1143 -0.0857
 1253SOL    HW115221   3.477   1.835  16.483 -0.5087 -0.0492 -1.2881
 1253SOL    HW215222   3.413   1.737  16.400 -1.3904  0.7735  0.5136
 1254SOL     OW15223   0.050   0.258  17.534  1.0015 -0.2577  0.1845
 1254SOL    HW115224   0.056   0.353  17.523 -1.0217 -0.0311  1.1293
 1254SOL    HW215225   4.701   0.261  17.598  1.2835  1.5868  0.4131
 1255SOL     OW15226   2.188   3.497   7.126 -0.2817  0.7071 -0.0539
 1255SOL    HW115227   2.136   3.445   7.065 -0.8258  0.5013  0.5832
 1255SOL    HW215228   2.139   3.578   7.110  1.3545  2.0545  1.8086
 1256SOL     OW15229   2.070   3.802   6.191  0.6948  0.0536  0.5133
 1256SOL    HW115230   2.059   3.719   6.145  0.1670  0.1731  0.4156
 1256SOL    HW215231   2.117   3.849   6.121 -1.0884 -0.6942 -1.1956
 1257SOL     OW15232   2.765   0.771   0.428  0.0033  0.0352  0.2074
 1257SOL    HW115233   2.743   0.706   0.361  1.4342 -1.0293  0.7690
 1257SOL    HW215234   2.852   0.737   0.449  1.7370  3.0770 -2.0815
 1258SOL     OW15235   3.666   2.006   0.928  0.0089  0.5172  0.6170
 1258SOL    HW115236   3.672   1.923   0.882 -1.7148  0.5633  0.3227
 1258SOL    HW215237   3.735   1.995   0.994  0.4674 -0.2233  0.0071
 1259SOL     OW15238   4.473   1.922   7.173 -0.4229  0.3437 -0.8430
 1259SOL    HW115239   4.431   1.866   7.108  0.6125  1.7075 -2.6783
 1259SOL    HW215240   4.404   1.988   7.186 -1.8424 -1.3200  0.1211
 1260SOL     OW15241   1.272   1.794  15.994 -0.0780  0.2160  0.1673
 1260SOL    HW115242   1.235   1.882  15.996 -0.6894 -0.0743  1.1559
 1260SOL    HW215243   1.257   1.763  16.083  1.2242 -1.2045 -0.1055
 1261SOL     OW15244   3.818   3.183   4.959  0.0543  0.4563 -0.5272
 1261SOL    HW115245   3.780   3.218   4.879  0.9467  0.3485 -1.0033
 1261SOL    HW215246   3.746   3.134   4.999  1.1832  1.0575  2.2616
 1262SOL     OW15247   4.538   1.779   8.480 -0.6588 -0.1801  0.0545
 1262SOL    HW115248   4.566   1.821   8.562 -1.0249 -0.7631  0.4785
 1262SOL    HW215249   4.470   1.840   8.453  1.2722  2.3928  0.9583
 1263SOL     OW15250   3.483   3.593   0.824 -0.0922 -0.0426  0.5142
 1263SOL    HW115251   3.574   3.616   0.803  0.0963 -0.8872  0.4002
 1263SOL    HW215252   3.453   3.524   0.764  2.9303  0.3882 -1.4749
 1264SOL     OW15253   3.813   2.934   9.061  0.3967 -0.0730 -0.0253
 1264SOL    HW115254   3.907   2.936   9.039  0.4632 -0.7056  0.2127
 1264SOL    HW215255   3.784   2.843   9.058 -0.2340  0.1367 -0.1823
 1265SOL     OW15256   1.511   2.774  11.549  0.4156  0.1895  0.4919
 1265SOL    HW115257   1.548   2.830  11.481  1.4702  0.7345  1.5094
 1265SOL    HW215258   1.508   2.686  11.512  1.5258 -0.0546  0.9650
 1266SOL     OW15259   2.838   1.317   4.678 -0.3722 -0.6515 -0.3954
 1266SOL    HW115260   2.784   1.394   4.660 -1.9613 -2.3570 -2.9560
 1266SOL    HW215261   2.896   1.330   4.602  0.1196 -0.7550 -0.0377
 1267SOL     OW15262   3.748   1.516   9.418 -0.1361  0.3047  0.0819
 1267SOL    HW115263   3.743   1.606   9.387 -1.1812  0.1714 -0.1480
 1267SOL    HW215264   3.776   1.545   9.505 -0.2876  1.4302 -0.2517
 1268SOL     OW15265   3.597   3.630   6.412  0.5060  0.2510  0.4363
 1268SOL    HW115266   3.653   3.696   6.452 -0.3530  0.1380  1.8178
 1268SOL    HW215267   3.541   3.687   6.359 -2.0053 -0.8173  1.9392
 1269SOL     OW15268   2.082   2.799  15.454  0.2884 -0.2275 -0.0023
 1269SOL    HW115269   2.052   2.874  15.504  0.5668  1.4234 -2.3244
 1269SOL    HW215270   2.149   2.765  15.514  0.3233  0.0079  0.0891
 1270SOL     OW15271   3.022   3.838   6.242 -0.2192  0.0431 -0.5050
 1270SOL    HW115272   3.117   3.830   6.251 -0.3109  3.2879  3.4141
 1270SOL    HW215273   3.000   3.849   6.334  1.6805  0.9623 -0.1602
 1271SOL     OW15274   0.742   0.071  15.186  0.6494 -0.3221  0.2029
 1271SOL    HW115275   0.730   0.049  15.093 -1.6736  2.3899 -0.1202
 1271SOL    HW215276   0.824   0.119  15.177 -0.1283  0.6624 -1.6890
 1272SOL     OW15277   0.356   1.053  10.009  0.1370  0.0681  0.1621
 1272SOL    HW115278   0.365   1.007  10.093  0.0002  0.1340  0.2119
 1272SOL    HW215279   0.385   0.985   9.947 -0.8245 -1.4141  1.3314
 1273SOL     OW15280   0.949   3.504  17.102 -0.2931  0.1916  0.6132
 1273SOL    HW115281   0.882   3.437  17.116  2.4942 -2.4802  1.2485
 1273SOL    HW215282   0.889   3.573  17.075  0.0617 -0.5859 -2.1042
 1274SOL     OW15283   3.257   4.182   5.478 -0.5805  0.6704  0.3095
 1274SOL    HW115284   3.278   4.275   5.466  1.9105 -0.1533 -1.7177
 1274SOL    HW215285   3.340   4.146   5.509 -0.9612 -0.8128 -0.3798
 1275SOL     OW15286   4.221   2.911  11.087 -0.4516  0.6620  0.1417
 1275SOL    HW115287   4.185   2.836  11.039  1.8965 -0.0210 -0.5364
 1275SOL    HW215288   4.236   2.883  11.178  1.3250  0.7643 -0.1171
 1276SOL     OW15289   1.349   0.707   5.308 -0.2772 -0.0068  0.0024
 1276SOL    HW115290   1.421   0.653   5.341 -0.0569  1.3475  1.6814
 1276SOL    HW215291   1.375   0.722   5.217 -3.3854 -1.9141 -1.2317
 1277SOL     OW15292   2.107   0.411  13.201  0.0946 -0.2102 -0.2687
 1277SOL    HW115293   2.019   0.388  13.170  0.0615  0.4077 -0.6214
 1277SOL    HW215294   2.141   0.445  13.119 -1.0500  1.7389  0.0796
 1278SOL     OW15295   3.567   3.913   6.284  0.1364  0.4134 -0.6742
 1278SOL    HW115296   3.505   3.975   6.320  0.7536 -0.0146  1.1126
 1278SOL    HW215297   3.647   3.924   6.336 -1.2669 -2.1597  2.0334
 1279SOL     OW15298   0.687   2.200   8.563  0.1924  0.1784  0.0703
 1279SOL    HW115299   0.754   2.268   8.566 -0.2257  0.6866 -2.7287
 1279SOL    HW215300   0.620   2.248   8.612 -0.2079 -1.0201  0.7018
 1280SOL     OW15301   3.653   2.435   2.739  0.2307  0.1613  0.5143
 1280SOL    HW115302   3.559   2.433   2.756  0.0018 -3.2236 -1.1258
 1280SOL    HW215303   3.667   2.345   2.710  1.9616  1.0284 -1.3357
 1281SOL     OW15304   0.173   1.695   6.608 -0.4992  0.1567 -0.4826
 1281SOL    HW115305   0.128   1.776   6.586  0.0942  0.6868  0.2199
 1281SOL    HW215306   0.256   1.699   6.561  1.2753  1.9176  2.7706
 1282SOL     OW15307   1.566   0.764   6.482  0.2191 -0.0383  0.3207
 1282SOL    HW115308   1.570   0.848   6.435  0.9501 -0.0720  0.3203
 1282SOL    HW215309   1.494   0.711   6.448  1.5967 -2.1865  0.7628
 1283SOL     OW15310   0.686   1.369  16.183  0.2796 -0.2858 -0.1479
 1283SOL    HW115311   0.769   1.409  16.158  0.7517 -0.6209  0.8988
 1283SOL    HW215312   0.715   1.301  16.244  1.7993  0.2802 -0.2435
 1284SOL     OW15313   3.140   3.371  16.842 -0.2694  0.0661 -0.7148
 1284SOL    HW115314   3.161   3.348  16.933 -0.5670 -0.6398 -0.8263
 1284SOL    HW215315   3.046   3.381  16.854 -0.2336 -0.9287  0.3992
 1285SOL     OW15316   4.221   0.503   0.512  0.3372  0.5415 -0.0007
 1285SOL    HW115317   4.286   0.545   0.456  1.3107 -3.3237 -1.7642
 1285SOL    HW215318   4.220   0.557   0.592  1.2671  1.2685 -0.4745
 1286SOL     OW15319   2.091   3.620  10.493  0.0620 -0.2060 -0.3042
 1286SOL    HW115320   2.016   3.654  10.542 -1.0645 -0.6889 -1.7170
 1286SOL    HW215321   2.085   3.531  10.527 -1.4673 -0.6606 -1.8103
 1287SOL     OW15322   0.660   1.862   4.976 -0.0643 -0.0782  0.2204
 1287SOL    HW115323   0.639   1.805   4.902 -0.1666 -0.6063  0.6513
 1287SOL    HW215324   0.746   1.892   4.947 -1.3026  1.6278 -1.6841
 1288SOL     OW15325   1.074   2.999   8.323  0.1262 -0.0657  0.1299
 1288SOL    HW115326   1.076   2.903   8.325 -1.4184 -0.0836  0.5433
 1288SOL    HW215327   1.158   3.013   8.366 -1.4431  2.3392  2.3598
 1289SOL     OW15328   4.534   3.146   8.584  0.3086  0.2822  0.5497
 1289SOL    HW115329   4.522   3.241   8.585 -1.5986  0.0150  1.3220
 1289SOL    HW215330   4.628   3.153   8.603  0.5176  1.8080 -1.0899
 1290SOL     OW15331   1.676   3.809  14.441 -0.2283  0.1885 -0.0255
 1290SOL    HW115332   1.750   3.783  14.497  0.9976 -0.8574 -2.1600
 1290SOL    HW215333   1.691   3.744  14.373  1.0668  0.4742 -0.0247
 1291SOL     OW15334   0.748   0.497   1.065 -0.3956 -0.4423  0.0630
 1291SOL    HW115335   0.735   0.455   1.150  3.6651  1.4400  1.6646
 1291SOL    HW215336   0.837   0.471   1.039  0.7765  2.8791  0.7510
 1292SOL     OW15337   0.512   0.861   5.193 -0.3440  0.1977  0.0177
 1292SOL    HW115338   0.475   0.775   5.207 -0.5870  0.2722 -0.1679
 1292SOL    HW215339   0.430   0.911   5.199  0.1145  0.7609  1.7499
 1293SOL     OW15340   2.534   4.282   9.207  0.0018  0.6120  0.4436
 1293SOL    HW115341   2.566   4.207   9.255  0.8743  0.9774  0.4306
 1293SOL    HW215342   2.440   4.263   9.206 -0.0746  1.1293 -2.2016
 1294SOL     OW15343   2.416   2.485   1.806  0.0468  0.7992  0.1511
 1294SOL    HW115344   2.389   2.574   1.829  1.2565  1.3670 -0.5964
 1294SOL    HW215345   2.354   2.469   1.735  0.1377 -0.3656  0.3396
 1295SOL     OW15346   2.934   0.120   2.330 -0.4860  0.1457 -0.2541
 1295SOL    HW115347   2.894   0.207   2.328 -3.7595 -1.3275  2.2849
 1295SOL    HW215348   2.894   0.079   2.253  2.4576  0.7454 -2.1121
 1296SOL     OW15349   3.866   0.846   9.933 -0.7367  0.0001 -0.4401
 1296SOL    HW115350   3.842   0.922   9.986 -0.3259  1.0236 -1.7396
 1296SOL    HW215351   3.832   0.772   9.983  0.7933 -1.0789 -0.9893
 1297SOL     OW15352   1.492   0.486   8.167 -0.4070 -0.1820 -0.2772
 1297SOL    HW115353   1.402   0.457   8.183 -0.0653 -1.0315  0.0963
 1297SOL    HW215354   1.517   0.451   8.082  2.2905 -2.0452  1.2529
 1298SOL     OW15355   0.248   2.244  15.340 -0.2107 -0.2442  0.3971
 1298SOL    HW115356   0.167   2.269  15.295  0.1815  0.3158 -0.0068
 1298SOL    HW215357   0.276   2.332  15.367  1.2132 -0.1407 -1.3911
 1299SOL     OW15358   0.620   3.197   3.666 -0.0716 -0.2213 -0.3693
 1299SOL    HW115359   0.627   3.167   3.576  1.4104  1.7008 -0.8934
 1299SOL    HW215360   0.527   3.213   3.679  0.2899  1.0224  0.7504
 1300SOL     OW15361   3.213   3.983   9.009 -0.8597 -0.4058  0.6189
 1300SOL    HW115362   3.186   3.986   9.100 -0.0283  0.0418  0.8488
 1300SOL    HW215363   3.242   4.073   8.997 -0.6392 -0.4013  1.2329
 1301SOL     OW15364   2.795   1.809   3.220 -0.8138  0.5636  0.0395
 1301SOL    HW115365   2.778   1.894   3.260  2.2114  1.1330  0.1126
 1301SOL    HW215366   2.751   1.824   3.136  0.4084 -0.4962 -0.8026
 1302SOL     OW15367   2.819   4.396   6.721  0.7043  0.2746  0.5703
 1302SOL    HW115368   2.778   4.482   6.733 -2.0260 -0.7058 -1.5494
 1302SOL    HW215369   2.876   4.383   6.796 -0.6591  0.9808  1.7201
 1303SOL     OW15370   2.767   4.407   6.082 -0.0567  0.1306  0.0868
 1303SOL    HW115371   2.822   4.362   6.017 -1.3088  0.4727 -1.2217
 1303SOL    HW215372   2.825   4.481   6.094 -0.1743  0.1334  0.6229
 1304SOL     OW15373   4.469   3.189  14.263 -0.2643  0.3923  0.0645
 1304SOL    HW115374   4.425   3.151  14.339 -1.8944 -3.0111 -2.5828
 1304SOL    HW215375   4.518   3.263  14.298  0.6086  1.0243 -2.5006
 1305SOL     OW15376   2.065   4.249   2.438  0.1853  0.2183 -0.2254
 1305SOL    HW115377   2.107   4.163   2.448 -0.4719 -0.3015 -1.8761
 1305SOL    HW215378   2.135   4.303   2.474  0.3828 -0.3340  0.2202
 1306SOL     OW15379   4.383   4.254   5.731 -0.0188 -0.3734 -0.1565
 1306SOL    HW115380   4.347   4.284   5.814  1.8807 -1.4127  1.0374
 1306SOL    HW215381   4.455   4.196   5.755 -1.4920 -1.0925  2.5641
 1307SOL     OW15382   2.849   2.487   6.500 -0.5411 -0.6224  0.5690
 1307SOL    HW115383   2.795   2.499   6.422  0.2881 -0.0839  0.0745
 1307SOL    HW215384   2.897   2.570   6.499 -1.7412  0.0648  1.3649
 1308SOL     OW15385   1.824   2.397   6.021 -0.2857 -0.5039  0.0300
 1308SOL    HW115386   1.867   2.358   6.097 -0.6431  1.2024  1.1306
 1308SOL    HW215387   1.839   2.490   6.040  2.8400 -1.1821  0.8059
 1309SOL     OW15388   0.517   1.309  17.682  0.2500 -0.1639  0.1297
 1309SOL    HW115389   0.470   1.256   0.057 -1.5270  1.2247 -0.0219
 1309SOL    HW215390   0.607   1.280   0.006  0.5023 -0.0008 -1.3261
 1310SOL     OW15391   4.310   4.046   4.227  0.0329  0.1798 -0.1458
 1310SOL    HW115392   4.346   3.996   4.154  1.8912 -1.2037  1.7525
 1310SOL    HW215393   4.315   4.136   4.194  0.9540  0.4847  0.8625
 1311SOL     OW15394   0.034   2.066   5.691 -0.1077 -0.5565 -0.3819
 1311SOL    HW115395   0.072   2.140   5.643 -1.3458 -0.6981 -1.6011
 1311SOL    HW215396   0.050   2.081   5.784  0.8600  0.8356 -0.7673
 1312SOL     OW15397   2.318   3.579  17.318  0.2993 -0.4272  0.8612
 1312SOL    HW115398   2.337   3.636  17.244 -0.6870  2.6341  2.9720
 1312SOL    HW215399   2.402   3.589  17.362  0.3947 -3.2799  1.3461
 1313SOL     OW15400   1.988   0.889  10.618  0.1115  0.3032  0.5267
 1313SOL    HW115401   2.072   0.934  10.616 -0.0641  0.6033 -0.1424
 1313SOL    HW215402   2.002   0.799  10.588  0.7564  0.8275 -0.7420
 1314SOL     OW15403   0.814   4.518   3.619 -0.0669  0.0667 -0.3546
 1314SOL    HW115404   0.887   4.471   3.658 -1.7847 -0.0032  2.7507
 1314SOL    HW215405   0.849   4.524   3.530 -0.5856 -0.0290 -0.5695
 1315SOL     OW15406   2.375   3.261   7.171 -0.0530  0.0231 -0.0132
 1315SOL    HW115407   2.418   3.260   7.085 -1.7564 -0.1713 -0.8525
 1315SOL    HW215408   2.342   3.350   7.159  0.0826  0.2494  1.3864
 1316SOL     OW15409   2.362   0.269  16.612  0.5940 -0.1001 -0.3037
 1316SOL    HW115410   2.433   0.241  16.554  0.5527  0.7799 -0.7777
 1316SOL    HW215411   2.320   0.340  16.565 -1.1803 -1.0243 -0.1395
 1317SOL     OW15412   3.827   3.439   8.040  0.4620  0.3736  0.1457
 1317SOL    HW115413   3.766   3.417   7.970  1.5347 -1.3436 -0.2581
 1317SOL    HW215414   3.765   3.461   8.109  1.2178 -1.2029  1.3423
 1318SOL     OW15415   3.430   2.351   4.197 -0.5436 -0.0716 -0.2337
 1318SOL    HW115416   3.379   2.397   4.264  1.3243  1.1910  0.3236
 1318SOL    HW215417   3.514   2.396   4.208 -1.5914  1.6173  0.8650
 1319SOL     OW15418   1.322   4.358   5.941 -0.2516 -0.2330  0.1988
 1319SOL    HW115419   1.407   4.345   5.985  0.5954 -1.5338 -1.8168
 1319SOL    HW215420   1.268   4.303   5.998  0.0235 -1.4495 -0.7168
 1320SOL     OW15421   1.995   2.269   2.420 -0.1764 -0.5511 -0.1416
 1320SOL    HW115422   2.070   2.299   2.369  0.0176 -1.5003 -0.4122
 1320SOL    HW215423   1.962   2.356   2.443  0.1663 -1.1048  2.4982
 1321SOL     OW15424   3.397   0.282   0.413 -0.1432  0.0019 -0.3418
 1321SOL    HW115425   3.454   0.342   0.366  2.0788 -1.3733  0.5973
 1321SOL    HW215426   3.338   0.252   0.343  0.2299  2.1644 -1.5734
 1322SOL     OW15427   3.885   3.373   2.776 -0.4403  0.2251 -0.2043
 1322SOL    HW115428   3.843   3.299   2.733  0.8327  0.4214 -1.7592
 1322SOL    HW215429   3.815   3.435   2.796 -1.6596 -1.0739 -0.4866
 1323SOL     OW15430   1.519   4.009   7.288 -0.0910  0.1871  0.5493
 1323SOL    HW115431   1.514   4.057   7.371  2.7401  0.5041  0.5561
 1323SOL    HW215432   1.565   3.932   7.323  1.7300  1.6198  1.3186
 1324SOL     OW15433   2.785   3.577   8.587 -1.1901  0.1474  0.3131
 1324SOL    HW115434   2.828   3.636   8.525  0.0686 -0.2691  0.7803
 1324SOL    HW215435   2.759   3.642   8.652 -0.0145 -1.5091  2.4318
 1325SOL     OW15436   0.957   3.400  16.229 -0.0598  0.4898  0.0822
 1325SOL    HW115437   1.049   3.409  16.257  0.9157 -4.5005 -1.5795
 1325SOL    HW215438   0.916   3.443  16.304  0.0042 -0.2506  0.5453
 1326SOL     OW15439   2.204   1.495   4.312  0.0309 -0.0021 -0.0110
 1326SOL    HW115440   2.149   1.560   4.270  2.4259  2.5314  0.7748
 1326SOL    HW215441   2.242   1.465   4.230  1.6022  1.6187  0.1257
 1327SOL     OW15442   3.199   4.257   8.174  0.1878  0.0459 -0.5584
 1327SOL    HW115443   3.138   4.248   8.248  1.2903  0.2024  0.3637
 1327SOL    HW215444   3.139   4.316   8.128 -2.0584  0.3171  2.7112
 1328SOL     OW15445   0.358   2.917  11.112  0.6020 -0.4914 -0.6317
 1328SOL    HW115446   0.274   2.895  11.072 -1.0957 -0.2992  2.8563
 1328SOL    HW215447   0.383   2.979  11.044  0.2530 -1.0228 -1.2427
 1329SOL     OW15448   2.649   1.259   8.591 -0.4995 -0.0269  0.5352
 1329SOL    HW115449   2.648   1.234   8.683  0.1592 -0.3760  0.4479
 1329SOL    HW215450   2.714   1.202   8.549 -0.8106 -1.0217  1.4016
 1330SOL     OW15451   4.108   1.989  11.428 -0.6692  0.2381 -0.3715
 1330SOL    HW115452   4.119   1.904  11.471  0.3655  0.0337 -1.0494
 1330SOL    HW215453   4.200   2.016  11.439 -1.3340  2.1317  0.4488
 1331SOL     OW15454   4.034   1.203   7.811  0.2475 -0.2816 -0.3799
 1331SOL    HW115455   4.115   1.162   7.841 -0.5177 -0.2658  1.7577
 1331SOL    HW215456   4.086   1.281   7.793 -0.7912  0.2863 -0.9834
 1332SOL     OW15457   0.967   1.857  14.097 -0.3018 -0.7366  1.0091
 1332SOL    HW115458   0.884   1.859  14.145  0.1254 -0.4495  1.7472
 1332SOL    HW215459   1.022   1.893  14.167  0.4276  0.7203 -0.3187
 1333SOL     OW15460   4.296   3.548  10.228  0.0712 -0.1024 -0.0671
 1333SOL    HW115461   4.299   3.576  10.320 -0.1339  1.1182 -0.4421
 1333SOL    HW215462   4.353   3.471  10.234  0.0951 -0.2211 -1.8867
 1334SOL     OW15463   3.716   2.410  15.689  0.6121  0.0007 -0.6083
 1334SOL    HW115464   3.770   2.335  15.665  0.0521 -0.5272 -0.2091
 1334SOL    HW215465   3.786   2.475  15.695 -0.3452  0.7424  2.3461
 1335SOL     OW15466   1.698   3.986  10.030 -0.5874  0.2667 -0.1274
 1335SOL    HW115467   1.611   3.980  10.070 -1.2852  0.7526 -1.5639
 1335SOL    HW215468   1.698   3.928   9.955 -2.2430  0.3475 -0.1885
 1336SOL     OW15469   2.641   4.389  14.566  0.0853  0.0030 -0.5723
 1336SOL    HW115470   2.579   4.459  14.548 -0.5207  0.0892  1.8682
 1336SOL    HW215471   2.720   4.443  14.560 -0.5285  0.8283 -1.2551
 1337SOL     OW15472   3.812   1.014   5.663  0.1849  0.3572 -0.3692
 1337SOL    HW115473   3.752   0.941   5.668  0.2396  0.2929 -0.6558
 1337SOL    HW215474   3.760   1.094   5.669 -2.0266 -1.0654 -0.7755
 1338SOL     OW15475   3.647   0.846   7.855  0.0845  0.0588  0.2499
 1338SOL    HW115476   3.557   0.868   7.878 -0.2431 -2.9016  1.7716
 1338SOL    HW215477   3.697   0.889   7.924  2.3383 -0.4754 -1.0534
 1339SOL     OW15478   2.208   4.401   8.582  0.1676  0.4173 -0.5115
 1339SOL    HW115479   2.273   4.471   8.594 -0.5373  0.5613  2.2505
 1339SOL    HW215480   2.137   4.423   8.642 -0.1461  2.4512 -1.5916
 1340SOL     OW15481   2.294   4.718  15.836 -0.4434  0.3981  0.4338
 1340SOL    HW115482   2.352   4.644  15.814 -0.6818  1.4473 -3.8097
 1340SOL    HW215483   2.354   0.068  15.855 -1.0718  0.2008  3.1090
 1341SOL     OW15484   1.117   4.179  15.853  0.1129 -0.2889 -0.3648
 1341SOL    HW115485   1.179   4.204  15.784  1.0416  1.6688  1.1775
 1341SOL    HW215486   1.035   4.167  15.805  0.5939  3.6461 -2.1942
 1342SOL     OW15487   1.436   4.237   8.560 -0.4795 -0.1099 -0.2580
 1342SOL    HW115488   1.369   4.252   8.492 -1.2172  1.4839  0.8248
 1342SOL    HW215489   1.491   4.315   8.569 -0.6731 -0.0646  0.5304
 1343SOL     OW15490   1.652   3.724   9.928 -0.3580  0.6664 -0.2228
 1343SOL    HW115491   1.635   3.691  10.016  0.1814  1.2999  0.1218
 1343SOL    HW215492   1.745   3.700   9.922 -1.0602 -1.8654 -0.7264
 1344SOL     OW15493   0.827   1.865   3.245  0.3433  0.3086 -0.2017
 1344SOL    HW115494   0.817   1.867   3.340 -0.3920 -0.2455 -0.2738
 1344SOL    HW215495   0.919   1.840   3.245  0.4090  0.5854  1.0265
 1345SOL     OW15496   1.055   3.704   8.630  0.0416 -0.6380  0.3510
 1345SOL    HW115497   1.070   3.623   8.679  2.9455 -0.4825 -0.3236
 1345SOL    HW215498   1.063   3.768   8.701 -2.7297 -0.0317  0.1419
 1346SOL     OW15499   3.720   2.424   5.571  0.7594 -0.1354 -0.1912
 1346SOL    HW115500   3.804   2.381   5.587  0.8717 -0.3313 -1.3364
 1346SOL    HW215501   3.705   2.461   5.658  0.5870 -0.2840 -0.1561
 1347SOL     OW15502   4.009   0.066   6.561  0.7033  0.2658 -0.5903
 1347SOL    HW115503   3.950   0.140   6.546 -0.3141 -0.3174  0.5673
 1347SOL    HW215504   3.957   4.707   6.569  0.1831  0.6754  0.1522
 1348SOL     OW15505   3.305   0.145  15.283  0.2123  0.8395 -0.4872
 1348SOL    HW115506   3.354   0.063  15.275 -3.1012 -1.1102 -0.5545
 1348SOL    HW215507   3.213   0.119  15.292 -0.1501  1.8508 -1.2532
 1349SOL     OW15508   0.878   1.464   5.778  0.2627 -0.2322  0.1043
 1349SOL    HW115509   0.942   1.422   5.835  0.1814  1.7278  1.6084
 1349SOL    HW215510   0.925   1.474   5.695  2.4279 -0.5741  1.2911
 1350SOL     OW15511   4.366   2.846  11.400 -0.3515 -0.4025 -0.1471
 1350SOL    HW115512   4.336   2.878  11.485  1.0514 -0.7299  0.4765
 1350SOL    HW215513   4.397   2.925  11.355  1.6510 -1.3173 -0.3787
 1351SOL     OW15514   0.237   4.692   1.689  0.4083  0.5995  0.0846
 1351SOL    HW115515   0.145   4.714   1.705 -0.0011  0.0443 -1.5467
 1351SOL    HW215516   0.276   4.706   1.775 -2.0617  1.1710  1.1273
 1352SOL     OW15517   3.788   2.477   3.800 -0.1716  0.3182 -0.2709
 1352SOL    HW115518   3.710   2.447   3.846  1.6970 -1.8811  1.5296
 1352SOL    HW215519   3.751   2.544   3.744 -0.3389 -0.1845 -0.7603
 1353SOL     OW15520   3.453   2.121  13.678 -0.4245  0.5973 -0.0586
 1353SOL    HW115521   3.543   2.151  13.695 -0.0611 -1.2264  1.3007
 1353SOL    HW215522   3.413   2.099  13.762 -0.7561 -0.7954 -0.5837
 1354SOL     OW15523   4.285   3.933   7.642  0.0325 -0.0469 -0.1369
 1354SOL    HW115524   4.262   3.926   7.734  0.3068 -0.0349 -0.0676
 1354SOL    HW215525   4.331   4.016   7.653  1.1434 -0.9207  1.7374
 1355SOL     OW15526   3.068   0.266   5.490 -1.0153  0.4232  0.0087
 1355SOL    HW115527   3.043   0.280   5.399 -1.6371 -2.5074 -0.2931
 1355SOL    HW215528   3.162   0.281   5.490 -0.6759 -1.6734 -1.1657
 1356SOL     OW15529   1.731   1.907   4.232 -0.5125 -0.6943 -0.1034
 1356SOL    HW115530   1.801   1.858   4.188  0.9985  1.5115 -0.1601
 1356SOL    HW215531   1.772   1.924   4.317 -1.3878  0.3912  0.1069
 1357SOL     OW15532   3.673   4.608   5.472 -0.7298 -0.0351 -0.8628
 1357SOL    HW115533   3.615   4.684   5.464 -1.3203 -0.6634 -2.5592
 1357SOL    HW215534   3.755   4.637   5.433  0.4757 -0.2735  1.4688
 1358SOL     OW15535   1.870   3.166  14.322  0.0556 -0.3297 -0.1150
 1358SOL    HW115536   1.902   3.256  14.323  1.7186 -0.8867 -3.0554
 1358SOL    HW215537   1.949   3.115  14.302  1.5921  1.3457  1.6243
 1359SOL     OW15538   1.836   2.335  16.852  0.0300  0.4573 -0.9073
 1359SOL    HW115539   1.835   2.269  16.921 -3.1248 -0.3972 -1.7970
 1359SOL    HW215540   1.931   2.349  16.859 -0.1212  1.5849 -1.1738
 1360SOL     OW15541   2.835   0.510  12.501 -0.0862 -0.1058 -0.5520
 1360SOL    HW115542   2.767   0.576  12.484  0.4024  0.3339 -0.7897
 1360SOL    HW215543   2.885   0.560  12.565 -0.7662 -2.3775  1.7422
 1361SOL     OW15544   1.976   3.215  14.941  0.3923 -0.3162  0.2289
 1361SOL    HW115545   1.954   3.304  14.915 -0.6544  0.2363  3.0617
 1361SOL    HW215546   2.072   3.219  14.939  0.3430  2.5388  3.9351
 1362SOL     OW15547   0.304   1.457   3.157 -0.0045  0.2419  0.5168
 1362SOL    HW115548   0.320   1.392   3.225 -0.6245  1.2665  1.6608
 1362SOL    HW215549   0.321   1.542   3.199  0.6316  0.3489  0.0282
 1363SOL     OW15550   1.082   2.554   6.508  0.8518 -0.5328  0.0413
 1363SOL    HW115551   1.090   2.598   6.593 -0.3126 -1.4503  0.6346
 1363SOL    HW215552   1.059   2.624   6.447 -2.3691  1.1500  3.2100
 1364SOL     OW15553   2.966   4.715  10.968  0.6297 -0.7594 -0.9900
 1364SOL    HW115554   3.011   4.637  11.000 -0.4036 -1.1262 -0.4154
 1364SOL    HW215555   2.981   0.061  11.034  2.7086 -0.7924 -1.4342
 1365SOL     OW15556   4.207   0.991   7.883 -0.6123  0.2029  0.2755
 1365SOL    HW115557   4.252   0.947   7.955 -0.7442 -2.4618 -1.3034
 1365SOL    HW215558   4.267   0.969   7.812  0.2723  0.3084  0.9811
 1366SOL     OW15559   4.456   2.310   3.213  0.2887  0.1148  0.2530
 1366SOL    HW115560   4.498   2.296   3.298  1.9398  0.8669 -0.4400
 1366SOL    HW215561   4.496   2.237   3.167 -1.4480 -1.2316  0.8880
 1367SOL     OW15562   3.946   3.510  12.652  0.3722  0.2102  0.3530
 1367SOL    HW115563   4.020   3.557  12.690 -0.2557  0.9168  0.7035
 1367SOL    HW215564   3.984   3.467  12.575  0.3151  1.8923 -0.6243
 1368SOL     OW15565   0.399   0.283  11.410  0.3353 -0.2842 -0.2565
 1368SOL    HW115566   0.328   0.286  11.345  1.0418  0.9722 -0.9706
 1368SOL    HW215567   0.362   0.209  11.457 -0.0970  0.0141 -0.1265
 1369SOL     OW15568   2.229   3.202   2.796  0.1258 -0.1430 -0.4496
 1369SOL    HW115569   2.259   3.174   2.883 -2.4715 -2.1869 -0.2009
 1369SOL    HW215570   2.200   3.117   2.762 -3.2320  1.1042 -0.7217
 1370SOL     OW15571   1.801   4.175   7.785  0.3723 -0.4201 -0.4266
 1370SOL    HW115572   1.725   4.224   7.755  0.2969  0.4009  1.0837
 1370SOL    HW215573   1.812   4.208   7.874  0.5962  0.8511 -0.9252
 1371SOL     OW15574   3.016   0.130  12.856 -0.2826  0.1992 -0.1576
 1371SOL    HW115575   3.049   0.140  12.767 -0.3513  0.1920 -0.1838
 1371SOL    HW215576   2.998   0.220  12.883  1.0737  1.2223 -2.6756
 1372SOL     OW15577   0.913   1.972  12.969 -0.2914  0.4693 -0.2630
 1372SOL    HW115578   0.852   2.043  12.988 -0.6532 -0.3140  1.5289
 1372SOL    HW215579   0.853   1.922  12.913  0.0663 -0.1586 -0.0837
 1373SOL     OW15580   1.731   0.541   6.359  0.2292  0.1728 -0.0125
 1373SOL    HW115581   1.821   0.573   6.352 -0.1197  1.0821 -0.3272
 1373SOL    HW215582   1.690   0.609   6.411  0.1320  0.7658 -0.8732
 1374SOL     OW15583   1.795   3.508   4.954  0.2888 -0.1213 -0.1612
 1374SOL    HW115584   1.817   3.495   4.862  0.1325  0.2939 -0.2567
 1374SOL    HW215585   1.823   3.599   4.960 -2.3047  0.5697  1.5896
 1375SOL     OW15586   1.447   3.522   4.295  0.2345 -0.5371  0.3434
 1375SOL    HW115587   1.368   3.477   4.267  1.5192 -1.4323 -1.8469
 1375SOL    HW215588   1.434   3.599   4.241  3.5421  0.0578  0.3684
 1376SOL     OW15589   0.978   2.796  17.628 -0.6059 -0.0370 -0.7935
 1376SOL    HW115590   1.007   2.873  17.578 -0.5427 -2.2108 -4.1350
 1376SOL    HW215591   1.010   2.724  17.573  2.7373 -0.2814  1.4637
 1377SOL     OW15592   0.692   3.065   8.238  0.2856  0.9458  0.0011
 1377SOL    HW115593   0.633   3.140   8.232  0.2839  0.7821 -1.9506
 1377SOL    HW215594   0.776   3.108   8.254 -0.0291  1.6973 -0.3773
 1378SOL     OW15595   0.327   4.266   5.504  0.2326  0.4081  0.2166
 1378SOL    HW115596   0.358   4.181   5.535 -0.5525 -0.2751 -0.9106
 1378SOL    HW215597   0.406   4.311   5.534  0.9384 -0.3865 -0.4374
 1379SOL     OW15598   4.613   0.362  17.208  0.1274 -0.6235  0.6337
 1379SOL    HW115599   4.553   0.289  17.221 -1.3844  0.4542 -0.2352
 1379SOL    HW215600   4.629   0.351  17.114  0.0429  0.2555  0.5167
 1380SOL     OW15601   1.129   4.576   4.325 -0.7898  0.3885 -0.1467
 1380SOL    HW115602   1.221   4.601   4.333  0.1529 -2.9059 -0.6661
 1380SOL    HW215603   1.092   4.641   4.385 -1.6851  0.8304 -1.1823
 1381SOL     OW15604   0.753   1.178   9.951 -0.0925 -0.4715 -0.2255
 1381SOL    HW115605   0.732   1.155  10.041  0.5135  1.1655  0.3099
 1381SOL    HW215606   0.835   1.131   9.937 -0.5741 -1.4908  0.3147
 1382SOL     OW15607   0.337   2.588   4.687  0.5886  0.5598  0.0495
 1382SOL    HW115608   0.243   2.573   4.699  0.4909 -0.2579 -1.6754
 1382SOL    HW215609   0.382   2.533   4.751  1.3739 -0.3536 -1.3070
 1383SOL     OW15610   0.922   4.460  11.211  0.2399 -0.0564  0.0193
 1383SOL    HW115611   0.872   4.378  11.220 -0.8675  0.5395 -0.6219
 1383SOL    HW215612   0.958   4.452  11.123 -0.1148  1.6839 -0.2774
 1384SOL     OW15613   4.460   4.150   7.747 -0.0754  0.2894  0.1168
 1384SOL    HW115614   4.485   4.157   7.839 -2.2407  1.0713  0.6368
 1384SOL    HW215615   4.457   4.239   7.714  2.9769  0.8666  1.4182
 1385SOL     OW15616   0.255   2.096   3.313 -0.1936  0.1356 -0.7255
 1385SOL    HW115617   0.245   2.001   3.310 -0.6498  0.0839  2.0861
 1385SOL    HW215618   0.330   2.103   3.372 -0.5136 -1.0977 -0.1589
 1386SOL     OW15619   3.667   2.586  11.203 -0.5767 -0.1638 -0.1373
 1386SOL    HW115620   3.589   2.613  11.154 -0.9653  0.4400  0.8061
 1386SOL    HW215621   3.639   2.603  11.293  0.5313  1.2939 -0.0589
 1387SOL     OW15622   3.599   3.878   2.229 -0.5272 -0.7394 -0.3261
 1387SOL    HW115623   3.590   3.803   2.171  0.7034 -1.5221  0.5201
 1387SOL    HW215624   3.523   3.933   2.210 -0.1762 -0.3077 -0.4931
 1388SOL     OW15625   0.347   2.522   5.558 -0.2512  0.5734  0.7291
 1388SOL    HW115626   0.278   2.566   5.607  0.0735  0.7765  1.0049
 1388SOL    HW215627   0.390   2.592   5.511  1.6133 -0.5075  0.8227
 1389SOL     OW15628   4.233   3.222  15.550 -0.2701  0.1316 -0.5382
 1389SOL    HW115629   4.204   3.228  15.459 -0.6863 -1.3031 -0.5004
 1389SOL    HW215630   4.172   3.283  15.592  1.2244 -0.0884  1.9522
 1390SOL     OW15631   1.850   3.705  10.598  0.0145 -0.0613  0.0953
 1390SOL    HW115632   1.883   3.770  10.660  1.0867 -0.2591 -0.2701
 1390SOL    HW215633   1.771   3.756  10.579  1.2966  2.1321  0.6451
 1391SOL     OW15634   0.293   4.690   0.559  0.1925 -0.3347 -0.3328
 1391SOL    HW115635   0.293   4.613   0.616  0.4332 -1.5104 -1.9412
 1391SOL    HW215636   0.273   4.646   0.476 -0.1250  2.7504 -1.8746
 1392SOL     OW15637   0.771   1.069  16.797  0.3090  0.4488 -0.5552
 1392SOL    HW115638   0.723   1.148  16.773 -1.0928 -0.1150  0.4252
 1392SOL    HW215639   0.721   1.041  16.873  1.2233  3.1707  1.0332
 1393SOL     OW15640   3.273   3.052  13.879 -0.6982 -0.4339 -0.4258
 1393SOL    HW115641   3.236   2.989  13.816 -0.7086 -0.4673 -0.3869
 1393SOL    HW215642   3.234   3.136  13.854 -2.2282 -1.2273 -0.7031
 1394SOL     OW15643   2.288   4.309  13.620 -0.4569  0.0851  0.0200
 1394SOL    HW115644   2.266   4.216  13.622 -1.1692  0.3237  2.7200
 1394SOL    HW215645   2.255   4.348  13.539 -0.7798 -0.8847 -0.3090
 1395SOL     OW15646   0.515   3.987   2.816 -0.8879 -0.2304  0.6102
 1395SOL    HW115647   0.566   4.027   2.886  0.1380  0.3911 -0.4905
 1395SOL    HW215648   0.566   3.907   2.807  0.8555  1.1726 -1.9132
 1396SOL     OW15649   0.061   0.981  11.089  0.0669  0.0544  0.5435
 1396SOL    HW115650   0.073   0.901  11.140  1.9023 -0.0218  0.0008
 1396SOL    HW215651   0.109   0.947  11.013  0.7703  0.3082  0.8698
 1397SOL     OW15652   3.612   3.914   8.318  0.2270  0.4031  0.3723
 1397SOL    HW115653   3.588   3.913   8.225  1.3349 -0.2624  0.1013
 1397SOL    HW215654   3.685   3.975   8.306  0.4985 -0.0681 -0.3360
 1398SOL     OW15655   2.532   1.640   7.878 -0.8893  0.0034  0.9079
 1398SOL    HW115656   2.525   1.659   7.784  0.1385 -0.1380  0.8068
 1398SOL    HW215657   2.496   1.716   7.925 -2.3392  0.0942 -0.3122
 1399SOL     OW15658   3.591   3.984   9.355 -0.2250  0.2145  0.2633
 1399SOL    HW115659   3.684   4.000   9.371 -0.2403 -0.8327  1.4102
 1399SOL    HW215660   3.566   4.070   9.321 -0.4272  1.0871  2.6491
 1400SOL     OW15661   2.748   0.734   1.666 -0.6100  0.4130  0.1416
 1400SOL    HW115662   2.726   0.826   1.650  0.7289  0.6853 -0.1298
 1400SOL    HW215663   2.662   0.699   1.640 -0.3222 -1.4142  1.6778
 1401SOL     OW15664   1.217   2.530   2.995  0.1041 -0.1661  0.0955
 1401SOL    HW115665   1.207   2.548   3.088  0.4071 -0.2721  0.1506
 1401SOL    HW215666   1.230   2.435   2.998 -2.0284 -0.4845 -1.1605
 1402SOL     OW15667   4.404   0.995   0.415 -0.1626  0.8120 -0.1920
 1402SOL    HW115668   4.399   0.955   0.501  4.5285 -0.5210 -0.5537
 1402SOL    HW215669   4.326   0.957   0.374  1.2816 -3.2985  0.8967
 1403SOL     OW15670   3.246   4.388   4.955  0.1454 -0.3872  0.2799
 1403SOL    HW115671   3.195   4.469   4.958  1.5209  0.4535  0.9508
 1403SOL    HW215672   3.240   4.365   4.862 -2.9511  1.1104  0.1373
 1404SOL     OW15673   1.962   0.104   3.817  0.0443 -0.0024  0.1527
 1404SOL    HW115674   1.990   0.021   3.856  0.5904  1.1180  2.1481
 1404SOL    HW215675   1.883   0.116   3.870 -0.1662 -1.2292  0.1206
 1405SOL     OW15676   2.888   3.746   4.152  0.1205 -0.0676  0.3401
 1405SOL    HW115677   2.828   3.792   4.211 -2.5657 -3.1340  0.0264
 1405SOL    HW215678   2.943   3.819   4.124 -1.8717  1.2888 -0.0272
 1406SOL     OW15679   0.839   4.487   5.384  0.0183 -0.4425 -0.1145
 1406SOL    HW115680   0.819   4.400   5.419  3.2780 -1.2144 -0.1394
 1406SOL    HW215681   0.871   4.533   5.462  1.1780  1.0334 -1.4530
 1407SOL     OW15682   3.438   0.716   6.108 -0.5884 -0.4456  0.5120
 1407SOL    HW115683   3.387   0.795   6.123 -1.5578 -0.8526 -0.6047
 1407SOL    HW215684   3.434   0.723   6.012  0.3569 -2.4144  0.3362
 1408SOL     OW15685   3.550   3.324   8.416  0.1168  1.0583  0.2083
 1408SOL    HW115686   3.533   3.393   8.353  1.8785  0.0662 -1.3609
 1408SOL    HW215687   3.602   3.369   8.483  2.3632  0.0970 -0.8910
 1409SOL     OW15688   4.382   2.404   3.658  0.1904 -0.2158  0.3332
 1409SOL    HW115689   4.289   2.408   3.636  0.4815  1.0713 -0.6138
 1409SOL    HW215690   4.383   2.407   3.754  0.4741  0.8411  0.2889
 1410SOL     OW15691   0.006   4.306   2.223 -0.2766 -0.7341 -0.3432
 1410SOL    HW115692   4.675   4.357   2.284  1.6036 -0.6866  1.2553
 1410SOL    HW215693   0.094   4.345   2.219 -0.2873 -0.5952  0.7144
 1411SOL     OW15694   4.472   0.371  11.802 -0.4132  0.1361  0.4150
 1411SOL    HW115695   4.435   0.412  11.724 -0.7297 -1.6175 -0.3686
 1411SOL    HW215696   4.563   0.400  11.804 -0.9219  1.8839 -1.5774
 1412SOL     OW15697   1.767   3.284   5.097  0.0926  0.2517 -0.0296
 1412SOL    HW115698   1.772   3.374   5.065 -0.9521  0.5933  0.7444
 1412SOL    HW215699   1.793   3.303   5.187  2.0980 -1.2133 -0.3082
 1413SOL     OW15700   2.661   0.235   6.586 -0.5629 -0.2415 -0.2038
 1413SOL    HW115701   2.728   0.304   6.584  0.1209 -0.8614  1.1716
 1413SOL    HW215702   2.711   0.158   6.561 -1.4573 -1.5307  1.9315
 1414SOL     OW15703   3.151   4.459  16.909  0.2703 -0.4052  0.3223
 1414SOL    HW115704   3.155   4.548  16.944 -0.6593 -0.0178 -0.5847
 1414SOL    HW215705   3.200   4.410  16.975  0.5463 -0.2973  0.1977
 1415SOL     OW15706   0.891   0.528   5.847 -0.1685  0.8036 -0.4695
 1415SOL    HW115707   0.915   0.538   5.939 -0.9899 -1.2619 -0.0510
 1415SOL    HW215708   0.861   0.617   5.827  1.4201  1.5845  0.5999
 1416SOL     OW15709   2.998   4.413   2.999 -0.1270 -0.2295  0.1107
 1416SOL    HW115710   2.911   4.447   2.978 -0.8214 -2.0322  0.0623
 1416SOL    HW215711   3.041   4.440   2.918 -1.3682  1.4567  0.0160
 1417SOL     OW15712   2.727   1.000   6.540  0.1746 -0.0612  0.3397
 1417SOL    HW115713   2.655   1.033   6.487 -1.4210 -2.5542  0.9472
 1417SOL    HW215714   2.693   1.033   6.623  2.2274 -0.5713  1.3974
 1418SOL     OW15715   0.096   1.004  12.926 -0.9053 -0.2003 -0.0390
 1418SOL    HW115716   0.044   1.070  12.972  0.7991  1.4410 -0.4357
 1418SOL    HW215717   0.036   0.957  12.868  1.5495 -1.6591 -1.4203
 1419SOL     OW15718   3.833   3.671   2.151  0.9356 -0.2415  0.0431
 1419SOL    HW115719   3.886   3.651   2.075 -0.0890  1.3700 -1.1009
 1419SOL    HW215720   3.745   3.670   2.113  1.5873  0.3607 -1.4927
 1420SOL     OW15721   0.449   0.459   0.937  0.3378 -0.1044 -0.3893
 1420SOL    HW115722   0.466   0.372   0.902 -2.0271 -0.0223 -1.7451
 1420SOL    HW215723   0.472   0.512   0.860  0.7310  2.1125  1.2689
 1421SOL     OW15724   3.702   2.630  12.621  0.2346  0.2785 -0.2162
 1421SOL    HW115725   3.644   2.560  12.593  1.3500 -0.2644 -1.1644
 1421SOL    HW215726   3.752   2.589  12.692  2.1241 -0.2883 -1.8702
 1422SOL     OW15727   2.018   4.324   6.322 -0.3085  0.3716  0.3025
 1422SOL    HW115728   2.055   4.251   6.372 -0.6419 -0.0340 -0.0421
 1422SOL    HW215729   2.087   4.353   6.262  0.1194  0.6811  0.9438
 1423SOL     OW15730   4.012   0.877   5.063  0.1147 -0.5914  0.1261
 1423SOL    HW115731   3.950   0.950   5.069 -0.8147 -1.6699  3.2725
 1423SOL    HW215732   4.073   0.928   5.009  0.3511 -1.2223 -0.1964
 1424SOL     OW15733   2.486   3.233   1.076  0.1491 -0.0111 -0.1816
 1424SOL    HW115734   2.515   3.319   1.105 -1.3983  0.5343 -0.2636
 1424SOL    HW215735   2.393   3.253   1.069  0.1080 -0.0131  0.3433
 1425SOL     OW15736   3.134   0.841   7.104  0.0720 -0.6220 -0.0580
 1425SOL    HW115737   3.222   0.846   7.142  0.3306 -0.0421 -0.7339
 1425SOL    HW215738   3.119   0.935   7.096  0.6813 -0.6952 -1.9200
 1426SOL     OW15739   0.052   3.265   4.975 -0.0968  0.4998 -0.1954
 1426SOL    HW115740   0.006   3.268   4.891 -1.4629 -0.2739  0.5083
 1426SOL    HW215741   0.092   3.352   4.968  2.0979 -0.4369  0.5291
 1427SOL     OW15742   2.468   0.264  12.986  0.6196 -0.3438  0.3276
 1427SOL    HW115743   2.387   0.235  13.027  0.4944  0.1558  0.4422
 1427SOL    HW215744   2.440   0.284  12.896  1.0520 -1.7583 -0.1191
 1428SOL     OW15745   0.118   2.923  11.007  0.3446  0.1707 -0.0628
 1428SOL    HW115746   0.059   2.883  10.942  2.4769 -1.0477 -1.2421
 1428SOL    HW215747   0.077   3.008  11.020  0.8565  0.3444  0.3908
 1429SOL     OW15748   4.237   2.165   5.075 -0.2150 -0.2758  0.3539
 1429SOL    HW115749   4.278   2.238   5.122 -0.0266 -1.7990  2.5824
 1429SOL    HW215750   4.145   2.192   5.073  0.3214  1.0286 -5.3434
 1430SOL     OW15751   2.462   3.828   5.108  0.1528  0.1553 -0.3057
 1430SOL    HW115752   2.538   3.771   5.121  0.9859  0.9067 -1.8921
 1430SOL    HW215753   2.493   3.891   5.043  0.7527  1.0401  0.8256
 1431SOL     OW15754   1.601   0.546   8.774 -0.6642  0.2064  0.3586
 1431SOL    HW115755   1.691   0.515   8.786 -0.5214 -0.1813 -1.7015
 1431SOL    HW215756   1.620   0.637   8.751 -1.7834  0.4520  0.4118
 1432SOL     OW15757   4.427   3.185   3.053 -0.4097 -0.0682 -0.2893
 1432SOL    HW115758   4.495   3.249   3.075  1.1472 -1.7812 -0.0847
 1432SOL    HW215759   4.486   3.124   3.010 -1.0508 -0.9098  0.0281
 1433SOL     OW15760   3.527   1.267   2.241 -0.5693  0.1219 -0.0519
 1433SOL    HW115761   3.465   1.337   2.222 -0.0152  0.2656 -1.2865
 1433SOL    HW215762   3.591   1.268   2.170 -0.5396  3.0626 -0.0037
 1434SOL     OW15763   1.622   1.577  15.082  0.6144  0.0614 -0.0950
 1434SOL    HW115764   1.543   1.595  15.133  0.9772 -2.0132  1.1956
 1434SOL    HW215765   1.577   1.538  15.007  1.4636 -0.4479 -0.3306
 1435SOL     OW15766   2.293   4.708   0.134 -0.2756 -0.1432  0.3374
 1435SOL    HW115767   2.355   0.059   0.141  0.5892 -1.0486  2.1194
 1435SOL    HW215768   2.300   4.657   0.215 -0.5647 -0.0093  0.4449
 1436SOL     OW15769   3.853   1.363   3.097  0.3771  0.0919  0.0356
 1436SOL    HW115770   3.792   1.391   3.029  1.4826 -0.6910 -1.2781
 1436SOL    HW215771   3.835   1.436   3.156 -1.0875  1.1732 -1.7214
 1437SOL     OW15772   1.148   1.705  13.972  0.1801 -0.5317 -0.3270
 1437SOL    HW115773   1.078   1.746  14.022  1.6021  2.0991 -0.4774
 1437SOL    HW215774   1.142   1.737  13.882 -3.7054  0.2953  0.2365
 1438SOL     OW15775   0.013   0.292   4.475  0.1595 -0.2834  0.6347
 1438SOL    HW115776   4.693   0.374   4.503  0.3536  0.8354 -2.4175
 1438SOL    HW215777   4.697   0.294   4.387  1.2805  2.0336  0.2147
 1439SOL     OW15778   1.381   2.682   8.255 -0.3022  0.4613 -0.3109
 1439SOL    HW115779   1.373   2.667   8.349  0.2320  1.4821 -0.1051
 1439SOL    HW215780   1.388   2.777   8.255 -0.3442  0.4643 -0.5898
 1440SOL     OW15781   2.669   3.275   7.518  0.4235 -0.6088  0.0522
 1440SOL    HW115782   2.576   3.277   7.542  0.2922  3.4750 -0.8600
 1440SOL    HW215783   2.682   3.185   7.487  1.0228  0.0734 -1.6495
 1441SOL     OW15784   1.915   2.023  15.148  0.0135  0.4473 -0.1381
 1441SOL    HW115785   1.984   1.980  15.199  0.5270  1.2725 -0.1401
 1441SOL    HW215786   1.902   1.957  15.080 -0.5305  0.3576  0.0541
 1442SOL     OW15787   4.115   2.204   8.978 -0.0599  0.0704 -0.0061
 1442SOL    HW115788   4.208   2.211   8.955 -0.5704  2.9658 -1.1608
 1442SOL    HW215789   4.092   2.292   8.950 -2.0926  0.1452  1.9021
 1443SOL     OW15790   1.214   4.598   7.035 -0.0295  0.1547  0.0450
 1443SOL    HW115791   1.272   4.551   6.974 -1.0285 -1.5809  0.4325
 1443SOL    HW215792   1.225   4.550   7.117 -1.6268  1.8967  1.2417
 1444SOL     OW15793   0.756   1.452   3.412 -0.2818  0.0574 -0.1105
 1444SOL    HW115794   0.837   1.421   3.371 -0.6611 -1.2674  0.1178
 1444SOL    HW215795   0.735   1.524   3.353 -1.2868 -0.5539 -0.4944
 1445SOL     OW15796   3.701   3.899   8.013  0.3669  0.2274 -0.2361
 1445SOL    HW115797   3.765   3.941   8.071 -0.7932  1.8340 -0.1174
 1445SOL    HW215798   3.761   3.859   7.951  1.7036  0.2123  1.0583
 1446SOL     OW15799   3.158   0.559   4.681  0.3982  0.2090 -0.3308
 1446SOL    HW115800   3.168   0.552   4.776  0.3580 -0.0160 -0.3421
 1446SOL    HW215801   3.209   0.637   4.661 -1.5363  1.5652  0.0719
 1447SOL     OW15802   2.525   1.704  11.969  0.2951 -0.3234 -0.2685
 1447SOL    HW115803   2.487   1.763  12.035  2.6918 -0.8370  1.5895
 1447SOL    HW215804   2.482   1.623  11.999  1.0712 -0.7403 -0.2893
 1448SOL     OW15805   1.630   3.281  14.424  0.2571  0.1779  0.3384
 1448SOL    HW115806   1.718   3.244  14.414 -0.2584 -0.6795 -0.9265
 1448SOL    HW215807   1.576   3.213  14.386  1.0785  0.2520 -0.9555
 1449SOL     OW15808   3.701   0.157   7.512 -0.9781  0.3934 -0.4255
 1449SOL    HW115809   3.663   0.184   7.429 -1.1012 -0.9359 -0.8027
 1449SOL    HW215810   3.752   0.237   7.527 -1.1986  0.6398 -0.9850
 1450SOL     OW15811   1.866   4.347   5.182 -0.3250 -0.4533  0.2970
 1450SOL    HW115812   1.832   4.429   5.217  1.3561  0.9870 -1.4998
 1450SOL    HW215813   1.789   4.290   5.192 -0.1592 -0.9698 -1.5144
 1451SOL     OW15814   4.073   2.252   3.266  0.3333  0.1674  0.6946
 1451SOL    HW115815   4.091   2.223   3.177 -0.7266  0.8339  0.2717
 1451SOL    HW215816   4.008   2.187   3.294 -0.8878  2.3243  2.8975
 1452SOL     OW15817   2.417   1.778   9.473  0.4032  0.3409  0.1634
 1452SOL    HW115818   2.443   1.686   9.477  0.4430  0.4647  3.0298
 1452SOL    HW215819   2.374   1.793   9.389 -1.0070 -1.0252  0.6461
 1453SOL     OW15820   3.134   2.928   3.912  0.2869 -0.1776 -0.1718
 1453SOL    HW115821   3.175   2.910   3.997  0.4048 -0.3194 -0.2594
 1453SOL    HW215822   3.171   2.853   3.865  3.6899  0.9440  0.7239
 1454SOL     OW15823   3.398   3.754  12.953  0.7918  0.5999  0.5906
 1454SOL    HW115824   3.436   3.765  13.040  0.0910 -0.2984  1.0118
 1454SOL    HW215825   3.375   3.846  12.945  0.4209  0.4068 -0.5385
 1455SOL     OW15826   1.925   4.390   5.521  0.7847  0.4604 -0.3137
 1455SOL    HW115827   1.912   4.401   5.427 -1.9581 -1.2263 -0.1436
 1455SOL    HW215828   1.847   4.336   5.534  0.4886  1.0266  0.2516
 1456SOL     OW15829   2.213   3.474  14.046  0.0346  0.1453  0.3987
 1456SOL    HW115830   2.210   3.509  13.957 -0.2945 -1.7358 -0.3246
 1456SOL    HW215831   2.289   3.522  14.079 -1.1176  1.5896  0.9368
 1457SOL     OW15832   0.815   2.156   4.123  0.0882 -0.0404 -0.2449
 1457SOL    HW115833   0.877   2.085   4.141  0.7839  0.0516 -2.2734
 1457SOL    HW215834   0.850   2.196   4.043 -2.4258  2.9075  0.1536
 1458SOL     OW15835   2.073   4.048   2.969 -0.1854 -0.6675  0.6700
 1458SOL    HW115836   2.027   4.127   2.997 -1.4668 -1.4608  0.8219
 1458SOL    HW215837   2.006   4.025   2.904  1.4130 -0.4985 -1.0522
 1459SOL     OW15838   2.916   3.093  12.712 -0.7124  0.1908  0.7759
 1459SOL    HW115839   2.990   3.078  12.653 -1.7544  2.5074 -1.1584
 1459SOL    HW215840   2.959   3.123  12.792 -1.3092 -1.7936  1.8268
 1460SOL     OW15841   2.451   3.572   6.721 -0.2212 -0.2694 -0.4193
 1460SOL    HW115842   2.376   3.631   6.708 -0.7751 -1.0805 -0.9364
 1460SOL    HW215843   2.440   3.513   6.646 -0.1461 -2.0400  0.9638
 1461SOL     OW15844   0.377   3.319   3.765  0.4553  0.0910  0.3229
 1461SOL    HW115845   0.390   3.413   3.778 -0.6804  0.2928 -0.0523
 1461SOL    HW215846   0.296   3.300   3.812 -0.1449  2.3868  0.2185
 1462SOL     OW15847   4.196   3.527   4.074 -0.1542  0.1244  0.1101
 1462SOL    HW115848   4.109   3.519   4.113 -1.6665 -0.5060 -3.4296
 1462SOL    HW215849   4.240   3.466   4.133  1.8742 -0.8477 -2.4457
 1463SOL     OW15850   1.179   4.412  14.778  0.6897  0.4133 -0.4378
 1463SOL    HW115851   1.270   4.441  14.778  0.1773  2.0158  0.3981
 1463SOL    HW215852   1.131   4.491  14.752  1.3993  0.7775 -0.6477
 1464SOL     OW15853   0.826   1.382  15.711  0.0159 -0.2370  0.3605
 1464SOL    HW115854   0.900   1.432  15.677  0.0286  0.3022  1.1631
 1464SOL    HW215855   0.781   1.364  15.629 -0.9819  2.2971  0.3368
 1465SOL     OW15856   0.532   4.396   6.799 -0.2561  0.1259  0.5966
 1465SOL    HW115857   0.519   4.329   6.733  0.0541  0.6002  0.0584
 1465SOL    HW215858   0.523   4.345   6.880 -0.1120 -1.5595 -0.4539
 1466SOL     OW15859   1.081   0.640   3.586  0.2667  0.6095  0.3322
 1466SOL    HW115860   1.016   0.587   3.540 -0.5503 -0.0089  2.2382
 1466SOL    HW215861   1.164   0.615   3.545 -0.9877  0.3203 -2.0348
 1467SOL     OW15862   1.410   3.514   8.935  0.1102  0.1241 -0.7222
 1467SOL    HW115863   1.385   3.456   9.007  0.3330  1.7082  0.6143
 1467SOL    HW215864   1.505   3.509   8.933  0.1943  1.1445  0.6255
 1468SOL     OW15865   1.432   2.370   0.031  0.0936 -0.1460 -0.2054
 1468SOL    HW115866   1.461   2.285   0.064 -0.2866 -0.7407 -1.4200
 1468SOL    HW215867   1.386   2.336  17.644  0.4611 -1.4525  0.1437
 1469SOL     OW15868   2.300   0.356   7.101 -0.1278  0.0431 -0.3824
 1469SOL    HW115869   2.358   0.431   7.107  1.0172 -0.8679  0.0225
 1469SOL    HW215870   2.355   0.301   7.045 -0.4927 -0.4260 -0.2798
 1470SOL     OW15871   2.852   1.189  11.896 -0.0307 -0.4302  0.4009
 1470SOL    HW115872   2.810   1.120  11.845 -1.2720  1.7504 -1.5342
 1470SOL    HW215873   2.926   1.213  11.840 -0.0242  0.3075  0.7159
 1471SOL     OW15874   4.317   1.282   7.838 -0.4434  0.3066 -0.5241
 1471SOL    HW115875   4.365   1.199   7.842  1.6225  1.5091  0.2241
 1471SOL    HW215876   4.326   1.313   7.929 -1.6612  0.2630 -0.3921
 1472SOL     OW15877   1.303   1.811   4.622  0.1084 -0.5345 -0.6322
 1472SOL    HW115878   1.290   1.902   4.651  0.6079 -0.7474  0.2818
 1472SOL    HW215879   1.238   1.773   4.681 -1.1659  1.0444 -1.0281
 1473SOL     OW15880   1.723   2.777   2.588 -0.1279  0.4686 -0.0835
 1473SOL    HW115881   1.672   2.857   2.575 -1.1458 -0.1073  0.3329
 1473SOL    HW215882   1.647   2.719   2.593 -0.1174  0.5465  1.0887
 1474SOL     OW15883   2.665   4.567  16.284  0.0669  0.2777 -0.2501
 1474SOL    HW115884   2.698   4.613  16.208  2.0859 -3.6881 -1.7428
 1474SOL    HW215885   2.653   4.487  16.233 -1.3587  0.0841  0.3666
 1475SOL     OW15886   2.451   1.738   8.318  0.1151 -0.7332 -0.1132
 1475SOL    HW115887   2.487   1.669   8.373 -0.1849  0.2837  1.3658
 1475SOL    HW215888   2.474   1.806   8.382 -1.0117  2.6672 -3.3523
 1476SOL     OW15889   2.279   0.137   8.573  0.5669 -0.6568  0.5387
 1476SOL    HW115890   2.329   0.058   8.596  1.5977  0.0272  0.6427
 1476SOL    HW215891   2.315   0.155   8.486  0.8289 -1.2180  0.5293
 1477SOL     OW15892   1.525   4.092  17.378  0.3868  0.5543  0.1139
 1477SOL    HW115893   1.479   4.041  17.311 -0.1078  0.9460  0.1620
 1477SOL    HW215894   1.609   4.048  17.363  1.1507  1.7091  1.0454
 1478SOL     OW15895   2.853   3.068   2.506 -0.3335 -0.0393  0.3092
 1478SOL    HW115896   2.825   2.977   2.494  0.0183 -0.3515  1.8218
 1478SOL    HW215897   2.768   3.108   2.527  0.0082  0.7717  0.1166
 1479SOL     OW15898   3.597   2.461  14.516  0.5358  0.3561 -0.0987
 1479SOL    HW115899   3.654   2.453  14.592  0.7946  1.5700 -0.1569
 1479SOL    HW215900   3.599   2.556  14.501 -0.3373  0.2572 -0.8621
 1480SOL     OW15901   4.629   2.731   7.425 -0.6105  0.8661 -0.4612
 1480SOL    HW115902   4.625   2.812   7.476 -3.0937  0.6587 -0.3202
 1480SOL    HW215903   4.583   2.755   7.345  1.6991 -0.5497 -2.2106
 1481SOL     OW15904   2.605   2.521  15.214  0.0189  0.2456 -0.5779
 1481SOL    HW115905   2.579   2.591  15.274 -0.3721 -0.1089 -0.3311
 1481SOL    HW215906   2.590   2.437  15.258  1.2662  1.0120  1.3122
 1482SOL     OW15907   0.684   4.477   2.731 -0.0697  0.5975 -0.0357
 1482SOL    HW115908   0.726   4.471   2.645  1.2316  0.8800  0.5891
 1482SOL    HW215909   0.617   4.408   2.733 -1.5763  2.0724  0.6923
 1483SOL     OW15910   1.617   4.453   9.473  0.5213 -0.3246 -0.5228
 1483SOL    HW115911   1.549   4.469   9.409  0.9146  1.3721 -0.5211
 1483SOL    HW215912   1.574   4.479   9.555  1.6095 -0.7467  0.1939
 1484SOL     OW15913   0.497   3.935   0.009 -0.2766 -0.8759  0.0549
 1484SOL    HW115914   0.591   3.937   0.027 -0.4660 -0.6844  0.9714
 1484SOL    HW215915   0.492   3.844  17.669  1.8952 -0.6885 -0.9291
 1485SOL     OW15916   2.669   2.633   2.459 -0.3319 -0.7371  0.4326
 1485SOL    HW115917   2.680   2.698   2.390  1.7014 -0.8262  0.6713
 1485SOL    HW215918   2.623   2.690   2.521 -0.2666 -0.5084  0.2698
 1486SOL     OW15919   1.794   2.193  17.408 -0.0122  0.0479 -0.2800
 1486SOL    HW115920   1.759   2.105  17.397 -0.2768  0.2322 -0.9631
 1486SOL    HW215921   1.729   2.250  17.365  0.4796  0.1424 -0.9024
 1487SOL     OW15922   4.320   2.928  15.417  0.1449  0.3619  0.2587
 1487SOL    HW115923   4.395   2.943  15.476 -0.8361  1.2011  1.2908
 1487SOL    HW215924   4.264   2.876  15.473 -0.8299 -0.5591 -1.5743
 1488SOL     OW15925   0.645   1.013   8.783 -0.3284  0.0275  0.4967
 1488SOL    HW115926   0.627   1.093   8.832  1.5196  1.3204 -0.9164
 1488SOL    HW215927   0.668   0.948   8.850 -0.1025  0.8053  1.1676
 1489SOL     OW15928   2.181   3.855   5.265 -0.2816  0.2259  0.8755
 1489SOL    HW115929   2.250   3.863   5.199 -1.9498 -2.3721 -1.1955
 1489SOL    HW215930   2.107   3.842   5.205  0.1673 -2.4665  0.9373
 1490SOL     OW15931   1.163   1.343   8.203  0.6612  0.2982 -0.0052
 1490SOL    HW115932   1.130   1.430   8.181 -0.5512 -0.4524 -1.1165
 1490SOL    HW215933   1.235   1.340   8.139  0.4913 -0.8416 -0.1360
 1491SOL     OW15934   4.509   1.202   2.341  0.5200  0.2145 -0.5617
 1491SOL    HW115935   4.510   1.292   2.309 -1.8915  0.8389  1.0945
 1491SOL    HW215936   4.599   1.172   2.326  0.6423 -0.6758  1.8962
 1492SOL     OW15937   0.509   2.863  11.328 -0.3621  0.0987  0.2553
 1492SOL    HW115938   0.460   2.886  11.248  0.7440  3.1608  0.4752
 1492SOL    HW215939   0.581   2.923  11.313  1.1082 -2.1946 -2.0039
 1493SOL     OW15940   4.329   2.775   2.845 -0.4447  0.4124  0.5206
 1493SOL    HW115941   4.260   2.766   2.911 -0.1707 -0.0952  0.7298
 1493SOL    HW215942   4.384   2.698   2.855 -0.4719 -0.0083 -2.4982
 1494SOL     OW15943   3.082   0.759  15.811 -0.8648  0.4196 -0.3452
 1494SOL    HW115944   3.129   0.822  15.756  1.2720 -1.0027 -0.1460
 1494SOL    HW215945   3.130   0.763  15.893 -0.4269  0.6436 -0.6107
 1495SOL     OW15946   1.435   1.920   2.983 -0.1919 -0.2677 -0.6313
 1495SOL    HW115947   1.422   1.829   2.954  1.0566 -0.4278 -0.6996
 1495SOL    HW215948   1.440   1.961   2.897  0.7717  0.1792 -0.3562
 1496SOL     OW15949   2.693   1.449   0.993  0.6502  0.2609  0.0216
 1496SOL    HW115950   2.611   1.449   1.043  1.3525  2.1937  1.1785
 1496SOL    HW215951   2.706   1.357   0.973  1.1669  0.6904 -1.6502
 1497SOL     OW15952   2.072   4.205   4.923  0.0653 -0.1711 -0.0979
 1497SOL    HW115953   2.050   4.298   4.914  3.2065  0.7714  1.7739
 1497SOL    HW215954   1.993   4.160   4.896 -0.5480 -0.9911  3.0312
 1498SOL     OW15955   1.358   0.261   1.253  0.0129 -0.1037  0.3153
 1498SOL    HW115956   1.396   0.211   1.325  1.5165 -1.2072 -1.2413
 1498SOL    HW215957   1.265   0.245   1.272  0.1506 -1.5264 -0.2125
 1499SOL     OW15958   1.947   0.093   4.502 -0.2879 -0.0194 -0.2786
 1499SOL    HW115959   1.929   0.060   4.413  1.7894  1.7006 -1.3330
 1499SOL    HW215960   2.015   0.160   4.491  0.5931 -0.9437 -0.5275
 1500SOL     OW15961   4.213   4.466   0.716 -0.4755 -0.4343 -0.2945
 1500SOL    HW115962   4.147   4.413   0.671  0.3407  0.5859 -2.7092
 1500SOL    HW215963   4.153   4.510   0.776 -0.9754  0.1551 -1.2273
 1501SOL     OW15964   2.813   2.270  12.936 -0.3975  0.5311 -0.0281
 1501SOL    HW115965   2.879   2.335  12.914 -1.4139  1.0761 -1.4770
 1501SOL    HW215966   2.870   2.195  12.920  0.5083  1.8104 -2.8036
 1502SOL     OW15967   1.670   2.837   7.287  0.0807 -0.0570 -0.3270
 1502SOL    HW115968   1.657   2.742   7.293  0.5412 -0.1521 -0.9191
 1502SOL    HW215969   1.739   2.840   7.221 -0.5234 -1.3989 -1.0235
 1503SOL     OW15970   0.400   1.791   0.802 -0.9584 -0.2885 -0.7180
 1503SOL    HW115971   0.349   1.870   0.787  0.3549  0.6288 -0.2489
 1503SOL    HW215972   0.369   1.761   0.888 -2.9164  0.0203 -1.3102
 1504SOL     OW15973   1.557   1.892   6.797  0.8434  0.1625  0.3212
 1504SOL    HW115974   1.517   1.921   6.714  0.9960  0.2827  0.2900
 1504SOL    HW215975   1.500   1.817   6.812  1.5722 -0.4467  0.0043
 1505SOL     OW15976   3.724   1.773   0.792 -0.2573  1.0791  0.0334
 1505SOL    HW115977   3.771   1.754   0.873 -0.5240 -2.2814 -0.5994
 1505SOL    HW215978   3.692   1.684   0.775  0.6557  0.1163  3.3116
 1506SOL     OW15979   0.939   0.675   9.798  0.2301 -0.2978 -0.4598
 1506SOL    HW115980   0.936   0.768   9.775  1.4964 -0.7797 -2.6576
 1506SOL    HW215981   0.893   0.642   9.721  0.8326 -0.9887 -0.5259
 1507SOL     OW15982   3.350   1.803   6.789  0.4574 -0.3141  0.0556
 1507SOL    HW115983   3.324   1.868   6.855  1.5032  2.5588 -2.3621
 1507SOL    HW215984   3.320   1.723   6.832 -0.3211  0.4672  0.9907
 1508SOL     OW15985   0.850   2.400  10.620 -0.3078 -0.0583 -0.1674
 1508SOL    HW115986   0.789   2.473  10.606  0.7638  1.1189  1.2557
 1508SOL    HW215987   0.781   2.348  10.663 -1.4235  0.0403 -1.8458
 1509SOL     OW15988   0.595   1.841   4.460 -0.1938  0.2284 -0.2417
 1509SOL    HW115989   0.634   1.789   4.389  2.7473  0.3587  1.2568
 1509SOL    HW215990   0.554   1.908   4.406  0.4954  0.4452 -0.5002
 1510SOL     OW15991   4.368   2.425   2.412 -0.6409 -0.1269  0.1277
 1510SOL    HW115992   4.427   2.380   2.352 -0.8476  0.5145 -0.5769
 1510SOL    HW215993   4.353   2.505   2.361  0.6305 -0.4167 -0.6929
 1511SOL     OW15994   4.085   3.392  15.690  0.2200  0.3389  0.1379
 1511SOL    HW115995   4.033   3.472  15.694 -0.3701 -0.1410  1.8981
 1511SOL    HW215996   4.031   3.320  15.722  0.4434 -0.4201 -1.1926
 1512SOL     OW15997   2.337   1.419   8.974  0.4297 -0.2984 -0.0791
 1512SOL    HW115998   2.323   1.500   9.022  2.1702 -1.2177  2.0132
 1512SOL    HW215999   2.251   1.376   8.969  1.7789 -2.8180 -1.6403
 1513SOL     OW16000   4.473   0.117   9.219  0.4132 -0.1994 -0.1044
 1513SOL    HW116001   4.488   0.181   9.289  0.9802  0.6799 -1.0317
 1513SOL    HW216002   4.385   0.131   9.184  1.1792  0.9112 -1.5926
 1514SOL     OW16003   3.208   4.655  13.823  0.4375  0.5405  0.4126
 1514SOL    HW116004   3.155   4.718  13.872  1.4657  2.8468 -1.4075
 1514SOL    HW216005   3.203   4.691  13.734  2.1915 -0.4571 -0.0815
 1515SOL     OW16006   2.752   4.003   0.437  0.3104 -0.3412  0.1577
 1515SOL    HW116007   2.742   4.029   0.346 -1.3377 -2.4663 -0.2708
 1515SOL    HW216008   2.741   3.908   0.437  1.4913 -0.4751  0.7819
 1516SOL     OW16009   1.085   2.986  17.471  0.0224  0.4129 -0.0772
 1516SOL    HW116010   1.139   3.065  17.481  3.3879 -1.9944  0.8016
 1516SOL    HW216011   1.131   2.945  17.398 -1.0475 -0.1336 -0.4260
 1517SOL     OW16012   3.467   2.629  11.024  0.8519 -0.1310  0.8980
 1517SOL    HW116013   3.511   2.576  10.958  0.0138  1.2399 -0.7716
 1517SOL    HW216014   3.487   2.716  10.989  0.0536 -0.2906  0.0655
 1518SOL     OW16015   4.708   3.756   8.663 -0.2666  0.1164  0.0685
 1518SOL    HW116016   0.040   3.710   8.598  0.2666  2.6944 -1.3126
 1518SOL    HW216017   0.037   3.837   8.676 -0.0618 -0.4339  2.8672
 1519SOL     OW16018   3.371   0.874  17.179  1.0456  0.0595  0.0461
 1519SOL    HW116019   3.465   0.889  17.193  0.6962  2.6456 -0.3381
 1519SOL    HW216020   3.381   0.800  17.120  2.3972  0.1020  0.2075
 1520SOL     OW16021   1.296   2.192   9.763 -0.2509 -0.1234  0.5720
 1520SOL    HW116022   1.267   2.148   9.683 -0.6744 -0.1035  0.7166
 1520SOL    HW216023   1.371   2.238   9.725 -0.9349 -0.5763 -1.3123
 1521SOL     OW16024   0.175   2.871  17.004 -0.5295 -0.4352 -0.1497
 1521SOL    HW116025   0.203   2.863  17.095 -2.1286  0.8950  0.4494
 1521SOL    HW216026   0.172   2.780  16.973  2.3914 -1.1402  1.6329
 1522SOL     OW16027   0.233   2.256   8.718 -0.7708 -0.2973 -0.3262
 1522SOL    HW116028   0.197   2.219   8.799  0.5141 -0.7315  0.0424
 1522SOL    HW216029   0.324   2.269   8.747 -1.5696 -0.8359  2.4650
 1523SOL     OW16030   2.546   1.446   2.832 -0.1830  0.6671  0.1496
 1523SOL    HW116031   2.563   1.496   2.912  0.4075  1.5210 -0.5245
 1523SOL    HW216032   2.450   1.451   2.827 -0.1283  0.9344 -0.5631
 1524SOL     OW16033   4.160   1.012  10.078 -0.1212 -0.2330  0.3347
 1524SOL    HW116034   4.181   1.099  10.112  0.9715 -0.5853  0.5580
 1524SOL    HW216035   4.207   0.975  10.153 -0.7529 -2.9393 -0.6034
 1525SOL     OW16036   2.266   3.957  14.021  0.7180  0.1952  0.1885
 1525SOL    HW116037   2.336   3.979  14.082  0.9700 -0.2860  0.0766
 1525SOL    HW216038   2.247   4.042  13.981  0.3499  0.7232  1.4742
 1526SOL     OW16039   3.620   3.424   2.037 -0.8554  0.2942  0.2256
 1526SOL    HW116040   3.610   3.519   2.044 -1.3403  0.4612 -2.7998
 1526SOL    HW216041   3.604   3.423   1.943  0.3859  1.6678  0.0009
 1527SOL     OW16042   0.759   2.885  16.019 -0.0607 -0.2956  0.6968
 1527SOL    HW116043   0.781   2.840  15.938 -2.2822  0.5224 -0.3708
 1527SOL    HW216044   0.747   2.972  15.982 -0.4477 -0.6190  0.0620
 1528SOL     OW16045   0.601   1.329   6.817 -0.6999 -0.3033  0.2070
 1528SOL    HW116046   0.685   1.323   6.862 -0.7570  2.8901  0.7702
 1528SOL    HW216047   0.544   1.280   6.877  0.5529  0.9319  2.4168
 1529SOL     OW16048   0.091   1.053  10.086  0.1526  0.2293 -0.5817
 1529SOL    HW116049   0.114   1.003  10.164  1.1025 -0.0594 -1.0474
 1529SOL    HW216050   0.179   1.059  10.050 -0.9158  1.7602 -2.9568
 1530SOL     OW16051   1.710   3.083   7.402  0.0586  0.3394  0.2633
 1530SOL    HW116052   1.703   3.142   7.327 -0.5919  0.5403  0.4814
 1530SOL    HW216053   1.709   2.995   7.364  2.3997  0.5962 -0.3969
 1531SOL     OW16054   3.247   1.772   3.626 -0.1138  0.0418 -0.5840
 1531SOL    HW116055   3.316   1.786   3.562 -0.0544  0.2975 -0.4657
 1531SOL    HW216056   3.234   1.678   3.616  0.8284 -0.3068  1.4255
 1532SOL     OW16057   0.163   0.835   2.893  0.5459 -0.0169 -0.3219
 1532SOL    HW116058   0.180   0.767   2.829 -0.5745 -1.6685  1.1233
 1532SOL    HW216059   0.075   0.864   2.869  0.4140 -0.9664 -0.9739
 1533SOL     OW16060   3.923   3.446   4.109  0.5611  0.1063  0.0752
 1533SOL    HW116061   3.940   3.420   4.018 -0.4825  0.3395 -0.1908
 1533SOL    HW216062   3.833   3.418   4.125  0.0748  1.1091 -0.8946
 1534SOL     OW16063   1.576   4.695   4.760 -0.3265  0.0922  0.0989
 1534SOL    HW116064   1.577   4.671   4.853  0.6316 -0.6914 -0.1121
 1534SOL    HW216065   1.523   0.053   4.766 -0.2978 -0.0482  2.4440
 1535SOL     OW16066   0.611   0.508   0.636 -0.7614 -0.2677  0.2680
 1535SOL    HW116067   0.664   0.563   0.577 -2.1053  0.6615 -0.0777
 1535SOL    HW216068   0.635   0.546   0.720  1.9858  0.1275 -0.6612
 1536SOL     OW16069   1.145   3.567   2.401 -0.3916 -0.2812  0.0278
 1536SOL    HW116070   1.106   3.492   2.356 -0.2314 -0.6563  0.5218
 1536SOL    HW216071   1.117   3.647   2.356  0.7812  0.1190 -0.0122
 1537SOL     OW16072   4.337   2.223   7.870 -0.7173  0.0989  0.0656
 1537SOL    HW116073   4.252   2.267   7.870 -1.9221 -2.1766 -2.9988
 1537SOL    HW216074   4.371   2.255   7.786  3.4819 -3.4910  0.3715
 1538SOL     OW16075   3.171   1.551   4.255  0.1163 -0.2262  0.4546
 1538SOL    HW116076   3.223   1.546   4.176 -0.9492  0.5326 -0.3010
 1538SOL    HW216077   3.090   1.513   4.221  0.1979  1.3771 -1.5450
 1539SOL     OW16078   2.278   2.012   4.095 -0.0307  0.4750  0.6712
 1539SOL    HW116079   2.301   2.032   4.185  2.0937  0.7167  0.0707
 1539SOL    HW216080   2.362   2.028   4.052 -0.3010  4.8518  1.7530
 1540SOL     OW16081   1.618   2.976  13.557  0.1713 -0.1401 -0.5512
 1540SOL    HW116082   1.555   2.959  13.487  0.8059  1.1977 -1.4574
 1540SOL    HW216083   1.570   3.040  13.609  1.9702 -0.7612  1.8811
 1541SOL     OW16084   2.018   2.229   0.211  0.0001  0.5741 -0.4588
 1541SOL    HW116085   1.954   2.195   0.274 -1.4107  0.9713 -1.6763
 1541SOL    HW216086   1.965   2.230   0.131 -0.2592  1.5184 -0.2769
 1542SOL     OW16087   0.014   4.194   4.838 -0.3015 -0.1284 -0.3953
 1542SOL    HW116088   4.664   4.146   4.797  0.3937 -0.7640 -0.8667
 1542SOL    HW216089   0.018   4.142   4.919 -0.5892 -3.5680 -2.5872
 1543SOL     OW16090   4.022   2.290   8.179 -0.5770 -0.3284 -0.3284
 1543SOL    HW116091   3.995   2.233   8.252 -0.9131  1.0135  0.5959
 1543SOL    HW216092   4.056   2.225   8.118  3.2069  1.8707 -0.5799
 1544SOL     OW16093   0.869   4.403   6.070  0.3664 -0.0980 -0.5301
 1544SOL    HW116094   0.818   4.438   6.143  1.6816 -1.1328  0.8933
 1544SOL    HW216095   0.800   4.429   6.010 -0.7383  0.7366  1.0954
 1545SOL     OW16096   0.817   4.449   3.959 -0.0681  0.2946 -0.1376
 1545SOL    HW116097   0.840   4.364   3.996 -2.3429 -1.3803 -2.5947
 1545SOL    HW216098   0.727   4.429   3.934  0.8129  0.1710 -3.2199
 1546SOL     OW16099   4.136   1.421   9.310  0.4447 -0.0319  0.8619
 1546SOL    HW116100   4.080   1.347   9.288 -0.0545 -0.1750  2.6303
 1546SOL    HW216101   4.146   1.424   9.405  2.0440 -0.2517  0.6994
 1547SOL     OW16102   2.074   1.807   4.915 -0.1593 -0.2610  0.5183
 1547SOL    HW116103   2.103   1.876   4.974  1.0354  0.1621 -0.5598
 1547SOL    HW216104   1.990   1.782   4.955 -0.6740  0.8046  0.1244
 1548SOL     OW16105   4.316   0.339   3.809 -0.1411  0.2713  0.4119
 1548SOL    HW116106   4.350   0.336   3.899 -1.8591 -0.7101  1.0297
 1548SOL    HW216107   4.274   0.253   3.802 -1.2443  0.7333  1.2743
 1549SOL     OW16108   3.442   3.763   9.357  0.1092 -0.0794 -0.5111
 1549SOL    HW116109   3.496   3.838   9.379  1.2001 -1.7989  2.6607
 1549SOL    HW216110   3.363   3.809   9.329  1.1261  2.5975  1.0826
 1550SOL     OW16111   2.756   2.015  10.499  0.1599 -0.2953  0.7374
 1550SOL    HW116112   2.716   1.931  10.478 -0.2795 -0.1591  1.0260
 1550SOL    HW216113   2.771   2.059  10.415 -1.7944 -1.0600 -0.0097
 1551SOL     OW16114   2.143   0.545   5.533  0.6625 -0.8615  0.0066
 1551SOL    HW116115   2.193   0.558   5.453 -1.2412  0.3209 -0.9939
 1551SOL    HW216116   2.164   0.457   5.564  0.1286 -1.5334 -1.5616
 1552SOL     OW16117   1.731   0.871   8.047  0.1677  0.3920 -0.2501
 1552SOL    HW116118   1.673   0.892   7.974  0.4056  2.1682  0.0810
 1552SOL    HW216119   1.663   0.868   8.115 -0.9390  1.3671 -1.3131
 1553SOL     OW16120   0.369   4.018  14.776 -0.1162 -0.2306 -0.4776
 1553SOL    HW116121   0.328   4.034  14.861 -0.1280  2.0052 -0.8870
 1553SOL    HW216122   0.381   3.924  14.790 -1.1700 -0.4245 -0.8586
 1554SOL     OW16123   1.441   1.934   9.082 -0.4315  0.4718  0.4121
 1554SOL    HW116124   1.382   2.009   9.084  0.8499  1.4390  1.8804
 1554SOL    HW216125   1.436   1.892   9.167 -0.7781  1.1346  0.7133
 1555SOL     OW16126   0.566   2.787   2.930  0.1912  0.1107 -0.8956
 1555SOL    HW116127   0.609   2.728   2.869 -0.5032 -0.4060 -0.8787
 1555SOL    HW216128   0.510   2.842   2.875  0.1885 -0.5945 -1.5810
 1556SOL     OW16129   0.391   1.762   4.633  0.3390  0.0450  0.3423
 1556SOL    HW116130   0.465   1.781   4.575 -0.1872 -0.6272 -0.5547
 1556SOL    HW216131   0.320   1.800   4.580  0.5296 -1.0200 -0.6709
 1557SOL     OW16132   4.707   1.666   3.144  0.5335  0.3678  0.7208
 1557SOL    HW116133   4.684   1.692   3.234 -1.9482  0.3371  0.0904
 1557SOL    HW216134   4.706   1.571   3.148  0.8601  0.3423  0.1543
 1558SOL     OW16135   0.914   2.041  11.832  0.1937 -0.4766 -0.2348
 1558SOL    HW116136   0.856   2.033  11.908 -0.9792 -0.5112 -1.1415
 1558SOL    HW216137   0.877   2.122  11.797 -1.2431 -0.0831  2.1877
 1559SOL     OW16138   0.242   3.589  16.716  0.5181 -0.1832 -0.0985
 1559SOL    HW116139   0.164   3.552  16.758 -0.9821  0.8599 -1.9579
 1559SOL    HW216140   0.246   3.672  16.762 -3.2593  0.9276 -1.7351
 1560SOL     OW16141   2.591   2.195  16.324  0.4341 -0.6335  0.6256
 1560SOL    HW116142   2.516   2.167  16.376 -1.0238  2.6029  0.2666
 1560SOL    HW216143   2.573   2.151  16.241 -1.1263 -1.4429  1.4035
 1561SOL     OW16144   4.526   3.959   8.257 -0.1317 -0.2832 -0.0485
 1561SOL    HW116145   4.610   3.919   8.237 -0.7983 -0.7929 -1.8957
 1561SOL    HW216146   4.551   4.026   8.321 -1.7361  0.0421  0.2434
 1562SOL     OW16147   3.949   2.185   2.864  0.6478  0.3490  0.0182
 1562SOL    HW116148   3.953   2.268   2.816  3.1342  1.5852  2.3986
 1562SOL    HW216149   3.899   2.128   2.805  2.3320  1.2214 -2.2651
 1563SOL     OW16150   2.816   0.857   5.203 -0.0887 -0.1139  0.6583
 1563SOL    HW116151   2.748   0.878   5.139 -0.4530 -0.6773  0.8588
 1563SOL    HW216152   2.847   0.781   5.154 -0.8696  1.9905 -3.1005
 1564SOL     OW16153   4.260   4.317   5.246 -0.1288  0.0507  0.5694
 1564SOL    HW116154   4.284   4.278   5.330 -0.1469 -1.7833 -0.2893
 1564SOL    HW216155   4.328   4.384   5.238 -0.2428 -0.0611 -1.2790
 1565SOL     OW16156   0.853   1.669   8.277  0.3373  0.1448 -0.7229
 1565SOL    HW116157   0.930   1.678   8.333  0.1806  2.5334 -0.9023
 1565SOL    HW216158   0.792   1.723   8.326  0.3093  1.5081 -2.2880
 1566SOL     OW16159   0.504   1.547   7.893  0.2234 -0.0675  1.0586
 1566SOL    HW116160   0.448   1.559   7.969 -0.5981  0.9611  0.2852
 1566SOL    HW216161   0.446   1.580   7.825  1.4327 -0.7757 -0.3031
 1567SOL     OW16162   2.108   3.888   6.442 -0.2051 -0.2606 -0.5595
 1567SOL    HW116163   2.079   3.853   6.358 -1.4769  2.2832 -1.1637
 1567SOL    HW216164   2.027   3.917   6.483  1.5284  3.6060  0.1227
 1568SOL     OW16165   3.415   4.012  12.986 -0.5805 -0.3543 -0.2992
 1568SOL    HW116166   3.415   4.081  12.920  1.4947 -0.0260  0.0199
 1568SOL    HW216167   3.507   3.990  13.005 -0.2806  0.2745 -1.0367
 1569SOL     OW16168   0.202   0.022  13.242  0.1487 -0.2315 -0.3629
 1569SOL    HW116169   0.221   0.063  13.326 -1.4899  0.4543 -0.3258
 1569SOL    HW216170   0.107   0.032  13.242  0.2962  1.2186 -0.8720
 1570SOL     OW16171   0.543   4.327  16.510 -0.0075 -0.4498  0.5345
 1570SOL    HW116172   0.476   4.394  16.521  0.7677  0.7693 -2.1310
 1570SOL    HW216173   0.564   4.302  16.600 -0.9478  0.1090  0.9041
 1571SOL     OW16174   1.776   0.822  13.877 -0.4929 -0.4506 -0.0686
 1571SOL    HW116175   1.755   0.755  13.942 -0.8645 -0.5784 -0.3218
 1571SOL    HW216176   1.869   0.847  13.882 -0.7237  0.2939  0.4112
 1572SOL     OW16177   3.486   0.289   5.929  0.8781  0.1909  0.4649
 1572SOL    HW116178   3.558   0.300   5.990  0.2520  1.6334  0.9404
 1572SOL    HW216179   3.446   0.220   5.982  0.4692  0.2776  0.2747
 1573SOL     OW16180   3.272   0.251   5.144  0.1936  0.0358 -0.4507
 1573SOL    HW116181   3.195   0.196   5.158 -1.1466  1.8818 -0.5918
 1573SOL    HW216182   3.305   0.220   5.059  0.6166 -1.2670  0.1880
 1574SOL     OW16183   3.421   4.148  10.207  0.0498  0.4556  0.0712
 1574SOL    HW116184   3.408   4.172  10.116  0.4684  2.5474  0.5609
 1574SOL    HW216185   3.377   4.063  10.211 -0.7046  0.8898  1.0265
 1575SOL     OW16186   2.486   1.941  11.001  0.0897  0.0502 -0.4532
 1575SOL    HW116187   2.513   1.978  10.917  0.3086 -0.8057 -0.7587
 1575SOL    HW216188   2.453   1.856  10.971 -1.0703  0.1961  0.3701
 1576SOL     OW16189   4.013   1.971   4.555 -0.4620  0.0018 -0.4828
 1576SOL    HW116190   3.959   1.916   4.498 -0.7873 -1.1189  0.9275
 1576SOL    HW216191   4.088   2.003   4.504 -1.0267  1.0626 -0.6551
 1577SOL     OW16192   2.723   1.707   8.699  0.5352  0.2511  0.1891
 1577SOL    HW116193   2.685   1.675   8.617 -1.3897 -0.3374  1.2913
 1577SOL    HW216194   2.789   1.642   8.724 -1.2290 -1.6181  0.0854
 1578SOL     OW16195   4.591   4.182   7.402  0.1749  0.7596 -0.1668
 1578SOL    HW116196   4.654   4.230   7.455 -0.7655  2.8024 -0.8696
 1578SOL    HW216197   4.530   4.256   7.391 -0.6609  0.1539  0.3847
 1579SOL     OW16198   1.399   0.530  13.421  0.4381  0.1428  0.1694
 1579SOL    HW116199   1.352   0.458  13.379  0.5514  0.2438 -0.1317
 1579SOL    HW216200   1.334   0.601  13.417  1.1042  0.7892  0.8545
 1580SOL     OW16201   4.340   4.542   2.144 -0.7541  0.0492 -0.1327
 1580SOL    HW116202   4.249   4.521   2.122 -0.9277 -1.0721  1.6941
 1580SOL    HW216203   4.365   4.588   2.063 -1.3077  1.4144  0.4592
 1581SOL     OW16204   0.927   0.777   8.627 -0.2414 -0.2445 -0.2208
 1581SOL    HW116205   0.974   0.762   8.709  2.2103  4.3069 -0.8376
 1581SOL    HW216206   0.883   0.859   8.649 -1.1766 -0.0977 -2.7116
 1582SOL     OW16207   0.068   4.513   8.793 -0.3167  0.4222 -0.1054
 1582SOL    HW116208   0.045   4.606   8.788 -1.1595  0.2186 -0.0252
 1582SOL    HW216209   0.163   4.514   8.803 -0.3992 -1.2682  0.7818
 1583SOL     OW16210   2.721   0.612   3.300  0.0791 -0.1527 -0.5066
 1583SOL    HW116211   2.729   0.610   3.395  0.9703  1.4259 -0.5624
 1583SOL    HW216212   2.656   0.543   3.281  0.3654 -0.9725  1.5176
 1584SOL     OW16213   4.211   4.469  12.039  0.2004  0.3250 -0.5339
 1584SOL    HW116214   4.128   4.422  12.027 -0.8311  1.6953  1.3399
 1584SOL    HW216215   4.214   4.538  11.973 -0.7839 -1.0473 -2.0330
 1585SOL     OW16216   0.902   0.742   0.008  0.4841 -0.0826  0.2263
 1585SOL    HW116217   0.995   0.733   0.029  0.1553 -1.0794  1.2995
 1585SOL    HW216218   0.900   0.826  17.652 -1.5454  0.3693  1.1123
 1586SOL     OW16219   3.714   2.539   5.819  0.9383  0.2294 -0.2697
 1586SOL    HW116220   3.620   2.523   5.823  1.0104  0.5797  3.2256
 1586SOL    HW216221   3.733   2.554   5.912 -0.3762  0.6100 -0.0711
 1587SOL     OW16222   3.495   3.266   3.104 -0.0070 -0.4402 -0.1154
 1587SOL    HW116223   3.403   3.266   3.078  0.3685 -0.1519 -1.4134
 1587SOL    HW216224   3.535   3.293   3.022  0.2363 -3.0284 -0.8581
 1588SOL     OW16225   4.139   4.174  16.123 -0.2741  0.3184 -0.1415
 1588SOL    HW116226   4.177   4.151  16.038 -2.5341  0.9244 -1.3238
 1588SOL    HW216227   4.080   4.100  16.138 -0.9799  0.6441 -1.2546
 1589SOL     OW16228   3.822   0.574   6.455 -0.0796  0.3202  0.1939
 1589SOL    HW116229   3.837   0.535   6.541 -1.2255  0.9580  0.6857
 1589SOL    HW216230   3.731   0.598   6.474  0.0161  1.5122 -0.8499
 1590SOL     OW16231   2.258   2.988   4.941  1.1286 -0.1341 -0.3120
 1590SOL    HW116232   2.255   2.979   5.036  3.7227  0.5894 -0.1882
 1590SOL    HW216233   2.212   2.906   4.923  2.0667 -0.6136 -0.5052
 1591SOL     OW16234   2.671   1.472  11.751 -0.7088  0.1750  0.1436
 1591SOL    HW116235   2.612   1.543  11.724  0.8095  0.8019 -1.5376
 1591SOL    HW216236   2.748   1.523  11.775  0.8119 -0.9544 -2.3304
 1592SOL     OW16237   1.091   2.805  15.126  0.3992  0.5932  0.2606
 1592SOL    HW116238   1.165   2.854  15.091 -0.1771  0.2262 -1.4716
 1592SOL    HW216239   1.148   2.744  15.174  0.4433 -0.7795 -1.5682
 1593SOL     OW16240   2.576   1.716  16.522 -0.2662 -0.6424 -0.4343
 1593SOL    HW116241   2.517   1.754  16.587  0.8817 -0.4740  0.4985
 1593SOL    HW216242   2.525   1.727  16.442  1.2014  1.2807 -1.0890
 1594SOL     OW16243   0.010   2.934  15.730 -0.0151 -0.0469 -0.7351
 1594SOL    HW116244   0.057   2.860  15.770 -2.0018 -1.7342 -1.5234
 1594SOL    HW216245   0.011   2.912  15.637 -0.1162  0.8159 -0.9428
 1595SOL     OW16246   1.248   4.408   3.350 -0.3370  0.2222 -0.0935
 1595SOL    HW116247   1.277   4.389   3.439 -2.1278 -0.1012  0.4301
 1595SOL    HW216248   1.154   4.400   3.369 -0.6711  1.6689 -1.1291
 1596SOL     OW16249   0.011   0.926   8.342  0.3836  0.5089 -0.3754
 1596SOL    HW116250   0.025   0.969   8.426 -0.4142  3.0473 -1.5361
 1596SOL    HW216251   0.070   0.851   8.346 -0.4317 -0.2588 -2.4776
 1597SOL     OW16252   0.603   1.676   4.773  0.2476 -0.0043  0.0004
 1597SOL    HW116253   0.558   1.592   4.778 -0.3040  0.1977 -1.5008
 1597SOL    HW216254   0.552   1.728   4.711 -0.5455  1.1206  1.6059
 1598SOL     OW16255   0.928   2.008   3.029 -0.1159  0.1415  0.0680
 1598SOL    HW116256   1.015   1.978   3.052 -0.4146 -1.7085 -1.1867
 1598SOL    HW216257   0.889   1.939   3.083 -1.9055  0.9190 -0.2188
 1599SOL     OW16258   4.253   2.249  14.804 -0.3654  0.2742 -0.3668
 1599SOL    HW116259   4.258   2.156  14.779 -1.5641 -0.1990  1.1406
 1599SOL    HW216260   4.162   2.274  14.819 -0.1898  1.1304 -0.7165
 1600SOL     OW16261   3.013   0.876  17.444  0.6303 -0.0827 -0.3289
 1600SOL    HW116262   3.098   0.849  17.409  0.3480 -2.5293  0.8804
 1600SOL    HW216263   3.011   0.970  17.425 -3.3323 -0.0270  0.3866
 1601SOL     OW16264   0.089   4.621   4.025  0.3846  0.0000 -0.8415
 1601SOL    HW116265   0.097   4.529   4.051  2.0063  0.2913 -0.3448
 1601SOL    HW216266   0.059   4.606   3.935  0.3778 -2.2128 -0.4735
 1602SOL     OW16267   2.410   1.562   8.735  0.7088  0.3845 -0.3524
 1602SOL    HW116268   2.442   1.624   8.801 -1.6860  2.1148 -0.8064
 1602SOL    HW216269   2.372   1.497   8.794  1.0506 -0.2678 -0.8473
 1603SOL     OW16270   3.330   0.639   5.664  0.2619 -0.3265 -0.3207
 1603SOL    HW116271   3.270   0.676   5.600 -0.0507 -0.0743  0.1170
 1603SOL    HW216272   3.291   0.553   5.681  0.1783 -0.5282 -1.5406
 1604SOL     OW16273   2.726   4.303  14.009  0.1995  0.2648 -0.1078
 1604SOL    HW116274   2.796   4.239  13.994  1.1071  1.6537 -1.8500
 1604SOL    HW216275   2.756   4.327  14.097  0.0487 -1.5569  0.4510
 1605SOL     OW16276   2.201   2.194  15.132 -0.4705  0.6072  0.1806
 1605SOL    HW116277   2.283   2.243  15.123  0.8393 -1.7960 -1.1466
 1605SOL    HW216278   2.244   2.111  15.110 -2.0473 -0.4818  1.2072
 1606SOL     OW16279   4.518   3.051   3.708  0.0766  0.0024 -0.2796
 1606SOL    HW116280   4.474   3.066   3.624  1.6874  1.0511 -0.9178
 1606SOL    HW216281   4.580   2.982   3.684 -1.1969 -0.7831 -1.3366
 1607SOL     OW16282   0.430   3.877   7.592 -0.2867  0.3538  0.0036
 1607SOL    HW116283   0.451   3.933   7.667  0.5148  0.9479 -0.6583
 1607SOL    HW216284   0.397   3.792   7.620 -1.4983  0.2763 -1.6535
 1608SOL     OW16285   1.792   3.600   2.677 -0.0361  0.4224 -0.3544
 1608SOL    HW116286   1.878   3.633   2.653  0.3430 -0.5094 -0.2625
 1608SOL    HW216287   1.748   3.608   2.592  1.1731  1.6128 -0.8669
 1609SOL     OW16288   0.637   2.450   4.566 -0.0709 -0.2243 -0.4234
 1609SOL    HW116289   0.725   2.424   4.541  0.0257  0.5189 -0.8517
 1609SOL    HW216290   0.643   2.447   4.661  2.2308  0.6324 -0.5447
 1610SOL     OW16291   4.283   3.274   6.067 -0.6241 -0.2445 -0.2596
 1610SOL    HW116292   4.250   3.238   6.150 -1.6430 -1.1075 -1.0306
 1610SOL    HW216293   4.199   3.302   6.030 -1.3879 -0.3606  1.3542
 1611SOL     OW16294   1.668   4.595   2.298 -0.2506 -0.0935  0.1577
 1611SOL    HW116295   1.752   4.571   2.337  0.7118  0.3512 -1.6418
 1611SOL    HW216296   1.687   4.689   2.294  1.1540 -0.5648 -4.0178
 1612SOL     OW16297   4.147   3.141   6.249 -0.0944  0.2285 -0.3618
 1612SOL    HW116298   4.091   3.120   6.323 -0.1680 -3.1827 -1.3904
 1612SOL    HW216299   4.169   3.049   6.234 -3.0454 -0.3347 -1.1507
 1613SOL     OW16300   0.825   0.598   2.232 -0.3605 -0.1377  0.1243
 1613SOL    HW116301   0.750   0.606   2.174  0.1066  1.5638 -0.2434
 1613SOL    HW216302   0.884   0.660   2.190  0.4205 -0.5011  0.6836
 1614SOL     OW16303   1.561   1.384  14.357 -0.2527 -0.4416  0.4198
 1614SOL    HW116304   1.653   1.412  14.357  0.0833 -1.5432 -0.9034
 1614SOL    HW216305   1.547   1.389  14.263  2.6125  0.0275 -0.0032
 1615SOL     OW16306   3.369   3.095   7.183  0.0353  0.4310 -0.4745
 1615SOL    HW116307   3.441   3.037   7.159  2.8614  3.3658  0.8486
 1615SOL    HW216308   3.403   3.177   7.148  0.0968  1.1178  1.1809
 1616SOL     OW16309   3.927   3.153   2.286 -0.8327  0.4471 -0.2635
 1616SOL    HW116310   4.021   3.146   2.269 -0.8103  1.0203 -0.3614
 1616SOL    HW216311   3.896   3.189   2.203  0.0320  2.3486  0.2540
 1617SOL     OW16312   2.323   1.966  15.015 -0.1514 -0.3579 -0.4246
 1617SOL    HW116313   2.296   1.880  15.046 -0.1619  0.1796  1.0741
 1617SOL    HW216314   2.417   1.975  15.029 -0.3619  1.0413  0.1890
 1618SOL     OW16315   3.072   3.997  14.179  0.1753 -0.4709  0.1454
 1618SOL    HW116316   3.116   3.936  14.120  0.6344 -0.8717  0.8973
 1618SOL    HW216317   3.058   3.940  14.255  0.6300 -1.4274 -0.4959
 1619SOL     OW16318   4.036   2.013   5.659 -0.2783 -0.4324  0.1616
 1619SOL    HW116319   4.051   1.918   5.653  1.9259 -0.0061 -1.0939
 1619SOL    HW216320   4.124   2.046   5.673 -1.1767  2.0097  0.0253
 1620SOL     OW16321   4.677   4.574   5.693 -0.5873  0.3415  0.2734
 1620SOL    HW116322   4.654   4.666   5.685 -2.1104 -0.3237 -3.0943
 1620SOL    HW216323   0.015   4.567   5.619  0.5543  2.8555  0.9437
 1621SOL     OW16324   3.068   2.575  15.683 -0.1833  0.3255  0.1130
 1621SOL    HW116325   3.110   2.562  15.768  0.8619  0.3127 -0.3953
 1621SOL    HW216326   3.007   2.642  15.712  0.1996  0.8423 -0.2612
 1622SOL     OW16327   0.493   2.679   6.132 -0.3129 -0.0958 -0.0026
 1622SOL    HW116328   0.561   2.613   6.146 -0.6016 -0.9972 -2.7949
 1622SOL    HW216329   0.424   2.625   6.093 -0.1268 -0.5110  0.2408
 1623SOL     OW16330   2.729   0.044   3.106 -0.2107  0.0534 -0.1451
 1623SOL    HW116331   2.790   0.021   3.035  0.3450  1.2965 -0.0656
 1623SOL    HW216332   2.763   4.706   3.173 -1.9356 -1.0148 -0.2091
 1624SOL     OW16333   1.179   3.441   7.572  0.0348  0.0181 -0.3088
 1624SOL    HW116334   1.133   3.373   7.524 -1.5607 -0.0306  1.3100
 1624SOL    HW216335   1.153   3.424   7.663 -2.5535  1.2976 -0.8265
 1625SOL     OW16336   4.452   1.788   8.974 -0.0149 -0.2610  0.8844
 1625SOL    HW116337   4.370   1.836   8.981 -0.1528 -0.5459  1.2184
 1625SOL    HW216338   4.430   1.712   9.028 -0.4053  2.6025  4.7781
 1626SOL     OW16339   3.152   4.190   7.458 -0.1729 -0.0984 -0.1711
 1626SOL    HW116340   3.153   4.154   7.547  0.1354 -0.4199 -0.3054
 1626SOL    HW216341   3.057   4.176   7.451 -0.2226  0.0681  0.1879
 1627SOL     OW16342   2.982   1.746   0.127 -0.2179  0.3650  0.0843
 1627SOL    HW116343   2.892   1.779   0.132 -0.6370 -0.2415 -3.4305
 1627SOL    HW216344   3.036   1.809   0.174 -1.0129 -0.0746  1.6123
 1628SOL     OW16345   3.383   2.151   6.362  0.0796 -0.4161  0.7002
 1628SOL    HW116346   3.324   2.199   6.418  0.8686  1.3453  0.0197
 1628SOL    HW216347   3.441   2.102   6.420 -0.7093 -2.1541  0.0245
 1629SOL     OW16348   2.988   3.907   5.008 -0.0976  0.7635  0.2953
 1629SOL    HW116349   2.976   3.843   5.078  1.8891  0.7605  0.6406
 1629SOL    HW216350   3.034   3.987   5.033 -0.4219  0.7793  0.8589
 1630SOL     OW16351   1.968   4.497   2.165 -0.2781  0.1631 -0.5404
 1630SOL    HW116352   1.989   4.427   2.226  1.7104 -0.9467 -2.4977
 1630SOL    HW216353   1.920   4.445   2.101 -0.6152  0.4528 -0.5268
 1631SOL     OW16354   3.706   0.613  14.800 -0.2522  0.3600 -0.1154
 1631SOL    HW116355   3.740   0.646  14.717  2.2043  0.3857  0.9018
 1631SOL    HW216356   3.736   0.682  14.859 -1.3478  0.8679 -0.1624
 1632SOL     OW16357   2.207   2.152  12.535  0.1813 -0.0638 -0.3466
 1632SOL    HW116358   2.202   2.203  12.454 -1.7618  1.5921  0.8088
 1632SOL    HW216359   2.277   2.188  12.589 -0.7011  0.2359  0.5930
 1633SOL     OW16360   0.611   1.718   0.631 -0.8185  0.5566 -0.0485
 1633SOL    HW116361   0.545   1.753   0.691 -0.2741  1.1074  0.2335
 1633SOL    HW216362   0.572   1.738   0.546 -1.1220  1.2983  0.2621
 1634SOL     OW16363   3.412   3.793   0.973 -0.3842 -0.4326  0.3940
 1634SOL    HW116364   3.410   3.719   0.912 -0.0826 -0.2263  0.1287
 1634SOL    HW216365   3.366   3.858   0.920  1.7601 -1.7161 -3.0556
 1635SOL     OW16366   1.990   2.548   8.760 -0.4719  0.7007  0.1455
 1635SOL    HW116367   2.007   2.516   8.849  0.6795 -2.0044 -1.0465
 1635SOL    HW216368   2.068   2.600   8.743 -0.3384  0.4127 -0.1297
 1636SOL     OW16369   1.075   3.541   5.499  0.6080 -0.3716 -0.6739
 1636SOL    HW116370   0.989   3.521   5.462  0.3205  0.8957 -0.6828
 1636SOL    HW216371   1.122   3.570   5.421 -0.0266  0.0979 -0.8875
 1637SOL     OW16372   1.076   2.414   2.052 -0.2314 -0.3471  0.0392
 1637SOL    HW116373   1.037   2.438   2.136 -0.1731  0.8980 -0.2912
 1637SOL    HW216374   1.118   2.331   2.073  2.2819  1.4732  2.1934
 1638SOL     OW16375   2.502   1.660   5.829 -0.3847 -0.0891 -0.1036
 1638SOL    HW116376   2.541   1.744   5.854  0.4598 -1.3644  2.8329
 1638SOL    HW216377   2.474   1.630   5.915  0.1953  0.2377  0.1954
 1639SOL     OW16378   2.861   0.149  17.042 -0.2775 -0.0621  0.2513
 1639SOL    HW116379   2.918   0.199  16.983 -0.7450  0.1422 -0.0283
 1639SOL    HW216380   2.921   0.076  17.055 -0.2587 -0.1621 -0.4238
 1640SOL     OW16381   1.326   3.921   7.101  0.2961 -0.1719  0.4869
 1640SOL    HW116382   1.263   3.896   7.169  0.7074  0.5415  1.1258
 1640SOL    HW216383   1.392   3.962   7.156  0.7781  0.1467 -0.3311
 1641SOL     OW16384   4.641   4.254   1.276 -0.0296 -0.2528 -0.0737
 1641SOL    HW116385   4.609   4.188   1.214  1.2210 -0.0909 -0.9033
 1641SOL    HW216386   4.685   4.198   1.339  0.5934  0.7229  0.3670
 1642SOL     OW16387   3.646   1.417  15.314 -0.5980  0.0955  0.1857
 1642SOL    HW116388   3.643   1.327  15.346  0.5089  0.2951  0.8295
 1642SOL    HW216389   3.560   1.429  15.273 -1.2103 -0.5393  1.2925
 1643SOL     OW16390   3.574   2.954   7.106  0.0619 -0.2934  0.1794
 1643SOL    HW116391   3.603   3.001   7.028  0.5496  0.0417  0.5645
 1643SOL    HW216392   3.654   2.902   7.116  0.4598  0.3590  0.3655
 1644SOL     OW16393   1.530   4.571   0.975  0.3326 -0.3197 -0.1455
 1644SOL    HW116394   1.522   4.584   0.881  0.1625  0.8269  0.0380
 1644SOL    HW216395   1.504   4.658   1.005  1.0190 -0.0507 -0.3212
 1645SOL     OW16396   3.156   1.375   1.165  0.5741  0.1129  0.3672
 1645SOL    HW116397   3.080   1.386   1.222  1.5597  2.3985  1.2064
 1645SOL    HW216398   3.129   1.313   1.096 -2.4768 -0.1074  1.7390
 1646SOL     OW16399   1.652   0.474   5.115 -0.2411  0.0972 -0.6036
 1646SOL    HW116400   1.569   0.444   5.152  0.0439 -1.5077 -1.2668
 1646SOL    HW216401   1.637   0.479   5.021 -1.8599 -2.1294 -0.4594
 1647SOL     OW16402   0.807   2.188   4.938 -0.2552  0.4246 -0.2267
 1647SOL    HW116403   0.878   2.243   4.970  1.1748 -2.1364  1.0137
 1647SOL    HW216404   0.778   2.141   5.016 -0.7611  0.6604 -0.2767
 1648SOL     OW16405   4.397   0.431   4.448  0.5952  0.0503  0.3652
 1648SOL    HW116406   4.412   0.481   4.368  1.9104  0.7710  1.0611
 1648SOL    HW216407   4.476   0.459   4.495  0.4981 -0.0278  0.5772
 1649SOL     OW16408   2.508   3.579   0.387  0.4076 -0.4227  0.6446
 1649SOL    HW116409   2.482   3.609   0.300  0.8438 -0.9562  0.3270
 1649SOL    HW216410   2.432   3.609   0.437  1.1898  1.0168  0.9607
 1650SOL     OW16411   2.892   4.550   9.694 -0.0820  0.6555  0.1030
 1650SOL    HW116412   2.881   4.600   9.775 -1.3398  1.6298 -0.6722
 1650SOL    HW216413   2.977   4.588   9.672 -0.7314  2.2739  0.3528
 1651SOL     OW16414   0.991   2.863   3.094  0.2836  0.1093 -0.1528
 1651SOL    HW116415   0.945   2.795   3.143  1.0925 -1.4616 -1.5443
 1651SOL    HW216416   1.016   2.812   3.017  0.4051  0.2883 -0.2326
 1652SOL     OW16417   4.406   2.525  17.469  0.1373  0.7244 -0.8472
 1652SOL    HW116418   4.327   2.509  17.417 -1.1997  0.8343  1.1607
 1652SOL    HW216419   4.379   2.596  17.526 -2.2356 -1.4978  0.8109
 1653SOL     OW16420   4.063   2.087  16.480 -0.2865  0.0714 -0.2759
 1653SOL    HW116421   4.042   2.103  16.388  1.3608  2.1557 -0.2967
 1653SOL    HW216422   4.065   2.177  16.515 -1.2843 -0.2649  0.6215
 1654SOL     OW16423   2.920   3.163   6.314  0.4607 -0.1115  0.6371
 1654SOL    HW116424   2.975   3.117   6.251 -1.4537  0.5765 -1.5337
 1654SOL    HW216425   2.953   3.120   6.393  0.7174  0.3897  0.8031
 1655SOL     OW16426   1.757   0.899   5.090  0.1222 -0.5110  0.2505
 1655SOL    HW116427   1.716   0.970   5.139 -2.0989 -2.0151  0.5892
 1655SOL    HW216428   1.777   0.947   5.010  1.6019 -0.4855  0.6384
 1656SOL     OW16429   3.172   2.271   5.301  0.2330  0.0605 -0.4897
 1656SOL    HW116430   3.089   2.274   5.254  1.5734  0.7129 -2.8524
 1656SOL    HW216431   3.212   2.190   5.268  2.0156  1.0500 -0.7911
 1657SOL     OW16432   2.424   0.700   3.204  0.6675 -0.4575  0.3117
 1657SOL    HW116433   2.497   0.656   3.247 -0.7951 -2.3193  0.9026
 1657SOL    HW216434   2.458   0.719   3.117 -1.3437  1.4069 -0.0738
 1658SOL     OW16435   0.175   0.648  17.031 -0.0519  0.3115  0.1679
 1658SOL    HW116436   0.121   0.615  16.959  0.3016  1.2901 -0.5517
 1658SOL    HW216437   0.134   0.612  17.109 -1.9644  0.5406 -0.7282
 1659SOL     OW16438   1.325   0.268   5.145 -0.0187 -0.0179 -0.5548
 1659SOL    HW116439   1.242   0.287   5.189  0.5769  2.6807 -0.5862
 1659SOL    HW216440   1.309   0.179   5.114 -1.5366  0.0701 -0.0478
 1660SOL     OW16441   0.100   4.029   1.818 -0.2740 -0.4235 -0.0678
 1660SOL    HW116442   0.041   3.988   1.754  0.2248 -0.1034 -0.7281
 1660SOL    HW216443   0.036   4.066   1.880 -2.7244 -0.5300 -2.5188
 1661SOL     OW16444   3.102   1.227   0.955  0.0258 -0.4851  0.7019
 1661SOL    HW116445   3.169   1.159   0.966 -0.4002 -0.7451  1.6944
 1661SOL    HW216446   3.105   1.235   0.859 -2.0190  1.0902  0.7691
 1662SOL     OW16447   3.724   0.573   7.375 -0.4150  0.7965  0.0499
 1662SOL    HW116448   3.763   0.657   7.352  0.9641  0.0947 -0.1815
 1662SOL    HW216449   3.774   0.520   7.313  0.7659 -0.1748  1.8114
 1663SOL     OW16450   3.303   1.403  16.318 -0.0531 -0.0745  0.1169
 1663SOL    HW116451   3.231   1.451  16.278 -2.0575 -1.8731  1.6051
 1663SOL    HW216452   3.261   1.400  16.403  0.7895 -1.1388  0.4947
 1664SOL     OW16453   0.792   2.891  15.264  0.4404 -0.2010  0.1502
 1664SOL    HW116454   0.736   2.814  15.252  0.3840  0.2537 -2.4630
 1664SOL    HW216455   0.875   2.845  15.257  0.2884 -0.6981  1.6589
 1665SOL     OW16456   4.164   1.960  12.999  1.0923 -0.0697 -0.0349
 1665SOL    HW116457   4.228   1.989  12.934  1.2383  0.2960  0.2743
 1665SOL    HW216458   4.224   1.959  13.074  1.9168  0.5832 -0.6842
 1666SOL     OW16459   2.471   3.952   6.175  0.0521 -0.5006 -0.4051
 1666SOL    HW116460   2.548   3.997   6.210 -0.2204 -0.5486  0.2629
 1666SOL    HW216461   2.408   4.022   6.163  1.0271  0.8076  1.9746
 1667SOL     OW16462   0.795   0.814   5.860 -0.2703 -0.2908 -0.0134
 1667SOL    HW116463   0.722   0.836   5.919  1.4072  0.1317  1.8919
 1667SOL    HW216464   0.764   0.856   5.780 -3.3647 -3.5790 -0.5237
 1668SOL     OW16465   4.265   4.719   8.426  0.1266 -0.1839  0.0592
 1668SOL    HW116466   4.307   0.007   8.341  1.3874  2.3264  0.9475
 1668SOL    HW216467   4.343   0.004   8.482  0.7463 -1.5833 -0.6358
 1669SOL     OW16468   3.660   0.531  10.563 -0.2568 -0.5675 -0.3319
 1669SOL    HW116469   3.621   0.544  10.476  0.9775 -1.6386 -1.0445
 1669SOL    HW216470   3.607   0.456  10.591  0.2774 -0.7539  0.1801
 1670SOL     OW16471   1.150   2.611   0.941  0.0563 -0.3931  0.9791
 1670SOL    HW116472   1.212   2.665   0.892 -0.3933 -0.4544  0.3510
 1670SOL    HW216473   1.102   2.687   0.977 -0.9505 -1.0900  1.1072
 1671SOL     OW16474   4.278   2.344   2.677  0.4526  0.2688  0.2150
 1671SOL    HW116475   4.273   2.341   2.773 -0.9184 -0.4974  0.1185
 1671SOL    HW216476   4.373   2.350   2.673  0.4062  0.7611 -0.0780
 1672SOL     OW16477   0.587   2.067   4.001  0.4691 -0.2207 -0.0620
 1672SOL    HW116478   0.563   2.155   3.972 -0.1585 -0.4501 -0.2577
 1672SOL    HW216479   0.673   2.082   4.040  1.0799  3.1448 -2.7357
 1673SOL     OW16480   1.392   1.084  11.113  0.4861  0.4274  0.4148
 1673SOL    HW116481   1.476   1.105  11.072  0.6622  0.9089  1.0347
 1673SOL    HW216482   1.354   1.004  11.075  0.7731  0.9531 -0.9961
 1674SOL     OW16483   0.509   1.316   5.119 -0.0535  0.1291  0.4102
 1674SOL    HW116484   0.566   1.296   5.045  0.5439 -0.3904  1.0038
 1674SOL    HW216485   0.555   1.391   5.155 -0.6226  1.2558 -1.2253
 1675SOL     OW16486   2.175   1.464   8.365  0.8479  0.2419 -0.0626
 1675SOL    HW116487   2.102   1.439   8.420  0.5077 -0.7667 -0.9679
 1675SOL    HW216488   2.132   1.461   8.279  1.1525  0.1900 -0.2144
 1676SOL     OW16489   3.827   0.828   7.331  0.0552 -0.4123  0.2880
 1676SOL    HW116490   3.773   0.902   7.302 -1.3397 -0.4549  2.7999
 1676SOL    HW216491   3.801   0.820   7.423  1.5104  0.8515  0.8339
 1677SOL     OW16492   2.258   3.142  10.453 -0.7436 -0.2914 -0.6378
 1677SOL    HW116493   2.300   3.059  10.431 -0.1768 -0.7615  2.2039
 1677SOL    HW216494   2.336   3.197  10.461 -0.6830 -0.7115  1.7056
 1678SOL     OW16495   4.557   3.191   2.169 -0.1416 -0.4960  0.7381
 1678SOL    HW116496   4.494   3.225   2.105 -0.6778  3.0808  3.1939
 1678SOL    HW216497   4.634   3.155   2.126  0.8695  1.2950  1.0690
 1679SOL     OW16498   1.922   1.777  15.872 -0.0714  0.3990 -0.2248
 1679SOL    HW116499   1.861   1.790  15.799 -0.6507  3.6865  0.8581
 1679SOL    HW216500   2.005   1.772  15.825 -0.2407  2.6234 -0.7355
 1680SOL     OW16501   3.679   0.923  13.582  0.3518  0.2029  0.7888
 1680SOL    HW116502   3.718   0.959  13.502 -0.2070  0.9299  0.8315
 1680SOL    HW216503   3.642   0.838  13.559 -0.1741  0.5922  0.1893
 1681SOL     OW16504   2.464   3.730   6.014  0.3993 -0.2341  0.4637
 1681SOL    HW116505   2.464   3.819   6.049  2.5232  0.5482 -1.5973
 1681SOL    HW216506   2.484   3.682   6.095  0.4599 -0.7299  0.1517
 1682SOL     OW16507   4.656   1.360   3.147 -0.2153 -0.0071 -0.0257
 1682SOL    HW116508   4.654   1.335   3.239 -0.5626 -1.1285 -0.3459
 1682SOL    HW216509   4.575   1.331   3.106  0.8411 -2.8799 -0.0878
 1683SOL     OW16510   0.421   1.420  17.135  0.5975 -0.8424 -0.1124
 1683SOL    HW116511   0.331   1.450  17.152  1.1222 -0.0276  1.2074
 1683SOL    HW216512   0.406   1.351  17.070 -0.6857 -0.1602 -0.5542
 1684SOL     OW16513   4.276   3.807   8.787  0.0104 -0.7853 -0.0311
 1684SOL    HW116514   4.252   3.867   8.716 -0.2792  0.8518  1.4681
 1684SOL    HW216515   4.360   3.837   8.823  1.0201 -1.6623 -1.6596
 1685SOL     OW16516   3.140   1.783  12.416  0.4041  0.0418  0.3200
 1685SOL    HW116517   3.149   1.867  12.372 -1.3228  0.2801  0.4199
 1685SOL    HW216518   3.046   1.765  12.411  0.1532  1.6629 -0.8443
 1686SOL     OW16519   4.003   4.404  17.064  0.0885 -0.2933 -0.0085
 1686SOL    HW116520   3.992   4.496  17.042 -0.7801 -0.9151 -2.1921
 1686SOL    HW216521   3.916   4.382  17.097  0.1855 -1.7740 -0.7368
 1687SOL     OW16522   0.674   4.302  17.108 -0.2688 -0.0941  0.0849
 1687SOL    HW116523   0.580   4.282  17.110 -0.0687 -0.9570  1.4967
 1687SOL    HW216524   0.671   4.394  17.132 -1.4534  0.2281 -1.3093
 1688SOL     OW16525   2.599   2.763   8.165 -0.5593  0.2314  0.2107
 1688SOL    HW116526   2.612   2.751   8.259  0.7560  2.6477  0.3242
 1688SOL    HW216527   2.622   2.675   8.134 -0.7408  0.4873 -0.6433
 1689SOL     OW16528   2.188   1.092   9.659 -0.9638  0.0132 -0.1569
 1689SOL    HW116529   2.158   1.151   9.589 -3.5186 -0.8049  0.2399
 1689SOL    HW216530   2.160   1.143   9.735 -2.0125 -2.1706  0.9190
 1690SOL     OW16531   3.061   1.358   5.082 -0.3902  0.2428 -0.0034
 1690SOL    HW116532   3.071   1.318   4.996  0.7615 -0.1418  0.3162
 1690SOL    HW216533   3.049   1.449   5.056 -1.1130 -0.2187 -1.2996
 1691SOL     OW16534   4.128   3.025   4.654 -0.8632  0.0481  0.2096
 1691SOL    HW116535   4.037   3.041   4.627 -1.1070 -2.3544 -0.4242
 1691SOL    HW216536   4.101   2.966   4.725  0.2237 -0.0069  0.5686
 1692SOL     OW16537   0.675   3.378   5.616 -0.1460 -0.2807 -0.1583
 1692SOL    HW116538   0.694   3.307   5.554  1.4295 -1.7314  2.0108
 1692SOL    HW216539   0.751   3.433   5.598  0.3787 -0.7551  0.6106
 1693SOL     OW16540   2.180   4.032   5.485 -0.4780 -0.3388  0.0878
 1693SOL    HW116541   2.193   3.970   5.413 -0.5436 -0.2290 -0.0185
 1693SOL    HW216542   2.116   4.090   5.444  0.3990 -0.2014 -1.0765
 1694SOL     OW16543   3.109   3.093  14.117  0.1094  0.2470 -0.2597
 1694SOL    HW116544   3.189   3.060  14.077  0.3430 -0.7337  1.0082
 1694SOL    HW216545   3.042   3.043  14.071 -0.8571  0.4491  0.9254
 1695SOL     OW16546   3.719   0.408   2.024 -0.3801 -0.4912  0.1683
 1695SOL    HW116547   3.678   0.491   1.998 -1.1099 -0.9231 -0.0401
 1695SOL    HW216548   3.738   0.378   1.936  1.6605 -1.7163  1.0320
 1696SOL     OW16549   1.068   2.825  10.003 -0.1729 -0.0048 -0.5183
 1696SOL    HW116550   1.126   2.892   9.967 -1.0600 -0.0492 -2.0342
 1696SOL    HW216551   1.039   2.855  10.089  0.7076 -0.4065 -0.0813
 1697SOL     OW16552   2.678   4.440   7.640  0.7688 -0.2809 -0.7701
 1697SOL    HW116553   2.685   4.382   7.564  2.4628 -0.3836 -0.5203
 1697SOL    HW216554   2.595   4.484   7.623  0.0228 -1.2828  0.1953
 1698SOL     OW16555   1.089   2.188   9.402 -0.1742  0.5056 -0.5554
 1698SOL    HW116556   1.171   2.206   9.448 -1.3624  1.5281  1.1982
 1698SOL    HW216557   1.037   2.144   9.470 -0.8812  2.6309  0.2708
 1699SOL     OW16558   3.894   4.161   9.745  0.4651 -0.9248  0.5412
 1699SOL    HW116559   3.957   4.185   9.813 -0.0949  2.0016  0.0382
 1699SOL    HW216560   3.909   4.068   9.728 -0.3071 -1.3951  2.4790
 1700SOL     OW16561   0.881   1.402   8.741  0.3345 -0.6238 -0.3098
 1700SOL    HW116562   0.933   1.359   8.809  0.5246  1.1132  0.6601
 1700SOL    HW216563   0.950   1.408   8.674  0.2664 -0.9295 -0.4077
 1701SOL     OW16564   2.426   3.021  10.712  0.6188 -0.0443  0.5592
 1701SOL    HW116565   2.350   3.060  10.669  1.3156  1.4324  0.6689
 1701SOL    HW216566   2.491   3.088  10.691 -0.9406  0.7002 -1.8321
 1702SOL     OW16567   0.132   1.823   4.586  0.3726  0.0131  0.0207
 1702SOL    HW116568   0.066   1.893   4.583  1.1713  0.9010  3.5097
 1702SOL    HW216569   0.095   1.782   4.664 -0.0683 -1.8310 -1.1850
 1703SOL     OW16570   1.093   4.395   4.670 -0.1328  0.3351  0.3471
 1703SOL    HW116571   1.122   4.356   4.752  1.1963 -1.1805 -0.8346
 1703SOL    HW216572   1.030   4.458   4.702  1.0085  0.7295  1.8388
 1704SOL     OW16573   3.107   4.030  17.527 -0.0219 -0.4833  0.1162
 1704SOL    HW116574   3.106   4.080  17.608 -0.1424  0.5534 -0.5135
 1704SOL    HW216575   3.097   3.938  17.550  1.0139 -0.0123  2.3960
 1705SOL     OW16576   0.285   3.654   4.447 -0.1710 -0.9284  0.0140
 1705SOL    HW116577   0.264   3.575   4.496 -1.3882 -0.2871  0.5130
 1705SOL    HW216578   0.235   3.719   4.495  0.0563  0.2716 -1.3755
 1706SOL     OW16579   2.405   4.393   4.183 -0.0283  0.3495 -0.1575
 1706SOL    HW116580   2.385   4.318   4.127  0.1109 -0.6670  1.1763
 1706SOL    HW216581   2.393   4.470   4.127  0.0032 -0.3657 -1.1540
 1707SOL     OW16582   2.853   4.366   7.243  0.0865 -0.0814  0.6020
 1707SOL    HW116583   2.793   4.355   7.316  0.6097 -0.7289  0.9357
 1707SOL    HW216584   2.815   4.303   7.181  0.4302 -0.9318  1.2729
 1708SOL     OW16585   3.295   0.619   8.206 -0.1445  0.0190  0.4949
 1708SOL    HW116586   3.315   0.643   8.296  1.5450 -1.3819  0.4824
 1708SOL    HW216587   3.199   0.623   8.213 -0.1508 -1.1708  1.0526
 1709SOL     OW16588   4.146   4.253  16.882  0.5038 -0.2757  0.2708
 1709SOL    HW116589   4.185   4.315  16.820 -0.7258  0.5301  0.2994
 1709SOL    HW216590   4.096   4.311  16.939  1.7092  1.1087 -0.0558
 1710SOL     OW16591   0.352   2.165   4.179  0.2831  0.3853 -0.0530
 1710SOL    HW116592   0.324   2.249   4.215 -1.4007 -0.5228  0.7536
 1710SOL    HW216593   0.418   2.177   4.110  1.0460 -1.8236  0.3004
 1711SOL     OW16594   4.693   2.562   6.416  0.4214  0.0725  0.1668
 1711SOL    HW116595   0.021   2.626   6.468 -0.3421 -0.2622  1.3254
 1711SOL    HW216596   4.614   2.608   6.388 -0.2285 -0.7096  0.6783
 1712SOL     OW16597   4.435   2.305  14.989  0.9644  0.2127 -0.2259
 1712SOL    HW116598   4.373   2.290  14.918  0.2765 -0.8666  0.5940
 1712SOL    HW216599   4.499   2.236  14.971  0.3021 -0.2071 -0.9881
 1713SOL     OW16600   1.093   1.967   6.958 -0.1734  0.5235 -0.6635
 1713SOL    HW116601   1.182   2.003   6.948 -0.7052  1.1281 -3.4813
 1713SOL    HW216602   1.084   1.880   6.920 -2.0687  0.1420  0.6853
 1714SOL     OW16603   4.019   1.574   2.739  0.1906  0.1820  0.1070
 1714SOL    HW116604   4.043   1.498   2.791 -0.5190  0.5110  0.9094
 1714SOL    HW216605   3.962   1.540   2.671  1.4455  2.0650 -1.8848
 1715SOL     OW16606   4.057   1.480   3.635  0.0356  0.1840 -0.3577
 1715SOL    HW116607   4.091   1.391   3.645  0.2490  0.2644 -0.3788
 1715SOL    HW216608   4.112   1.527   3.573  0.5047 -1.0075 -0.8592
 1716SOL     OW16609   0.145   2.363   2.734  0.0374  0.9971  0.6146
 1716SOL    HW116610   0.097   2.310   2.670 -1.2817  1.4660  1.2206
 1716SOL    HW216611   0.079   2.365   2.803 -0.8128  0.3569 -0.1915
 1717SOL     OW16612   1.885   4.473  13.434 -0.1131 -0.6879  0.5635
 1717SOL    HW116613   1.841   4.534  13.375  3.6457  2.4437  0.9821
 1717SOL    HW216614   1.920   4.532  13.502 -0.5468 -0.3382  0.4833
 1718SOL     OW16615   0.712   4.453  11.733 -0.3193  0.0134  0.0400
 1718SOL    HW116616   0.636   4.509  11.751  1.0683  1.8887  0.0263
 1718SOL    HW216617   0.669   4.374  11.702 -0.3664 -0.3518  1.0386
 1719SOL     OW16618   3.541   4.138  14.342 -0.6850 -0.2479 -0.1232
 1719SOL    HW116619   3.537   4.115  14.249  0.0207 -1.5343  0.1558
 1719SOL    HW216620   3.500   4.062  14.384 -1.4476 -1.0994 -2.3726
 1720SOL     OW16621   4.616   2.760   2.635  0.6742  0.4656  0.2623
 1720SOL    HW116622   4.544   2.712   2.677  1.3965 -0.5103  0.3757
 1720SOL    HW216623   4.608   2.749   2.541  1.6549 -1.6612  0.4381
 1721SOL     OW16624   1.058   2.255   7.187 -0.1808  0.3271 -0.2324
 1721SOL    HW116625   1.145   2.218   7.207  0.3398  2.4167  1.3438
 1721SOL    HW216626   1.005   2.176   7.176  1.5026 -0.9463  0.6073
 1722SOL     OW16627   0.948   3.276   3.138  0.4267  0.5616 -0.3524
 1722SOL    HW116628   0.882   3.215   3.172  0.4552  1.0104  0.5186
 1722SOL    HW216629   1.031   3.229   3.138  0.5858  0.8366 -1.8568
 1723SOL     OW16630   1.632   2.844   6.597 -0.5460  0.1488 -0.1202
 1723SOL    HW116631   1.565   2.871   6.660  1.1838  2.0845  0.9000
 1723SOL    HW216632   1.626   2.907   6.526 -0.8294  0.9675  0.6223
 1724SOL     OW16633   2.084   2.759  14.469  0.2404  0.2802 -0.7778
 1724SOL    HW116634   2.088   2.696  14.541  1.1347  1.4069  0.1585
 1724SOL    HW216635   2.151   2.718  14.414  2.1443 -0.0716  1.7656
 1725SOL     OW16636   2.064   1.726   7.350  0.0458  0.2584 -0.1720
 1725SOL    HW116637   1.986   1.684   7.386 -0.1687  1.2566  0.5266
 1725SOL    HW216638   2.055   1.821   7.345  0.3393  0.3580  1.0512
 1726SOL     OW16639   4.663   2.506   9.054  0.3338  0.2608  0.2278
 1726SOL    HW116640   0.016   2.511   9.114 -0.7879 -0.2199  1.6703
 1726SOL    HW216641   4.675   2.592   9.014  1.3741 -0.4484 -0.9857
 1727SOL     OW16642   4.259   1.074   9.611  0.6630 -0.1968 -0.0998
 1727SOL    HW116643   4.204   1.026   9.672  1.0688 -0.4099  0.1044
 1727SOL    HW216644   4.332   1.014   9.629 -0.3893 -1.5589 -0.4339
 1728SOL     OW16645   4.520   4.294  16.110 -0.1363 -0.4373 -0.4953
 1728SOL    HW116646   4.479   4.287  16.024  0.0738  0.0856 -0.6326
 1728SOL    HW216647   4.531   4.200  16.125 -1.1116 -0.1961  1.7260
 1729SOL     OW16648   3.814   3.951  12.122  0.3158  0.2667  0.1184
 1729SOL    HW116649   3.764   3.956  12.204 -1.8091 -0.4695 -1.1580
 1729SOL    HW216650   3.869   4.029  12.123 -2.0704  1.9409  0.1379
 1730SOL     OW16651   1.034   1.274   2.983 -0.3717  0.2017 -0.5093
 1730SOL    HW116652   1.054   1.184   2.958 -0.6926 -0.5582  1.9441
 1730SOL    HW216653   0.953   1.288   2.936 -0.2565 -1.7254 -1.2781
 1731SOL     OW16654   0.896   0.159  10.779  0.3529 -0.0764 -0.4710
 1731SOL    HW116655   0.875   0.210  10.700 -1.1017 -0.7372 -0.5242
 1731SOL    HW216656   0.980   0.127  10.748  0.4411  2.1939 -2.6234
 1732SOL     OW16657   3.638   4.553  12.776 -0.3183 -0.0008  0.8561
 1732SOL    HW116658   3.564   4.579  12.832  0.5121  0.9032  1.5338
 1732SOL    HW216659   3.665   4.642  12.753  0.4419 -0.3277  0.5038
 1733SOL     OW16660   2.621   0.950   5.028  0.2933  0.1514 -0.4045
 1733SOL    HW116661   2.536   0.995   5.025  0.6243  0.9293  1.2701
 1733SOL    HW216662   2.667   1.009   4.968  1.0282  0.9837  0.9698
 1734SOL     OW16663   2.957   3.613   0.950 -0.6448 -0.1906 -0.1131
 1734SOL    HW116664   2.890   3.560   0.909 -1.4695  0.4506  0.4086
 1734SOL    HW216665   3.035   3.557   0.956  0.3435  1.2491  0.5897
 1735SOL     OW16666   4.530   0.526   2.244  0.1653 -0.0732 -0.0641
 1735SOL    HW116667   4.482   0.443   2.242  0.1515 -0.0837  1.0628
 1735SOL    HW216668   4.493   0.575   2.171  1.1274 -1.6502 -1.6327
 1736SOL     OW16669   2.760   3.364   3.714 -0.3560 -0.3267  0.1508
 1736SOL    HW116670   2.706   3.287   3.692 -1.9353 -0.5133  4.6947
 1736SOL    HW216671   2.709   3.442   3.691  0.4400  0.6854  1.8123
 1737SOL     OW16672   0.250   2.354   6.362  0.1664  0.7254 -0.2770
 1737SOL    HW116673   0.200   2.348   6.444  1.8285 -3.0966  0.4673
 1737SOL    HW216674   0.182   2.346   6.296  0.4418 -0.9505 -0.3576
 1738SOL     OW16675   3.839   4.196   4.235 -0.3730  0.2952  0.2901
 1738SOL    HW116676   3.887   4.219   4.156 -0.6744  2.0177  0.6159
 1738SOL    HW216677   3.893   4.234   4.304 -1.3807  1.1109  0.6345
 1739SOL     OW16678   2.760   2.339   3.818 -0.3603 -0.5576 -0.0064
 1739SOL    HW116679   2.675   2.347   3.862  0.3030  0.0572  1.1405
 1739SOL    HW216680   2.763   2.248   3.787  0.0305 -1.3019  2.2418
 1740SOL     OW16681   0.306   4.689   3.456 -0.2994  0.0154  0.4404
 1740SOL    HW116682   0.334   4.603   3.487  0.4156  0.4051  0.8946
 1740SOL    HW216683   0.389   0.015   3.443  0.3237 -1.7850 -2.0882
 1741SOL     OW16684   2.499   4.127  13.379  0.0529  0.8075  0.2923
 1741SOL    HW116685   2.439   4.189  13.339  0.9161  1.6546  0.3235
 1741SOL    HW216686   2.573   4.146  13.322  0.4038 -1.7920 -0.1404
 1742SOL     OW16687   0.336   0.387   2.992 -0.5998 -0.4763  0.3755
 1742SOL    HW116688   0.294   0.359   3.073 -2.4000  1.1800  0.0219
 1742SOL    HW216689   0.329   0.482   3.003  2.0013 -0.0418 -1.8008
 1743SOL     OW16690   1.235   2.620   1.932  0.3510  0.4196  0.4343
 1743SOL    HW116691   1.286   2.548   1.895  0.6836  0.8475  0.0580
 1743SOL    HW216692   1.149   2.580   1.945 -0.0286  0.9864 -0.2902
 1744SOL     OW16693   1.013   1.617   3.545 -0.4671 -0.3467  0.1945
 1744SOL    HW116694   1.030   1.567   3.466 -0.4482  1.1625 -0.7513
 1744SOL    HW216695   1.101   1.650   3.562 -0.9001 -0.1341  2.0191
 1745SOL     OW16696   0.177   0.260   5.144  1.2249 -0.2842 -0.1447
 1745SOL    HW116697   0.207   0.173   5.120  2.4379  0.3081 -0.8105
 1745SOL    HW216698   0.128   0.292   5.068  2.7340  2.1362 -0.1030
 1746SOL     OW16699   4.299   2.563  15.053  0.7980 -0.3492  0.4100
 1746SOL    HW116700   4.358   2.616  15.106  1.5586 -0.5713 -0.2044
 1746SOL    HW216701   4.349   2.482  15.057  0.0954 -0.8032  0.0414
 1747SOL     OW16702   2.374   0.852   9.177  0.3738  0.0508 -0.1823
 1747SOL    HW116703   2.290   0.854   9.130 -0.6565 -0.3013  1.6582
 1747SOL    HW216704   2.340   0.880   9.262 -1.8308 -1.6891 -0.5004
 1748SOL     OW16705   3.616   2.777   3.410  0.0817 -0.2840 -0.3092
 1748SOL    HW116706   3.599   2.871   3.403 -0.8579 -0.6008 -2.1066
 1748SOL    HW216707   3.541   2.752   3.356  0.6990  0.1157 -1.3507
 1749SOL     OW16708   3.582   1.311  12.083 -0.5469  0.4416 -0.2679
 1749SOL    HW116709   3.510   1.374  12.091  0.9387  2.1641 -0.4855
 1749SOL    HW216710   3.542   1.246  12.141 -1.4570  1.8502  0.7060
 1750SOL     OW16711   4.403   1.390   4.817 -0.1047 -0.5028  0.1407
 1750SOL    HW116712   4.349   1.444   4.875 -0.9379 -0.3477 -0.7718
 1750SOL    HW216713   4.361   1.416   4.734  1.8028  1.3652 -0.2499
 1751SOL     OW16714   3.081   1.664   4.705  0.1182  0.8327  0.3800
 1751SOL    HW116715   3.073   1.592   4.642 -0.4959  1.9614 -0.8533
 1751SOL    HW216716   3.026   1.731   4.664  0.4861 -0.1256 -1.7094
 1752SOL     OW16717   4.137   3.983  17.278 -0.5942 -0.6196 -0.1076
 1752SOL    HW116718   4.151   4.022  17.192  1.5335  0.4381  0.7166
 1752SOL    HW216719   4.227   3.954  17.290 -1.0470 -2.2691 -0.6470
 1753SOL     OW16720   0.375   3.364   3.343  0.0005  0.1516 -0.2201
 1753SOL    HW116721   0.349   3.281   3.382 -1.0356  0.1711 -0.8921
 1753SOL    HW216722   0.468   3.358   3.366 -0.0479 -0.1458 -0.1054
 1754SOL     OW16723   0.994   3.938   5.576 -0.4982  0.3828 -0.3139
 1754SOL    HW116724   0.953   3.983   5.650 -0.8281  1.2190 -1.0150
 1754SOL    HW216725   0.925   3.874   5.555 -0.8592  0.2905  1.1428
 1755SOL     OW16726   4.345   0.806   7.517 -0.7540  0.0263 -0.5586
 1755SOL    HW116727   4.269   0.857   7.546 -1.4800 -1.2797 -0.2001
 1755SOL    HW216728   4.322   0.722   7.556 -0.2055  0.5282  0.8209
 1756SOL     OW16729   4.380   3.717   4.203 -0.0167  0.0380 -0.1549
 1756SOL    HW116730   4.298   3.673   4.226  0.2087 -0.8717 -1.0863
 1756SOL    HW216731   4.396   3.679   4.117  2.0988  1.5447 -0.4126
 1757SOL     OW16732   3.142   4.442  13.144 -0.5895  0.2692  0.1159
 1757SOL    HW116733   3.095   4.481  13.071 -0.5905 -0.9841 -0.5543
 1757SOL    HW216734   3.213   4.399  13.097 -0.8670 -1.3050  1.1072
 1758SOL     OW16735   3.326   0.160   2.734  0.4531  0.0727  0.2944
 1758SOL    HW116736   3.368   0.074   2.742  1.9368  0.5305 -2.6582
 1758SOL    HW216737   3.297   0.152   2.643 -0.8959 -2.8138  0.9546
 1759SOL     OW16738   1.633   0.248   4.539  0.5539 -0.1379  0.5375
 1759SOL    HW116739   1.658   0.157   4.554  0.0854  0.1637  3.2289
 1759SOL    HW216740   1.696   0.288   4.479  1.6223 -2.4325  0.1554
 1760SOL     OW16741   2.694   0.244   0.261 -0.7080  0.0674 -0.0043
 1760SOL    HW116742   2.786   0.223   0.276 -1.0311 -1.4148 -0.0183
 1760SOL    HW216743   2.684   0.318   0.321  3.0311 -0.3925  1.1893
 1761SOL     OW16744   3.912   3.122  14.413 -0.4844 -0.3372 -0.0619
 1761SOL    HW116745   3.997   3.160  14.392  0.0303 -1.8538 -0.7607
 1761SOL    HW216746   3.927   3.083  14.499  1.7652  1.0181  0.1588
 1762SOL     OW16747   2.352   2.633   9.667 -0.1494 -0.4004  0.1612
 1762SOL    HW116748   2.347   2.726   9.645 -0.0800 -0.1206  1.3084
 1762SOL    HW216749   2.440   2.616   9.633 -0.0796  0.7809 -0.2278
 1763SOL     OW16750   1.414   0.054  16.666 -0.4749 -0.3421  0.0578
 1763SOL    HW116751   1.405   0.066  16.571 -0.1503 -0.9465 -0.0525
 1763SOL    HW216752   1.338   0.004  16.697 -0.0144 -0.9932  0.1446
 1764SOL     OW16753   4.271   3.862   8.393  0.2969  0.3814 -0.0919
 1764SOL    HW116754   4.294   3.921   8.464  0.0383  0.4083 -0.0331
 1764SOL    HW216755   4.183   3.836   8.418  0.8604 -0.2572  1.2221
 1765SOL     OW16756   2.756   3.569  13.995 -0.1276 -0.0572  0.2007
 1765SOL    HW116757   2.809   3.575  13.916  0.7698  1.8903  0.9382
 1765SOL    HW216758   2.721   3.658  14.005  0.4984  0.0043  1.9462
 1766SOL     OW16759   1.773   0.147  14.866 -0.3537 -0.2698  0.1567
 1766SOL    HW116760   1.799   0.155  14.958 -1.9066 -0.3741  0.6073
 1766SOL    HW216761   1.748   0.055  14.857 -1.0678  0.0012 -0.6588
 1767SOL     OW16762   2.627   2.874   8.475 -0.2776  0.3929  0.4530
 1767SOL    HW116763   2.540   2.914   8.484  0.3750  1.4156  2.0469
 1767SOL    HW216764   2.686   2.929   8.527 -0.0152 -1.0185  1.6301
 1768SOL     OW16765   1.043   1.908   2.672  0.3608 -0.0656 -0.3714
 1768SOL    HW116766   1.028   1.823   2.712  1.8712  0.7749  1.9397
 1768SOL    HW216767   1.124   1.886   2.626  0.3849 -0.8839  0.0663
 1769SOL     OW16768   1.562   0.450   4.244 -0.0064  0.6036 -0.2369
 1769SOL    HW116769   1.481   0.464   4.294  0.1909 -0.4105  0.3517
 1769SOL    HW216770   1.620   0.454   4.319 -1.1053  1.0548  0.5983
 1770SOL     OW16771   4.542   3.352  16.397 -0.3329 -0.0567  0.1702
 1770SOL    HW116772   4.615   3.412  16.385  1.9611 -1.9456  4.6662
 1770SOL    HW216773   4.485   3.399  16.457 -1.1596 -0.4292 -0.3008
 1771SOL     OW16774   3.837   3.691   3.125  0.0142 -0.1829  0.2545
 1771SOL    HW116775   3.925   3.691   3.162 -0.4503  0.2188  1.3544
 1771SOL    HW216776   3.775   3.667   3.194  0.3362 -2.8266 -0.4057
 1772SOL     OW16777   4.386   1.767   2.275 -0.5489  0.6148 -0.5692
 1772SOL    HW116778   4.367   1.859   2.255 -0.3176  1.0655  1.3201
 1772SOL    HW216779   4.361   1.736   2.188  0.1105 -1.2552 -0.0859
 1773SOL     OW16780   4.416   4.678   6.599 -0.4288  0.4327 -0.0577
 1773SOL    HW116781   4.404   4.627   6.519  0.1388 -0.7761  0.6255
 1773SOL    HW216782   4.501   4.643   6.624 -1.2933 -0.8977  1.0660
 1774SOL     OW16783   3.257   2.872   4.150 -0.0640 -0.7968 -0.3420
 1774SOL    HW116784   3.179   2.840   4.196 -0.5793 -0.4526 -0.9691
 1774SOL    HW216785   3.317   2.887   4.223  0.4555  0.8339 -1.1258
 1775SOL     OW16786   1.173   3.421  16.549  0.0360  0.0191 -0.1389
 1775SOL    HW116787   1.133   3.502  16.519 -0.8000 -0.8684 -1.4188
 1775SOL    HW216788   1.129   3.417  16.634 -1.5123  1.5865 -0.8824
 1776SOL     OW16789   2.691   4.199   7.121  0.0978 -0.3373 -0.5051
 1776SOL    HW116790   2.623   4.261   7.095  0.5618  1.0126  1.5383
 1776SOL    HW216791   2.641   4.121   7.101 -1.7948  0.9883 -0.9119
 1777SOL     OW16792   3.763   0.752  10.746  0.3786  0.2966 -0.0177
 1777SOL    HW116793   3.748   0.691  10.673 -1.0449  1.3622 -0.6035
 1777SOL    HW216794   3.693   0.816  10.744  0.7208  0.6247 -1.6209
 1778SOL     OW16795   3.872   3.379  10.001  0.2247 -0.2978  0.4871
 1778SOL    HW116796   3.899   3.316  10.067 -0.1963 -2.6531 -1.6072
 1778SOL    HW216797   3.958   3.421   9.990  0.6763 -1.4832 -0.5028
 1779SOL     OW16798   3.094   0.873   5.234  0.3307  0.1954 -0.3990
 1779SOL    HW116799   3.116   0.966   5.231 -2.4890  0.8282 -1.5756
 1779SOL    HW216800   3.000   0.858   5.221  0.6945 -1.7136 -0.8061
 1780SOL     OW16801   3.627   2.614   8.892 -0.2649 -0.7418  0.0496
 1780SOL    HW116802   3.627   2.569   8.807 -2.4623 -1.6406  0.5180
 1780SOL    HW216803   3.569   2.689   8.875 -0.1992 -0.6560  0.2085
 1781SOL     OW16804   2.975   1.406  11.419 -0.2326 -0.5796  0.2570
 1781SOL    HW116805   3.056   1.373  11.456  0.1001 -0.9035 -0.7761
 1781SOL    HW216806   2.978   1.406  11.323  0.7186  0.3524  0.2925
 1782SOL     OW16807   1.255   4.581   5.578  0.0517  0.0661 -0.2844
 1782SOL    HW116808   1.219   4.514   5.519  1.5153 -0.1198 -0.9677
 1782SOL    HW216809   1.310   4.524   5.632  1.3708 -0.7285 -2.4536
 1783SOL     OW16810   4.645   1.334   9.624  0.7417 -0.0359  0.0054
 1783SOL    HW116811   4.660   1.389   9.701  0.1771  1.6345 -1.0720
 1783SOL    HW216812   4.695   1.257   9.650 -1.0603 -0.6416  1.6996
 1784SOL     OW16813   1.100   1.771   2.045  0.4803  0.5952 -1.1310
 1784SOL    HW116814   1.180   1.721   2.059 -1.1574 -1.5879  0.3142
 1784SOL    HW216815   1.120   1.812   1.961  1.3696  1.1509 -0.6430
 1785SOL     OW16816   0.505   2.452   9.351  0.1254 -0.0995 -0.0505
 1785SOL    HW116817   0.576   2.387   9.343  1.3051  1.2123 -0.2304
 1785SOL    HW216818   0.466   2.419   9.432  0.7136 -2.8291 -0.8481
 1786SOL     OW16819   3.143   0.962  14.125 -0.2740  0.0223  0.1766
 1786SOL    HW116820   3.228   1.000  14.105 -0.4997  0.9651  0.9969
 1786SOL    HW216821   3.164   0.886  14.071  0.3043 -0.0014  0.4398
 1787SOL     OW16822   3.122   4.385   0.900 -0.6403  0.4993 -0.3014
 1787SOL    HW116823   3.060   4.442   0.945  0.5249 -0.2426  2.2687
 1787SOL    HW216824   3.168   4.356   0.979 -0.7149 -2.2411 -1.2616
 1788SOL     OW16825   2.314   1.857  16.329 -0.4279  0.1622 -0.5103
 1788SOL    HW116826   2.341   1.948  16.345 -0.1361 -0.0339  0.1216
 1788SOL    HW216827   2.390   1.816  16.287  0.5855  0.8123  0.6897
 1789SOL     OW16828   4.654   1.645   1.241 -0.2340  0.2414 -0.3390
 1789SOL    HW116829   4.663   1.590   1.319 -0.9830  0.6091  0.0018
 1789SOL    HW216830   4.587   1.596   1.193 -0.8262  0.6444  0.0786
 1790SOL     OW16831   3.528   2.929  14.969  0.1237  0.0979  0.1196
 1790SOL    HW116832   3.592   2.999  14.981 -0.2888  0.5226 -0.1739
 1790SOL    HW216833   3.449   2.962  15.012  1.1887  2.5942  0.1466
 1791SOL     OW16834   2.420   0.478   8.998  0.0656  0.0836  0.0516
 1791SOL    HW116835   2.451   0.559   9.037 -0.4569  0.1160  0.4061
 1791SOL    HW216836   2.325   0.484   9.008  0.0133 -0.6885  0.0399
 1792SOL     OW16837   1.808   2.070   6.549  0.2422 -0.6694  0.3338
 1792SOL    HW116838   1.767   2.045   6.466 -0.3702 -0.9944  0.7412
 1792SOL    HW216839   1.891   2.024   6.536 -0.2293 -1.3859 -0.0873
 1793SOL     OW16840   2.142   0.417  15.644  0.2668  0.3242  0.1006
 1793SOL    HW116841   2.073   0.361  15.681 -0.5020  1.9504  1.1361
 1793SOL    HW216842   2.096   0.500  15.631 -0.3508 -0.2160 -1.1860
 1794SOL     OW16843   2.792   3.722   5.910  0.2370 -0.4350  0.4337
 1794SOL    HW116844   2.783   3.730   6.005 -0.6920 -0.0701  0.3147
 1794SOL    HW216845   2.883   3.744   5.891  0.2495 -0.6666  0.2289
 1795SOL     OW16846   2.933   1.491  15.093 -0.0609  0.2544 -0.3072
 1795SOL    HW116847   2.891   1.428  15.034 -1.2938 -1.1649  2.1114
 1795SOL    HW216848   2.862   1.518  15.151 -2.0496 -1.2340 -2.0116
 1796SOL     OW16849   2.115   1.744  14.493 -0.0026 -0.0307 -0.8194
 1796SOL    HW116850   2.196   1.777  14.533 -0.3626 -0.5180  0.3269
 1796SOL    HW216851   2.101   1.675  14.558 -2.9008 -0.3248 -1.8040
 1797SOL     OW16852   0.431   0.982   3.251  0.2439  0.4720 -1.0824
 1797SOL    HW116853   0.422   0.990   3.156 -2.2811  0.0063 -0.8631
 1797SOL    HW216854   0.400   1.067   3.283 -0.3427 -1.0374  2.4011
 1798SOL     OW16855   2.521   0.305  13.281  0.3063 -0.0349 -0.0721
 1798SOL    HW116856   2.456   0.368  13.314  2.1827  0.9330  1.7601
 1798SOL    HW216857   2.503   0.307  13.187  0.9963 -2.7693 -0.2473
 1799SOL     OW16858   2.675   2.476   8.025 -0.8008  0.0604 -0.2688
 1799SOL    HW116859   2.691   2.393   7.979  1.0619  0.2080  0.1099
 1799SOL    HW216860   2.590   2.450   8.061  0.1678 -1.7396  0.7295
 1800SOL     OW16861   2.787   0.220   7.239  0.3959  0.0084  0.5910
 1800SOL    HW116862   2.728   0.295   7.231  1.0545  0.2872 -1.6072
 1800SOL    HW216863   2.787   0.197   7.146  1.8388  1.3034  0.2532
 1801SOL     OW16864   2.360   2.777   7.107  0.0874  0.0833 -0.2910
 1801SOL    HW116865   2.383   2.785   7.014  2.7419 -0.1073  0.3611
 1801SOL    HW216866   2.334   2.685   7.103 -1.2650  0.5436 -1.9823
 1802SOL     OW16867   1.389   2.684  15.231  1.0000  0.6778  0.0122
 1802SOL    HW116868   1.485   2.684  15.230  1.0063 -1.6380  1.4517
 1802SOL    HW216869   1.379   2.758  15.171 -0.6025  1.7502  1.6104
 1803SOL     OW16870   0.360   1.550   9.164 -0.2446 -0.0042  0.1319
 1803SOL    HW116871   0.410   1.492   9.222  0.1713 -0.4167 -0.6474
 1803SOL    HW216872   0.272   1.531   9.197 -0.2922 -1.7002 -0.9791
 1804SOL     OW16873   1.508   0.390   6.354  0.2823 -0.1383  0.2551
 1804SOL    HW116874   1.599   0.417   6.338  0.5389 -2.2897 -1.9377
 1804SOL    HW216875   1.473   0.479   6.344 -2.4376 -1.3975 -1.2728
 1805SOL     OW16876   0.721   2.529   6.476  0.1322  0.2265  0.0652
 1805SOL    HW116877   0.721   2.583   6.554  2.9360  2.3052 -1.3800
 1805SOL    HW216878   0.630   2.528   6.445  0.1118  0.3333  0.1247
 1806SOL     OW16879   2.119   0.159   6.689 -1.0181 -0.2539 -0.2507
 1806SOL    HW116880   2.105   0.172   6.783 -0.0173  1.7560 -0.3803
 1806SOL    HW216881   2.206   0.192   6.664 -0.8424  0.4389  1.2545
 1807SOL     OW16882   0.315   0.845  14.449 -0.5700  0.2859  0.2786
 1807SOL    HW116883   0.270   0.848  14.364 -0.0950  4.2778  0.1899
 1807SOL    HW216884   0.374   0.770  14.440  0.4131  1.0979 -0.1182
 1808SOL     OW16885   0.742   2.057   6.470  0.4139  0.2351  0.4484
 1808SOL    HW116886   0.720   1.979   6.419 -1.9711 -0.2982  2.3030
 1808SOL    HW216887   0.659   2.082   6.511 -0.6511 -0.2192 -1.4508
 1809SOL     OW16888   3.509   1.731   6.504  0.2685 -0.1004  0.3407
 1809SOL    HW116889   3.505   1.641   6.536  0.6544 -0.0452  0.5376
 1809SOL    HW216890   3.599   1.743   6.474  0.2043  1.6080  0.7859
 1810SOL     OW16891   0.160   1.078   3.379 -0.8486 -0.2917  0.4253
 1810SOL    HW116892   0.077   1.127   3.379  0.7878  2.4494 -1.8690
 1810SOL    HW216893   0.145   1.026   3.300 -0.0871  1.0977 -0.6158
 1811SOL     OW16894   3.467   4.658   2.709  1.0422  0.0533 -0.2933
 1811SOL    HW116895   3.440   4.566   2.705  1.8270 -0.1635 -0.5713
 1811SOL    HW216896   3.548   4.653   2.658  0.5134 -0.5992 -1.0732
 1812SOL     OW16897   4.259   4.541   5.520  0.2506 -0.3107 -0.3247
 1812SOL    HW116898   4.274   4.617   5.464  0.2812  0.1544  0.3090
 1812SOL    HW216899   4.338   4.493   5.497  0.2606  0.6808 -2.3588
 1813SOL     OW16900   2.740   3.203   3.988 -0.3176  0.4678 -0.0877
 1813SOL    HW116901   2.749   3.212   3.893 -2.8627  0.0841 -0.3734
 1813SOL    HW216902   2.696   3.285   4.007  0.0876  1.1234 -1.9472
 1814SOL     OW16903   1.077   1.644   3.971  0.1066 -0.2265 -0.1257
 1814SOL    HW116904   1.163   1.684   3.961  0.8409 -1.9092 -0.4489
 1814SOL    HW216905   1.016   1.716   3.952 -1.9037 -1.4054  1.7843
 1815SOL     OW16906   3.091   0.858   3.763 -0.0347  0.0213  0.8298
 1815SOL    HW116907   3.114   0.794   3.695  1.1517  1.0295  0.2802
 1815SOL    HW216908   3.126   0.820   3.844 -0.8302 -1.0585  0.6670
 1816SOL     OW16909   2.734   4.104   5.939  1.1877 -0.3691 -0.0316
 1816SOL    HW116910   2.786   4.059   6.006  0.6704 -0.3202  0.4015
 1816SOL    HW216911   2.797   4.171   5.913  1.3342 -0.8868 -1.0194
 1817SOL     OW16912   4.405   2.608   6.104  0.3525 -0.4201  0.2978
 1817SOL    HW116913   4.395   2.622   6.198  0.1837 -1.4210  0.4287
 1817SOL    HW216914   4.411   2.513   6.098 -0.8178 -0.3139 -2.6035
 1818SOL     OW16915   0.865   0.972  16.560 -0.0638 -0.2627  0.5391
 1818SOL    HW116916   0.841   0.994  16.650 -0.8034 -1.5751  0.6516
 1818SOL    HW216917   0.956   0.947  16.575 -0.0208 -0.4212  0.0140
 1819SOL     OW16918   2.945   1.674   2.698 -0.6714  0.1504  0.0654
 1819SOL    HW116919   2.938   1.766   2.723  0.5117  0.5931 -1.2616
 1819SOL    HW216920   2.997   1.674   2.618 -2.2910  2.5037 -0.9884
 1820SOL     OW16921   3.292   1.305   2.787  0.2089 -0.3059 -0.3478
 1820SOL    HW116922   3.376   1.281   2.749  0.9629  0.7800  0.6325
 1820SOL    HW216923   3.287   1.400   2.782  0.3895 -0.3051 -0.4961
 1821SOL     OW16924   3.558   4.703   7.090  0.5367 -0.3132  0.4111
 1821SOL    HW116925   3.552   0.025   7.006 -0.5346 -0.8917  0.1927
 1821SOL    HW216926   3.603   4.621   7.070  0.6304  0.2796 -1.7226
 1822SOL     OW16927   1.901   0.221  14.405  0.4862 -0.0513  0.3221
 1822SOL    HW116928   1.920   0.272  14.327 -1.4162 -2.2456 -1.5682
 1822SOL    HW216929   1.990   0.187  14.416  1.2960  2.0460  0.2494
 1823SOL     OW16930   0.151   3.429   5.701  0.0953 -0.2795 -0.1815
 1823SOL    HW116931   0.152   3.428   5.605  2.1444  1.2498 -0.1637
 1823SOL    HW216932   0.237   3.397   5.730  0.4887 -0.1155 -1.1468
 1824SOL     OW16933   2.946   1.349   7.675  0.2234  0.4152 -0.2042
 1824SOL    HW116934   2.986   1.416   7.730  0.6750  1.2420 -1.5223
 1824SOL    HW216935   2.851   1.355   7.685  0.4018 -0.7018  2.0416
 1825SOL     OW16936   2.608   3.020   2.354  0.3499  0.3426 -0.0504
 1825SOL    HW116937   2.605   3.008   2.449 -1.5197 -0.4531 -0.1975
 1825SOL    HW216938   2.551   3.094   2.333 -1.8567 -1.3628 -0.1802
 1826SOL     OW16939   1.771   1.830   5.804 -0.1926  0.1042 -0.0773
 1826SOL    HW116940   1.793   1.832   5.711 -1.5116  2.1711 -0.3433
 1826SOL    HW216941   1.775   1.924   5.818 -2.2016  0.1607  0.1652
 1827SOL     OW16942   2.427   2.106   4.857 -0.4051  0.5962  0.2993
 1827SOL    HW116943   2.397   2.080   4.944  1.0175 -1.9378  0.0441
 1827SOL    HW216944   2.435   2.022   4.812  0.6527  0.7180  0.2668
 1828SOL     OW16945   3.291   4.592  14.543  0.0257 -0.5301 -0.4018
 1828SOL    HW116946   3.284   4.497  14.535 -1.7060 -0.5893  1.6543
 1828SOL    HW216947   3.204   4.601  14.583  0.7151 -0.5786  1.1005
 1829SOL     OW16948   4.039   1.165   6.181  0.0963  0.0573  0.2293
 1829SOL    HW116949   4.080   1.180   6.096 -0.2207  2.9742  0.5956
 1829SOL    HW216950   3.946   1.175   6.161 -0.1285  1.5123  1.9658
 1830SOL     OW16951   1.586   3.767  17.227  0.0240 -0.0026 -0.1685
 1830SOL    HW116952   1.598   3.738  17.317  0.3811  1.2519  0.1938
 1830SOL    HW216953   1.497   3.803  17.227 -0.5588 -1.4409  0.4005
 1831SOL     OW16954   0.900   2.158   4.683  0.0027 -0.3822 -0.3586
 1831SOL    HW116955   0.905   2.063   4.669 -0.3678 -0.4369 -0.0949
 1831SOL    HW216956   0.866   2.161   4.772 -0.5579  0.0344 -0.5920
 1832SOL     OW16957   2.979   0.754  12.396  0.1614  0.0858 -0.2361
 1832SOL    HW116958   2.890   0.772  12.426  0.3997  1.3906 -0.3280
 1832SOL    HW216959   3.010   0.697  12.467 -1.0869 -0.8299 -0.4253
 1833SOL     OW16960   0.736   2.985   4.459  0.3826  0.1883 -0.2463
 1833SOL    HW116961   0.818   2.973   4.506  0.3766  1.6932  0.1683
 1833SOL    HW216962   0.702   2.897   4.449  2.3768 -0.7000  0.7925
 1834SOL     OW16963   0.713   4.253   1.440 -0.2887  0.4078 -0.2573
 1834SOL    HW116964   0.723   4.160   1.460  3.2539  0.5375 -1.3147
 1834SOL    HW216965   0.729   4.255   1.345  2.0870  2.0440  0.1608
 1835SOL     OW16966   0.569   2.456   3.345 -0.3878 -0.2171  0.1218
 1835SOL    HW116967   0.480   2.429   3.367 -0.7085  0.7552  0.0453
 1835SOL    HW216968   0.553   2.491   3.258 -1.0315 -0.1950  0.2514
 1836SOL     OW16969   2.884   3.906   7.945  0.2582  0.1958 -0.2425
 1836SOL    HW116970   2.883   3.814   7.922 -1.2352  0.0060  0.5312
 1836SOL    HW216971   2.808   3.942   7.899  1.4190  0.4345 -1.9413
 1837SOL     OW16972   1.150   2.051   7.619  0.5589 -0.3972  1.1085
 1837SOL    HW116973   1.188   2.138   7.612 -1.5919  0.6526  2.7479
 1837SOL    HW216974   1.229   1.997   7.625 -0.0645 -1.5470 -1.0110
 1838SOL     OW16975   0.626   4.248  14.165 -0.0007 -0.9042 -0.0839
 1838SOL    HW116976   0.541   4.271  14.127 -0.4681 -1.0908  0.8307
 1838SOL    HW216977   0.620   4.279  14.255  2.0349  1.1886 -0.6756
 1839SOL     OW16978   1.870   4.158   8.526  0.6960  0.0683  0.3906
 1839SOL    HW116979   1.781   4.139   8.495  0.6595  1.4654 -0.3677
 1839SOL    HW216980   1.847   4.214   8.600  2.2728  0.6049  0.4621
 1840SOL     OW16981   4.613   2.307   6.533  0.4732  0.2325 -0.3966
 1840SOL    HW116982   4.613   2.258   6.451 -0.0904 -0.7806  0.2015
 1840SOL    HW216983   4.673   2.378   6.512 -0.8207  0.9117 -1.8296
 1841SOL     OW16984   4.055   4.519  14.392 -0.1886  0.0023  0.1788
 1841SOL    HW116985   4.059   4.424  14.403  1.6755  0.1110  0.3942
 1841SOL    HW216986   4.102   4.527  14.309 -1.0465  0.0728 -0.2950
 1842SOL     OW16987   3.798   2.900  16.584 -0.3878  0.2333  0.0589
 1842SOL    HW116988   3.851   2.974  16.616 -0.1942  0.3310 -0.4962
 1842SOL    HW216989   3.829   2.895  16.494  1.2965  0.2349  0.6324
 1843SOL     OW16990   2.767   0.795   5.486  0.2327  0.7169 -0.2308
 1843SOL    HW116991   2.827   0.807   5.412 -0.5760  0.9674 -0.8470
 1843SOL    HW216992   2.831   0.757   5.546  0.4660  0.4340 -0.6527
 1844SOL     OW16993   1.583   0.172   7.432 -0.5191 -0.0439  0.5878
 1844SOL    HW116994   1.539   0.109   7.375  0.3662  0.5292 -0.7093
 1844SOL    HW216995   1.557   0.128   7.513 -0.5932 -0.8824  0.1009
 1845SOL     OW16996   1.224   3.362   4.495 -0.5852 -0.0672 -1.1205
 1845SOL    HW116997   1.234   3.315   4.412 -0.0478 -0.9845 -0.5432
 1845SOL    HW216998   1.163   3.429   4.463  1.2212  0.1434 -4.1065
 1846SOL     OW16999   1.096   0.527  13.578 -0.1098 -0.4720  0.5255
 1846SOL    HW117000   1.162   0.546  13.512 -0.4723  1.0626  0.6020
 1846SOL    HW217001   1.120   0.599  13.636  0.2828  0.8530 -1.2952
 1847SOL     OW17002   0.380   0.572   9.905 -0.0724  0.0231 -0.1385
 1847SOL    HW117003   0.429   0.607   9.830  0.1616 -1.0872 -0.5039
 1847SOL    HW217004   0.329   0.646   9.939 -0.5637  0.6814 -2.2907
 1848SOL     OW17005   2.856   1.975   8.849  0.4570  0.0435 -0.4040
 1848SOL    HW117006   2.925   1.943   8.791  1.4860 -0.4853  1.0789
 1848SOL    HW217007   2.790   1.908   8.834  1.5997 -1.3887  0.8452
 1849SOL     OW17008   0.683   3.346   2.454 -0.4091  0.0094  0.2676
 1849SOL    HW117009   0.769   3.385   2.472 -1.3608  1.3355  1.9601
 1849SOL    HW217010   0.633   3.382   2.527  1.8530  1.2815  1.1866
 1850SOL     OW17011   1.911   1.105   6.429 -0.3393  0.2104  0.0839
 1850SOL    HW117012   1.868   1.039   6.484  2.1167 -0.2860  1.3683
 1850SOL    HW217013   1.880   1.089   6.340 -0.1018 -2.5115  0.4917
 1851SOL     OW17014   1.352   3.531  17.403 -0.0725 -0.6436 -0.8926
 1851SOL    HW117015   1.345   3.509  17.310  1.0233 -0.2623 -1.0583
 1851SOL    HW217016   1.444   3.553  17.412 -0.3186 -0.8366  2.0341
 1852SOL     OW17017   3.221   3.572   4.740 -0.0902 -0.0015  0.3338
 1852SOL    HW117018   3.174   3.654   4.758 -0.2739 -0.8285  3.5932
 1852SOL    HW217019   3.195   3.571   4.648  0.1187  0.1108  0.2718
 1853SOL     OW17020   3.783   0.789  11.022 -0.5338 -0.7693  0.3904
 1853SOL    HW117021   3.771   0.789  10.927  1.9063 -1.2990  0.0820
 1853SOL    HW217022   3.877   0.806  11.032 -0.7490 -0.4413  1.7654
 1854SOL     OW17023   0.842   1.291   2.066  0.0464 -0.4178  0.5290
 1854SOL    HW117024   0.910   1.301   1.998  0.3505 -2.1896  0.5633
 1854SOL    HW217025   0.769   1.342   2.032  0.9690 -0.5730 -1.7345
 1855SOL     OW17026   3.804   3.922   2.929 -0.2390 -0.8514 -0.0966
 1855SOL    HW117027   3.758   3.852   2.975 -3.3674  2.4700  1.8379
 1855SOL    HW217028   3.770   3.914   2.840  2.6173  1.3571 -1.3977
 1856SOL     OW17029   1.622   2.002   6.070 -0.2929 -0.1573  0.5523
 1856SOL    HW117030   1.606   1.908   6.075 -1.3385 -0.0604 -1.1657
 1856SOL    HW217031   1.714   2.007   6.096 -0.7846  2.1071  1.8927
 1857SOL     OW17032   3.105   2.978   6.171 -0.0519 -0.1042 -0.1133
 1857SOL    HW117033   3.178   2.988   6.110 -0.1928  0.0594 -0.2580
 1857SOL    HW217034   3.124   2.890   6.203  1.1052  0.8894  1.9108
 1858SOL     OW17035   4.084   0.177  13.387 -0.6058 -0.0516 -0.0855
 1858SOL    HW117036   4.054   0.268  13.378  3.3967  1.1985 -0.7703
 1858SOL    HW217037   4.102   0.179  13.481  1.6908 -2.4160 -0.4688
 1859SOL     OW17038   2.776   4.669  17.518 -0.1811  0.0878 -0.2260
 1859SOL    HW117039   2.681   4.683  17.522  0.3144  3.2687  0.2651
 1859SOL    HW217040   2.806   0.030  17.480 -2.1272  1.1613  0.6252
 1860SOL     OW17041   0.754   0.764   3.491  0.0161 -0.3449  0.1225
 1860SOL    HW117042   0.704   0.734   3.568 -0.5784 -0.4490 -0.3017
 1860SOL    HW217043   0.725   0.855   3.480 -0.0101 -0.6266 -1.9711
 1861SOL     OW17044   2.075   0.292  12.368 -0.2400 -0.2784 -0.7831
 1861SOL    HW117045   1.992   0.298  12.417  0.2473 -0.3318  0.0560
 1861SOL    HW217046   2.051   0.359  12.304  0.3399  1.0453  0.3930
 1862SOL     OW17047   2.016   1.630   5.151 -0.3337 -0.3217  0.3464
 1862SOL    HW117048   1.926   1.662   5.153  0.0821  0.8752 -0.2669
 1862SOL    HW217049   2.020   1.584   5.235  1.1230  0.3279  0.6456
 1863SOL     OW17050   0.009   2.323   6.991 -0.1792  0.4265 -0.4549
 1863SOL    HW117051   4.718   2.404   7.040  0.5648  1.5354 -2.0683
 1863SOL    HW217052   4.686   2.331   6.906 -1.0459 -1.3663 -0.1613
 1864SOL     OW17053   1.235   1.267   3.792 -0.2097  0.3278 -0.4445
 1864SOL    HW117054   1.230   1.295   3.701  2.0563  2.3008  0.0209
 1864SOL    HW217055   1.253   1.354   3.829  0.7674 -0.3384  0.6417
 1865SOL     OW17056   1.001   0.852   7.199 -0.3856  0.1635 -0.8467
 1865SOL    HW117057   0.978   0.774   7.249 -0.0634  0.0734 -0.8409
 1865SOL    HW217058   1.014   0.808   7.115  1.4569 -1.7921  0.4651
 1866SOL     OW17059   2.627   4.102   2.237  0.1130  0.2143  0.7609
 1866SOL    HW117060   2.701   4.162   2.247 -0.0072  0.8952 -2.3392
 1866SOL    HW217061   2.670   4.032   2.187 -2.1753  0.5378 -1.6684
 1867SOL     OW17062   1.237   0.826  14.585 -0.4002  0.4313  0.0171
 1867SOL    HW117063   1.261   0.750  14.637  1.5809 -0.2176 -1.8190
 1867SOL    HW217064   1.286   0.890  14.636  0.8349 -0.3722 -0.1821
 1868SOL     OW17065   1.323   1.489  13.608  0.3373 -0.4354  0.1912
 1868SOL    HW117066   1.293   1.414  13.557  0.2975 -1.1689  1.2919
 1868SOL    HW217067   1.362   1.552  13.546 -1.8144  0.7965  0.0894
 1869SOL     OW17068   2.982   4.174   4.347 -0.1746  0.0392 -0.3520
 1869SOL    HW117069   3.076   4.155   4.341 -0.1169  0.6180 -1.3050
 1869SOL    HW217070   2.978   4.232   4.271  0.0371  0.9574  0.3312
 1870SOL     OW17071   0.950   4.051   6.631  0.1301 -0.2171 -0.1171
 1870SOL    HW117072   1.037   4.050   6.591  1.1998 -0.9532  2.2147
 1870SOL    HW217073   0.897   4.116   6.585  1.0553 -0.0281 -0.8916
 1871SOL     OW17074   2.529   3.500   9.163 -0.2167 -0.1799 -0.3247
 1871SOL    HW117075   2.473   3.577   9.156  1.8500  1.1283 -2.2740
 1871SOL    HW217076   2.477   3.425   9.132  1.7854 -1.4843 -0.5467
 1872SOL     OW17077   0.065   2.875   6.296 -0.4722 -0.0766  0.3455
 1872SOL    HW117078   0.132   2.938   6.271  0.5676 -1.3042  0.0838
 1872SOL    HW217079   0.005   2.882   6.222 -0.4311  0.3165  0.3483
 1873SOL     OW17080   2.788   1.143   9.176  0.1967 -0.4801 -0.0641
 1873SOL    HW117081   2.757   1.058   9.147 -1.5562  0.4900 -1.0828
 1873SOL    HW217082   2.769   1.138   9.270  2.1961 -2.1985  0.2300
 1874SOL     OW17083   2.054   3.872  12.220  0.4378 -0.0306 -0.2189
 1874SOL    HW117084   2.126   3.930  12.195  0.9351 -0.2368  0.7134
 1874SOL    HW217085   2.019   3.930  12.288  1.3469  1.0199 -0.6496
 1875SOL     OW17086   1.452   2.988  13.315 -0.2728 -0.2924  0.2376
 1875SOL    HW117087   1.429   3.069  13.270 -1.1224 -0.7980 -0.2337
 1875SOL    HW217088   1.383   2.925  13.293 -0.6353 -0.5124  1.9796
 1876SOL     OW17089   0.482   2.157  11.092  0.1295  0.3207 -0.1256
 1876SOL    HW117090   0.431   2.130  11.168  0.4001 -3.7674 -1.3503
 1876SOL    HW217091   0.470   2.251  11.099 -0.5682  0.1848  0.4516
 1877SOL     OW17092   4.064   0.212   7.639  0.0545 -0.0515  0.4088
 1877SOL    HW117093   4.012   0.286   7.607 -0.4656 -0.3186  0.6393
 1877SOL    HW217094   4.012   0.188   7.716 -0.0417 -0.0540  0.3428
 1878SOL     OW17095   1.807   2.249  17.687 -0.3278  0.1060  0.3165
 1878SOL    HW117096   1.750   2.325   0.010 -1.7303 -1.4307  3.3387
 1878SOL    HW217097   1.801   2.226  17.594  1.1539 -1.2259  0.5507
 1879SOL     OW17098   2.387   3.258   4.401 -0.2304  0.0764 -0.1185
 1879SOL    HW117099   2.436   3.265   4.482  1.1615  0.1526 -0.9689
 1879SOL    HW217100   2.359   3.349   4.391 -0.7764 -0.3624 -2.5919
 1880SOL     OW17101   2.945   0.490   8.819 -0.4039 -0.1431  0.3312
 1880SOL    HW117102   3.034   0.457   8.820  0.2194  1.5419  0.5782
 1880SOL    HW217103   2.897   0.425   8.871 -0.8799  1.7160  2.2540
 1881SOL     OW17104   4.541   2.900   6.684  0.3052  0.0580 -0.2386
 1881SOL    HW117105   4.499   2.966   6.739  1.2113 -0.4656  1.0758
 1881SOL    HW217106   4.632   2.925   6.676  0.1891  0.6710  0.3403
 1882SOL     OW17107   2.874   1.869   0.414 -0.0961  0.1834 -0.2827
 1882SOL    HW117108   2.811   1.843   0.347 -1.2700 -1.2269  1.3636
 1882SOL    HW217109   2.878   1.791   0.469 -0.0524  2.1757  2.5974
 1883SOL     OW17110   0.359   0.302   3.622  0.6560  0.1590  0.3551
 1883SOL    HW117111   0.417   0.376   3.601  1.5395 -0.9397 -1.1049
 1883SOL    HW217112   0.378   0.285   3.714 -1.5037 -1.9022  0.4269
 1884SOL     OW17113   0.291   3.955   3.001 -0.3886  0.4037 -0.4212
 1884SOL    HW117114   0.335   4.015   2.941  2.0576 -2.2275 -1.2730
 1884SOL    HW217115   0.361   3.891   3.008 -0.4595  0.3841  0.0711
 1885SOL     OW17116   4.558   1.086   3.302  0.8133  0.0199  0.2954
 1885SOL    HW117117   4.582   1.090   3.209 -2.3925 -0.0513 -0.5393
 1885SOL    HW217118   4.535   0.993   3.300  2.0863 -0.2985  0.9585
 1886SOL     OW17119   1.267   1.775   4.266 -0.0731  0.0926 -0.0515
 1886SOL    HW117120   1.274   1.822   4.349 -1.0771 -0.8910  0.5988
 1886SOL    HW217121   1.354   1.756   4.232  0.7289  1.2469  1.3682
 1887SOL     OW17122   1.881   3.972   6.564 -0.3713  0.0948 -0.1333
 1887SOL    HW117123   1.929   4.045   6.603  0.7896 -0.4204 -0.6052
 1887SOL    HW217124   1.796   4.015   6.574 -1.0808 -2.1612  3.4282
 1888SOL     OW17125   1.587   3.854  10.929  0.1738  0.0641 -0.4767
 1888SOL    HW117126   1.501   3.841  10.967  0.6217 -1.2579  0.0912
 1888SOL    HW217127   1.625   3.770  10.954 -0.5760  0.1626  0.9477
 1889SOL     OW17128   0.060   3.327   8.734 -0.0255  0.4076 -0.4324
 1889SOL    HW117129   4.695   3.349   8.768  0.0241 -0.1547  0.0491
 1889SOL    HW217130   0.110   3.403   8.764 -1.3142  0.1904  2.2785
 1890SOL     OW17131   2.516   2.986   1.221 -0.4477  0.2208 -0.0894
 1890SOL    HW117132   2.525   3.072   1.178  0.5818  1.1433  1.9766
 1890SOL    HW217133   2.535   2.932   1.144  1.3126 -1.9690  1.8856
 1891SOL     OW17134   2.204   3.828   3.745 -0.1879  0.1631 -0.2161
 1891SOL    HW117135   2.164   3.748   3.779  1.5847 -0.5308  0.2471
 1891SOL    HW217136   2.294   3.797   3.731  0.6095  1.9869  0.8059
 1892SOL     OW17137   2.109   2.089   3.180 -0.0306  0.1040  0.0107
 1892SOL    HW117138   2.029   2.140   3.171 -0.8958 -1.2880 -0.2822
 1892SOL    HW217139   2.094   2.013   3.124 -1.5100  0.5857 -0.2276
 1893SOL     OW17140   0.903   3.302   3.564  0.2927 -0.9255 -0.6598
 1893SOL    HW117141   0.918   3.352   3.644 -0.1754 -0.1562 -1.0525
 1893SOL    HW217142   0.822   3.347   3.539 -0.0909 -0.0098  2.2562
 1894SOL     OW17143   1.266   1.233   7.763 -0.1673  0.1482 -0.4099
 1894SOL    HW117144   1.173   1.213   7.751 -0.1245  0.2454 -0.8902
 1894SOL    HW217145   1.269   1.325   7.739  0.1113  1.3325  4.1227
 1895SOL     OW17146   4.544   0.950   1.630  0.2908 -0.1476  0.2460
 1895SOL    HW117147   4.565   0.951   1.536  1.9848  0.8965  0.6363
 1895SOL    HW217148   4.622   0.913   1.671 -1.7455 -2.6414  1.8478
 1896SOL     OW17149   4.126   4.667  10.896 -0.0511  0.0939 -0.0671
 1896SOL    HW117150   4.172   4.702  10.972 -0.5782  1.6994 -0.4861
 1896SOL    HW217151   4.126   4.573  10.908  1.2448  0.2480  1.0963
 1897SOL     OW17152   1.861   1.206  14.725 -0.1903 -0.7366  0.0530
 1897SOL    HW117153   1.848   1.158  14.807  0.4777  2.5970  2.1517
 1897SOL    HW217154   1.830   1.141  14.663  0.8532 -0.6742 -0.5230
 1898SOL     OW17155   3.237   0.109   2.495 -0.1900 -0.4053 -0.0893
 1898SOL    HW117156   3.297   0.035   2.489  0.5240 -0.0216  2.1681
 1898SOL    HW217157   3.241   0.144   2.406  0.9182  1.1614  0.5858
 1899SOL     OW17158   1.694   3.399   6.569  0.3652  0.6534  0.4477
 1899SOL    HW117159   1.702   3.307   6.542 -0.3076  0.6613  0.2117
 1899SOL    HW217160   1.649   3.379   6.651  0.7212 -0.6340  0.3441
 1900SOL     OW17161   2.143   0.862   9.809 -0.3012  0.7159  0.2406
 1900SOL    HW117162   2.200   0.858   9.886 -0.2619 -4.0001  0.0022
 1900SOL    HW217163   2.167   0.948   9.774  1.7496  0.3155  0.6381
 1901SOL     OW17164   1.299   4.278  17.371  0.2072  0.2720 -0.1733
 1901SOL    HW117165   1.346   4.198  17.394  0.2320  0.8111  1.6499
 1901SOL    HW217166   1.369   4.336  17.340  0.3160  0.0562 -0.3258
 1902SOL     OW17167   4.311   4.337  16.299 -0.5262  0.3032  0.3034
 1902SOL    HW117168   4.388   4.321  16.244 -1.9530 -2.4165 -0.9352
 1902SOL    HW217169   4.250   4.273  16.261  0.4760  0.1713 -1.0862
 1903SOL     OW17170   2.781   3.973   3.856  0.5100 -0.1586  0.2449
 1903SOL    HW117171   2.828   4.043   3.900 -0.7082  0.9295 -0.1640
 1903SOL    HW217172   2.690   4.004   3.866  0.4768  0.7796 -2.9204
 1904SOL     OW17173   3.953   4.555   3.646 -0.0978 -0.7398 -0.0587
 1904SOL    HW117174   3.945   4.460   3.657 -0.8577 -0.4990  1.4272
 1904SOL    HW217175   4.041   4.560   3.682 -0.3750  1.6245  0.2859
 1905SOL     OW17176   3.237   1.430   2.392 -0.1085 -0.5058  0.7790
 1905SOL    HW117177   3.142   1.427   2.379 -0.4424 -0.1112  3.0722
 1905SOL    HW217178   3.244   1.352   2.447 -0.1934  0.5735  2.3100
 1906SOL     OW17179   2.658   4.071   2.978  0.1850 -0.2219  0.2037
 1906SOL    HW117180   2.672   4.140   2.913  0.6370 -0.5242 -0.0206
 1906SOL    HW217181   2.637   3.998   2.920 -2.1343  1.3585 -0.9081
 1907SOL     OW17182   2.854   4.122  16.742  0.1318  0.1224  0.1749
 1907SOL    HW117183   2.856   4.134  16.837 -1.2499 -1.2608  0.3819
 1907SOL    HW217184   2.875   4.029  16.733  1.5047  0.4867 -0.4452
 1908SOL     OW17185   1.428   1.555   8.846 -0.7417 -0.7268  0.1034
 1908SOL    HW117186   1.446   1.649   8.848 -0.3167 -0.8293  0.9179
 1908SOL    HW217187   1.518   1.521   8.843 -0.6750 -0.8523  3.1646
 1909SOL     OW17188   4.302   3.144   3.513 -0.8742  0.1011  0.3398
 1909SOL    HW117189   4.236   3.210   3.535  0.0352  1.0803  0.1759
 1909SOL    HW217190   4.254   3.080   3.460 -0.3675  0.3170 -0.3889
 1910SOL     OW17191   2.722   2.125   4.890 -0.3205 -0.4568 -0.6688
 1910SOL    HW117192   2.634   2.162   4.893  0.7640  1.8640  2.8925
 1910SOL    HW217193   2.773   2.206   4.890 -2.2646  0.7460 -0.1819
 1911SOL     OW17194   2.026   1.283   3.674 -0.2050 -0.2966  0.2091
 1911SOL    HW117195   2.106   1.335   3.667 -0.6505  0.1670 -1.4543
 1911SOL    HW217196   2.058   1.196   3.650 -0.0437  0.1197 -1.0419
 1912SOL     OW17197   0.211   2.244   5.567  0.0581  0.7272  0.1816
 1912SOL    HW117198   0.206   2.279   5.478 -1.6481  0.4468  0.1735
 1912SOL    HW217199   0.245   2.321   5.613 -0.2594  0.3707  1.0052
 1913SOL     OW17200   0.178   3.425   8.402  0.4165 -0.0284 -0.3642
 1913SOL    HW117201   0.092   3.385   8.386  1.0883 -2.9281  3.1065
 1913SOL    HW217202   0.240   3.356   8.424 -0.8341 -1.0664 -0.0611
 1914SOL     OW17203   3.417   0.306  15.462  0.1576  0.0604  0.4184
 1914SOL    HW117204   3.391   0.252  15.388 -0.9042  1.1125  0.0293
 1914SOL    HW217205   3.510   0.324  15.444  0.2400  0.1665  0.9455
 1915SOL     OW17206   0.338   1.408  12.945 -0.9837  0.3707 -0.3573
 1915SOL    HW117207   0.319   1.398  12.852  0.8091 -0.6666 -0.6187
 1915SOL    HW217208   0.252   1.390  12.984 -0.9845 -0.0285 -0.5393
 1916SOL     OW17209   2.268   3.634   0.762 -0.2451  0.1288  0.0396
 1916SOL    HW117210   2.203   3.698   0.793  0.9996  0.7610  1.3482
 1916SOL    HW217211   2.243   3.592   0.680  2.2958  2.3696 -1.9046
 1917SOL     OW17212   1.365   3.706   4.112 -0.0455 -0.4319  0.3438
 1917SOL    HW117213   1.300   3.715   4.042 -1.5628  0.8252  1.9192
 1917SOL    HW217214   1.434   3.735   4.052  0.7673  1.1813  2.1016
 1918SOL     OW17215   3.631   2.466   8.680 -0.0358  1.1226  0.0800
 1918SOL    HW117216   3.714   2.508   8.656  1.1618 -1.4717 -0.2604
 1918SOL    HW217217   3.589   2.448   8.596  1.2539 -0.1050 -0.2976
 1919SOL     OW17218   4.430   3.893   0.782 -0.1152 -0.0548  0.4028
 1919SOL    HW117219   4.446   3.800   0.765 -3.3446 -0.7679  1.2200
 1919SOL    HW217220   4.374   3.872   0.857  0.8180  0.8376  1.3388
 1920SOL     OW17221   3.134   1.345   7.142  0.0566 -0.0862  0.2855
 1920SOL    HW117222   3.200   1.317   7.206  0.0657  1.3885  0.9303
 1920SOL    HW217223   3.074   1.393   7.198 -0.1437 -0.3952  0.3319
 1921SOL     OW17224   1.457   4.497  14.630 -0.4418  0.2741  0.1078
 1921SOL    HW117225   1.403   4.572  14.605 -3.8341 -1.5508  1.8851
 1921SOL    HW217226   1.535   4.514  14.577 -1.1370  0.9662 -0.6916
 1922SOL     OW17227   1.006   0.620   4.969  0.0916 -0.2475 -0.1280
 1922SOL    HW117228   1.025   0.625   4.876  0.0909 -1.1015 -0.1816
 1922SOL    HW217229   0.913   0.638   4.959  0.0729 -0.4195 -0.2630
 1923SOL     OW17230   3.753   0.005   2.617 -0.2670 -0.0270  0.0649
 1923SOL    HW117231   3.820   4.717   2.685 -1.8230  0.8821  1.7272
 1923SOL    HW217232   3.756   0.100   2.623  2.9666 -0.2015  1.1959
 1924SOL     OW17233   0.541   3.931   5.732 -0.5029 -0.7046  0.4179
 1924SOL    HW117234   0.584   3.983   5.800 -1.3649  0.4941  0.0332
 1924SOL    HW217235   0.547   3.839   5.759 -3.2019 -0.8462  0.5008
 1925SOL     OW17236   1.342   3.394   7.928  0.0263  0.4164  0.3927
 1925SOL    HW117237   1.264   3.340   7.912 -0.4661  1.1067  0.4528
 1925SOL    HW217238   1.403   3.353   7.867  0.6617 -1.9869  2.6710
 1926SOL     OW17239   1.312   1.602   2.422 -0.0762 -0.4395 -0.2156
 1926SOL    HW117240   1.262   1.528   2.456  2.1060 -1.6966  0.2456
 1926SOL    HW217241   1.404   1.576   2.423 -0.1922 -0.8306  0.1976
 1927SOL     OW17242   1.077   4.473   6.689 -0.2187 -0.1973 -0.0965
 1927SOL    HW117243   1.068   4.467   6.594 -0.7491 -0.9388  0.0004
 1927SOL    HW217244   1.106   4.385   6.713 -0.0515  0.6894  2.9277
 1928SOL     OW17245   1.734   4.243  13.229 -0.4128 -0.2914  0.3498
 1928SOL    HW117246   1.811   4.252  13.173  1.4918 -0.2341  2.9282
 1928SOL    HW217247   1.730   4.150  13.252  1.5977 -0.1775  1.1864
 1929SOL     OW17248   4.254   3.629   2.872  0.4128 -0.4666  0.2256
 1929SOL    HW117249   4.265   3.534   2.880  3.3516 -0.3391 -2.2993
 1929SOL    HW217250   4.158   3.633   2.873  0.4542 -1.1895  3.6462
 1930SOL     OW17251   4.153   0.610   3.111 -0.2475 -0.4683 -0.0756
 1930SOL    HW117252   4.096   0.646   3.043  0.6840  1.1182 -0.0250
 1930SOL    HW217253   4.098   0.606   3.189 -0.2400  0.8988  0.0011
 1931SOL     OW17254   1.369   2.153   5.696 -0.5021 -0.1482 -0.5063
 1931SOL    HW117255   1.296   2.213   5.710  0.6031  1.4692 -1.6806
 1931SOL    HW217256   1.431   2.158   5.770  0.0884 -0.3974 -0.9840
 1932SOL     OW17257   3.975   3.232   3.908 -0.1185 -0.7746  0.3993
 1932SOL    HW117258   3.934   3.146   3.919 -0.2749 -0.5500  1.5486
 1932SOL    HW217259   3.909   3.266   3.847 -0.8469  0.1265  1.6741
 1933SOL     OW17260   2.458   1.509   5.600  0.0467 -0.0257  0.1697
 1933SOL    HW117261   2.428   1.587   5.552 -1.4259  0.3354  1.6889
 1933SOL    HW217262   2.454   1.536   5.692  0.6227 -0.7614  0.4077
 1934SOL     OW17263   4.021   1.929   8.846 -0.4099 -0.4305  0.5419
 1934SOL    HW117264   4.072   1.907   8.768 -0.9648  0.7156 -0.1554
 1934SOL    HW217265   4.024   2.024   8.830  1.0145 -0.9280 -2.2289
 1935SOL     OW17266   1.978   4.211  13.812  0.2040 -0.7015  0.9063
 1935SOL    HW117267   2.069   4.226  13.838 -0.2492  0.6292  1.7226
 1935SOL    HW217268   1.966   4.116  13.812 -1.7919 -0.4389 -1.5664
 1936SOL     OW17269   1.262   3.449   3.932  0.4872 -0.3502 -0.2524
 1936SOL    HW117270   1.306   3.529   3.901  0.4561 -0.6659 -1.0943
 1936SOL    HW217271   1.325   3.379   3.915 -0.9888 -1.3010 -1.8109
 1937SOL     OW17272   3.071   2.173   2.366 -0.2113 -0.2540 -0.3946
 1937SOL    HW117273   3.017   2.163   2.444 -0.9811 -1.6886 -1.1231
 1937SOL    HW217274   3.157   2.141   2.393 -0.4717  0.1898  0.9628
 1938SOL     OW17275   0.918   0.277   4.426 -0.0024 -0.8494  0.1264
 1938SOL    HW117276   0.907   0.211   4.357 -1.6746 -0.2227 -0.2112
 1938SOL    HW217277   0.929   0.351   4.367 -0.7417  0.6853  1.9005
 1939SOL     OW17278   2.360   4.642  14.847 -0.8786 -1.2058  0.3033
 1939SOL    HW117279   2.339   4.637  14.940 -1.4811 -1.3661  0.1587
 1939SOL    HW217280   2.290   4.595  14.802 -1.6939 -0.8814  1.2456
 1940SOL     OW17281   1.480   2.737   5.144 -0.3988 -0.4305 -0.1098
 1940SOL    HW117282   1.507   2.778   5.061 -1.5961  0.6664  0.0419
 1940SOL    HW217283   1.472   2.815   5.198  1.0305 -0.8363  0.6670
 1941SOL     OW17284   3.043   0.646   4.290  0.5115  0.3617 -0.0066
 1941SOL    HW117285   2.976   0.696   4.243 -1.7883 -2.8913 -0.1502
 1941SOL    HW217286   3.001   0.622   4.372  0.3325  0.6000 -0.0292
 1942SOL     OW17287   2.278   1.991   7.971 -0.1468  0.1772  0.4573
 1942SOL    HW117288   2.284   1.988   7.875 -1.4343 -0.8645  0.4094
 1942SOL    HW217289   2.194   1.946   7.977 -0.3708  0.5045 -0.1968
 1943SOL     OW17290   0.711   2.693  17.076 -0.6255 -0.0694 -0.3974
 1943SOL    HW117291   0.641   2.652  17.026 -0.6851 -1.9725  1.2609
 1943SOL    HW217292   0.769   2.710  17.002 -1.3333 -1.1842 -1.1938
 1944SOL     OW17293   4.328   4.557   8.736  0.1128  0.0285  0.2796
 1944SOL    HW117294   4.395   4.577   8.671 -1.1957  0.4965 -0.9318
 1944SOL    HW217295   4.374   4.592   8.812 -1.0988 -3.0883  2.4503
 1945SOL     OW17296   1.758   0.643  14.087  0.0809 -0.2327  0.1257
 1945SOL    HW117297   1.815   0.575  14.123  1.1365  1.1848  1.1296
 1945SOL    HW217298   1.668   0.610  14.098 -0.2302  0.0976 -1.3730
 1946SOL     OW17299   4.089   4.226  14.334  0.1580  0.3462  0.1218
 1946SOL    HW117300   4.128   4.234  14.247 -1.3305 -2.4894 -0.7839
 1946SOL    HW217301   4.124   4.146  14.373 -1.4481 -0.0105  0.8036
 1947SOL     OW17302   0.006   4.023   0.726 -0.0204 -0.1050  0.3763
 1947SOL    HW117303   0.009   3.950   0.664  2.4480  0.6150 -0.3642
 1947SOL    HW217304   4.646   4.004   0.773  0.3167 -0.2664  0.9063
 1948SOL     OW17305   0.351   4.579   6.292 -0.5659 -0.1977 -0.0512
 1948SOL    HW117306   0.310   4.641   6.231  1.0472  2.0383  1.1200
 1948SOL    HW217307   0.410   4.639   6.338 -1.4412 -0.1954  1.0889
 1949SOL     OW17308   0.998   3.611  16.446  0.1928  0.0037  0.2553
 1949SOL    HW117309   1.038   3.666  16.379 -1.0479  0.2567 -0.2789
 1949SOL    HW217310   0.904   3.621  16.436  0.5573  0.1762 -2.7784
 1950SOL     OW17311   3.039   3.439  13.537 -0.6969  0.1886  0.5094
 1950SOL    HW117312   2.998   3.409  13.618 -1.4103 -1.0973 -0.3308
 1950SOL    HW217313   3.009   3.530  13.540 -2.9906 -0.5463  0.0812
 1951SOL     OW17314   3.416   3.651   9.991 -0.1020 -0.0461  0.1036
 1951SOL    HW117315   3.412   3.617  10.081  2.2440  0.5079  0.4147
 1951SOL    HW217316   3.333   3.623   9.954  0.1620  1.2181 -1.4063
 1952SOL     OW17317   3.567   0.206  10.578 -0.1070  0.1959  0.1254
 1952SOL    HW117318   3.545   0.121  10.541  0.3959 -0.2020  0.7454
 1952SOL    HW217319   3.660   0.210  10.555 -0.9671  2.7193 -3.0976
 1953SOL     OW17320   1.161   1.724   4.855 -0.6450  0.4586  0.7010
 1953SOL    HW117321   1.144   1.653   4.917 -2.8456 -0.8573 -1.4186
 1953SOL    HW217322   1.171   1.797   4.916 -0.6086  0.8311  0.2532
 1954SOL     OW17323   3.057   2.557  11.481  0.5298  0.0273 -0.0423
 1954SOL    HW117324   3.036   2.464  11.493 -0.6361 -0.1749 -3.6696
 1954SOL    HW217325   2.973   2.596  11.459  0.3797 -0.2240  0.0788
 1955SOL     OW17326   1.538   4.218   7.582 -0.9449  0.7284  0.0697
 1955SOL    HW117327   1.620   4.267   7.593  0.5637 -1.3631 -1.9019
 1955SOL    HW217328   1.475   4.286   7.561  0.1944  0.8398 -2.8746
 1956SOL     OW17329   0.094   0.391   3.854 -0.1343  0.1664  0.2359
 1956SOL    HW117330   0.106   0.406   3.761  0.6901 -0.1139  0.2977
 1956SOL    HW217331   0.093   0.295   3.861  1.0071  0.1341 -0.0943
 1957SOL     OW17332   2.097   4.708   6.984 -0.0377 -0.2945  0.0949
 1957SOL    HW117333   2.173   4.704   6.925 -0.9313 -0.0646 -1.0756
 1957SOL    HW217334   2.024   4.693   6.924 -0.2930  2.9093 -0.3838
 1958SOL     OW17335   1.768   2.004  16.388  0.1059  0.1457  0.0335
 1958SOL    HW117336   1.830   2.075  16.406 -1.7063  1.6643  0.2404
 1958SOL    HW217337   1.701   2.021  16.454 -0.2452 -0.1974 -0.2346
 1959SOL     OW17338   4.153   1.750   5.573 -0.2846  0.5608  0.2476
 1959SOL    HW117339   4.198   1.715   5.650  0.9382 -1.0471 -1.2059
 1959SOL    HW217340   4.098   1.673   5.559  1.3457 -0.5150 -0.2842
 1960SOL     OW17341   1.576   2.353   7.509 -0.2675 -0.4416  0.0428
 1960SOL    HW117342   1.587   2.422   7.574  2.7827 -1.3150  0.4258
 1960SOL    HW217343   1.632   2.284   7.544 -0.1933 -1.0496 -1.2404
 1961SOL     OW17344   3.152   4.662   2.251 -0.1696  0.1662 -0.2927
 1961SOL    HW117345   3.082   0.002   2.271 -0.0191 -0.6082  2.6770
 1961SOL    HW217346   3.087   4.609   2.206 -0.1461 -1.9278  2.1061
 1962SOL     OW17347   2.573   0.411   7.962  0.0269  0.1093  0.0724
 1962SOL    HW117348   2.601   0.502   7.971  0.5812  0.0591 -1.1134
 1962SOL    HW217349   2.655   0.371   7.932 -0.0879  0.4495 -0.6983
 1963SOL     OW17350   2.623   3.880   4.583 -0.4863 -0.0472 -0.1589
 1963SOL    HW117351   2.538   3.918   4.604 -0.4218 -0.1807  0.3521
 1963SOL    HW217352   2.658   3.881   4.672 -2.4053  2.3843  0.5549
 1964SOL     OW17353   4.602   2.436   4.480 -0.6733  0.2412 -0.4789
 1964SOL    HW117354   4.685   2.392   4.494 -0.2301  1.6828  1.4358
 1964SOL    HW217355   4.616   2.523   4.443  2.8414  0.3877  1.1737
 1965SOL     OW17356   0.876   1.755   5.203  0.0862 -0.3077 -0.1785
 1965SOL    HW117357   0.946   1.706   5.160 -0.7331 -1.2599 -0.4460
 1965SOL    HW217358   0.795   1.711   5.176 -0.0602  0.1894 -0.5590
 1966SOL     OW17359   4.410   0.894   0.646 -0.3447 -0.2028 -0.6211
 1966SOL    HW117360   4.469   0.891   0.722 -0.4205  0.1953 -0.5505
 1966SOL    HW217361   4.329   0.881   0.694 -1.3946 -0.1891 -2.3892
 1967SOL     OW17362   3.905   3.915   4.183  0.3473 -0.1753  0.5242
 1967SOL    HW117363   3.843   3.897   4.254 -0.4091  0.5783  0.0488
 1967SOL    HW217364   3.907   4.010   4.176  2.2683 -0.2975 -0.9516
 1968SOL     OW17365   1.605   3.007  14.436 -0.3092 -0.3553  0.4078
 1968SOL    HW117366   1.577   2.971  14.521 -0.7698 -0.4488  0.2166
 1968SOL    HW217367   1.689   2.966  14.420 -0.1401 -0.4866  1.6322
 1969SOL     OW17368   2.193   4.710   4.701  0.3616  0.1125 -0.1174
 1969SOL    HW117369   2.110   4.680   4.665 -0.0793 -0.1782  1.1384
 1969SOL    HW217370   2.164   0.048   4.770 -3.5064 -0.8153 -0.9236
 1970SOL     OW17371   3.334   0.384   5.487  0.9172 -0.0579  0.3705
 1970SOL    HW117372   3.330   0.379   5.583  3.0384 -3.3018  0.3138
 1970SOL    HW217373   3.418   0.425   5.470  1.6852 -2.0167 -0.6045
 1971SOL     OW17374   0.876   0.153  12.782 -0.2598 -0.2191 -0.1834
 1971SOL    HW117375   0.880   0.118  12.871 -0.3342  2.0251  0.7039
 1971SOL    HW217376   0.798   0.209  12.786  0.6010  0.9019  0.9320
 1972SOL     OW17377   1.273   0.579   5.769 -0.3912 -0.1106  0.3924
 1972SOL    HW117378   1.259   0.497   5.721  2.4777 -0.6281  0.4177
 1972SOL    HW217379   1.292   0.551   5.859  1.1291 -0.5766 -0.0824
 1973SOL     OW17380   3.624   1.233   7.800 -0.3230 -0.0621 -0.3953
 1973SOL    HW117381   3.638   1.237   7.895  3.3708  0.2970 -0.9720
 1973SOL    HW217382   3.655   1.321   7.782  0.8749 -0.8957 -2.3604
 1974SOL     OW17383   2.741   4.605  14.163  0.0410 -0.5224 -0.0280
 1974SOL    HW117384   2.731   4.608  14.067  1.4738  0.2006 -0.1430
 1974SOL    HW217385   2.655   4.596  14.204 -0.6195  0.9070 -1.0830
 1975SOL     OW17386   0.352   1.140   5.264 -0.4923 -0.0435 -0.0404
 1975SOL    HW117387   0.396   1.172   5.184 -2.2586  2.8522  0.1346
 1975SOL    HW217388   0.331   1.224   5.305  0.7873  0.4632 -0.4260
 1976SOL     OW17389   0.142   2.965   1.483 -0.2823 -0.6464  0.2089
 1976SOL    HW117390   0.191   2.883   1.476 -0.6659 -1.0405  2.1581
 1976SOL    HW217391   0.056   2.929   1.503  0.1884 -1.3908  0.9110
 1977SOL     OW17392   2.055   4.632   7.858  0.3287 -0.3847  0.1963
 1977SOL    HW117393   2.032   0.003   7.846  2.6238  0.0305 -0.9759
 1977SOL    HW217394   1.979   4.602   7.907 -0.0206 -1.0042 -0.7343
 1978SOL     OW17395   4.346   2.419   8.296  0.1835  0.5417  0.4436
 1978SOL    HW117396   4.420   2.383   8.345 -0.2811  0.7259  1.2771
 1978SOL    HW217397   4.296   2.469   8.360 -3.6699 -0.8186 -1.5092
 1979SOL     OW17398   1.531   0.806   2.993  0.4877 -0.0033 -0.4387
 1979SOL    HW117399   1.586   0.793   3.070  1.2584  2.9318 -0.4931
 1979SOL    HW217400   1.556   0.726   2.945  0.3567 -0.7800  0.7947
 1980SOL     OW17401   1.579   0.054  15.577 -0.8203 -0.7066 -0.1469
 1980SOL    HW117402   1.572   0.031  15.669 -1.2835 -1.5224 -0.3840
 1980SOL    HW217403   1.491   0.088  15.565  0.8947  3.3720 -1.1266
 1981SOL     OW17404   1.088   0.042  15.787 -0.7805 -0.0762  0.1285
 1981SOL    HW117405   1.095   0.133  15.759  0.0995 -0.8341 -2.0712
 1981SOL    HW217406   1.043   4.717  15.716  1.6454  0.8633 -2.0232
 1982SOL     OW17407   1.059   3.361   6.630 -0.2930 -0.0595 -0.0661
 1982SOL    HW117408   1.125   3.403   6.575 -2.7060  4.2246  0.3410
 1982SOL    HW217409   1.118   3.301   6.676  0.9372 -0.3366 -1.9862
 1983SOL     OW17410   2.418   2.135   3.647 -0.1731 -0.3615 -0.2378
 1983SOL    HW117411   2.499   2.091   3.673  0.9448  1.7781 -0.1058
 1983SOL    HW217412   2.354   2.066   3.662 -0.2598 -0.9139 -3.2539
 1984SOL     OW17413   1.279   4.667  15.958  0.4124 -0.3931  0.0377
 1984SOL    HW117414   1.216   4.691  15.890 -1.4715 -0.0144  1.9128
 1984SOL    HW217415   1.236   4.598  16.008  1.1461 -1.0683 -0.2728
 1985SOL     OW17416   0.470   1.836   7.575 -0.4116 -0.4748  0.2504
 1985SOL    HW117417   0.516   1.884   7.644  1.1753 -3.0090  0.9873
 1985SOL    HW217418   0.539   1.804   7.517 -0.9049 -1.7224  0.3486
 1986SOL     OW17419   1.584   1.684  11.476 -0.3440  0.0244 -0.3989
 1986SOL    HW117420   1.522   1.616  11.449 -0.7998  0.5495 -0.6539
 1986SOL    HW217421   1.588   1.734  11.394 -1.0011  1.3763  0.4123
 1987SOL     OW17422   3.659   2.079   1.823 -0.0252  0.0716  0.0528
 1987SOL    HW117423   3.579   2.112   1.784 -0.4990 -0.4299  0.6048
 1987SOL    HW217424   3.730   2.108   1.766 -0.5890  0.3615 -0.4960
 1988SOL     OW17425   2.469   0.219   0.111  0.5385 -0.7951  0.3004
 1988SOL    HW117426   2.550   0.206   0.160  1.3437  1.7086 -0.4010
 1988SOL    HW217427   2.437   0.302   0.146 -0.7496 -0.7508 -0.9497
 1989SOL     OW17428   3.736   0.596   3.604  0.0863  0.0631 -0.2081
 1989SOL    HW117429   3.710   0.533   3.537 -1.1193  1.5877 -1.1622
 1989SOL    HW217430   3.717   0.679   3.561  3.7413  1.5679  1.1553
 1990SOL     OW17431   0.775   3.412   2.961  0.0511  0.1390 -0.6740
 1990SOL    HW117432   0.822   3.426   2.878  1.6929 -0.5059  0.1438
 1990SOL    HW217433   0.835   3.353   3.007 -0.6990  1.8214  2.4310
 1991SOL     OW17434   3.041   2.488   1.272 -0.1228 -0.4066  0.2725
 1991SOL    HW117435   3.104   2.543   1.319 -0.1851 -2.9944  3.3994
 1991SOL    HW217436   3.083   2.485   1.186  2.3306 -2.3400  1.5583
 1992SOL     OW17437   2.249   1.438  13.057 -0.0436 -0.2727 -0.0034
 1992SOL    HW117438   2.201   1.412  13.136  0.8859 -0.8756  0.3574
 1992SOL    HW217439   2.195   1.403  12.987 -1.1463 -2.3528  1.8882
 1993SOL     OW17440   4.009   0.538   4.233  0.0234  0.2948 -0.1296
 1993SOL    HW117441   3.954   0.479   4.181 -0.3008 -0.0112  0.5520
 1993SOL    HW217442   3.996   0.617   4.182  0.2264  1.6269  1.9048
 1994SOL     OW17443   3.963   4.601  13.324  0.0805 -0.0312 -0.2082
 1994SOL    HW117444   3.897   4.579  13.258 -3.0383  1.3788  2.4875
 1994SOL    HW217445   3.965   4.696  13.324  0.4942 -0.0432 -2.6162
 1995SOL     OW17446   4.557   0.164  16.605  0.4389  0.1588 -0.1312
 1995SOL    HW117447   4.528   0.255  16.605 -2.6401 -0.8534 -1.1110
 1995SOL    HW217448   4.641   0.186  16.647 -0.1472  0.8798  0.6572
 1996SOL     OW17449   3.900   0.701   6.225  0.2079 -0.5798  0.0716
 1996SOL    HW117450   3.885   0.664   6.311 -0.3007 -3.1011 -1.1164
 1996SOL    HW217451   3.885   0.794   6.245  0.5528 -1.1802  3.0873
 1997SOL     OW17452   1.369   2.493   8.767 -0.3820 -0.3410 -0.1673
 1997SOL    HW117453   1.372   2.536   8.852  0.0233  0.8440 -0.7868
 1997SOL    HW217454   1.306   2.424   8.790  1.1037 -1.1246  1.6015
 1998SOL     OW17455   4.074   0.326   0.690  0.1796 -0.4247 -0.1377
 1998SOL    HW117456   3.987   0.326   0.650 -0.2452 -2.6164  0.7513
 1998SOL    HW217457   4.109   0.410   0.662 -1.3569  0.6118  1.0401
 1999SOL     OW17458   1.026   3.834  16.765  0.1605 -0.2081  0.4136
 1999SOL    HW117459   0.993   3.747  16.744 -0.7133  0.0312  0.7732
 1999SOL    HW217460   1.085   3.855  16.693 -0.3990 -2.2984 -0.6666
 2000SOL     OW17461   1.723   2.194   3.405  0.4792 -0.1806 -0.1936
 2000SOL    HW117462   1.637   2.205   3.366  0.4619  0.2092 -0.0462
 2000SOL    HW217463   1.750   2.108   3.374  1.8902  1.1873 -2.7653
 2001SOL     OW17464   4.415   1.298   6.891  0.2714  0.3055 -0.9505
 2001SOL    HW117465   4.423   1.353   6.813  1.2410  1.8936  0.2639
 2001SOL    HW217466   4.322   1.314   6.910  0.9718  0.3835  2.3778
 2002SOL     OW17467   4.022   4.364   1.295  0.2133 -0.1538 -0.1540
 2002SOL    HW117468   3.970   4.425   1.349 -0.3570 -0.4441 -0.3713
 2002SOL    HW217469   3.974   4.285   1.321  0.2361 -0.8614 -2.2804
 2003SOL     OW17470   1.298   3.152  15.056 -0.3904  0.4437  0.0122
 2003SOL    HW117471   1.317   3.219  14.991 -1.3577  0.8361  0.1384
 2003SOL    HW217472   1.228   3.190  15.109  0.3690  0.4757  0.9988
 2004SOL     OW17473   4.456   3.071  15.613 -0.7376 -0.2436  0.4950
 2004SOL    HW117474   4.474   3.055  15.706  3.0985 -0.6417 -0.3296
 2004SOL    HW217475   4.380   3.128  15.608 -2.2435 -2.2223  0.6824
 2005SOL     OW17476   0.501   2.151   2.310  0.3265 -0.2489  0.2513
 2005SOL    HW117477   0.511   2.105   2.226 -0.5774 -0.6519  0.3646
 2005SOL    HW217478   0.547   2.231   2.286 -2.4074  1.1067 -0.4412
 2006SOL     OW17479   1.169   3.664  17.124 -0.0853  0.3309  0.1843
 2006SOL    HW117480   1.204   3.587  17.080  0.3318 -0.1320  1.3405
 2006SOL    HW217481   1.084   3.628  17.147  0.6769 -2.9584 -2.2521
 2007SOL     OW17482   2.983   4.061   4.625 -0.3266  0.3077 -0.0897
 2007SOL    HW117483   2.889   4.043   4.619 -0.4470  0.8229  0.2737
 2007SOL    HW217484   3.006   4.098   4.540  3.0881 -1.9653 -0.1784
 2008SOL     OW17485   3.766   0.408  10.803 -0.0729 -0.2064  0.1549
 2008SOL    HW117486   3.762   0.439  10.713 -2.2058  0.4544  0.4807
 2008SOL    HW217487   3.811   0.325  10.791 -1.1622 -0.6325 -1.0352
 2009SOL     OW17488   2.439   4.574   8.570  0.1037  0.1210  0.1155
 2009SOL    HW117489   2.426   4.578   8.475 -0.2106 -0.1745  0.1447
 2009SOL    HW217490   2.488   4.492   8.583 -1.0559 -0.7304 -0.7939
 2010SOL     OW17491   2.789   0.942  15.617  0.4748 -0.2635  0.4086
 2010SOL    HW117492   2.879   0.926  15.589  0.6863  1.9985 -0.2173
 2010SOL    HW217493   2.780   0.888  15.695  0.2354  0.4432  0.8734
 2011SOL     OW17494   2.607   4.244  13.719  0.2638  0.2372 -0.1266
 2011SOL    HW117495   2.521   4.284  13.707  0.5083  0.8416  0.1610
 2011SOL    HW217496   2.599   4.149  13.711  1.3175  0.0515  0.9937
 2012SOL     OW17497   3.934   0.507  13.465 -0.3792  0.3526  0.2452
 2012SOL    HW117498   4.018   0.543  13.437 -0.4637  0.2190 -0.1782
 2012SOL    HW217499   3.916   0.573  13.533 -0.6470  1.7792 -1.2108
 2013SOL     OW17500   4.210   0.631   8.471 -0.7791 -0.5306 -0.0355
 2013SOL    HW117501   4.282   0.650   8.411 -0.4525 -0.3147  0.4240
 2013SOL    HW217502   4.230   0.542   8.497 -1.8314 -1.2425 -1.6831
 2014SOL     OW17503   2.300   4.359  15.180 -0.3151 -0.7066 -0.3270
 2014SOL    HW117504   2.287   4.308  15.100 -2.1331  0.7244 -0.9576
 2014SOL    HW217505   2.291   4.452  15.157  2.1445 -0.4448 -0.2282
 2015SOL     OW17506   3.272   3.834   7.927 -0.3007 -0.2717 -0.1680
 2015SOL    HW117507   3.314   3.867   8.007  3.6776 -0.4029 -2.2459
 2015SOL    HW217508   3.331   3.860   7.857 -1.0264  3.6407  0.6629
 2016SOL     OW17509   2.149   4.090   4.273 -0.1372  1.3697  0.4893
 2016SOL    HW117510   2.121   4.062   4.361 -0.9761  0.6474 -0.0081
 2016SOL    HW217511   2.105   4.020   4.224 -2.3946  2.8362  0.4366
 2017SOL     OW17512   4.254   4.653   4.548 -0.3973  0.0254 -0.3603
 2017SOL    HW117513   4.318   4.610   4.492  0.9947  1.6650 -0.0364
 2017SOL    HW217514   4.257   0.024   4.523  1.6179  0.0059 -0.2100
 2018SOL     OW17515   2.138   1.917  12.908 -0.1977  0.3087  0.0930
 2018SOL    HW117516   2.208   1.939  12.846 -1.3828 -0.5472 -1.5424
 2018SOL    HW217517   2.180   1.960  12.982  0.6870  0.8715 -0.7271
 2019SOL     OW17518   2.679   3.491   8.101 -0.4301  0.3639  0.3520
 2019SOL    HW117519   2.766   3.449   8.099  0.5796  2.4032  1.0665
 2019SOL    HW217520   2.646   3.457   8.018  0.4359 -0.9860  0.5474
 2020SOL     OW17521   1.196   4.179   6.493  0.3018 -0.4224 -0.3158
 2020SOL    HW117522   1.264   4.152   6.432  1.4798  1.8353 -0.0445
 2020SOL    HW217523   1.141   4.223   6.428 -1.0981  2.2233  2.6673
 2021SOL     OW17524   4.463   1.522   7.011 -0.3287  0.4664  0.1415
 2021SOL    HW117525   4.423   1.519   7.099  2.0190  2.0865  1.2626
 2021SOL    HW217526   4.443   1.433   6.982 -0.8500  1.0159 -1.1599
 2022SOL     OW17527   0.719   2.271   7.229 -0.3776 -0.8702  0.5875
 2022SOL    HW117528   0.646   2.318   7.187  0.7301  1.0018  0.7854
 2022SOL    HW217529   0.761   2.343   7.277  1.6561  0.2952 -2.9777
 2023SOL     OW17530   3.843   0.785  14.975 -0.4617  0.2527  0.9647
 2023SOL    HW117531   3.900   0.748  15.043  0.2324 -0.5158 -0.0349
 2023SOL    HW217532   3.829   0.869  15.020 -0.6630  0.1787  1.0372
 2024SOL     OW17533   2.387   3.912   1.560  0.6454 -0.1186  0.2162
 2024SOL    HW117534   2.315   3.971   1.539  0.0118 -1.1166 -0.4238
 2024SOL    HW217535   2.343   3.832   1.531 -0.7906  1.3266 -1.6050
 2025SOL     OW17536   4.442   3.888  10.280  0.3746 -0.0941 -0.2272
 2025SOL    HW117537   4.494   3.911  10.357 -2.6455  3.6981  0.7082
 2025SOL    HW217538   4.470   3.960  10.224  2.1626  0.1565  1.0121
 2026SOL     OW17539   4.408   1.481   2.346 -0.4455 -0.0591 -0.1025
 2026SOL    HW117540   4.379   1.572   2.337 -0.7224 -0.2801 -1.3784
 2026SOL    HW217541   4.425   1.486   2.440 -0.4670 -1.2480 -0.0421
 2027SOL     OW17542   4.340   3.827   1.448 -0.7256  0.8882  0.1592
 2027SOL    HW117543   4.291   3.822   1.530  0.2735  0.0678  0.7096
 2027SOL    HW217544   4.389   3.909   1.460 -1.0356  1.0953  0.0245
 2028SOL     OW17545   3.044   2.256   6.293 -0.7045 -0.0457  0.8020
 2028SOL    HW117546   3.095   2.337   6.287 -2.7623  0.9681 -2.7569
 2028SOL    HW217547   3.016   2.261   6.385 -0.0214  1.7725  0.9170
 2029SOL     OW17548   4.058   3.094   0.668 -0.1147  0.0203 -0.0554
 2029SOL    HW117549   4.115   3.110   0.743 -1.3540  0.6628  0.7627
 2029SOL    HW217550   4.029   3.005   0.690 -0.7661  0.3894  0.6072
 2030SOL     OW17551   3.397   3.552   9.198 -0.4139 -0.6647 -0.0133
 2030SOL    HW117552   3.377   3.618   9.132  1.6418 -0.2224 -0.1856
 2030SOL    HW217553   3.413   3.615   9.268 -1.0847  0.4298 -0.8333
 2031SOL     OW17554   1.072   4.013   2.409  0.0614 -0.4029  0.0455
 2031SOL    HW117555   1.118   3.929   2.411 -0.6653 -0.8277 -1.2620
 2031SOL    HW217556   0.992   3.986   2.454  0.0359 -1.8110 -0.8205
 2032SOL     OW17557   2.483   1.157   1.764 -0.0692  0.5122 -0.0067
 2032SOL    HW117558   2.499   1.207   1.844  1.3847  1.4420 -0.8907
 2032SOL    HW217559   2.388   1.150   1.750  0.0426 -0.8277 -0.1273
 2033SOL     OW17560   0.688   2.703   4.474  0.4523  0.1138 -0.5498
 2033SOL    HW117561   0.666   2.615   4.504 -0.6773  1.4535  2.6056
 2033SOL    HW217562   0.759   2.717   4.538 -0.4560  0.1081  0.4631
 2034SOL     OW17563   2.226   3.468  10.783 -0.7646  0.3586 -0.3917
 2034SOL    HW117564   2.269   3.438  10.863  0.5374 -0.6779 -1.5026
 2034SOL    HW217565   2.250   3.561  10.784  1.5843 -0.2677  0.2503
 2035SOL     OW17566   0.192   1.038   4.127 -0.4255  0.4404 -0.3576
 2035SOL    HW117567   0.128   1.109   4.137 -0.7594  0.2396 -1.0232
 2035SOL    HW217568   0.261   1.059   4.189  0.4783 -3.0939 -0.1748
 2036SOL     OW17569   2.804   4.384  17.522  0.1104 -0.2548 -0.2204
 2036SOL    HW117570   2.831   4.359  17.611 -2.0094  0.3332  0.6025
 2036SOL    HW217571   2.714   4.412  17.540 -0.4082 -0.0908 -3.2166
 2037SOL     OW17572   0.232   1.230   2.989 -0.2120  0.2012 -0.0151
 2037SOL    HW117573   0.143   1.247   2.959 -0.6060 -0.3382  0.8578
 2037SOL    HW217574   0.244   1.288   3.064 -2.4529  0.4679  0.1364
 2038SOL     OW17575   3.374   0.895   4.302  0.4622  0.1991  0.1915
 2038SOL    HW117576   3.340   0.924   4.218 -1.4653 -0.7649  0.6493
 2038SOL    HW217577   3.365   0.800   4.296 -0.6736  0.3571 -0.5154
 2039SOL     OW17578   0.330   4.542   4.530  0.4034 -0.3398  0.5916
 2039SOL    HW117579   0.322   4.622   4.582 -0.1657  0.4656 -0.7306
 2039SOL    HW217580   0.372   4.573   4.450 -2.2119  1.6302 -0.0130
 2040SOL     OW17581   2.227   2.490   1.611 -1.0049 -0.1606 -0.1611
 2040SOL    HW117582   2.133   2.494   1.630 -0.4866 -1.4269  2.6477
 2040SOL    HW217583   2.228   2.555   1.541 -1.6101  2.6265  2.4376
 2041SOL     OW17584   0.900   2.733   3.506 -0.2246 -0.0501  0.2350
 2041SOL    HW117585   0.849   2.663   3.548 -1.1701 -0.2579 -1.2875
 2041SOL    HW217586   0.839   2.805   3.493  0.9459  0.6251 -1.4761
 2042SOL     OW17587   2.105   1.667   0.339  0.3344  0.0608  0.2931
 2042SOL    HW117588   2.155   1.748   0.346  1.4849 -0.7025  0.9562
 2042SOL    HW217589   2.081   1.648   0.430 -0.0705  1.6477  0.5166
 2043SOL     OW17590   4.004   1.807   7.793 -0.1305 -0.6996  0.4275
 2043SOL    HW117591   3.919   1.827   7.752  1.4746  2.5770 -1.3385
 2043SOL    HW217592   3.995   1.866   7.869  0.6738 -0.2465  0.1658
 2044SOL     OW17593   2.806   1.993   8.150 -0.2346 -0.6995  0.4298
 2044SOL    HW117594   2.803   1.918   8.209 -0.8578  0.4823  1.9070
 2044SOL    HW217595   2.720   2.026   8.178 -0.3134 -0.9400  0.4737
 2045SOL     OW17596   2.972   0.661   1.818 -0.3680 -0.6771 -0.1844
 2045SOL    HW117597   2.958   0.736   1.875  1.7985 -1.1262  0.9511
 2045SOL    HW217598   2.922   0.685   1.740 -1.7025 -2.4151  0.1322
 2046SOL     OW17599   4.233   0.601   8.074 -0.1153  0.1928 -0.1965
 2046SOL    HW117600   4.260   0.520   8.030  1.2994  0.4898  0.1068
 2046SOL    HW217601   4.184   0.557   8.143 -1.1072  0.6399 -0.6180
 2047SOL     OW17602   3.957   0.759   8.325 -0.2785  0.1260  0.4392
 2047SOL    HW117603   3.919   0.689   8.273 -0.9592  0.0267  1.0693
 2047SOL    HW217604   4.020   0.715   8.381 -1.3232 -0.1639  1.3883
 2048SOL     OW17605   3.301   3.742   9.037 -0.0012 -0.2281  0.5967
 2048SOL    HW117606   3.230   3.678   9.027  1.0399 -1.2370 -0.3879
 2048SOL    HW217607   3.262   3.823   9.003 -1.2410 -1.3008 -0.5495
 2049SOL     OW17608   2.316   1.174  13.801 -0.3009  0.1386  0.2656
 2049SOL    HW117609   2.321   1.099  13.742  0.7925  0.5993 -0.2412
 2049SOL    HW217610   2.222   1.178  13.814  0.4296 -0.0132  5.4062
 2050SOL     OW17611   3.575   1.517   0.865  0.0774  0.7821  0.1679
 2050SOL    HW117612   3.483   1.532   0.888 -1.0221 -1.9109 -2.4531
 2050SOL    HW217613   3.612   1.512   0.953  1.8236 -1.8257 -0.7070
 2051SOL     OW17614   3.938   1.503  11.747  0.3911  0.0705  0.8712
 2051SOL    HW117615   3.845   1.523  11.734  0.6983 -0.0518 -1.5186
 2051SOL    HW217616   3.950   1.465  11.660 -3.1534  2.4361 -0.6426
 2052SOL     OW17617   4.557   1.506  14.635 -0.4416  0.4061 -0.4085
 2052SOL    HW117618   4.587   1.483  14.723 -0.1962  1.2136 -0.2798
 2052SOL    HW217619   4.617   1.464  14.573 -0.1649  1.0454 -0.5682
 2053SOL     OW17620   0.480   3.567  12.270  0.0980 -0.5928 -0.1232
 2053SOL    HW117621   0.403   3.617  12.246  0.7470  0.0068 -0.9642
 2053SOL    HW217622   0.504   3.529  12.185  1.0010 -0.8534  0.2412
 2054SOL     OW17623   0.641   2.588  16.108 -0.0088  0.5069 -0.0845
 2054SOL    HW117624   0.616   2.610  16.197 -1.4395  1.2259 -0.6763
 2054SOL    HW217625   0.670   2.675  16.082 -0.4980  0.5124 -0.6089
 2055SOL     OW17626   0.960   2.805   3.802  0.4570  0.0749 -0.6740
 2055SOL    HW117627   0.913   2.884   3.777 -1.0377  0.0619  2.1689
 2055SOL    HW217628   0.888   2.742   3.796  0.3099  0.3922 -2.2773
 2056SOL     OW17629   2.837   1.812   1.033  0.0942  0.2704  0.3367
 2056SOL    HW117630   2.826   1.885   1.094  1.6738 -1.1231  2.2718
 2056SOL    HW217631   2.919   1.775   1.067  0.5613  0.1160 -0.9605
 2057SOL     OW17632   3.553   4.213   6.854  0.4884 -0.4112  0.1524
 2057SOL    HW117633   3.638   4.247   6.829  0.0706  0.8170  0.4068
 2057SOL    HW217634   3.510   4.216   6.768 -2.1053  0.7162  1.4808
 2058SOL     OW17635   3.072   4.545   8.588  0.5883 -0.0386 -0.1693
 2058SOL    HW117636   3.062   4.639   8.572  0.9158 -0.0084 -0.2020
 2058SOL    HW217637   3.025   4.517   8.510  0.2819 -1.4747  0.5371
 2059SOL     OW17638   1.377   3.876  15.645 -0.1007  0.4010 -0.2614
 2059SOL    HW117639   1.421   3.958  15.666  1.1630 -0.7020  1.4313
 2059SOL    HW217640   1.389   3.823  15.724  1.9615  1.9928  0.4964
 2060SOL     OW17641   0.839   4.127   4.289  0.3061  0.1566  0.3388
 2060SOL    HW117642   0.873   4.214   4.312 -0.2676  0.3439  0.4810
 2060SOL    HW217643   0.922   4.080   4.282  0.0837 -0.1049 -0.5249
 2061SOL     OW17644   4.285   2.357   2.943 -0.2695 -0.0685  0.7179
 2061SOL    HW117645   4.330   2.406   3.012 -1.4619  1.2126  0.5717
 2061SOL    HW217646   4.262   2.276   2.988  0.0886 -0.9052 -0.5992
 2062SOL     OW17647   2.006   3.056   4.433  0.4538 -0.0197 -0.1395
 2062SOL    HW117648   1.992   2.965   4.459  3.2735 -0.4080 -0.0312
 2062SOL    HW217649   1.945   3.107   4.486  3.0588 -0.2947  3.1006
 2063SOL     OW17650   3.539   4.253   6.255  0.0091 -0.1238 -0.1860
 2063SOL    HW117651   3.527   4.334   6.305 -0.4405 -1.0827  1.2457
 2063SOL    HW217652   3.503   4.186   6.313 -0.8015  0.7159  0.2855
 2064SOL     OW17653   1.643   3.355   1.381  0.8288  0.9529 -0.2803
 2064SOL    HW117654   1.719   3.350   1.439  1.1710 -0.2258 -0.8296
 2064SOL    HW217655   1.634   3.262   1.359 -1.1096  0.7031  1.5070
 2065SOL     OW17656   3.767   3.337   5.722  0.3871 -0.1545  0.0394
 2065SOL    HW117657   3.825   3.264   5.697 -0.6342 -0.2375 -2.0744
 2065SOL    HW217658   3.725   3.342   5.636  0.7075 -0.3974 -0.1340
 2066SOL     OW17659   3.963   1.010   2.645  0.1906  0.0764  0.6027
 2066SOL    HW117660   3.902   0.973   2.582 -0.5685  0.9682  0.8172
 2066SOL    HW217661   3.984   1.094   2.605 -0.1866 -1.2774 -2.4011
 2067SOL     OW17662   2.941   1.352   8.190  0.8760 -0.0440  0.3723
 2067SOL    HW117663   2.867   1.399   8.227 -1.8288 -2.3705 -2.0886
 2067SOL    HW217664   2.906   1.270   8.155  0.2754  0.7687 -0.9333
 2068SOL     OW17665   3.644   4.240   9.494 -0.0485  0.2971 -0.4713
 2068SOL    HW117666   3.550   4.255   9.497 -0.0741 -0.1482  0.8674
 2068SOL    HW217667   3.670   4.286   9.574  1.3246  0.0832 -0.7895
 2069SOL     OW17668   1.950   2.494  16.595 -0.0810  0.2526 -0.3511
 2069SOL    HW117669   1.996   2.574  16.569  0.0778 -0.0955 -1.1387
 2069SOL    HW217670   1.983   2.480  16.683 -1.1542 -1.9826 -0.3004
 2070SOL     OW17671   1.699   1.595   8.875  0.5165 -0.8610 -0.3428
 2070SOL    HW117672   1.754   1.530   8.919  1.0397  0.3691  0.8267
 2070SOL    HW217673   1.727   1.676   8.919 -2.3674 -0.0957  0.0857
 2071SOL     OW17674   2.966   3.592   2.587  0.5491 -0.1135 -0.0410
 2071SOL    HW117675   2.962   3.562   2.496 -0.2723 -0.8813  0.2481
 2071SOL    HW217676   2.872   3.591   2.607  0.1387 -0.5749 -2.0026
 2072SOL     OW17677   0.270   2.951   8.645  0.1777  0.3528  0.3719
 2072SOL    HW117678   0.205   2.989   8.705  2.1990  2.5323  1.1808
 2072SOL    HW217679   0.272   3.023   8.581 -1.6317  0.7753  0.7946
 2073SOL     OW17680   2.206   3.261   5.865  0.6758 -0.4021  0.4098
 2073SOL    HW117681   2.179   3.344   5.904  2.2703  1.2006 -1.8793
 2073SOL    HW217682   2.249   3.207   5.931  0.2768  1.4344  2.1816
 2074SOL     OW17683   1.715   1.166   5.589  0.3220 -0.5398 -0.0853
 2074SOL    HW117684   1.801   1.205   5.603  0.2896 -0.2671 -0.6278
 2074SOL    HW217685   1.688   1.129   5.673  0.3279 -1.0404 -0.3033
 2075SOL     OW17686   1.934   2.280   1.201 -0.4457 -0.2635 -0.2477
 2075SOL    HW117687   1.938   2.324   1.286 -0.5322 -0.6572 -0.0388
 2075SOL    HW217688   1.959   2.345   1.135 -3.2847 -0.2073 -1.2817
 2076SOL     OW17689   0.536   0.597   9.671  0.1132 -0.9956  0.5575
 2076SOL    HW117690   0.629   0.619   9.666  0.0851 -1.2723 -1.4681
 2076SOL    HW217691   0.503   0.659   9.605  1.9917 -0.9330 -0.3064
 2077SOL     OW17692   4.395   0.606  10.336 -0.2266 -0.1467 -0.1927
 2077SOL    HW117693   4.478   0.585  10.379 -0.2080  1.5126  0.5925
 2077SOL    HW217694   4.410   0.647  10.251 -1.5991  0.0983 -0.3069
 2078SOL     OW17695   1.290   2.745   7.660  0.9406  0.4593 -0.3262
 2078SOL    HW117696   1.260   2.688   7.589  1.6310 -0.6013  0.2357
 2078SOL    HW217697   1.353   2.797   7.611  2.1521  1.0475  1.8734
 2079SOL     OW17698   0.042   2.131   9.526 -0.2193 -0.1760 -0.5810
 2079SOL    HW117699   0.101   2.206   9.529  1.8468 -1.8983  2.4311
 2079SOL    HW217700   0.105   2.066   9.557  0.7611  0.1030 -1.9669
 2080SOL     OW17701   3.430   2.583   2.922  0.4060  0.4135  0.0107
 2080SOL    HW117702   3.449   2.675   2.903  0.8524  0.5620  1.1877
 2080SOL    HW217703   3.493   2.576   2.994  0.3347 -2.6629 -0.2327
 2081SOL     OW17704   3.610   1.701  16.709  0.0420  0.5803 -0.4212
 2081SOL    HW117705   3.678   1.635  16.702  1.1110  1.6574 -0.1286
 2081SOL    HW217706   3.585   1.705  16.616  1.1098  0.3084 -0.7122
 2082SOL     OW17707   0.446   3.011   7.827 -0.3887  0.2817  0.8186
 2082SOL    HW117708   0.524   2.999   7.880  0.1000 -2.4314 -0.5038
 2082SOL    HW217709   0.451   2.923   7.790  0.0114 -0.8015  3.4751
 2083SOL     OW17710   2.760   0.089  10.088 -0.8904 -0.0202 -0.2246
 2083SOL    HW117711   2.696   0.029  10.127 -0.1805 -1.3636 -1.1297
 2083SOL    HW217712   2.804   0.019  10.040  1.8316 -0.1717  2.5069
 2084SOL     OW17713   3.675   4.527   6.179 -0.4005 -0.7173  0.3913
 2084SOL    HW117714   3.711   4.610   6.148 -0.4398 -0.2493  1.5645
 2084SOL    HW217715   3.711   4.463   6.117  0.0014  1.1551 -1.2869
 2085SOL     OW17716   0.794   2.555   2.550 -1.1810  0.1405 -0.0333
 2085SOL    HW117717   0.713   2.606   2.551 -1.5739 -0.4940  1.5305
 2085SOL    HW217718   0.755   2.475   2.513 -0.8015 -0.0531 -0.0170
 2086SOL     OW17719   1.314   2.796   2.146  0.2036  0.2619 -0.0446
 2086SOL    HW117720   1.305   2.737   2.072 -1.0593  0.1426  0.1886
 2086SOL    HW217721   1.271   2.874   2.109  0.9038  0.0212 -1.3479
 2087SOL     OW17722   0.980   2.952   0.263  0.0924  0.6525 -0.2341
 2087SOL    HW117723   0.954   3.040   0.289  0.5822  0.7855 -0.1830
 2087SOL    HW217724   0.894   2.911   0.254  1.7607 -2.9148 -0.1921
 2088SOL     OW17725   2.122   3.921  16.325  0.0556 -0.4853  0.3229
 2088SOL    HW117726   2.068   4.000  16.332 -0.4634 -0.7652 -0.5206
 2088SOL    HW217727   2.060   3.852  16.301 -1.3543  0.4568  1.2615
 2089SOL     OW17728   1.345   1.514   3.856 -0.1763 -0.1752  0.4152
 2089SOL    HW117729   1.335   1.609   3.861  2.7204  0.1962 -0.7446
 2089SOL    HW217730   1.349   1.496   3.950 -1.2571 -3.8453 -0.2409
 2090SOL     OW17731   3.607   1.186   2.641 -0.0328  0.3609 -0.1756
 2090SOL    HW117732   3.689   1.185   2.593  0.1790  0.9519  0.1680
 2090SOL    HW217733   3.634   1.224   2.725 -0.5718  2.8630 -1.1381
 2091SOL     OW17734   1.118   3.887   8.831  0.2365  0.2811 -0.0265
 2091SOL    HW117735   1.184   3.955   8.816  1.5331 -1.4704 -2.1698
 2091SOL    HW217736   1.040   3.942   8.841  0.6408  0.7772  0.3884
 2092SOL     OW17737   4.306   3.492   3.750 -0.3526  0.5705  0.3506
 2092SOL    HW117738   4.363   3.541   3.809  0.2549 -0.6295  0.7658
 2092SOL    HW217739   4.291   3.412   3.801 -0.9840  0.0428 -0.6608
 2093SOL     OW17740   3.331   3.670   2.423 -0.5500 -0.2160  0.7525
 2093SOL    HW117741   3.278   3.748   2.439 -0.4577 -0.3471  1.6932
 2093SOL    HW217742   3.290   3.626   2.349  0.3394  0.3589 -0.0921
 2094SOL     OW17743   2.969   1.316   3.627  1.3201  0.1893  0.2270
 2094SOL    HW117744   3.053   1.272   3.618  1.6807  1.2017 -1.3934
 2094SOL    HW217745   2.931   1.273   3.704 -2.3137  0.5582 -1.3238
 2095SOL     OW17746   2.945   4.209   7.638  0.3433  0.4891  0.4185
 2095SOL    HW117747   2.851   4.225   7.639 -0.1829 -2.4103 -0.3666
 2095SOL    HW217748   2.956   4.115   7.656  1.5009  0.3761 -0.8367
 2096SOL     OW17749   3.331   3.947   6.921 -0.2246 -0.0199  0.4008
 2096SOL    HW117750   3.384   3.997   6.983  0.0230  0.5243 -0.2441
 2096SOL    HW217751   3.403   3.915   6.866 -0.3496  2.1434 -1.0192
 2097SOL     OW17752   3.294   2.625   0.293  1.0294  0.5025  0.4173
 2097SOL    HW117753   3.389   2.626   0.299  1.0767 -1.8505  0.0582
 2097SOL    HW217754   3.272   2.688   0.224  2.2059  0.1257 -0.2964
 2098SOL     OW17755   3.340   2.448  11.582  1.2674  0.1632 -0.2940
 2098SOL    HW117756   3.257   2.495  11.584  2.1759  1.7822 -1.4112
 2098SOL    HW217757   3.399   2.516  11.614  1.3421 -0.8776  1.7988
 2099SOL     OW17758   4.712   2.331   3.947 -0.1838  0.0517 -0.3475
 2099SOL    HW117759   4.693   2.416   3.988  2.2815  0.6839 -0.5123
 2099SOL    HW217760   4.709   2.357   3.855  1.5265  0.3868 -0.2959
 2100SOL     OW17761   0.859   4.341  10.097  0.7264  0.7518 -0.4997
 2100SOL    HW117762   0.836   4.354  10.005 -0.0127  1.3093 -0.2321
 2100SOL    HW217763   0.888   4.249  10.098 -0.0230  0.5310  0.4716
 2101SOL     OW17764   3.122   4.134  17.246 -0.3661  0.4702 -0.2899
 2101SOL    HW117765   3.138   4.075  17.320  3.5924 -1.1306 -2.3843
 2101SOL    HW217766   3.107   4.215  17.293  0.1444  0.8273 -0.7453
 2102SOL     OW17767   3.112   2.174   7.721 -0.0363 -0.4345  0.3140
 2102SOL    HW117768   3.090   2.094   7.673 -3.5367 -0.9108  2.7065
 2102SOL    HW217769   3.079   2.239   7.658 -0.4827  0.1347  1.1379
 2103SOL     OW17770   3.711   3.875   5.745 -0.5240  0.3666  0.1928
 2103SOL    HW117771   3.756   3.934   5.805  0.1488 -1.0808  1.1095
 2103SOL    HW217772   3.694   3.803   5.805 -1.8772  1.4312  1.0779
 2104SOL     OW17773   1.808   2.954   4.051 -0.5055  0.6966  0.1619
 2104SOL    HW117774   1.783   2.984   4.139 -0.1529 -0.3677  0.6272
 2104SOL    HW217775   1.753   2.877   4.036 -0.9690  1.2734 -1.0784
 2105SOL     OW17776   2.360   0.552   7.888 -0.2995  0.2719  0.2198
 2105SOL    HW117777   2.389   0.582   7.802  1.3017 -1.1201  0.2683
 2105SOL    HW217778   2.441   0.506   7.910 -0.8194  0.6337  2.8193
 2106SOL     OW17779   0.196   0.762   5.461 -0.1471 -0.1410  0.6721
 2106SOL    HW117780   0.290   0.779   5.466 -0.3226  0.9997  0.0360
 2106SOL    HW217781   0.197   0.671   5.490 -1.5640 -0.3305  0.1003
 2107SOL     OW17782   0.291   1.402   4.600  0.0334  0.2881  0.1228
 2107SOL    HW117783   0.314   1.434   4.512 -1.2829  1.8202  0.3277
 2107SOL    HW217784   0.214   1.452   4.628  0.1311  1.3316 -1.4704
 2108SOL     OW17785   2.100   3.012   2.674 -0.2539  0.4306 -0.0358
 2108SOL    HW117786   2.041   2.946   2.709 -0.0787  0.4444  0.2785
 2108SOL    HW217787   2.030   3.066   2.637 -0.2983 -0.4963 -1.3132
 2109SOL     OW17788   0.976   1.607   8.961 -0.0603 -0.2059  0.4595
 2109SOL    HW117789   0.994   1.688   9.009  0.8067 -0.0511 -0.1210
 2109SOL    HW217790   0.905   1.641   8.907 -2.3269  0.0294  3.6121
 2110SOL     OW17791   2.496   3.517   9.856  0.7964  0.0856  0.1202
 2110SOL    HW117792   2.472   3.440   9.907  0.0489  0.1191 -0.1769
 2110SOL    HW217793   2.454   3.594   9.895 -0.8212 -0.4326 -0.6044
 2111SOL     OW17794   2.432   4.668   5.887 -0.1514 -0.1617 -0.0622
 2111SOL    HW117795   2.482   4.719   5.822 -0.4467 -1.3321 -1.2046
 2111SOL    HW217796   2.476   4.585   5.868 -0.5222 -0.6037  1.0154
 2112SOL     OW17797   3.088   2.367   3.606  0.4154  0.3152 -0.2467
 2112SOL    HW117798   3.092   2.321   3.522  1.4456  1.3286 -0.7469
 2112SOL    HW217799   3.094   2.461   3.586  0.4018  0.0734 -1.4178
 2113SOL     OW17800   0.394   3.121   4.280  0.2139 -0.4756 -0.2494
 2113SOL    HW117801   0.395   3.116   4.375 -1.6302 -0.6665 -0.2238
 2113SOL    HW217802   0.483   3.129   4.246  0.4533 -1.7180  0.0966
 2114SOL     OW17803   1.899   3.169   7.083  0.2505  0.7305  0.6018
 2114SOL    HW117804   1.966   3.220   7.038  1.5119 -1.9708 -0.5734
 2114SOL    HW217805   1.922   3.077   7.071  0.9055  0.9808 -0.0443
 2115SOL     OW17806   4.127   4.555   2.376  0.3216  0.0086  0.2889
 2115SOL    HW117807   4.124   4.511   2.461  0.2428 -0.2867  0.1317
 2115SOL    HW217808   4.219   4.578   2.365 -0.0775  0.9210 -1.1202
 2116SOL     OW17809   0.802   0.737   0.661 -0.2864  0.3220 -0.3714
 2116SOL    HW117810   0.745   0.761   0.735  0.8386 -0.6190  0.7935
 2116SOL    HW217811   0.892   0.736   0.694  0.1814  0.2996 -1.6463
 2117SOL     OW17812   3.294   3.005   9.293  0.2421 -0.4987 -0.4408
 2117SOL    HW117813   3.326   2.944   9.360  2.3490  1.7186  0.5750
 2117SOL    HW217814   3.226   3.058   9.335  0.6354  1.5482 -2.3884
 2118SOL     OW17815   2.787   0.842   4.114 -0.4545 -0.4812  0.4425
 2118SOL    HW117816   2.840   0.784   4.058 -0.1766  0.3155 -0.1238
 2118SOL    HW217817   2.707   0.838   4.063 -1.0294 -0.3852  1.3405
 2119SOL     OW17818   2.664   1.804   2.690 -0.2423  0.0192 -0.1227
 2119SOL    HW117819   2.585   1.763   2.655 -0.8557 -0.5762  1.9628
 2119SOL    HW217820   2.721   1.728   2.682 -0.6595 -0.4117  0.9235
 2120SOL     OW17821   1.085   0.160   9.997  0.0309 -0.0636 -0.4988
 2120SOL    HW117822   1.131   0.122   9.922  0.6141 -0.6267  0.1496
 2120SOL    HW217823   1.054   0.084  10.047  1.0663 -0.8417 -1.0575
 2121SOL     OW17824   3.600   3.486  13.061  0.3197  0.2718  0.3263
 2121SOL    HW117825   3.556   3.570  13.067  0.8790  0.5358  0.7280
 2121SOL    HW217826   3.676   3.502  13.005 -0.0679  1.9521  0.2757
 2122SOL     OW17827   4.631   1.593   2.180  0.5125 -0.1226  0.4788
 2122SOL    HW117828   4.553   1.540   2.199 -1.5801  2.1079 -2.0059
 2122SOL    HW217829   4.598   1.648   2.109  1.1068  1.5843  1.5202
 2123SOL     OW17830   2.258   0.996   6.327  0.4184 -0.2654  0.3722
 2123SOL    HW117831   2.214   0.935   6.266 -0.1954  0.8312 -0.2856
 2123SOL    HW217832   2.287   0.938   6.397 -0.1371 -1.6575 -0.5501
 2124SOL     OW17833   1.812   3.535   1.251  0.1172  0.3112 -0.3341
 2124SOL    HW117834   1.755   3.491   1.314 -3.0406  2.5508 -1.6814
 2124SOL    HW217835   1.753   3.558   1.180  0.6196  1.9673 -0.2244
 2125SOL     OW17836   0.231   3.261  16.735  0.3113 -0.8207 -0.2126
 2125SOL    HW117837   0.245   3.292  16.646  0.3437 -3.7304 -1.2299
 2125SOL    HW217838   0.298   3.192  16.737  2.7515  1.5259 -2.2269
 2126SOL     OW17839   3.899   2.094   8.303  0.2043  0.2606 -0.9393
 2126SOL    HW117840   3.828   2.150   8.334  0.7296 -1.8521  4.2392
 2126SOL    HW217841   3.850   2.043   8.239  1.4830 -1.3706 -0.6320
 2127SOL     OW17842   1.051   1.555  13.570 -0.4511  0.0555  0.2062
 2127SOL    HW117843   1.042   1.648  13.592  1.7137  0.0233  1.2352
 2127SOL    HW217844   1.142   1.533  13.589 -1.6860 -4.1927  1.2157
 2128SOL     OW17845   3.350   1.869   5.730  0.4844  0.2253  0.0929
 2128SOL    HW117846   3.396   1.848   5.649  0.4069 -0.9951  0.3696
 2128SOL    HW217847   3.262   1.890   5.700 -0.1490  1.6107  2.8953
 2129SOL     OW17848   3.182   0.009   1.153  0.4153  0.4468  0.3084
 2129SOL    HW117849   3.167   4.714   1.060 -0.1725  0.3541  0.4180
 2129SOL    HW217850   3.255   4.672   1.173 -0.0873  0.0696  1.0194
 2130SOL     OW17851   0.722   2.058   1.876  0.1404  0.4006  0.1362
 2130SOL    HW117852   0.803   2.061   1.827 -0.8059 -0.8297 -1.5005
 2130SOL    HW217853   0.653   2.039   1.812 -0.3307 -2.5626  1.4868
 2131SOL     OW17854   4.465   1.047   1.974  0.1403 -0.5839 -0.1099
 2131SOL    HW117855   4.495   1.129   1.933  0.3819  0.7073  2.6352
 2131SOL    HW217856   4.554   1.013   1.988 -0.6163 -2.3138  0.4897
 2132SOL     OW17857   1.547   1.921   2.580  0.2828  0.5086 -0.3873
 2132SOL    HW117858   1.611   1.892   2.644 -0.3548  1.2879  0.6180
 2132SOL    HW217859   1.598   1.917   2.499  1.2089  1.8013  0.1321
 2133SOL     OW17860   2.636   4.472   2.807  0.5449  0.0975  0.1639
 2133SOL    HW117861   2.695   4.468   2.731  2.3931 -2.3785  1.6931
 2133SOL    HW217862   2.601   4.560   2.795  1.5114  0.7869  2.4556
 2134SOL     OW17863   2.899   2.885   9.304 -0.1439 -0.2517 -0.6475
 2134SOL    HW117864   2.818   2.917   9.343  0.9898  1.3521  0.3897
 2134SOL    HW217865   2.918   2.959   9.246 -0.2089  1.7247  1.8616
 2135SOL     OW17866   0.976   3.838   5.201  0.4279 -0.1563 -0.0460
 2135SOL    HW117867   0.908   3.896   5.168  2.3184  2.8923  1.4663
 2135SOL    HW217868   0.969   3.855   5.295  0.2423  1.6574 -0.4057
 2136SOL     OW17869   1.719   0.093   3.080  0.2570 -0.3720  0.5025
 2136SOL    HW117870   1.735   0.184   3.056  0.3290 -0.0604  1.7344
 2136SOL    HW217871   1.811   0.072   3.092  0.1078 -0.8948  0.7528
 2137SOL     OW17872   4.247   1.486   5.617 -0.5889 -0.5879 -0.4543
 2137SOL    HW117873   4.305   1.491   5.541 -3.3554  2.3618 -2.3670
 2137SOL    HW217874   4.305   1.435   5.674  0.2578 -1.0802 -1.7635
 2138SOL     OW17875   2.458   1.051   0.691  0.6466 -0.3263  0.0794
 2138SOL    HW117876   2.410   1.111   0.748  0.2692  1.4305 -2.0747
 2138SOL    HW217877   2.543   1.094   0.693  1.6918 -2.4388  0.3636
 2139SOL     OW17878   0.113   4.681   6.403 -0.2060 -0.3588 -0.2677
 2139SOL    HW117879   0.196   4.648   6.368 -0.0209 -0.8436  0.6365
 2139SOL    HW217880   0.065   4.598   6.409  0.7647 -0.9752 -0.9926
 2140SOL     OW17881   2.476   1.495   3.485 -0.2520 -0.2286  0.4417
 2140SOL    HW117882   2.550   1.453   3.441 -1.5995 -2.6644  0.4668
 2140SOL    HW217883   2.524   1.569   3.520  1.5624 -0.8105 -0.8067
 2141SOL     OW17884   0.563   1.944  15.045 -0.2316  0.0990 -0.3380
 2141SOL    HW117885   0.566   1.977  15.135  0.6120  0.5004 -0.5093
 2141SOL    HW217886   0.653   1.958  15.014 -0.1535 -1.0903 -0.6400
 2142SOL     OW17887   1.035   4.476   8.413 -0.0520 -0.6153 -0.0112
 2142SOL    HW117888   0.952   4.450   8.452 -0.3530  2.8510  1.5592
 2142SOL    HW217889   1.098   4.471   8.485  0.1579  2.0516 -0.0396
 2143SOL     OW17890   3.217   0.849   4.869  0.0803 -0.4046 -0.4584
 2143SOL    HW117891   3.241   0.760   4.895 -1.2296 -0.9378 -1.0795
 2143SOL    HW217892   3.299   0.887   4.837  0.7722 -2.1042 -0.6893
 2144SOL     OW17893   2.839   1.108   1.267 -0.0827 -0.0665 -0.6801
 2144SOL    HW117894   2.885   1.099   1.184 -0.6008  1.4014 -1.1143
 2144SOL    HW217895   2.871   1.194   1.294  2.5792 -0.2526 -3.2433
 2145SOL     OW17896   2.870   2.994   8.847 -0.7322 -0.1816 -0.4449
 2145SOL    HW117897   2.963   3.016   8.835 -1.0886  1.1335 -0.7533
 2145SOL    HW217898   2.844   3.027   8.762  1.0336  2.4163  0.0155
 2146SOL     OW17899   1.860   1.149   7.844  0.0280 -0.3022 -0.1671
 2146SOL    HW117900   1.801   1.166   7.770  0.3355 -1.5567 -0.6943
 2146SOL    HW217901   1.867   1.054   7.837  0.2724 -0.3998  1.3536
 2147SOL     OW17902   3.876   2.665   7.186 -0.0255 -0.2587 -0.2024
 2147SOL    HW117903   3.899   2.718   7.262 -1.6979 -0.1106  0.2142
 2147SOL    HW217904   3.949   2.603   7.180 -0.2946 -0.3460 -2.4072
 2148SOL     OW17905   1.957   4.148  17.010  0.1110 -0.6369 -0.2685
 2148SOL    HW117906   1.925   4.060  17.028  0.0509 -0.3440  1.0486
 2148SOL    HW217907   1.872   4.189  16.992  0.9541 -0.3884 -3.6323
 2149SOL     OW17908   2.320   1.399  14.908  0.1351 -0.4720  0.3497
 2149SOL    HW117909   2.324   1.482  14.862  0.2336  0.4023  1.9324
 2149SOL    HW217910   2.411   1.388  14.936 -0.3866  1.6796  2.9361
 2150SOL     OW17911   1.852   2.985   9.905  0.6427  0.2950 -0.0835
 2150SOL    HW117912   1.859   2.926   9.980 -1.8654  0.9256  0.6119
 2150SOL    HW217913   1.915   2.939   9.849  2.1443  0.7318  1.2484
 2151SOL     OW17914   4.070   2.074   6.226  0.2413  0.2469 -0.8367
 2151SOL    HW117915   4.132   2.006   6.250  0.0621  0.9378  1.6331
 2151SOL    HW217916   4.043   2.097   6.315 -0.2750  0.5097 -1.0600
 2152SOL     OW17917   1.638   1.468   6.300  0.2470  0.6573 -0.1068
 2152SOL    HW117918   1.640   1.400   6.233  0.0070  0.6163 -0.0704
 2152SOL    HW217919   1.555   1.446   6.343  0.8036  0.3394  0.8293
 2153SOL     OW17920   4.373   0.695  12.448  0.5951  0.1632 -0.7396
 2153SOL    HW117921   4.372   0.687  12.543  1.6955  1.6793 -0.6015
 2153SOL    HW217922   4.427   0.774  12.445  0.6289  0.1764  0.2432
 2154SOL     OW17923   1.619   1.741   6.521 -0.2533  0.3566  0.1708
 2154SOL    HW117924   1.650   1.677   6.585 -0.2524 -0.1872 -0.3688
 2154SOL    HW217925   1.528   1.715   6.507  0.6053 -2.0552 -1.0270
 2155SOL     OW17926   3.535   3.172  14.743  0.2395  0.4577 -0.0084
 2155SOL    HW117927   3.553   3.204  14.655  0.3858  1.5519  0.4228
 2155SOL    HW217928   3.508   3.253  14.786 -0.1980  1.9244 -3.0714
 2156SOL     OW17929   3.783   3.431  13.396  0.1404 -0.1421  0.4466
 2156SOL    HW117930   3.709   3.373  13.381 -1.4039  1.3775  2.1283
 2156SOL    HW217931   3.859   3.397  13.349  1.0450  0.0775  1.7420
 2157SOL     OW17932   1.250   2.913  17.257  0.1663  0.2942 -0.2511
 2157SOL    HW117933   1.281   2.865  17.181  1.8819  0.1654  0.5348
 2157SOL    HW217934   1.290   2.998  17.237  0.6067  0.1413 -0.0230
 2158SOL     OW17935   1.012   1.983   7.288  0.5218  0.1640 -0.2155
 2158SOL    HW117936   1.033   1.891   7.268  0.6897  0.6372 -2.2023
 2158SOL    HW217937   1.096   2.028   7.283 -0.7509  2.3317 -1.7614
 2159SOL     OW17938   1.864   0.712  13.582 -0.0048 -0.0957  0.4403
 2159SOL    HW117939   1.798   0.691  13.516 -0.5496  0.7199  0.7165
 2159SOL    HW217940   1.823   0.790  13.620  0.2490  0.4594 -0.4322
 2160SOL     OW17941   1.113   1.388   0.451 -0.4084  0.2638  0.0068
 2160SOL    HW117942   1.172   1.316   0.428  1.0935  0.6702  2.6291
 2160SOL    HW217943   1.069   1.337   0.518  0.7640  0.8041  1.1964
 2161SOL     OW17944   3.431   1.561   4.387  0.2544 -0.2158  0.4603
 2161SOL    HW117945   3.468   1.645   4.359 -0.5597  0.0046  0.0537
 2161SOL    HW217946   3.344   1.580   4.351 -0.2785 -3.7980 -0.1591
 2162SOL     OW17947   0.583   4.199   2.079 -0.1496  0.3917 -0.3457
 2162SOL    HW117948   0.631   4.281   2.094 -0.9065  0.7229  0.2380
 2162SOL    HW217949   0.532   4.218   2.000 -2.2330 -0.4081  0.8298
 2163SOL     OW17950   3.330   1.091  11.309  0.0575 -0.0293  0.0676
 2163SOL    HW117951   3.278   1.120  11.234  1.8002  0.1408 -1.0845
 2163SOL    HW217952   3.286   1.008  11.327  1.1714 -0.5399  0.4602
 2164SOL     OW17953   3.969   2.577   5.338  0.3461 -0.0263  0.0586
 2164SOL    HW117954   3.946   2.659   5.294 -2.0835 -0.4882  0.4800
 2164SOL    HW217955   3.905   2.526   5.287 -0.1323 -1.2061  1.8325
 2165SOL     OW17956   4.629   2.159  15.488  0.4468  0.1440  0.1267
 2165SOL    HW117957   4.649   2.213  15.564 -1.5599  1.4382 -0.2737
 2165SOL    HW217958   4.675   2.200  15.414  0.9603 -3.5259 -1.6238
 2166SOL     OW17959   0.593   4.551  17.206  0.3637 -0.0345 -0.4373
 2166SOL    HW117960   0.642   4.625  17.241  0.8153  0.2772 -1.7260
 2166SOL    HW217961   0.527   4.598  17.156 -0.0079  0.1897  0.2669
 2167SOL     OW17962   2.206   3.908   0.751 -0.4425 -0.1292 -0.1099
 2167SOL    HW117963   2.237   3.991   0.789  0.7195 -0.4932 -0.2683
 2167SOL    HW217964   2.111   3.919   0.754 -0.1285  3.0591 -1.5397
 2168SOL     OW17965   1.303   1.141   0.507 -0.3188  0.1843  0.5046
 2168SOL    HW117966   1.359   1.217   0.522  1.0599 -0.4592 -1.3487
 2168SOL    HW217967   1.260   1.133   0.591 -0.5403  5.1509  0.8903
 2169SOL     OW17968   1.284   3.133   2.679  0.4329 -0.0389  0.3482
 2169SOL    HW117969   1.256   3.159   2.591  1.5903  0.5253  0.1469
 2169SOL    HW217970   1.210   3.079   2.707  0.9077 -0.6454  0.4524
 2170SOL     OW17971   3.893   3.485  13.684 -0.5305  0.3069  0.6421
 2170SOL    HW117972   3.871   3.440  13.602  0.6284 -2.9721  2.1078
 2170SOL    HW217973   3.983   3.457  13.698  0.0528  0.2645 -3.1819
 2171SOL     OW17974   2.460   4.519   5.580 -0.0021 -0.0318 -0.0795
 2171SOL    HW117975   2.465   4.446   5.642 -0.4170  1.2653  1.4789
 2171SOL    HW217976   2.537   4.567   5.608 -0.2410 -0.0084  0.5298
 2172SOL     OW17977   1.822   2.577   3.128  0.1970 -0.3166 -0.0130
 2172SOL    HW117978   1.854   2.665   3.107 -1.6472 -0.1569 -2.1609
 2172SOL    HW217979   1.804   2.540   3.042  1.2888 -1.5985  0.3120
 2173SOL     OW17980   3.218   1.625   7.665  0.0018  0.4265 -0.2556
 2173SOL    HW117981   3.137   1.611   7.713  0.6749  0.8515  1.0056
 2173SOL    HW217982   3.261   1.541   7.684 -1.4438 -0.2901 -0.1817
 2174SOL     OW17983   2.059   1.682  13.636 -0.5709  1.1807  0.7286
 2174SOL    HW117984   2.005   1.675  13.714  2.0336  1.1281  2.5373
 2174SOL    HW217985   2.088   1.768  13.665 -3.2252  2.5072 -0.5791
 2175SOL     OW17986   1.522   1.527   4.828  0.4064  0.0583  0.7874
 2175SOL    HW117987   1.572   1.480   4.894 -1.2484 -1.4893  0.9535
 2175SOL    HW217988   1.434   1.528   4.865  0.4080 -2.0017  0.8640
 2176SOL     OW17989   1.836   3.299  14.007 -0.0309 -0.4398 -0.0798
 2176SOL    HW117990   1.907   3.237  13.991 -0.6019 -0.9709 -0.5499
 2176SOL    HW217991   1.868   3.329  14.092 -0.2565  2.7336 -1.1038
 2177SOL     OW17992   1.161   3.258   2.455  0.2563  0.2770 -0.4427
 2177SOL    HW117993   1.184   3.343   2.417  0.0692  0.9859  1.0361
 2177SOL    HW217994   1.072   3.234   2.427  0.2175 -0.8640  0.6789
 2178SOL     OW17995   1.930   2.258   5.577  0.2474  0.4201 -0.1038
 2178SOL    HW117996   1.878   2.330   5.541  1.0960  2.7108  3.2165
 2178SOL    HW217997   2.018   2.297   5.574  0.4937 -0.1146  0.2241
 2179SOL     OW17998   0.419   0.260   4.459 -0.3391  0.1369 -0.4041
 2179SOL    HW117999   0.488   0.199   4.485  0.0899  0.3104 -1.1336
 2179SOL    HW218000   0.415   0.262   4.363 -3.4900 -0.7296 -0.2997
 2180SOL     OW18001   0.680   0.319   6.091  0.1838 -0.0653 -0.2232
 2180SOL    HW118002   0.624   0.241   6.086 -0.3406  0.1083  2.6118
 2180SOL    HW218003   0.621   0.386   6.126 -0.1174  0.2446 -1.3188
 2181SOL     OW18004   3.535   2.935  16.923  0.2059  0.4515 -0.5647
 2181SOL    HW118005   3.547   2.980  16.839  2.3686  1.9862  0.5793
 2181SOL    HW218006   3.598   2.977  16.981  0.2166 -0.7423  0.2757
 2182SOL     OW18007   4.428   1.340   2.886 -0.1155 -0.0286  0.0824
 2182SOL    HW118008   4.350   1.294   2.916  0.1344 -0.0743  0.6709
 2182SOL    HW218009   4.401   1.421   2.928  1.2541  1.6377 -2.2465
 2183SOL     OW18010   1.361   0.637   6.374 -0.1687  0.2621 -0.1595
 2183SOL    HW118011   1.289   0.635   6.311 -0.2958 -1.6650  0.0192
 2183SOL    HW218012   1.317   0.669   6.452  0.0754  0.1801  0.0126
 2184SOL     OW18013   3.145   3.087  12.542  0.0880  0.2263  0.2893
 2184SOL    HW118014   3.163   3.173  12.578  1.3840  0.7159 -1.5185
 2184SOL    HW218015   3.217   3.032  12.573  0.5902  2.0911  2.3974
 2185SOL     OW18016   0.160   0.122  14.935  0.1311  0.3038  0.5042
 2185SOL    HW118017   0.157   0.069  15.015  1.3262 -0.7819 -0.1742
 2185SOL    HW218018   0.085   0.181  14.941  0.0435  0.4717 -2.4681
 2186SOL     OW18019   0.884   1.810   9.411  0.2750  0.2185 -0.4890
 2186SOL    HW118020   0.883   1.893   9.364 -2.7063 -0.5950 -1.8623
 2186SOL    HW218021   0.815   1.760   9.368  1.3315 -0.7384 -1.0988
 2187SOL     OW18022   2.997   4.709   3.890  0.0243  0.9514  0.2638
 2187SOL    HW118023   2.994   0.007   3.984 -1.3642  1.6400  0.0884
 2187SOL    HW218024   2.905   4.683   3.881  0.7044 -0.0933 -3.4052
 2188SOL     OW18025   1.673   0.316   7.150 -0.3918 -0.1015  0.2801
 2188SOL    HW118026   1.592   0.294   7.104 -0.9221 -0.0503  1.1896
 2188SOL    HW218027   1.668   0.266   7.232  2.1670  0.7041  0.8977
 2189SOL     OW18028   0.227   1.926   9.586  0.4516 -0.1949 -0.1468
 2189SOL    HW118029   0.212   1.841   9.627  0.1890 -0.3117 -0.4843
 2189SOL    HW218030   0.313   1.945   9.623 -0.2583  0.2898  1.2360
 2190SOL     OW18031   2.354   0.516   4.420  0.4978  0.3642  0.2689
 2190SOL    HW118032   2.362   0.441   4.362  1.3478  1.3982 -0.9463
 2190SOL    HW218033   2.302   0.566   4.358  0.8922  1.5955  0.9328
 2191SOL     OW18034   3.274   4.240  17.064 -0.4294 -0.3784  0.0690
 2191SOL    HW118035   3.210   4.198  17.122 -0.1911 -0.1419  0.5081
 2191SOL    HW218036   3.318   4.270  17.144  1.1075 -0.6685 -0.6631
 2192SOL     OW18037   4.467   1.749  14.744 -0.3644  0.4297 -0.3074
 2192SOL    HW118038   4.496   1.683  14.680 -1.6495 -0.0229 -0.4269
 2192SOL    HW218039   4.518   1.725  14.822 -4.3761 -3.5808  1.1262
 2193SOL     OW18040   2.086   4.605  16.085  0.2247 -0.0681  0.1382
 2193SOL    HW118041   2.164   4.558  16.057 -0.3181 -0.5030 -0.6709
 2193SOL    HW218042   2.101   4.682  16.029  1.2690 -2.0680 -2.3372
 2194SOL     OW18043   2.819   2.034  15.455  0.5250  0.7363  1.0960
 2194SOL    HW118044   2.825   2.101  15.388 -0.5067  1.4759  1.7499
 2194SOL    HW218045   2.727   2.011  15.440  0.4359  1.7011  0.1366
 2195SOL     OW18046   0.324   3.456   7.531 -0.2121 -0.5758  0.2028
 2195SOL    HW118047   0.271   3.461   7.451 -0.8904 -0.7598  0.6417
 2195SOL    HW218048   0.322   3.364   7.556  0.7880 -0.0991  2.0205
 2196SOL     OW18049   4.285   4.464  17.090  0.0032  0.2726  0.0068
 2196SOL    HW118050   4.193   4.439  17.096  0.8990 -3.2048 -0.7219
 2196SOL    HW218051   4.316   4.425  17.173 -0.0498 -0.5457 -0.3613
 2197SOL     OW18052   4.393   1.833   8.181 -0.4400 -0.2696  0.4829
 2197SOL    HW118053   4.384   1.915   8.230 -1.8195  1.4332 -2.6592
 2197SOL    HW218054   4.482   1.800   8.193  0.3855  1.6374 -0.2582
 2198SOL     OW18055   1.452   1.990   7.405 -0.1322 -0.0366 -0.0462
 2198SOL    HW118056   1.444   1.896   7.416 -0.2935 -0.3367 -2.5683
 2198SOL    HW218057   1.545   2.012   7.404 -0.6630  2.2779  1.0305
 2199SOL     OW18058   3.991   4.484   6.475 -0.3264 -0.0569  0.1389
 2199SOL    HW118059   3.944   4.427   6.414  0.1940  2.5284 -2.6343
 2199SOL    HW218060   4.079   4.447   6.479 -0.2490 -0.1642 -2.8192
 2200SOL     OW18061   3.771   4.421   8.650 -0.2330 -0.6617 -0.9558
 2200SOL    HW118062   3.742   4.462   8.568 -2.8552 -0.8497 -0.1030
 2200SOL    HW218063   3.687   4.432   8.693  0.3021  2.7626 -0.7852
 2201SOL     OW18064   1.232   3.297   2.927 -0.3932  0.4497  0.2149
 2201SOL    HW118065   1.223   3.378   2.877  2.8802  0.1407 -0.8919
 2201SOL    HW218066   1.228   3.227   2.862 -0.0297  2.6275 -2.1540
 2202SOL     OW18067   4.178   4.206  14.064  0.1110 -0.3875  0.2439
 2202SOL    HW118068   4.191   4.265  13.990  1.7126 -1.4586 -0.3331
 2202SOL    HW218069   4.209   4.121  14.032 -1.0359 -1.0098  0.7701
 2203SOL     OW18070   1.370   3.804  12.140 -0.2349  0.2135 -0.1814
 2203SOL    HW118071   1.418   3.726  12.113  1.2563  0.6539  1.2015
 2203SOL    HW218072   1.414   3.836  12.219 -0.4612 -0.4857  0.2317
 2204SOL     OW18073   2.038   1.838   7.979 -0.4410  0.2398 -0.4127
 2204SOL    HW118074   2.011   1.840   8.071  1.3228 -0.7868  0.1327
 2204SOL    HW218075   1.956   1.798   7.947 -0.3823 -0.1660 -0.0566
 2205SOL     OW18076   2.576   0.805   2.951 -0.0831  0.0617  0.0484
 2205SOL    HW118077   2.644   0.865   2.920 -0.1754 -0.4498 -1.1648
 2205SOL    HW218078   2.624   0.724   2.935  1.9021  1.0384  1.0319
 2206SOL     OW18079   2.860   1.705  12.425 -0.2432  0.0198 -0.1566
 2206SOL    HW118080   2.867   1.649  12.503  1.3092  1.5062  0.7804
 2206SOL    HW218081   2.815   1.658  12.354  0.4148 -1.3645  0.3320
 2207SOL     OW18082   4.713   3.455   1.753 -0.3298  0.9407  0.1805
 2207SOL    HW118083   0.028   3.463   1.666 -1.1518 -1.3086 -0.3839
 2207SOL    HW218084   0.033   3.524   1.805  0.8939  2.0717 -2.3143
 2208SOL     OW18085   0.861   0.557   3.956 -0.2292  0.1766 -0.3789
 2208SOL    HW118086   0.895   0.507   3.881  2.4116  1.2464  0.1121
 2208SOL    HW218087   0.923   0.629   3.967 -2.3218  1.3896  3.5334
 2209SOL     OW18088   3.609   1.074   4.076  0.0936  0.0050 -0.1196
 2209SOL    HW118089   3.632   0.989   4.112  0.0273  0.7577  1.7168
 2209SOL    HW218090   3.536   1.104   4.131 -0.0917  0.9379 -0.8851
 2210SOL     OW18091   4.311   3.684   0.946 -0.4140  0.0993 -0.3644
 2210SOL    HW118092   4.354   3.602   0.969  0.8730  1.5707  2.4847
 2210SOL    HW218093   4.219   3.669   0.969 -0.4292 -0.9409 -1.0887
 2211SOL     OW18094   2.780   2.209  12.319 -0.1156 -0.6994 -0.8294
 2211SOL    HW118095   2.777   2.118  12.350 -0.7984 -0.1212  0.7895
 2211SOL    HW218096   2.745   2.261  12.391  1.4285  1.2088 -1.4414
 2212SOL     OW18097   2.428   2.283  11.236 -0.0265  0.6883 -0.1234
 2212SOL    HW118098   2.455   2.204  11.284  0.3831  1.8688  1.5801
 2212SOL    HW218099   2.501   2.341  11.258  3.0564 -2.8690 -0.8971
 2213SOL     OW18100   4.502   0.486   4.995 -0.1156 -0.3582 -0.3964
 2213SOL    HW118101   4.548   0.555   4.947 -0.4906 -0.1774 -0.5006
 2213SOL    HW218102   4.570   0.419   4.993 -1.3005 -1.6214  1.1738
 2214SOL     OW18103   3.032   0.221   7.341 -0.3869 -0.1503  0.0835
 2214SOL    HW118104   2.939   0.232   7.320 -0.9121 -1.4108  1.7279
 2214SOL    HW218105   3.061   0.308   7.367  1.3070 -0.6638 -0.1223
 2215SOL     OW18106   4.507   1.272   4.285  0.3507  0.3110 -0.3492
 2215SOL    HW118107   4.456   1.347   4.255  0.1307  0.8503  1.4126
 2215SOL    HW218108   4.440   1.205   4.292  2.1645 -1.4105  0.6140
 2216SOL     OW18109   1.751   4.221  12.312 -0.0482 -0.3787  0.3576
 2216SOL    HW118110   1.668   4.211  12.358 -0.1351 -1.2137  0.0239
 2216SOL    HW218111   1.747   4.150  12.248 -2.5780  0.3090 -0.2332
 2217SOL     OW18112   1.470   0.043   5.500  0.1847 -0.0009  0.0913
 2217SOL    HW118113   1.380   0.014   5.512 -0.4184  2.1116  0.6212
 2217SOL    HW218114   1.512   4.691   5.545  0.2584  0.8282  1.3968
 2218SOL     OW18115   1.637   0.968   6.333 -0.3989  0.3922  0.1825
 2218SOL    HW118116   1.706   0.909   6.301 -1.2256 -1.5796  2.0457
 2218SOL    HW218117   1.620   1.025   6.258  0.2508  1.0451  0.5224
 2219SOL     OW18118   2.992   3.175  11.635 -0.5808  0.4213 -0.1209
 2219SOL    HW118119   2.990   3.268  11.658  0.2929  0.3261  0.3399
 2219SOL    HW218120   2.902   3.174  11.604 -0.4953 -1.5481 -0.2903
 2220SOL     OW18121   1.833   4.543   7.967  0.0411  0.2786 -0.3124
 2220SOL    HW118122   1.747   4.531   7.926  0.1539 -0.7388 -0.2417
 2220SOL    HW218123   1.829   4.485   8.043 -0.6021  0.6548 -0.0597
 2221SOL     OW18124   2.811   3.331   8.691 -0.1490  0.0018  0.0338
 2221SOL    HW118125   2.737   3.350   8.749 -0.4946  0.8596 -0.6964
 2221SOL    HW218126   2.814   3.409   8.636  0.0736 -0.2659 -0.3315
 2222SOL     OW18127   1.589   1.650   0.031 -0.3402 -0.0664 -0.0158
 2222SOL    HW118128   1.647   1.598   0.086 -0.1661 -1.2498 -1.3109
 2222SOL    HW218129   1.652   1.717   0.002  0.7221 -0.8692  0.4199
 2223SOL     OW18130   2.487   3.243   8.525 -0.5807 -0.2390  0.2192
 2223SOL    HW118131   2.526   3.327   8.501  0.7703 -0.9482 -0.0538
 2223SOL    HW218132   2.542   3.191   8.466 -0.6476 -0.3496  0.2540
 2224SOL     OW18133   0.557   2.351   8.211 -0.3951  0.1740 -0.5454
 2224SOL    HW118134   0.604   2.402   8.144 -0.4773 -1.2697 -1.7054
 2224SOL    HW218135   0.563   2.263   8.173 -2.9673 -0.5532  0.7700
 2225SOL     OW18136   1.884   3.055   5.122  0.0530  1.0699 -0.1126
 2225SOL    HW118137   1.839   3.134   5.093  0.9089  2.1362  1.5041
 2225SOL    HW218138   1.818   3.036   5.190  1.1120  3.0809  1.4755
 2226SOL     OW18139   0.221   0.501   5.735  0.0665  0.3907 -0.1673
 2226SOL    HW118140   0.200   0.452   5.656  0.4403  0.1110 -0.0910
 2226SOL    HW218141   0.276   0.440   5.783 -0.3336 -0.2807 -0.5675
 2227SOL     OW18142   3.226   1.859   6.539  0.5396 -0.2176 -0.4801
 2227SOL    HW118143   3.288   1.841   6.469 -1.5764 -0.0110 -2.4059
 2227SOL    HW218144   3.283   1.825   6.608 -0.1463 -2.1871 -0.8848
 2228SOL     OW18145   4.241   4.060  13.845 -0.2067 -0.2411 -0.0579
 2228SOL    HW118146   4.210   3.970  13.833  1.7427 -1.0745  1.1424
 2228SOL    HW218147   4.198   4.104  13.771 -0.6920 -0.8836 -0.1575
 2229SOL     OW18148   4.212   1.259   3.731  0.1675 -0.5091  0.4272
 2229SOL    HW118149   4.267   1.197   3.682  0.7886  0.2917  0.1225
 2229SOL    HW218150   4.270   1.268   3.806  1.0225 -1.5546 -0.1092
 2230SOL     OW18151   3.555   0.212   6.223  0.1143  0.3050  0.4645
 2230SOL    HW118152   3.570   0.307   6.221 -0.3647  0.3588 -0.4366
 2230SOL    HW218153   3.602   0.175   6.298 -0.5959 -1.4655  0.0161
 2231SOL     OW18154   3.200   2.384   7.292 -0.0738  0.3550  0.6022
 2231SOL    HW118155   3.241   2.426   7.367 -2.3674  1.2799  1.3597
 2231SOL    HW218156   3.207   2.457   7.230  1.0300 -0.1763  0.1048
 2232SOL     OW18157   4.712   4.416  10.037  0.0822 -0.1192  0.0362
 2232SOL    HW118158   0.066   4.473  10.023 -1.8588  1.9270 -2.1662
 2232SOL    HW218159   4.708   4.392  10.129 -0.5382 -2.9059 -0.7039
 2233SOL     OW18160   0.061   1.281   6.084 -0.1340  0.2749  0.0574
 2233SOL    HW118161   0.138   1.253   6.134 -0.2044 -0.5548 -0.3179
 2233SOL    HW218162   0.020   1.195   6.083  2.3174 -0.8833 -1.1050
 2234SOL     OW18163   2.764   4.225   3.173  0.6776 -0.1896 -0.0333
 2234SOL    HW118164   2.791   4.304   3.126  0.4140 -0.3440 -0.4441
 2234SOL    HW218165   2.719   4.171   3.108  3.9187 -1.7639 -1.0030
 2235SOL     OW18166   4.534   1.167   6.521  0.3903 -0.1778 -0.0320
 2235SOL    HW118167   4.627   1.165   6.542  0.3670  0.8486  0.1676
 2235SOL    HW218168   4.496   1.101   6.578 -0.9474  0.1433 -0.5417
 2236SOL     OW18169   0.597   0.532  16.549 -0.0105 -0.3852 -0.5638
 2236SOL    HW118170   0.572   0.550  16.640 -0.1884 -2.5985 -0.1694
 2236SOL    HW218171   0.606   0.619  16.511  1.5531 -0.6745 -0.8430
 2237SOL     OW18172   0.669   1.863   5.407 -0.1537  0.4890 -0.4182
 2237SOL    HW118173   0.602   1.837   5.469 -0.2076 -0.2426 -0.7878
 2237SOL    HW218174   0.722   1.784   5.408  0.2187  0.7198 -1.2147
 2238SOL     OW18175   3.433   2.458   5.737  0.5524 -0.2906  0.1481
 2238SOL    HW118176   3.379   2.396   5.688 -1.1149 -0.1976  1.8567
 2238SOL    HW218177   3.384   2.538   5.716  0.9873  0.0611  0.4592
 2239SOL     OW18178   2.716   1.652   9.645  0.4453  0.5831  0.1553
 2239SOL    HW118179   2.671   1.671   9.727  1.1047 -1.1584  0.9257
 2239SOL    HW218180   2.770   1.730   9.633  1.2309  0.0992  0.5607
 2240SOL     OW18181   0.533   2.626   2.501  0.7218 -0.1289  0.2007
 2240SOL    HW118182   0.440   2.645   2.510  0.3468 -0.7275 -2.4005
 2240SOL    HW218183   0.545   2.688   2.429 -1.2900 -0.0073 -0.0252
 2241SOL     OW18184   0.234   0.742   7.995 -0.0223 -0.1954 -0.4615
 2241SOL    HW118185   0.186   0.819   8.024  2.6251  1.4292 -0.4074
 2241SOL    HW218186   0.231   0.756   7.900  0.9232  0.0201 -0.4661
 2242SOL     OW18187   2.366   1.684   4.497  0.1695  0.4628  0.3133
 2242SOL    HW118188   2.272   1.664   4.499  0.0256  0.9241 -2.5249
 2242SOL    HW218189   2.401   1.610   4.448  1.9302 -0.2254  2.6302
 2243SOL     OW18190   0.063   3.181  16.932 -0.0819  1.2905 -0.5563
 2243SOL    HW118191   0.129   3.113  16.918 -0.2596  0.8913  0.4913
 2243SOL    HW218192   0.085   3.238  16.859 -1.6020  0.9503 -1.2729
 2244SOL     OW18193   3.366   3.076  15.925  0.0697 -0.2933 -0.6991
 2244SOL    HW118194   3.327   3.153  15.967  0.8880  0.3181 -1.0553
 2244SOL    HW218195   3.282   3.038  15.900  0.1413  0.4584 -2.1055
 2245SOL     OW18196   1.092   3.955   4.065 -0.5515  0.2565  0.1665
 2245SOL    HW118197   1.072   3.932   4.155 -1.4337 -0.1499 -0.1288
 2245SOL    HW218198   1.115   3.873   4.021  1.5453  0.1942  1.4232
 2246SOL     OW18199   2.475   4.424  13.965 -0.2328 -0.0059 -0.7743
 2246SOL    HW118200   2.571   4.418  13.963 -0.2437 -0.2575 -0.4490
 2246SOL    HW218201   2.460   4.473  13.884  0.3558  0.8543 -0.3632
 2247SOL     OW18202   0.373   4.493   1.882 -0.1632  0.0218  0.0700
 2247SOL    HW118203   0.333   4.418   1.837 -1.1417  0.9852 -0.6699
 2247SOL    HW218204   0.300   4.532   1.929  0.2435  3.2445 -1.9341
 2248SOL     OW18205   3.511   2.193   1.049  0.2063  0.2508  0.2721
 2248SOL    HW118206   3.569   2.127   1.011  0.4987  0.5718  0.1579
 2248SOL    HW218207   3.464   2.133   1.107 -0.4153  0.1522 -0.3324
 2249SOL     OW18208   1.375   1.932   6.607  0.0574  0.0985 -0.2104
 2249SOL    HW118209   1.284   1.957   6.587  0.1584  0.6699  0.0345
 2249SOL    HW218210   1.388   1.845   6.570  0.2317  0.8616 -1.9341
 2250SOL     OW18211   3.809   2.023  15.792  0.0447 -0.0916 -0.0898
 2250SOL    HW118212   3.785   2.058  15.706 -1.1252 -0.0183  0.2674
 2250SOL    HW218213   3.779   1.933  15.778 -0.6048 -0.1633  1.8131
 2251SOL     OW18214   2.173   2.127   1.202 -0.3398  0.4829  0.0083
 2251SOL    HW118215   2.223   2.203   1.234  1.2941 -0.0427 -1.2874
 2251SOL    HW218216   2.094   2.175   1.175 -0.3044  0.9580  0.7314
 2252SOL     OW18217   0.104   2.225   4.525 -0.5583  0.6183 -0.1568
 2252SOL    HW118218   0.197   2.223   4.546 -0.4255  0.7530 -0.7132
 2252SOL    HW218219   0.065   2.197   4.607 -1.0117 -2.4227 -1.4102
 2253SOL     OW18220   4.677   3.112   7.003 -0.5441 -0.1222 -0.3223
 2253SOL    HW118221   4.673   3.017   7.010 -2.1359  0.1237  2.5146
 2253SOL    HW218222   4.602   3.132   6.947 -0.1489 -0.2128 -0.8715
 2254SOL     OW18223   2.505   0.053   8.092  0.7032 -0.7160 -0.1865
 2254SOL    HW118224   2.509   0.127   8.032 -0.5237 -0.7837 -0.3483
 2254SOL    HW218225   2.597   0.031   8.109  1.1898  1.8854  0.4768
 2255SOL     OW18226   3.576   0.620   1.910 -0.0266 -0.1485  0.3155
 2255SOL    HW118227   3.650   0.677   1.889  0.6361 -0.3746  1.9911
 2255SOL    HW218228   3.550   0.591   1.823 -0.7649  0.6272  0.2797
 2256SOL     OW18229   1.627   3.440   5.562  0.4318  0.1226 -0.1738
 2256SOL    HW118230   1.613   3.385   5.485 -3.8992  2.7438 -1.2609
 2256SOL    HW218231   1.564   3.506   5.535 -0.1300  0.4421  1.9285
 2257SOL     OW18232   3.459   1.708   3.227  0.3978  0.3746 -0.2367
 2257SOL    HW118233   3.418   1.732   3.144 -2.1332 -1.7864  0.4200
 2257SOL    HW218234   3.550   1.697   3.199  0.9390  0.1363  1.6423
 2258SOL     OW18235   1.749   2.314  15.021  0.0269  0.1636  0.8282
 2258SOL    HW118236   1.663   2.275  15.005  0.6759 -0.9018 -0.0577
 2258SOL    HW218237   1.771   2.264  15.101  0.5977  0.6693  0.9867
 2259SOL     OW18238   4.172   4.040  17.027 -0.4450 -0.8305 -0.4713
 2259SOL    HW118239   4.167   3.988  16.947 -1.3986 -0.5469 -0.5870
 2259SOL    HW218240   4.157   4.121  16.980 -0.5887 -0.4690  0.2089
 2260SOL     OW18241   0.898   4.050   5.791  0.1507  0.7903  0.1882
 2260SOL    HW118242   0.865   4.140   5.786 -0.5971  0.6779  3.0182
 2260SOL    HW218243   0.835   4.019   5.855 -0.2258 -0.0293 -0.5772
 2261SOL     OW18244   0.879   1.997   8.433  0.3106  0.0295  0.1284
 2261SOL    HW118245   0.807   1.935   8.442  1.2527 -1.1658 -0.6890
 2261SOL    HW218246   0.825   2.072   8.407  0.6272 -0.4040 -1.7296
 2262SOL     OW18247   0.674   2.129  16.641 -0.0043  0.3300  0.6334
 2262SOL    HW118248   0.664   2.191  16.569 -0.8298 -1.8291 -1.1034
 2262SOL    HW218249   0.618   2.170  16.708 -2.1188 -1.7884  0.1407
 2263SOL     OW18250   3.942   3.640   5.373  0.0490 -0.6889  0.1207
 2263SOL    HW118251   3.898   3.724   5.383 -2.5486 -2.1242  0.7613
 2263SOL    HW218252   4.000   3.662   5.300  1.0681 -2.7986  0.2863
 2264SOL     OW18253   0.208   2.056  10.481 -0.0622  0.0813  0.2734
 2264SOL    HW118254   0.267   2.126  10.451 -0.9124 -0.5303 -2.8149
 2264SOL    HW218255   0.159   2.105  10.547  0.3345 -2.7012  2.6303
 2265SOL     OW18256   3.915   2.842   7.986 -0.7036 -0.2339 -0.0240
 2265SOL    HW118257   3.838   2.879   7.943  0.1668  2.1396  0.4455
 2265SOL    HW218258   3.876   2.866   8.070  0.7559 -1.1435  0.9124
 2266SOL     OW18259   2.191   4.412  13.372  0.0481 -0.3337 -0.1704
 2266SOL    HW118260   2.131   4.430  13.299 -0.0275  1.8034  0.4288
 2266SOL    HW218261   2.268   4.375  13.329  0.6009  0.3118  0.2653
 2267SOL     OW18262   2.885   0.684   7.039  0.1262  0.1775 -0.2690
 2267SOL    HW118263   2.850   0.643   7.118 -0.2228  1.7333  0.3874
 2267SOL    HW218264   2.978   0.672   7.058 -0.8554 -0.9399  3.7219
 2268SOL     OW18265   2.383   1.414   7.088 -0.0446 -0.0300  0.2943
 2268SOL    HW118266   2.473   1.386   7.069 -0.2066 -1.7625  2.1799
 2268SOL    HW218267   2.391   1.508   7.070  0.4840  0.4234  2.9096
 2269SOL     OW18268   3.956   1.236  17.260 -0.0869 -0.4505  0.1855
 2269SOL    HW118269   3.966   1.330  17.274 -0.2525 -0.6632  1.7113
 2269SOL    HW218270   4.036   1.209  17.305  0.6124  3.2356  1.2047
 2270SOL     OW18271   2.232   0.177  13.130  0.0885 -0.4625  0.2132
 2270SOL    HW118272   2.185   0.248  13.174  0.7845  1.8915 -2.8685
 2270SOL    HW218273   2.172   0.103  13.141 -0.8195  0.0972 -0.9975
 2271SOL     OW18274   1.053   2.431   5.272  0.7697 -0.2298 -0.1748
 2271SOL    HW118275   1.006   2.438   5.355  0.0214 -0.8893 -0.5450
 2271SOL    HW218276   1.137   2.473   5.294  0.9493 -1.7623  2.0816
 2272SOL     OW18277   3.339   1.186  17.223  0.4076  0.1619  0.1731
 2272SOL    HW118278   3.301   1.265  17.184  1.0814  1.2429  1.7033
 2272SOL    HW218279   3.401   1.218  17.289  2.3045 -1.3766 -0.8658
 2273SOL     OW18280   0.948   1.189   6.680 -0.3853 -0.0451 -0.3535
 2273SOL    HW118281   0.975   1.258   6.620  0.3533  0.0496  0.0943
 2273SOL    HW218282   0.912   1.250   6.744  2.6684  1.7299 -0.3426
 2274SOL     OW18283   4.594   4.087  10.865  0.0333  0.2277 -0.1803
 2274SOL    HW118284   4.523   4.029  10.836 -1.1812  2.2187 -1.2252
 2274SOL    HW218285   4.537   4.162  10.884  2.1695  1.3026  1.9552
 2275SOL     OW18286   2.738   1.337  11.186 -0.1864 -0.3642  0.2921
 2275SOL    HW118287   2.829   1.346  11.160 -0.3260  1.7996  0.5302
 2275SOL    HW218288   2.744   1.381  11.271 -3.0897 -2.1593  1.4279
 2276SOL     OW18289   4.096   3.234   1.872  0.1784 -0.4388  1.1207
 2276SOL    HW118290   4.068   3.144   1.855  0.9109 -0.4905  0.1629
 2276SOL    HW218291   4.027   3.292   1.840 -0.7673 -2.5591 -0.6287
 2277SOL     OW18292   1.518   4.378  16.689 -0.1947 -0.4020  0.4483
 2277SOL    HW118293   1.507   4.436  16.765 -0.3603  0.1237  0.0197
 2277SOL    HW218294   1.472   4.426  16.621 -0.8447  0.3514  1.4116
 2278SOL     OW18295   0.073   0.960   3.147 -0.6629 -0.3058 -0.1069
 2278SOL    HW118296   0.050   0.869   3.128  2.0030 -0.3920 -2.9566
 2278SOL    HW218297   0.016   1.004   3.084 -3.2463 -2.9677  0.3439
 2279SOL     OW18298   3.239   0.690  17.319  0.1634  0.0888  0.1367
 2279SOL    HW118299   3.187   0.642  17.255 -1.6176  0.6721  1.1242
 2279SOL    HW218300   3.286   0.757  17.269 -0.5654  0.6922  0.2613
 2280SOL     OW18301   2.959   0.782   8.955 -0.1739 -0.2102  0.0651
 2280SOL    HW118302   2.868   0.799   8.930 -0.2833 -0.6126  0.1980
 2280SOL    HW218303   2.941   0.689   8.967 -1.9677  0.2320  0.7532
 2281SOL     OW18304   4.017   1.261   4.349  0.3280 -0.2631  0.2064
 2281SOL    HW118305   3.922   1.249   4.346  0.0987  1.5999  0.5463
 2281SOL    HW218306   4.036   1.286   4.258 -0.1536  0.2060  0.2370
 2282SOL     OW18307   0.079   3.458   4.562 -0.0307 -0.0676 -0.0989
 2282SOL    HW118308   0.038   3.406   4.632  0.5064 -0.6009 -0.1782
 2282SOL    HW218309   0.164   3.414   4.560 -0.0496 -0.1778  1.5331
 2283SOL     OW18310   0.380   1.130   9.614  0.0937 -0.0451 -0.3294
 2283SOL    HW118311   0.426   1.107   9.533 -0.8604 -0.9715 -0.6065
 2283SOL    HW218312   0.388   1.047   9.661  3.0365 -0.3139 -1.2677
 2284SOL     OW18313   0.170   1.420   5.670  0.0714  0.0484  0.2421
 2284SOL    HW118314   0.240   1.377   5.620 -0.2083 -0.3042  0.1549
 2284SOL    HW218315   0.219   1.455   5.745  1.8550 -0.8720 -0.4806
 2285SOL     OW18316   2.881   2.594   2.794 -0.5645 -0.1764  0.5009
 2285SOL    HW118317   2.898   2.509   2.833 -1.7844 -0.5970  0.1148
 2285SOL    HW218318   2.972   2.624   2.794 -0.3232 -0.9118  0.6006
 2286SOL     OW18319   3.752   3.602   8.472 -0.7076  0.4132  0.4071
 2286SOL    HW118320   3.798   3.521   8.492 -0.5603  0.0320 -1.5515
 2286SOL    HW218321   3.813   3.632   8.405  0.6039 -0.3589  1.2515
 2287SOL     OW18322   0.031   3.642  10.812 -0.1086 -0.0067  0.5237
 2287SOL    HW118323   0.086   3.566  10.793  0.1567  0.7248 -1.5351
 2287SOL    HW218324   0.092   3.705  10.774  0.1662  0.2126  1.3121
 2288SOL     OW18325   1.585   4.092  13.648  0.0390  0.3641  0.3416
 2288SOL    HW118326   1.581   4.176  13.603 -0.1425  0.0109 -0.3018
 2288SOL    HW218327   1.588   4.127  13.737  3.5469  0.5738  0.1442
 2289SOL     OW18328   2.114   1.976   3.867 -0.4395  0.0798 -0.0724
 2289SOL    HW118329   2.032   1.977   3.916  0.9734 -1.8674  2.3729
 2289SOL    HW218330   2.162   1.989   3.949  0.3019  0.5686 -0.5864
 2290SOL     OW18331   0.714   4.607   4.172 -0.2716  0.4752  0.0572
 2290SOL    HW118332   0.636   4.551   4.172 -1.9550  2.8282 -0.0922
 2290SOL    HW218333   0.768   4.559   4.110  2.0756  0.1600  2.3643
 2291SOL     OW18334   3.578   0.651   6.543  0.0881  0.5924 -0.3392
 2291SOL    HW118335   3.528   0.732   6.531 -0.6361 -0.0040 -1.3636
 2291SOL    HW218336   3.578   0.648   6.638  1.2489  0.4616 -0.3414
 2292SOL     OW18337   3.008   3.558   7.079 -0.3187  0.2000  0.2666
 2292SOL    HW118338   3.094   3.525   7.107 -0.3300  1.4437  1.7254
 2292SOL    HW218339   2.942   3.511   7.131  0.1593  1.0197  1.6043
 2293SOL     OW18340   0.490   4.180   6.640 -0.2544 -0.7270 -0.0937
 2293SOL    HW118341   0.417   4.216   6.589 -1.8801 -3.4956  0.3007
 2293SOL    HW218342   0.460   4.090   6.654  1.8424 -1.1233  1.7987
 2294SOL     OW18343   4.064   1.442   4.123 -0.1173 -0.3607  0.3069
 2294SOL    HW118344   4.026   1.492   4.051 -0.5909  0.0729  0.8592
 2294SOL    HW218345   4.063   1.509   4.191 -1.0512  1.3392 -1.3992
 2295SOL     OW18346   0.390   3.323  10.560 -0.2385 -0.2343  0.3273
 2295SOL    HW118347   0.448   3.385  10.603  0.0368  0.3200 -0.8476
 2295SOL    HW218348   0.431   3.243  10.593  0.2659  0.8335  2.3140
 2296SOL     OW18349   1.306   2.299  17.161  0.6598 -0.1589  0.0902
 2296SOL    HW118350   1.246   2.228  17.184  0.3659 -0.2484 -0.9930
 2296SOL    HW218351   1.256   2.356  17.104 -2.9848 -0.8358  2.5997
 2297SOL     OW18352   4.176   2.062   3.806  0.7316 -0.2843  0.0657
 2297SOL    HW118353   4.090   2.103   3.801  0.3641 -1.0779 -0.1124
 2297SOL    HW218354   4.233   2.134   3.833  2.0251 -1.2483 -0.0587
 2298SOL     OW18355   0.283   3.298  12.342 -0.3773  0.4356  0.3412
 2298SOL    HW118356   0.224   3.372  12.336 -0.6600  0.3256  1.6772
 2298SOL    HW218357   0.315   3.297  12.252  0.9671  0.0294  0.8144
 2299SOL     OW18358   4.716   2.460   4.987 -0.1795 -0.3339 -0.1270
 2299SOL    HW118359   4.670   2.531   5.032  0.1690  1.0301 -1.9100
 2299SOL    HW218360   0.034   2.416   5.062  0.3389 -1.8742 -1.2942
 2300SOL     OW18361   0.369   4.231  11.432  0.1497 -0.0367  0.2785
 2300SOL    HW118362   0.313   4.309  11.437  1.9583  1.1256  2.2246
 2300SOL    HW218363   0.342   4.171  11.363 -3.6647  0.0512  1.6601
 2301SOL     OW18364   2.705   0.567   2.953 -0.8568  0.0170 -0.5698
 2301SOL    HW118365   2.644   0.514   3.004  1.7719 -1.8037  0.7240
 2301SOL    HW218366   2.785   0.563   3.006 -0.7804 -0.6249 -0.7364
 2302SOL     OW18367   2.974   4.161  15.604 -0.1506  0.3626 -0.4442
 2302SOL    HW118368   2.924   4.227  15.557  0.0938  1.6997  1.1439
 2302SOL    HW218369   2.908   4.097  15.628 -0.8701  1.0872 -0.5070
 2303SOL     OW18370   3.911   1.455   6.274 -0.2040  0.0629  0.0287
 2303SOL    HW118371   3.953   1.448   6.189  1.9257 -1.6422  1.2170
 2303SOL    HW218372   3.820   1.464   6.246  0.5284 -0.4399 -2.5018
 2304SOL     OW18373   0.480   1.336   6.067  0.2164 -0.0278 -0.4949
 2304SOL    HW118374   0.526   1.292   6.140  2.1247  1.9120 -0.5362
 2304SOL    HW218375   0.423   1.261   6.052  0.1620 -0.2676  0.8724
 2305SOL     OW18376   2.467   3.356   6.910  0.1929  0.4310 -0.5317
 2305SOL    HW118377   2.447   3.431   6.854 -1.1953  1.2368  1.0339
 2305SOL    HW218378   2.561   3.345   6.896 -0.0047 -2.2493  0.2291
 2306SOL     OW18379   0.198   3.800  10.678  0.3750  0.2058  0.3009
 2306SOL    HW118380   0.294   3.808  10.679  0.3906 -0.0254  0.7475
 2306SOL    HW218381   0.178   3.875  10.621 -0.8491 -1.6244 -1.6490
 2307SOL     OW18382   1.541   1.797  15.890  0.1161 -0.5882 -0.2268
 2307SOL    HW118383   1.559   1.873  15.945  2.4625 -0.8463 -0.6627
 2307SOL    HW218384   1.457   1.773  15.930  0.4613  0.3972  1.0650
 2308SOL     OW18385   3.660   3.371   6.305  0.6867  0.2043 -0.5576
 2308SOL    HW118386   3.568   3.361   6.283  0.4686  2.5159 -0.6153
 2308SOL    HW218387   3.666   3.462   6.332  0.6388  0.2151 -0.5834
 2309SOL     OW18388   4.576   3.021   2.627  0.0108 -0.2683 -0.2235
 2309SOL    HW118389   4.542   3.036   2.715 -2.4962 -3.4375 -0.6582
 2309SOL    HW218390   4.615   2.934   2.629  0.6065 -0.0323 -1.2330
 2310SOL     OW18391   0.133   0.563   4.365 -0.2633  0.1811  0.0662
 2310SOL    HW118392   0.064   0.523   4.311 -0.5949  1.7926 -0.7100
 2310SOL    HW218393   0.129   0.656   4.343  3.8077  0.1505 -0.8378
 2311SOL     OW18394   2.117   4.021   8.769 -0.1083  0.0382  1.0642
 2311SOL    HW118395   2.111   4.090   8.835  0.1521  0.1503  0.9705
 2311SOL    HW218396   2.204   3.992   8.794 -0.6251 -1.4934  1.0942
 2312SOL     OW18397   0.536   3.629  15.234  0.0338 -0.3881  0.0523
 2312SOL    HW118398   0.498   3.691  15.171  0.8226  1.4441  1.3957
 2312SOL    HW218399   0.455   3.604  15.277  0.6436  1.0446  2.0100
 2313SOL     OW18400   2.367   2.792   5.993 -0.7737  0.0310 -0.1914
 2313SOL    HW118401   2.364   2.885   6.015  1.9148  0.7137 -2.6421
 2313SOL    HW218402   2.279   2.766   6.021 -0.5241  1.2897  1.7546
 2314SOL     OW18403   1.078   4.709   3.276  0.3554  0.6188  0.1147
 2314SOL    HW118404   1.161   0.027   3.304  1.6759 -1.3912 -0.8469
 2314SOL    HW218405   1.071   0.025   3.188 -1.3154  2.4106  1.0205
 2315SOL     OW18406   0.568   0.814   9.226 -0.0425  0.2095 -0.3354
 2315SOL    HW118407   0.653   0.787   9.259 -0.5979 -2.9679 -1.4288
 2315SOL    HW218408   0.600   0.836   9.138 -1.2482  1.5603 -0.4332
 2316SOL     OW18409   1.122   3.244   7.802  0.5780  0.2236 -0.3206
 2316SOL    HW118410   1.157   3.170   7.752 -0.4678 -0.5628  0.1255
 2316SOL    HW218411   1.055   3.202   7.855  0.5275  0.4196 -0.2263
 2317SOL     OW18412   0.830   4.529   8.780  0.3472  1.0860  0.5954
 2317SOL    HW118413   0.814   4.473   8.703 -0.4711  1.3758  0.5577
 2317SOL    HW218414   0.870   4.602   8.732  0.7041  1.0631  0.8598
 2318SOL     OW18415   4.436   0.428   8.919  0.2082 -0.2655 -0.4052
 2318SOL    HW118416   4.425   0.508   8.971 -1.5149 -1.1611  0.6314
 2318SOL    HW218417   4.497   0.466   8.856  0.2659  1.9303  0.9910
 2319SOL     OW18418   1.964   2.635   3.442 -0.0837 -0.4785 -0.1296
 2319SOL    HW118419   1.987   2.702   3.378  1.6385 -0.6824  0.2666
 2319SOL    HW218420   1.874   2.664   3.457  0.2821 -0.9606  3.0465
 2320SOL     OW18421   0.760   0.985  15.574  0.0987  0.1485  0.3697
 2320SOL    HW118422   0.771   1.017  15.663  1.4384 -1.3288  0.7254
 2320SOL    HW218423   0.710   1.054  15.529 -0.5656 -1.2643 -1.0670
 2321SOL     OW18424   0.043   4.282  10.813  0.1994  0.0600 -0.3307
 2321SOL    HW118425   4.673   4.255  10.818 -0.0289  1.0931  1.0081
 2321SOL    HW218426   0.084   4.210  10.861 -0.6284 -2.5868 -3.5621
 2322SOL     OW18427   0.302   2.830  11.691 -0.4498 -0.6920  0.2676
 2322SOL    HW118428   0.278   2.919  11.718 -0.5190 -0.6342  0.0174
 2322SOL    HW218429   0.222   2.795  11.653 -1.3551  1.2586  0.3621
 2323SOL     OW18430   4.421   2.768  14.881  0.0221  0.2425  0.0489
 2323SOL    HW118431   4.395   2.713  14.954 -0.7476  0.0595 -0.3673
 2323SOL    HW218432   4.376   2.712  14.818 -2.0978  2.1534 -0.1432
 2324SOL     OW18433   4.469   3.801   6.652  0.7306 -0.4935  0.0420
 2324SOL    HW118434   4.458   3.759   6.737  2.3524 -1.3328 -0.1696
 2324SOL    HW218435   4.469   3.894   6.675 -2.1239 -0.7592  1.0808
 2325SOL     OW18436   3.395   4.010  12.613  0.3307 -0.6217  0.0108
 2325SOL    HW118437   3.388   4.040  12.522  1.3743  3.8971  1.4280
 2325SOL    HW218438   3.373   3.918  12.599 -1.0234  0.4229 -4.8499
 2326SOL     OW18439   0.417   1.784  14.875  0.3607  0.9427 -0.2465
 2326SOL    HW118440   0.458   1.828  14.949 -1.6484  0.8658  0.9041
 2326SOL    HW218441   0.442   1.844  14.804  1.2865 -1.5632 -2.0603
 2327SOL     OW18442   1.051   1.845   9.106  0.1481  0.1231 -0.2733
 2327SOL    HW118443   1.114   1.832   9.176  0.5305 -0.2217 -0.6841
 2327SOL    HW218444   1.002   1.914   9.151  1.4919 -0.6183  2.3102
 2328SOL     OW18445   3.329   3.454   4.981  0.5274 -0.2038  0.1753
 2328SOL    HW118446   3.267   3.490   4.918  0.5037  2.2257  1.5822
 2328SOL    HW218447   3.386   3.414   4.916 -0.8058 -3.3794  0.9792
 2329SOL     OW18448   4.219   1.529   7.786  0.0849  0.3251 -0.5334
 2329SOL    HW118449   4.190   1.562   7.870 -0.3507  0.1570 -0.6209
 2329SOL    HW218450   4.245   1.440   7.809 -3.0244 -0.0119  1.5645
 2330SOL     OW18451   0.955   3.129   7.978  0.0144 -0.3033  0.5263
 2330SOL    HW118452   0.927   3.199   8.037 -0.1216 -1.6755  2.0816
 2330SOL    HW218453   0.871   3.091   7.951 -1.0294  1.1555  1.7059
 2331SOL     OW18454   0.869   4.531  15.062 -0.8926  0.0457 -0.5102
 2331SOL    HW118455   0.805   4.579  15.010 -1.3430 -0.4339 -0.3954
 2331SOL    HW218456   0.813   4.471  15.111  1.2171 -0.5051  1.2665
 2332SOL     OW18457   3.797   0.309   2.277 -0.4413 -0.2156 -0.1283
 2332SOL    HW118458   3.788   0.344   2.189 -0.7793 -0.1825 -0.0823
 2332SOL    HW218459   3.875   0.255   2.275 -0.6478 -0.4957 -0.6327
 2333SOL     OW18460   0.747   2.614   3.813 -0.4527 -0.6678  0.0943
 2333SOL    HW118461   0.655   2.642   3.816 -0.0896  0.4091  1.2579
 2333SOL    HW218462   0.752   2.560   3.734 -0.6889  1.5784 -1.4532
 2334SOL     OW18463   3.501   2.620   4.042 -0.6287  0.5984  0.3586
 2334SOL    HW118464   3.477   2.650   4.130 -1.7302 -1.4819  0.7544
 2334SOL    HW218465   3.588   2.584   4.058 -0.8923  0.2963  1.1503
 2335SOL     OW18466   0.973   1.699   0.519 -0.1027 -0.3074 -0.4884
 2335SOL    HW118467   1.057   1.661   0.546 -0.8325  0.3647  2.7000
 2335SOL    HW218468   0.915   1.656   0.582 -0.2572 -1.1807 -1.2239
 2336SOL     OW18469   4.025   3.602  17.326 -0.1039  0.6697  0.1086
 2336SOL    HW118470   4.068   3.602  17.241 -2.4663  0.3101 -1.0773
 2336SOL    HW218471   4.000   3.510  17.336  1.5505  0.0371 -1.5674
 2337SOL     OW18472   1.819   0.305   0.014  0.3755  0.4317 -0.3604
 2337SOL    HW118473   1.853   0.245   0.081  0.0243  1.6230  0.8903
 2337SOL    HW218474   1.739   0.337   0.055 -1.2447 -3.0989 -0.8625
 2338SOL     OW18475   1.681   3.701   7.662  0.1554 -0.2711 -0.3404
 2338SOL    HW118476   1.687   3.608   7.682 -0.0535 -0.2870 -0.3481
 2338SOL    HW218477   1.593   3.713   7.699  1.2155  0.7692  1.8667
 2339SOL     OW18478   4.543   0.967   4.114 -0.0817  0.1217 -0.6645
 2339SOL    HW118479   4.466   0.933   4.069 -0.5161 -1.7908  1.5275
 2339SOL    HW218480   4.608   0.925   4.057 -1.0116  0.4584 -1.9791
 2340SOL     OW18481   3.769   2.305   3.192 -0.0159  0.5849 -0.0793
 2340SOL    HW118482   3.788   2.365   3.120  2.1086 -0.7916 -0.6686
 2340SOL    HW218483   3.755   2.220   3.151  0.4123 -1.0474  3.1088
 2341SOL     OW18484   2.757   1.802   8.387 -0.2760  0.0586  0.2537
 2341SOL    HW118485   2.691   1.828   8.451 -0.5756  0.7447 -0.3215
 2341SOL    HW218486   2.826   1.868   8.397  1.6559 -1.4771 -2.6345
 2342SOL     OW18487   4.189   2.496   1.748 -0.4525  0.5592 -0.0165
 2342SOL    HW118488   4.180   2.582   1.707  0.4428  0.8550  0.4142
 2342SOL    HW218489   4.101   2.461   1.734 -0.4568  0.4839  0.2040
 2343SOL     OW18490   4.317   3.562   1.249 -0.0540  1.0096 -0.3082
 2343SOL    HW118491   4.237   3.613   1.265 -1.0614 -1.4905  2.4892
 2343SOL    HW218492   4.296   3.509   1.172  0.3864 -0.2443  0.4422
 2344SOL     OW18493   2.688   2.919   9.022 -0.5278  0.4757  0.6685
 2344SOL    HW118494   2.691   2.998   9.075  0.1921  1.6961 -1.1769
 2344SOL    HW218495   2.734   2.946   8.942  0.3237  0.3762  1.1243
 2345SOL     OW18496   3.123   2.011   3.753  0.4090  0.0624  0.2884
 2345SOL    HW118497   3.041   1.993   3.799  0.6391 -2.2235 -0.2079
 2345SOL    HW218498   3.161   1.926   3.732 -1.0858 -0.7998  1.0752
 2346SOL     OW18499   2.519   2.747  16.030 -0.2083  0.4062 -0.2150
 2346SOL    HW118500   2.603   2.706  16.050  0.1626  0.1656 -2.2571
 2346SOL    HW218501   2.538   2.785  15.945 -1.3601 -1.8507 -1.4967
 2347SOL     OW18502   4.364   1.447   4.160  0.6839  0.0428  0.5753
 2347SOL    HW118503   4.309   1.518   4.192 -0.8481 -1.6372  1.6880
 2347SOL    HW218504   4.298   1.393   4.116 -0.7780  2.0240  0.3106
 2348SOL     OW18505   1.810   2.132  17.061 -0.4977 -0.1246 -0.1135
 2348SOL    HW118506   1.733   2.143  17.116  0.1376 -3.2501  1.3922
 2348SOL    HW218507   1.870   2.162  17.130 -0.4859 -1.1441  0.3257
 2349SOL     OW18508   3.763   4.354   7.850  0.0304 -0.3327  0.2991
 2349SOL    HW118509   3.790   4.445   7.845  2.5754 -1.3064 -3.2505
 2349SOL    HW218510   3.676   4.363   7.890 -0.0318 -2.2701  0.6299
 2350SOL     OW18511   3.284   3.334   2.762 -0.2256 -0.5266  0.4201
 2350SOL    HW118512   3.276   3.316   2.856 -1.1613 -0.4115  0.3641
 2350SOL    HW218513   3.197   3.318   2.725  0.0635 -1.4140  0.1091
 2351SOL     OW18514   3.248   3.000   6.843 -0.3543 -0.2406  0.2874
 2351SOL    HW118515   3.279   3.090   6.834 -2.4992  0.1601 -2.8790
 2351SOL    HW218516   3.183   3.007   6.913 -0.3851  0.7272  0.1586
 2352SOL     OW18517   1.534   1.072   7.439  0.1393 -0.0897  0.3666
 2352SOL    HW118518   1.494   1.054   7.354 -1.7147 -0.5597  1.3476
 2352SOL    HW218519   1.624   1.083   7.408  0.3509  0.7697  1.2728
 2353SOL     OW18520   2.073   0.911  10.249  0.6184  1.0689  0.1811
 2353SOL    HW118521   2.022   0.980  10.291 -1.6512  0.0875 -0.9081
 2353SOL    HW218522   2.002   0.868  10.201  0.6573 -0.9512  1.9286
 2354SOL     OW18523   1.387   0.810   7.453  0.2557  0.2631  0.7333
 2354SOL    HW118524   1.445   0.858   7.513  1.3601 -0.3522  0.1627
 2354SOL    HW218525   1.300   0.829   7.487 -0.8788 -1.9859 -0.8868
 2355SOL     OW18526   3.664   1.419   5.238  0.3695 -0.1706 -0.2230
 2355SOL    HW118527   3.748   1.424   5.284 -0.0379  0.8208  0.4116
 2355SOL    HW218528   3.674   1.470   5.157 -0.0888  2.0111  1.0955
 2356SOL     OW18529   4.206   4.178   2.788  0.4293 -0.1719 -0.2535
 2356SOL    HW118530   4.267   4.105   2.799  0.5070 -0.1814 -0.7456
 2356SOL    HW218531   4.123   4.131   2.778  0.7472 -0.5135 -1.2730
 2357SOL     OW18532   0.030   0.488   5.470  0.8477 -0.0622 -0.1277
 2357SOL    HW118533   4.691   0.540   5.524  4.0572  3.0627  0.4894
 2357SOL    HW218534   4.705   0.502   5.387 -2.1913 -1.6510  1.3425
 2358SOL     OW18535   0.253   3.918   4.609  0.3142 -0.0419 -0.3713
 2358SOL    HW118536   0.254   4.006   4.646  0.8383 -1.6277  3.3514
 2358SOL    HW218537   0.202   3.881   4.681 -1.0677 -0.0688 -1.3583
 2359SOL     OW18538   0.099   1.402   2.065  0.1179  0.0308  0.3804
 2359SOL    HW118539   0.184   1.420   2.106  0.0571 -0.0126  0.5268
 2359SOL    HW218540   0.052   1.477   2.103 -0.4445 -1.9240  3.5141
 2360SOL     OW18541   0.675   3.118   6.787  0.2428  0.0074  0.3629
 2360SOL    HW118542   0.646   3.177   6.718 -2.3658 -1.3216  0.2980
 2360SOL    HW218543   0.601   3.119   6.848  1.8866 -0.2902  2.3553
 2361SOL     OW18544   0.872   1.774   0.835 -0.4257  0.1553 -0.1661
 2361SOL    HW118545   0.893   1.696   0.784  0.6683 -0.9682  1.9784
 2361SOL    HW218546   0.797   1.740   0.884 -0.3444 -1.5984 -1.2580
 2362SOL     OW18547   0.963   4.119  10.945  0.5512 -0.4078 -0.2499
 2362SOL    HW118548   0.883   4.086  10.986  0.6296  0.1161  0.3201
 2362SOL    HW218549   1.029   4.057  10.975  0.6418 -1.7153 -3.1344
 2363SOL     OW18550   0.808   4.465   2.475  0.5288 -0.4037  0.1387
 2363SOL    HW118551   0.878   4.399   2.473  0.0377 -0.9124 -0.5239
 2363SOL    HW218552   0.869   4.536   2.457  1.4239 -1.3758 -0.7341
 2364SOL     OW18553   1.655   0.265   6.568  0.1462 -0.0831  0.0302
 2364SOL    HW118554   1.712   0.193   6.541  0.7072  1.2891 -2.4427
 2364SOL    HW218555   1.604   0.285   6.490 -1.4300 -2.2050  0.5117
 2365SOL     OW18556   3.766   2.068   3.026  0.6112 -0.0880  0.0096
 2365SOL    HW118557   3.700   2.096   2.962  1.6883  0.5975 -0.7959
 2365SOL    HW218558   3.840   2.118   2.992  1.2174 -0.5190  0.7017
 2366SOL     OW18559   3.688   3.101   6.479  0.2497 -0.1981  0.2454
 2366SOL    HW118560   3.602   3.061   6.492  0.7816 -0.9076  1.4866
 2366SOL    HW218561   3.685   3.106   6.383  2.9343  1.6186  0.2345
 2367SOL     OW18562   2.392   4.123   3.598 -0.3626 -0.0918  0.2990
 2367SOL    HW118563   2.300   4.103   3.581 -0.2287 -1.2939  0.9841
 2367SOL    HW218564   2.379   4.193   3.662 -1.4483 -0.0298 -0.0038
 2368SOL     OW18565   4.028   3.656  16.466 -0.5829  0.1651  0.0479
 2368SOL    HW118566   4.089   3.638  16.394  0.1689 -1.1494  1.0104
 2368SOL    HW218567   4.050   3.577  16.515 -0.9398 -0.1058 -0.2348
 2369SOL     OW18568   2.076   4.721  10.136 -0.9657  0.3588 -0.1901
 2369SOL    HW118569   2.025   4.657  10.086 -0.5264 -1.2036  1.3879
 2369SOL    HW218570   2.038   4.708  10.223 -2.0051 -2.0575 -1.0151
 2370SOL     OW18571   0.854   4.705   8.059 -0.1163 -0.3224 -0.1218
 2370SOL    HW118572   0.861   4.609   8.056  0.8612 -0.2697  0.7160
 2370SOL    HW218573   0.890   0.002   8.145  2.8147 -2.0044 -0.9736
 2371SOL     OW18574   4.205   3.130  17.243 -0.3336 -0.3274  0.8152
 2371SOL    HW118575   4.276   3.080  17.283 -1.7211 -1.7381  1.5220
 2371SOL    HW218576   4.222   3.107  17.152  2.4604  3.0165  0.5241
 2372SOL     OW18577   2.897   2.196   2.559 -0.0715 -0.1866  0.4140
 2372SOL    HW118578   2.886   2.286   2.530 -1.3777 -0.3015  0.5852
 2372SOL    HW218579   2.809   2.168   2.534  0.4177 -0.9317 -0.4582
 2373SOL     OW18580   2.721   0.722   1.134 -0.2954 -0.0982  0.4092
 2373SOL    HW118581   2.738   0.775   1.211  0.8307 -0.2993  0.2896
 2373SOL    HW218582   2.656   0.776   1.088 -2.5876 -2.5725  0.6969
 2374SOL     OW18583   3.500   0.475  13.165  0.3397 -0.0815 -0.3362
 2374SOL    HW118584   3.555   0.486  13.242  0.5068 -1.8955 -0.2002
 2374SOL    HW218585   3.525   0.551  13.111  0.4141  2.2093  2.9055
 2375SOL     OW18586   2.184   1.774   7.759 -0.5798  0.1741  0.0723
 2375SOL    HW118587   2.133   1.799   7.836  0.3232 -1.2602  1.1281
 2375SOL    HW218588   2.137   1.696   7.730  0.7599 -0.6785  0.2137
 2376SOL     OW18589   0.052   4.279  11.854  0.1748 -0.7980 -0.1862
 2376SOL    HW118590   0.146   4.297  11.856  0.4549 -2.3777  0.5987
 2376SOL    HW218591   0.030   4.335  11.780  1.8754 -0.6049 -0.5567
 2377SOL     OW18592   3.781   1.028  13.112 -0.5762 -0.4271  0.3877
 2377SOL    HW118593   3.694   1.028  13.073  0.3880  1.1286 -1.7093
 2377SOL    HW218594   3.840   1.044  13.039 -0.6347  0.8505  0.6178
 2378SOL     OW18595   4.118   3.070  13.486 -0.1583 -0.3705  0.5974
 2378SOL    HW118596   4.133   2.980  13.515  0.6996 -0.2192  0.6328
 2378SOL    HW218597   4.029   3.098  13.504  0.3530  0.7853  1.3270
 2379SOL     OW18598   0.897   3.401  10.475 -0.4141 -0.3025 -1.0148
 2379SOL    HW118599   0.865   3.401  10.565  0.3404  3.1323 -0.7313
 2379SOL    HW218600   0.857   3.484  10.448 -0.9753  0.6556  2.7675
 2380SOL     OW18601   2.558   3.415   4.058 -0.1346  0.2677 -0.1708
 2380SOL    HW118602   2.564   3.465   4.139  2.2807 -1.9385  0.9889
 2380SOL    HW218603   2.524   3.476   3.993  0.9488 -0.2861 -1.2554
 2381SOL     OW18604   0.510   0.678   6.736  0.0668 -0.1482 -0.1509
 2381SOL    HW118605   0.520   0.638   6.823  0.3286  0.8632  0.2877
 2381SOL    HW218606   0.486   0.766   6.765  2.4550  0.2555  0.6262
 2382SOL     OW18607   2.478   4.604   7.456  0.1049  0.3278 -0.9266
 2382SOL    HW118608   2.416   4.674   7.438  2.3862  2.5294 -0.2568
 2382SOL    HW218609   2.429   4.546   7.515  1.4272  0.0162 -0.1406
 2383SOL     OW18610   3.659   3.119   6.898 -0.0761  0.2961  0.4293
 2383SOL    HW118611   3.691   3.210   6.900 -2.9018  1.2820  0.8848
 2383SOL    HW218612   3.586   3.142   6.841 -0.9395 -2.7826  0.3261
 2384SOL     OW18613   4.575   1.621   8.114 -0.4434 -0.7042 -0.2342
 2384SOL    HW118614   4.559   1.640   8.021 -0.0397 -1.2878 -0.4197
 2384SOL    HW218615   4.547   1.530   8.119  1.0427 -1.1590 -0.3303
 2385SOL     OW18616   0.486   2.388   7.210 -0.3453  0.9910 -0.3562
 2385SOL    HW118617   0.436   2.317   7.169 -2.1927  0.3909  2.9250
 2385SOL    HW218618   0.438   2.392   7.292  2.1265  0.6337  1.1014
 2386SOL     OW18619   2.997   1.824   9.057 -0.2058 -0.1997  0.0915
 2386SOL    HW118620   2.931   1.809   9.125  1.0584 -1.6948  0.9971
 2386SOL    HW218621   2.954   1.888   9.001 -1.4532 -1.0184  0.1038
 2387SOL     OW18622   2.588   0.203  12.566 -0.1699 -0.4157  0.3788
 2387SOL    HW118623   2.643   0.216  12.644 -1.1891  2.5634  0.6229
 2387SOL    HW218624   2.663   0.218  12.509  1.6921  0.7753  3.1349
 2388SOL     OW18625   4.105   4.361   5.045  0.2888  0.6166 -0.4905
 2388SOL    HW118626   4.170   4.354   5.115  0.7028 -1.6316 -1.1027
 2388SOL    HW218627   4.073   4.451   5.044 -1.7377 -0.1097  0.0374
 2389SOL     OW18628   2.276   2.142   6.432  0.3565 -0.4724 -0.1755
 2389SOL    HW118629   2.355   2.093   6.409 -0.1784 -1.5145  0.2073
 2389SOL    HW218630   2.213   2.107   6.369 -0.5784  0.0675  0.4610
 2390SOL     OW18631   1.756   4.685  13.029 -0.5621  0.7261 -0.5727
 2390SOL    HW118632   1.684   4.682  12.966 -1.4739  1.6013  0.4303
 2390SOL    HW218633   1.730   4.600  13.064 -3.9077  2.1713  0.4241
 2391SOL     OW18634   2.791   4.388   3.668  0.4920  0.0094 -0.1235
 2391SOL    HW118635   2.748   4.337   3.599  1.6686 -0.0276 -0.8345
 2391SOL    HW218636   2.732   4.461   3.686  1.4078  0.7390 -0.0654
 2392SOL     OW18637   1.205   3.457   2.671 -0.5854 -0.1466  0.9701
 2392SOL    HW118638   1.286   3.413   2.645 -1.3290 -1.5916  1.1242
 2392SOL    HW218639   1.196   3.514   2.595  0.8290  0.4470  1.2444
 2393SOL     OW18640   0.112   4.260   9.582 -0.0916  0.1053 -0.2215
 2393SOL    HW118641   0.041   4.324   9.574  0.9392  1.3384  0.4526
 2393SOL    HW218642   0.085   4.228   9.668  1.4622  0.3347  0.3491
 2394SOL     OW18643   1.824   2.106   2.315 -0.1614  0.0139  0.5964
 2394SOL    HW118644   1.906   2.149   2.340  0.6609 -2.4428  2.1481
 2394SOL    HW218645   1.786   2.159   2.245 -0.3441 -0.0666  0.6349
 2395SOL     OW18646   1.889   2.708   7.122  0.2413  0.4424  0.7326
 2395SOL    HW118647   1.885   2.668   7.035 -1.3803 -1.0281  1.4848
 2395SOL    HW218648   1.836   2.650   7.177 -1.6977  0.0721 -1.5529
 2396SOL     OW18649   2.409   0.340   2.510  0.5507  0.1459  0.1251
 2396SOL    HW118650   2.474   0.341   2.440 -0.1056 -0.9621 -0.4946
 2396SOL    HW218651   2.332   0.331   2.455  0.3330  2.2803  0.1156
 2397SOL     OW18652   0.966   1.897   6.639  0.8457  0.1512 -0.0177
 2397SOL    HW118653   0.875   1.886   6.665  0.3448  0.7499 -1.5149
 2397SOL    HW218654   1.017   1.830   6.685 -0.1249 -0.2444  0.4789
 2398SOL     OW18655   1.783   3.186   2.891  0.3361 -0.5024  0.1944
 2398SOL    HW118656   1.690   3.176   2.909  0.1120 -1.5441 -1.4990
 2398SOL    HW218657   1.783   3.239   2.811 -0.1495  2.2231  1.9970
 2399SOL     OW18658   0.471   3.992   6.030  0.5486 -0.3751  0.0540
 2399SOL    HW118659   0.471   4.049   6.106 -0.5157  0.2409 -0.4054
 2399SOL    HW218660   0.380   3.994   5.999 -0.6525 -2.0712  3.5468
 2400SOL     OW18661   3.626   3.476   2.948  0.0192  0.5988 -0.1561
 2400SOL    HW118662   3.609   3.553   2.895 -1.7390 -0.8510 -1.6918
 2400SOL    HW218663   3.574   3.501   3.024  0.3178 -0.8165  0.5258
 2401SOL     OW18664   3.314   4.511  14.147  0.2071 -0.3071  0.1144
 2401SOL    HW118665   3.267   4.428  14.152  1.1143 -0.8276  0.0310
 2401SOL    HW218666   3.397   4.493  14.191  1.7482 -0.2556 -2.7734
 2402SOL     OW18667   0.762   0.891   4.168  0.3325  0.2006  0.0625
 2402SOL    HW118668   0.850   0.861   4.144 -0.6232 -2.2934 -0.2754
 2402SOL    HW218669   0.778   0.938   4.250  1.1448 -0.2306  0.1479
 2403SOL     OW18670   3.050   0.126  13.531  0.0694  0.0046 -0.8382
 2403SOL    HW118671   3.012   0.160  13.612  2.2162  3.0474 -1.1147
 2403SOL    HW218672   3.142   0.152  13.536  0.8316 -3.1768  1.4476
 2404SOL     OW18673   3.547   1.503   8.263 -0.9249  0.3754  0.1212
 2404SOL    HW118674   3.476   1.567   8.268 -0.0495  1.5355 -2.0014
 2404SOL    HW218675   3.553   1.462   8.349 -0.5083 -1.4490 -0.7811
 2405SOL     OW18676   0.841   1.041   7.059 -0.6525 -0.4421  0.7015
 2405SOL    HW118677   0.921   1.012   7.102  1.3064  1.6493 -1.5312
 2405SOL    HW218678   0.790   1.071   7.134 -0.5670  0.3401  0.4541
 2406SOL     OW18679   0.482   4.036   7.828  0.5939  0.3529 -0.3597
 2406SOL    HW118680   0.564   4.006   7.789  0.6908 -1.0992  0.9781
 2406SOL    HW218681   0.496   4.131   7.827  0.3390  0.3755 -1.7978
 2407SOL     OW18682   0.789   1.297   1.144  0.0024 -0.1418  0.6773
 2407SOL    HW118683   0.882   1.277   1.141  0.0841  0.2424  0.7434
 2407SOL    HW218684   0.780   1.379   1.191  0.9577  0.6553 -0.5491
 2408SOL     OW18685   4.228   0.323  15.292  0.0488 -0.2521 -0.3287
 2408SOL    HW118686   4.177   0.356  15.218 -1.3800  0.7153  1.1007
 2408SOL    HW218687   4.175   0.251  15.325  1.0655 -0.1531  1.5262
 2409SOL     OW18688   0.959   2.773  14.702 -0.4700 -0.4610  0.2858
 2409SOL    HW118689   0.895   2.825  14.653  1.6495  2.7782  0.9151
 2409SOL    HW218690   0.966   2.695  14.648 -2.0942 -0.8500  0.6464
 2410SOL     OW18691   0.721   0.612   8.140 -0.2412  0.0012  0.1228
 2410SOL    HW118692   0.646   0.672   8.147  0.1676  0.7544 -1.7889
 2410SOL    HW218693   0.773   0.635   8.063  0.5831  1.2262  1.0385
 2411SOL     OW18694   2.414   0.271  10.962 -0.0328  0.6829  0.5952
 2411SOL    HW118695   2.345   0.335  10.949  2.0763  2.5003 -1.7494
 2411SOL    HW218696   2.381   0.212  11.030 -3.7985  2.2924  0.1645
 2412SOL     OW18697   0.096   1.420   8.253  0.0517 -0.0724 -0.0249
 2412SOL    HW118698   0.075   1.337   8.208 -1.4938  1.1553 -1.5604
 2412SOL    HW218699   0.082   1.486   8.185  1.8504 -0.6416 -0.9623
 2413SOL     OW18700   4.470   3.606   4.590 -0.1004 -0.6374 -0.1143
 2413SOL    HW118701   4.459   3.517   4.554  2.3821 -0.9742 -0.0064
 2413SOL    HW218702   4.524   3.640   4.519  0.9782  0.0706  1.0531
 2414SOL     OW18703   2.392   2.735  10.005  0.1549 -0.2270  0.1277
 2414SOL    HW118704   2.413   2.663   9.945  1.8005  0.0315  0.4003
 2414SOL    HW218705   2.302   2.721  10.035 -0.1026 -0.4984 -0.7620
 2415SOL     OW18706   3.705   0.370   3.808 -0.4604 -0.1128  0.5722
 2415SOL    HW118707   3.728   0.441   3.749  1.2882  0.3107  1.7861
 2415SOL    HW218708   3.610   0.380   3.813 -0.4209  0.2690  0.5122
 2416SOL     OW18709   3.073   4.538   5.977 -0.3964 -0.5473 -0.0920
 2416SOL    HW118710   3.109   4.555   6.064 -0.2351 -0.5058 -0.1679
 2416SOL    HW218711   3.074   4.621   5.931 -2.1863  0.0718  0.9786
 2417SOL     OW18712   4.206   0.267   1.136  0.5800  0.8241 -0.3467
 2417SOL    HW118713   4.291   0.229   1.116  1.0759  1.2494  0.8806
 2417SOL    HW218714   4.221   0.345   1.082  1.1346  2.3621  1.9821
 2418SOL     OW18715   2.444   1.964   5.099  0.3771  0.1570 -0.4424
 2418SOL    HW118716   2.499   1.982   5.176 -2.1733  3.9441  0.4716
 2418SOL    HW218717   2.441   1.868   5.108 -0.8913  0.3681  1.4396
 2419SOL     OW18718   2.748   4.679  13.904  0.3356 -0.4530 -0.7191
 2419SOL    HW118719   2.698   0.024  13.857  1.8908  1.3958  0.2443
 2419SOL    HW218720   2.761   4.618  13.831  1.7443 -1.2868  0.2123
 2420SOL     OW18721   3.827   2.487   0.433 -1.1629 -0.3342  0.8282
 2420SOL    HW118722   3.918   2.486   0.464 -1.2641 -1.0697  1.1151
 2420SOL    HW218723   3.826   2.422   0.362  0.4798 -0.2883  0.7539
 2421SOL     OW18724   2.956   1.140  12.901 -0.0230 -0.3147 -0.1404
 2421SOL    HW118725   2.956   1.231  12.871 -0.9765 -0.5851 -0.9566
 2421SOL    HW218726   2.945   1.153  12.995  0.6679  1.7011 -0.3275
 2422SOL     OW18727   3.156   2.595   2.836  0.1665  0.4322  0.1508
 2422SOL    HW118728   3.185   2.580   2.746  0.6049  2.8831 -0.1387
 2422SOL    HW218729   3.173   2.690   2.841  1.1795  0.2274  0.6522
 2423SOL     OW18730   2.297   4.682   6.456  0.1330  0.4371 -0.6711
 2423SOL    HW118731   2.329   0.039   6.499 -0.7805 -0.3636  1.4341
 2423SOL    HW218732   2.306   4.614   6.523  2.5445  0.0131 -1.4162
 2424SOL     OW18733   2.356   4.422   0.031 -1.0745 -0.1868 -0.3416
 2424SOL    HW118734   2.355   4.490   0.099 -0.4098 -1.7670  1.2861
 2424SOL    HW218735   2.266   4.428   0.002 -1.3110  2.3405  0.9064
 2425SOL     OW18736   0.479   4.034   2.251  0.6737  0.5649 -0.0276
 2425SOL    HW118737   0.507   4.105   2.194 -0.5616  1.6418  0.7097
 2425SOL    HW218738   0.388   4.061   2.261  0.8713  1.0631  0.3947
 2426SOL     OW18739   2.724   2.857  10.694  0.3588 -0.6824 -0.0254
 2426SOL    HW118740   2.812   2.875  10.725  0.5598 -0.8111 -0.5146
 2426SOL    HW218741   2.703   2.946  10.663 -1.6422 -0.7940  0.9802
 2427SOL     OW18742   1.512   4.678   7.250  0.0583 -0.4965  0.0767
 2427SOL    HW118743   1.420   4.683   7.274 -0.4436  0.9238 -2.1054
 2427SOL    HW218744   1.519   0.000   7.165 -0.2147 -0.0180  0.3047
 2428SOL     OW18745   4.046   0.718   4.613  0.1743  0.3139  0.8870
 2428SOL    HW118746   3.957   0.737   4.645  0.6511 -0.6823  2.8063
 2428SOL    HW218747   4.043   0.622   4.619  1.5668  0.2430  0.3005
 2429SOL     OW18748   3.033   3.664  11.817  0.3329  0.0005  0.5019
 2429SOL    HW118749   3.078   3.603  11.758 -0.3109 -1.5219  1.6181
 2429SOL    HW218750   3.053   3.751  11.781 -0.1404 -0.3945 -0.7211
 2430SOL     OW18751   4.205   2.625   7.750 -0.4856 -0.6134 -0.0034
 2430SOL    HW118752   4.196   2.554   7.814  2.2976 -1.1555 -0.2049
 2430SOL    HW218753   4.174   2.574   7.675 -3.9541 -0.2609  1.2189
 2431SOL     OW18754   0.203   3.395   2.155 -0.0041 -0.5351  0.6241
 2431SOL    HW118755   0.109   3.410   2.167 -0.1875 -0.4526 -0.9042
 2431SOL    HW218756   0.199   3.300   2.139 -0.7826 -0.1985 -1.1379
 2432SOL     OW18757   2.144   3.365   7.589  0.5059  0.2456  0.4009
 2432SOL    HW118758   2.192   3.317   7.522  1.9494  0.7206  1.0907
 2432SOL    HW218759   2.075   3.304   7.616 -0.3630  1.8851  1.9421
 2433SOL     OW18760   1.173   2.818   8.073 -0.1667  0.2350 -0.0712
 2433SOL    HW118761   1.191   2.830   8.166  3.4080 -1.7281 -0.5131
 2433SOL    HW218762   1.194   2.908   8.048  0.6056 -0.8119 -3.2248
 2434SOL     OW18763   1.827   1.827   6.389  0.1756 -0.3553 -0.4702
 2434SOL    HW118764   1.757   1.796   6.447 -2.0089 -0.7353 -3.2957
 2434SOL    HW218765   1.863   1.741   6.367  0.0971 -0.8616  1.3499
 2435SOL     OW18766   0.016   3.070  12.593 -0.4706  0.3434  0.3395
 2435SOL    HW118767   0.004   3.020  12.674 -1.0092  0.3057  0.2406
 2435SOL    HW218768   4.657   3.061  12.542 -1.7212  0.2996  2.3407
 2436SOL     OW18769   4.232   2.941   3.312 -0.1627  0.4303 -0.2592
 2436SOL    HW118770   4.216   2.960   3.220 -0.0304 -1.3772 -0.6575
 2436SOL    HW218771   4.289   2.864   3.305 -1.9578 -1.1121  2.0850
 2437SOL     OW18772   1.101   3.267   7.384  0.1150 -0.2259 -0.1609
 2437SOL    HW118773   1.158   3.190   7.392 -0.5816 -0.7847 -0.5375
 2437SOL    HW218774   1.058   3.223   7.310 -1.2842  3.5434 -1.5638
 2438SOL     OW18775   2.140   1.790   3.134  0.6051 -0.1227 -0.1125
 2438SOL    HW118776   2.096   1.717   3.178 -0.2377  1.0033  0.9228
 2438SOL    HW218777   2.167   1.743   3.055  1.8904  2.2250 -1.0417
 2439SOL     OW18778   1.413   1.488   9.643  0.2852  0.0619  1.0311
 2439SOL    HW118779   1.351   1.447   9.583  0.9688  1.1108 -0.3941
 2439SOL    HW218780   1.391   1.457   9.731  0.2975  0.9731  1.3553
 2440SOL     OW18781   3.892   2.585   1.401 -0.3945  0.0968  0.8866
 2440SOL    HW118782   3.873   2.676   1.422  0.7186  1.2598 -3.2839
 2440SOL    HW218783   3.986   2.592   1.421 -0.5108 -1.1643  1.8837
 2441SOL     OW18784   2.497   0.033  10.778  0.1025 -0.0266  0.6304
 2441SOL    HW118785   2.459   0.116  10.806 -2.9703 -1.0524 -0.5889
 2441SOL    HW218786   2.589   0.061  10.779 -0.0392  0.4135  1.3485
 2442SOL     OW18787   0.847   1.835   3.523 -0.0097 -0.3320  0.3382
 2442SOL    HW118788   0.775   1.781   3.555 -1.8635  0.9302 -1.6818
 2442SOL    HW218789   0.914   1.774   3.552  0.9958  0.1853 -0.8618
 2443SOL     OW18790   1.525   2.534  13.900 -0.2718 -0.0636  0.0554
 2443SOL    HW118791   1.551   2.578  13.818 -0.1025 -1.4474 -0.6273
 2443SOL    HW218792   1.587   2.581  13.956 -0.7476  2.4796 -1.5312
 2444SOL     OW18793   4.249   0.251  12.861  0.1369 -0.1589 -0.0557
 2444SOL    HW118794   4.257   0.346  12.866  2.5494 -0.4144  0.8601
 2444SOL    HW218795   4.282   0.226  12.948  0.5842  1.4138  0.2252
 2445SOL     OW18796   0.948   0.237   7.913 -0.3007 -0.3526  0.0562
 2445SOL    HW118797   0.915   0.148   7.923 -0.0273 -0.3397  1.0219
 2445SOL    HW218798   0.957   0.257   8.006 -1.1859  0.8571 -0.1100
 2446SOL     OW18799   1.747   1.630  11.676 -0.1861 -0.1534  0.1249
 2446SOL    HW118800   1.685   1.661  11.610  0.9347 -0.4897 -1.0966
 2446SOL    HW218801   1.816   1.601  11.616 -0.4877 -1.1575  0.2641
 2447SOL     OW18802   1.331   1.273   8.446  0.4126  0.2442 -0.0862
 2447SOL    HW118803   1.318   1.279   8.351 -1.2795  1.9579  0.2519
 2447SOL    HW218804   1.426   1.266   8.452  0.5370 -0.4920 -2.8788
 2448SOL     OW18805   4.438   1.801   2.541  0.4659 -1.1535  0.8079
 2448SOL    HW118806   4.346   1.787   2.559  0.4810 -1.9971  0.2353
 2448SOL    HW218807   4.432   1.785   2.446  0.5980 -3.8112  1.2514
 2449SOL     OW18808   0.983   1.403   4.758 -0.0980  0.0539  0.6723
 2449SOL    HW118809   0.993   1.334   4.823  0.7656 -0.1698  0.3017
 2449SOL    HW218810   1.020   1.361   4.680  1.3240 -1.0530  1.9426
 2450SOL     OW18811   1.816   0.571  11.973 -0.0388  0.0082  0.0828
 2450SOL    HW118812   1.849   0.579  11.883 -0.6703  1.5430 -0.0152
 2450SOL    HW218813   1.748   0.508  11.949 -2.2498  1.9100  1.3608
 2451SOL     OW18814   3.783   0.438  10.302 -0.1483 -1.0223 -0.1110
 2451SOL    HW118815   3.871   0.466  10.329 -0.8389  1.4282 -0.4071
 2451SOL    HW218816   3.732   0.451  10.382 -1.7228  2.6662 -1.6890
 2452SOL     OW18817   4.447   3.917  14.986 -0.7629  0.0639  0.5598
 2452SOL    HW118818   4.432   3.852  15.055 -2.3454 -2.1742 -1.9231
 2452SOL    HW218819   4.368   3.970  15.001 -0.6385  0.3271  0.2953
 2453SOL     OW18820   3.392   1.509   4.961  0.3061  0.4381 -0.2872
 2453SOL    HW118821   3.388   1.572   4.889  1.7622  0.4532 -0.3572
 2453SOL    HW218822   3.480   1.522   4.996 -0.3750 -0.8809  1.8969
 2454SOL     OW18823   2.686   0.648   2.420  0.2075 -0.1848 -0.3745
 2454SOL    HW118824   2.696   0.640   2.325 -1.5006 -1.7337 -0.3985
 2454SOL    HW218825   2.598   0.612   2.426 -0.0638  0.3569 -1.1117
 2455SOL     OW18826   0.812   1.986   9.175 -0.1657  0.4962  0.6866
 2455SOL    HW118827   0.805   2.024   9.087  2.2574  0.9514  0.6887
 2455SOL    HW218828   0.723   1.950   9.177 -0.2362  0.6764  0.8308
 2456SOL     OW18829   4.331   3.796  17.069  0.5877  0.3100 -0.0829
 2456SOL    HW118830   4.331   3.884  17.033  0.2631  0.3346 -0.0166
 2456SOL    HW218831   4.380   3.807  17.150  0.3931  2.1292 -0.2265
 2457SOL     OW18832   1.200   3.455   3.519 -0.1628 -0.3754 -0.6509
 2457SOL    HW118833   1.286   3.414   3.521  0.1283  0.3261  1.3260
 2457SOL    HW218834   1.170   3.435   3.431 -0.0795 -1.4579 -0.4376
 2458SOL     OW18835   3.011   0.720  14.664 -0.5765  0.0263 -0.2931
 2458SOL    HW118836   2.962   0.638  14.673 -2.1843  0.9718 -0.3368
 2458SOL    HW218837   3.099   0.686  14.648 -1.0149 -0.6592 -1.2801
 2459SOL     OW18838   4.160   3.089  16.729  0.0559  0.1035 -0.2212
 2459SOL    HW118839   4.108   3.162  16.694 -1.8673 -0.8344  0.6746
 2459SOL    HW218840   4.241   3.140  16.728 -0.6001  1.1112 -2.7317
 2460SOL     OW18841   2.440   1.823   3.173 -0.3151 -0.2571 -0.0379
 2460SOL    HW118842   2.347   1.813   3.152  0.1091  0.6563 -2.3588
 2460SOL    HW218843   2.434   1.861   3.260  0.2285  0.7145 -0.4315
 2461SOL     OW18844   1.942   3.786  10.978 -0.0561  0.0266  0.5185
 2461SOL    HW118845   1.893   3.704  10.981  0.4262 -0.3418 -1.2988
 2461SOL    HW218846   1.955   3.811  10.886  1.7556  0.5469  0.9054
 2462SOL     OW18847   2.535   2.524  11.515  0.1840 -0.1619  0.5493
 2462SOL    HW118848   2.496   2.448  11.558 -1.2616  0.8037  0.9394
 2462SOL    HW218849   2.465   2.535  11.450 -0.1438 -1.6911  0.6344
 2463SOL     OW18850   4.030   2.247   7.289 -0.6126 -0.0560 -0.3767
 2463SOL    HW118851   3.962   2.181   7.303  0.1623 -1.0024 -1.0805
 2463SOL    HW218852   4.037   2.279   7.379  0.8217  1.8675 -1.1839
 2464SOL     OW18853   2.514   2.262   2.192 -0.1761 -0.1839 -0.4064
 2464SOL    HW118854   2.480   2.319   2.261  0.8302  1.4224 -1.2419
 2464SOL    HW218855   2.591   2.222   2.232 -1.0398 -1.0254  0.4205
 2465SOL     OW18856   2.394   2.534  17.401 -0.3432  0.0881  0.0688
 2465SOL    HW118857   2.414   2.499  17.314 -0.2522 -1.2959  0.6583
 2465SOL    HW218858   2.478   2.549  17.444 -0.5671 -1.7813  1.1477
 2466SOL     OW18859   4.415   2.777   5.327  0.3074  0.3800  0.2596
 2466SOL    HW118860   4.454   2.802   5.410 -0.2193 -1.6047  1.1050
 2466SOL    HW218861   4.404   2.682   5.328 -0.6216  0.5197  1.8153
 2467SOL     OW18862   0.727   0.948   8.018  0.6328  0.0855  0.0086
 2467SOL    HW118863   0.681   1.032   8.008 -0.3144 -0.5419 -0.9089
 2467SOL    HW218864   0.745   0.957   8.111 -0.2104 -1.4739  0.3255
 2468SOL     OW18865   3.258   1.715   8.797 -0.8188 -0.0400 -0.3467
 2468SOL    HW118866   3.287   1.636   8.751  0.4880  0.6738 -0.7168
 2468SOL    HW218867   3.203   1.672   8.863  0.9046 -0.7267  0.6233
 2469SOL     OW18868   3.938   2.030   7.441  0.0789  0.3956  0.0442
 2469SOL    HW118869   4.028   2.019   7.472  0.7542  2.3991 -1.2173
 2469SOL    HW218870   3.932   1.964   7.372 -1.3186  1.0057 -0.4188
 2470SOL     OW18871   4.151   4.284   5.596 -0.3470  0.0061  0.5327
 2470SOL    HW118872   4.227   4.247   5.641 -1.3389 -0.8173  1.5259
 2470SOL    HW218873   4.187   4.373   5.591 -3.1249  1.1017  0.5238
 2471SOL     OW18874   0.653   1.300  15.875  0.1878 -0.0138  0.1643
 2471SOL    HW118875   0.709   1.324  15.801 -0.2071  0.5241  0.0351
 2471SOL    HW218876   0.680   1.363  15.941 -4.2322  2.3855 -0.3435
 2472SOL     OW18877   4.375   3.997   5.972  0.0097  0.3038 -0.3753
 2472SOL    HW118878   4.457   4.007   5.924 -0.0873 -1.1462 -0.8277
 2472SOL    HW218879   4.360   3.903   5.962 -1.5978  0.7991 -2.4684
 2473SOL     OW18880   3.557   3.490   1.762 -0.0679  0.0877 -0.0562
 2473SOL    HW118881   3.484   3.498   1.701  0.0430 -2.4279 -0.5168
 2473SOL    HW218882   3.569   3.583   1.784 -0.7156  0.1236  0.1477
 2474SOL     OW18883   1.309   3.418   5.790 -0.2164 -0.0682 -0.5110
 2474SOL    HW118884   1.245   3.487   5.804  0.3378  1.5387 -5.6216
 2474SOL    HW218885   1.263   3.374   5.719 -0.9007  0.4851 -0.4070
 2475SOL     OW18886   1.186   3.533   6.978 -0.4293  0.4040 -0.9330
 2475SOL    HW118887   1.205   3.494   7.063 -1.0869  1.0915 -0.4704
 2475SOL    HW218888   1.100   3.568   6.999  1.3265  3.3124  1.3930
 2476SOL     OW18889   2.200   4.458   4.528 -0.2358  0.0222  0.0369
 2476SOL    HW118890   2.243   4.474   4.612  2.1291 -1.6209 -0.8650
 2476SOL    HW218891   2.254   4.393   4.483  1.6159  1.9144 -0.4860
 2477SOL     OW18892   0.164   3.774   5.699  0.1005  0.1336 -0.2776
 2477SOL    HW118893   0.098   3.704   5.693  1.7406 -1.5016  0.6963
 2477SOL    HW218894   0.242   3.719   5.705  0.4388  0.5923 -0.4802
 2478SOL     OW18895   2.791   3.755  10.399 -0.5487 -0.6603  0.1046
 2478SOL    HW118896   2.790   3.719  10.488  0.2299 -1.6813 -0.2948
 2478SOL    HW218897   2.883   3.744  10.376 -0.8908  0.2473 -1.6615
 2479SOL     OW18898   3.267   2.936  11.005  0.6495 -0.0586 -0.3940
 2479SOL    HW118899   3.349   2.960  10.963 -0.2364  0.9808 -1.5332
 2479SOL    HW218900   3.205   2.997  10.965 -0.6733 -0.1011  1.5731
 2480SOL     OW18901   0.588   0.395   7.923  0.3006  0.5573 -0.0947
 2480SOL    HW118902   0.645   0.362   7.992  0.4564 -3.1215 -1.9610
 2480SOL    HW218903   0.652   0.445   7.871  1.6516  1.5358  2.5246
 2481SOL     OW18904   2.315   3.515  12.410  0.2284  0.2847  0.1228
 2481SOL    HW118905   2.299   3.578  12.339  1.2855  3.5400  2.7369
 2481SOL    HW218906   2.328   3.434  12.362 -0.3323 -0.3754  1.0887
 2482SOL     OW18907   3.451   0.665  17.050  0.7149  0.2150 -0.2654
 2482SOL    HW118908   3.431   0.572  17.060  1.0191  0.1839  0.0514
 2482SOL    HW218909   3.500   0.655  16.969 -1.9519 -1.6748 -1.6276
 2483SOL     OW18910   3.409   2.118   0.481 -0.1367  0.3802 -0.4660
 2483SOL    HW118911   3.353   2.164   0.544 -1.5430 -1.6953 -0.2168
 2483SOL    HW218912   3.454   2.049   0.530 -1.2323 -0.8375 -1.1857
 2484SOL     OW18913   1.901   1.236  13.016  0.2003 -0.6641 -0.4148
 2484SOL    HW118914   1.935   1.291  13.087 -0.4525  0.7406 -1.1893
 2484SOL    HW218915   1.964   1.251  12.946  0.5275  1.8737  0.3977
 2485SOL     OW18916   0.269   0.706   6.103  0.3454  0.2455  0.2827
 2485SOL    HW118917   0.261   0.723   6.009 -0.7992 -0.4086  0.2642
 2485SOL    HW218918   0.208   0.633   6.117 -0.8807  1.2892  0.4241
 2486SOL     OW18919   2.125   2.882   0.576 -0.6850 -0.7662  0.2303
 2486SOL    HW118920   2.189   2.898   0.507 -0.0687 -1.6536  0.5933
 2486SOL    HW218921   2.064   2.823   0.532  0.5551 -3.5494  2.2330
 2487SOL     OW18922   0.924   2.760  16.209  0.1348 -0.4120 -0.3221
 2487SOL    HW118923   0.883   2.789  16.128 -0.3475  0.8492  0.3726
 2487SOL    HW218924   0.849   2.794  16.258  1.6532  1.9244  0.3844
 2488SOL     OW18925   3.566   4.437  14.260  0.1422  0.4839 -0.0552
 2488SOL    HW118926   3.626   4.476  14.323 -0.8829  2.3631 -0.2424
 2488SOL    HW218927   3.537   4.353  14.296  0.2425 -0.3176 -1.8240
 2489SOL     OW18928   2.807   3.249   1.180 -0.8256  0.5774 -0.0717
 2489SOL    HW118929   2.898   3.273   1.164 -0.8803  0.4417 -0.5849
 2489SOL    HW218930   2.780   3.222   1.092 -0.7203  0.6286 -0.1193
 2490SOL     OW18931   0.915   2.856   7.432  0.0360 -0.2504 -0.3207
 2490SOL    HW118932   0.903   2.945   7.465 -0.5432 -0.4639  0.0351
 2490SOL    HW218933   0.827   2.820   7.437  0.2386 -0.8388 -1.0420
 2491SOL     OW18934   1.175   0.096   8.681  0.0473 -0.1093  0.0368
 2491SOL    HW118935   1.091   0.078   8.639 -1.9184  1.7484  3.1796
 2491SOL    HW218936   1.186   0.026   8.745  1.3188 -0.0420 -0.1087
 2492SOL     OW18937   0.481   1.251   0.985 -0.2439 -0.0814 -0.3219
 2492SOL    HW118938   0.461   1.202   1.064  2.1599  1.3990  1.2224
 2492SOL    HW218939   0.506   1.179   0.928 -0.7766 -1.1752  0.8368
 2493SOL     OW18940   2.438   0.604   7.186 -0.3622 -0.1914 -0.3245
 2493SOL    HW118941   2.467   0.695   7.181 -0.2747 -0.2189 -0.3148
 2493SOL    HW218942   2.354   0.626   7.226  0.5824  0.6556  1.1958
 2494SOL     OW18943   4.060   3.750   2.269  0.0490 -0.3813  0.5158
 2494SOL    HW118944   3.992   3.722   2.208  0.0978  0.5310  0.0376
 2494SOL    HW218945   4.030   3.839   2.286  0.0943  0.1629 -2.2231
 2495SOL     OW18946   1.305   2.078  16.754  0.3898  0.2186 -0.3263
 2495SOL    HW118947   1.212   2.078  16.777  0.3827 -0.4878 -0.3474
 2495SOL    HW218948   1.327   1.985  16.748 -0.1171  0.0755 -0.0615
 2496SOL     OW18949   0.587   2.442   2.274  0.0118 -0.3119 -0.2543
 2496SOL    HW118950   0.528   2.445   2.199 -2.7073  2.8121  2.0023
 2496SOL    HW218951   0.536   2.469   2.351  1.2462  2.7883 -0.5218
 2497SOL     OW18952   2.102   4.482   3.565  0.4553 -0.1044 -0.5915
 2497SOL    HW118953   2.059   4.432   3.634 -0.1062 -0.9740 -1.5752
 2497SOL    HW218954   2.051   4.471   3.484 -1.0912  1.0688  0.2417
 2498SOL     OW18955   0.496   3.285   8.235  0.5091  0.0205 -0.1905
 2498SOL    HW118956   0.435   3.227   8.189 -1.1523  0.7892  1.0687
 2498SOL    HW218957   0.485   3.259   8.326 -1.6221  2.6616  0.3092
 2499SOL     OW18958   4.495   4.703   8.548  0.3144 -0.4371 -0.0562
 2499SOL    HW118959   4.493   0.057   8.606  1.7660 -2.2401  2.3474
 2499SOL    HW218960   4.589   4.696   8.531  0.3637 -0.3884  0.1954
 2500SOL     OW18961   0.997   1.007   7.861  0.7675 -0.4843  0.4238
 2500SOL    HW118962   0.971   1.064   7.933  1.5671 -0.8342  0.9939
 2500SOL    HW218963   0.909   0.982   7.834  0.2153  1.4301  0.4713
 2501SOL     OW18964   4.226   0.991   6.889 -0.0414  0.0891 -0.3227
 2501SOL    HW118965   4.176   1.071   6.873 -2.2619 -0.9836  1.2841
 2501SOL    HW218966   4.231   1.004   6.984  1.2379 -2.0019 -0.1032
 2502SOL     OW18967   1.433   3.687   7.759  0.2880  0.2940 -0.1148
 2502SOL    HW118968   1.344   3.664   7.785 -0.2727  3.2462  0.4964
 2502SOL    HW218969   1.411   3.696   7.667  1.8455  0.1727 -0.5060
 2503SOL     OW18970   0.893   1.118   2.529 -0.2370 -0.0095 -0.3817
 2503SOL    HW118971   0.803   1.151   2.521  0.1160  1.0239 -0.1193
 2503SOL    HW218972   0.929   1.190   2.580  0.2736 -0.3787 -0.2231
 2504SOL     OW18973   2.852   1.818   6.103 -0.3686  0.7987  0.1686
 2504SOL    HW118974   2.833   1.802   6.010  2.5359 -0.5679 -0.1939
 2504SOL    HW218975   2.777   1.779   6.147 -1.7106  2.0572 -0.9771
 2505SOL     OW18976   2.706   1.861   2.358  0.1168 -0.1333  0.2293
 2505SOL    HW118977   2.624   1.871   2.407 -0.7505  1.3699 -1.5719
 2505SOL    HW218978   2.689   1.787   2.300 -0.2252 -0.1551  0.3580
 2506SOL     OW18979   1.929   3.659  14.894  0.2121  0.2966 -0.4374
 2506SOL    HW118980   1.844   3.702  14.885  0.9827  1.6598 -1.0467
 2506SOL    HW218981   1.905   3.591  14.957  0.4013 -1.3122 -2.0639
 2507SOL     OW18982   1.506   4.247   7.892 -0.4781  0.2156  0.5150
 2507SOL    HW118983   1.542   4.328   7.856 -0.3648 -0.1550 -0.1908
 2507SOL    HW218984   1.505   4.263   7.986  1.3627 -0.9066  0.7323
 2508SOL     OW18985   3.718   3.039  14.209 -0.2629  0.7192 -0.1270
 2508SOL    HW118986   3.784   2.977  14.177 -1.3700  0.3022 -1.5912
 2508SOL    HW218987   3.773   3.067  14.283 -0.6870 -1.6448  1.0821
 2509SOL     OW18988   4.333   2.463   3.923  0.4386  0.8271 -0.7682
 2509SOL    HW118989   4.320   2.402   3.996  0.7690 -0.0549 -1.4510
 2509SOL    HW218990   4.246   2.487   3.890  0.8773  0.4822 -2.1908
 2510SOL     OW18991   2.822   3.069   8.592 -0.1804  0.0692  0.0721
 2510SOL    HW118992   2.886   3.057   8.521 -1.7420 -2.8397 -0.8536
 2510SOL    HW218993   2.829   3.160   8.619 -1.0603 -0.1802  1.1113
 2511SOL     OW18994   1.347   0.225   2.117  0.2251  0.0156 -0.3321
 2511SOL    HW118995   1.419   0.255   2.062 -1.2993  0.8565 -1.8885
 2511SOL    HW218996   1.344   0.298   2.179  0.9896  0.0539 -0.3402
 2512SOL     OW18997   0.682   1.207   4.402  0.5911 -0.2804 -0.4899
 2512SOL    HW118998   0.744   1.232   4.334 -0.9474  1.9794 -1.0769
 2512SOL    HW218999   0.670   1.292   4.445 -1.9207 -0.6034 -0.5071
 2513SOL     OW19000   3.355   1.984  13.463  0.2469 -0.7383 -0.1599
 2513SOL    HW119001   3.375   2.046  13.534  1.1226  0.4391 -1.4211
 2513SOL    HW219002   3.419   2.020  13.401 -1.0696 -0.8661 -1.5760
 2514SOL     OW19003   0.380   1.571  10.050 -0.2251 -0.1796 -0.3543
 2514SOL    HW119004   0.391   1.605   9.961 -0.2265 -0.0306 -0.2975
 2514SOL    HW219005   0.434   1.492  10.052  1.4018  0.9512  0.2970
 2515SOL     OW19006   2.260   4.465   6.614  0.8366  0.1642 -0.2207
 2515SOL    HW119007   2.197   4.426   6.554  0.4419  1.2452 -0.5052
 2515SOL    HW219008   2.233   4.424   6.696 -2.3976 -1.3998 -2.1006
 2516SOL     OW19009   1.859   0.313   5.508  0.6692 -0.2972  0.5106
 2516SOL    HW119010   1.777   0.279   5.544  0.1627  1.0742  0.6381
 2516SOL    HW219011   1.882   0.392   5.556  1.5110 -1.5330  2.1406
 2517SOL     OW19012   2.367   3.378   6.545  0.2956  0.7308  0.0536
 2517SOL    HW119013   2.296   3.334   6.592  1.2981  2.1002  2.8660
 2517SOL    HW219014   2.321   3.398   6.463  0.5897  1.2440  0.0172
 2518SOL     OW19015   0.881   1.058   0.458 -0.0485 -0.7668 -0.0579
 2518SOL    HW119016   0.895   1.075   0.365  1.1887 -1.9393 -0.0962
 2518SOL    HW219017   0.884   0.962   0.453 -1.4765 -0.9027  1.6303
 2519SOL     OW19018   3.142   3.538  13.907  0.1140  0.0612 -0.7470
 2519SOL    HW119019   3.165   3.474  13.840 -2.3046 -3.6098  1.9774
 2519SOL    HW219020   3.144   3.485  13.986  1.1802  0.8766 -0.2321
 2520SOL     OW19021   1.839   4.096  11.821 -0.7353  0.1409  0.1159
 2520SOL    HW119022   1.827   4.038  11.746  3.6635 -1.0406  0.3603
 2520SOL    HW219023   1.756   4.144  11.826 -0.5585  0.5893 -1.3618
 2521SOL     OW19024   2.616   1.685   9.219 -0.0024  0.0183 -0.1518
 2521SOL    HW119025   2.600   1.623   9.289  0.9723  0.6188  0.5993
 2521SOL    HW219026   2.702   1.716   9.245  0.9358 -1.3283 -1.6020
 2522SOL     OW19027   3.077   1.158   5.292 -0.6969 -0.3673 -0.0550
 2522SOL    HW119028   2.989   1.174   5.325 -1.2751 -1.7740 -0.9154
 2522SOL    HW219029   3.076   1.204   5.207 -0.6913  1.7738  1.1039
 2523SOL     OW19030   0.374   1.560   8.130  0.1739 -0.0341 -0.0480
 2523SOL    HW119031   0.376   1.566   8.225  0.1421 -1.3495  0.0367
 2523SOL    HW219032   0.325   1.633   8.093  0.2232  1.2210  2.3760
 2524SOL     OW19033   2.948   1.333   2.362 -0.1810  0.4210  0.6531
 2524SOL    HW119034   2.897   1.259   2.329  0.2035 -0.3472  1.7800
 2524SOL    HW219035   2.878   1.374   2.412 -2.0122  0.3362 -1.8085
 2525SOL     OW19036   1.245   3.939   6.837  0.5194  0.2945  0.0438
 2525SOL    HW119037   1.277   3.938   6.927 -0.3535  0.0239  0.3533
 2525SOL    HW219038   1.152   3.937   6.859  0.4834  1.7977  0.0067
 2526SOL     OW19039   2.991   2.249   6.557 -0.4774  0.4505 -0.0043
 2526SOL    HW119040   2.917   2.190   6.575 -1.0266  0.9966 -0.4880
 2526SOL    HW219041   2.949   2.334   6.552 -2.0038 -0.2518  0.9223
 2527SOL     OW19042   3.934   3.178   4.523 -0.1381 -0.1421  0.6085
 2527SOL    HW119043   3.924   3.270   4.545 -1.4792 -0.0380 -0.4674
 2527SOL    HW219044   4.009   3.185   4.464 -1.2236 -0.1678 -0.7836
 2528SOL     OW19045   2.958   3.691   5.575  0.2946  0.0558 -0.3113
 2528SOL    HW119046   2.920   3.606   5.596 -0.6806  0.7342  0.6599
 2528SOL    HW219047   2.999   3.725   5.655 -1.1392 -2.6970  1.5679
 2529SOL     OW19048   2.741   3.901  16.547  0.7481  0.8448  0.5768
 2529SOL    HW119049   2.755   3.889  16.641 -0.1602 -1.5630  0.4085
 2529SOL    HW219050   2.709   3.816  16.517  3.0064  0.3460 -0.4504
 2530SOL     OW19051   2.920   3.753   8.453  0.0434  0.5393 -0.0190
 2530SOL    HW119052   3.003   3.795   8.429 -0.0310  0.4071 -0.5041
 2530SOL    HW219053   2.880   3.765   8.366  1.0963 -0.2405 -0.6090
 2531SOL     OW19054   3.248   4.256  14.258 -0.2510  0.4904 -0.3302
 2531SOL    HW119055   3.320   4.209  14.217  0.5716  1.6267 -0.1801
 2531SOL    HW219056   3.171   4.201  14.241 -1.1677  2.5850 -2.9806
 2532SOL     OW19057   2.912   3.003   3.525  0.0858 -0.5393  0.6655
 2532SOL    HW119058   2.925   3.041   3.611 -1.3131 -3.3185  2.1151
 2532SOL    HW219059   2.821   3.029   3.509 -0.1271 -1.0541  1.0292
 2533SOL     OW19060   1.094   3.445  12.115  0.3117 -0.4185  0.2258
 2533SOL    HW119061   1.138   3.480  12.192 -0.4493  3.5133 -1.1171
 2533SOL    HW219062   1.001   3.456  12.135  0.5658  1.9253  0.1022
 2534SOL     OW19063   0.451   3.629   7.966  0.2385 -0.1823 -0.6336
 2534SOL    HW119064   0.368   3.614   8.012  1.2429 -2.7616  0.3960
 2534SOL    HW219065   0.422   3.637   7.875  2.1844  0.2899 -1.2029
 2535SOL     OW19066   1.564   0.771  15.834  0.2603 -0.0282 -0.0441
 2535SOL    HW119067   1.521   0.839  15.886  0.5774 -0.6449  1.0137
 2535SOL    HW219068   1.648   0.807  15.808  0.4496  0.5499  1.3762
 2536SOL     OW19069   3.921   3.185  15.474 -0.1287 -0.4807 -0.1226
 2536SOL    HW119070   3.921   3.093  15.446 -2.2502 -0.5549  0.1084
 2536SOL    HW219071   3.954   3.171  15.563  2.2057 -1.6998 -1.1924
 2537SOL     OW19072   4.352   4.260   8.798 -0.5271  0.0927  0.6790
 2537SOL    HW119073   4.272   4.249   8.850  0.7843 -2.8162  2.0101
 2537SOL    HW219074   4.357   4.355   8.808  0.1878 -0.0562  1.6353
 2538SOL     OW19075   2.137   2.515   5.938  0.5142 -0.2164  0.4154
 2538SOL    HW119076   2.176   2.440   5.894  0.6463 -0.9187  1.7403
 2538SOL    HW219077   2.089   2.564   5.871  0.2515  0.4493  1.0903
 2539SOL     OW19078   3.364   1.145  17.508  0.0549 -0.4580 -0.6504
 2539SOL    HW119079   3.334   1.236  17.500 -1.1716 -0.6993  1.0151
 2539SOL    HW219080   3.306   1.102  17.445  0.8930  0.4574 -2.0460
 2540SOL     OW19081   0.854   2.548   4.043  0.4870 -0.4353  0.1372
 2540SOL    HW119082   0.802   2.562   3.964  1.2130  0.8926 -0.0955
 2540SOL    HW219083   0.783   2.501   4.087  1.9965 -1.5428  1.4058
 2541SOL     OW19084   4.012   4.024   2.611 -0.0428  0.1507  0.1586
 2541SOL    HW119085   3.968   3.940   2.622  2.0614 -0.9097  0.5195
 2541SOL    HW219086   4.006   4.035   2.516 -2.4229 -0.7802  0.2118
 2542SOL     OW19087   3.796   4.328   6.760  0.1916 -0.0305 -0.2245
 2542SOL    HW119088   3.794   4.396   6.693 -0.5805  1.5867  1.4514
 2542SOL    HW219089   3.892   4.325   6.768  0.2253 -2.2958 -1.3977
 2543SOL     OW19090   1.850   1.214   7.525 -0.0825 -0.4049 -0.5771
 2543SOL    HW119091   1.906   1.144   7.490 -2.6579 -2.5787 -0.3742
 2543SOL    HW219092   1.912   1.267   7.574  1.6412 -1.8705 -1.1387
 2544SOL     OW19093   3.307   3.450  17.258  0.0081  0.6450 -0.1290
 2544SOL    HW119094   3.220   3.417  17.233 -0.2561  1.3973 -0.2050
 2544SOL    HW219095   3.362   3.390  17.208  1.1161  0.4837  1.2768
 2545SOL     OW19096   1.222   2.816   4.942  0.2361  0.2705  0.5798
 2545SOL    HW119097   1.203   2.812   4.848  0.2304 -0.2516  0.6034
 2545SOL    HW219098   1.289   2.747   4.942 -1.9439 -1.8600  1.4952
 2546SOL     OW19099   2.576   1.546   8.519 -0.7591  0.4279 -0.0366
 2546SOL    HW119100   2.578   1.460   8.477  1.7172  0.2721  0.4068
 2546SOL    HW219101   2.493   1.545   8.567 -1.0160 -1.0626 -0.4933
 2547SOL     OW19102   2.364   3.887   8.680  0.0698  0.0288 -0.0763
 2547SOL    HW119103   2.375   3.980   8.665 -0.9874  0.1350 -0.2400
 2547SOL    HW219104   2.330   3.854   8.597  1.4820  2.5673 -1.6355
 2548SOL     OW19105   4.215   2.053   7.572 -0.0670  0.1375  0.6458
 2548SOL    HW119106   4.284   2.117   7.589  0.0764 -0.1018  0.9762
 2548SOL    HW219107   4.263   1.992   7.518  0.5551  2.3168 -1.2578
 2549SOL     OW19108   0.805   0.633   3.228 -0.0346  0.0494 -0.2756
 2549SOL    HW119109   0.871   0.566   3.246  1.0940  1.5206  1.0535
 2549SOL    HW219110   0.767   0.657   3.313 -1.4715  0.3445 -1.0017
 2550SOL     OW19111   2.610   1.902   7.721 -0.7478 -0.2994 -0.4453
 2550SOL    HW119112   2.667   1.953   7.664 -0.2681 -1.2588 -0.8327
 2550SOL    HW219113   2.593   1.822   7.671 -0.4180  0.3960 -1.6642
 2551SOL     OW19114   4.537   0.673   4.820  0.3880 -0.4560 -0.5515
 2551SOL    HW119115   4.453   0.696   4.782  1.4178  1.4460 -1.6674
 2551SOL    HW219116   4.576   0.759   4.829  0.3086 -0.3803 -0.9080
 2552SOL     OW19117   1.506   0.146  16.163  0.0971 -0.0342  0.0895
 2552SOL    HW119118   1.584   0.186  16.203  0.1664 -0.5434  0.4690
 2552SOL    HW219119   1.442   0.152  16.234 -0.4682  0.6843 -0.4860
 2553SOL     OW19120   4.062   2.311  15.766 -0.0118  0.2546  0.2742
 2553SOL    HW119121   4.136   2.261  15.800  0.3941  0.5902 -0.1197
 2553SOL    HW219122   4.022   2.240  15.715  0.0232  1.0181 -0.8155
 2554SOL     OW19123   0.333   0.105   4.137 -0.4207  0.2086  0.0379
 2554SOL    HW119124   0.425   0.118   4.159 -0.0733  0.0280 -1.3552
 2554SOL    HW219125   0.304   0.187   4.096 -1.3553 -0.7322 -1.1691
 2555SOL     OW19126   3.136   3.172   8.403 -0.0474 -0.2448  0.5026
 2555SOL    HW119127   3.068   3.195   8.340  0.6266 -0.6150 -0.3550
 2555SOL    HW219128   3.111   3.232   8.473  0.4681  0.8848 -0.2829
 2556SOL     OW19129   2.512   0.058  17.541 -0.4300  0.8676  0.0718
 2556SOL    HW119130   2.446   0.064  17.472 -0.1421  0.8192 -0.2063
 2556SOL    HW219131   2.472   0.115  17.607 -1.7776  1.5984 -1.3551
 2557SOL     OW19132   1.239   1.311   3.523  0.3635 -0.6949 -0.4825
 2557SOL    HW119133   1.172   1.254   3.485  0.4118 -0.5018 -0.8574
 2557SOL    HW219134   1.285   1.322   3.440  0.3091 -1.5550 -0.6290
 2558SOL     OW19135   4.470   1.827  11.668  0.5176  0.2246 -0.1897
 2558SOL    HW119136   4.441   1.736  11.666 -1.3838  0.8595 -1.2191
 2558SOL    HW219137   4.484   1.845  11.575 -1.2171 -0.0855 -0.5017
 2559SOL     OW19138   1.262   2.730  11.651  0.1244 -0.3291 -0.0741
 2559SOL    HW119139   1.344   2.732  11.601 -1.1018 -0.2423 -2.0661
 2559SOL    HW219140   1.300   2.770  11.730 -1.6994 -0.4911  0.8772
 2560SOL     OW19141   1.909   0.979   3.803 -0.2408  0.1641 -0.2640
 2560SOL    HW119142   1.830   0.927   3.789  0.3140 -0.6377 -0.4353
 2560SOL    HW219143   1.953   0.942   3.727 -2.0343 -0.2047 -1.1305
 2561SOL     OW19144   3.778   2.164   6.581 -0.0163  0.0176  0.7930
 2561SOL    HW119145   3.727   2.238   6.546  0.3447 -1.5819 -3.1474
 2561SOL    HW219146   3.704   2.104   6.572  1.6350 -1.7033 -1.1052
 2562SOL     OW19147   3.383   0.431   8.032  0.4361 -0.2307  0.1143
 2562SOL    HW119148   3.374   0.504   8.093  1.0374 -0.3197  0.3092
 2562SOL    HW219149   3.346   0.364   8.088  0.2488 -2.5333 -2.7596
 2563SOL     OW19150   1.508   2.741   6.234  0.1662  0.3817 -0.2262
 2563SOL    HW119151   1.431   2.686   6.251  0.5571  0.0988  0.6446
 2563SOL    HW219152   1.511   2.724   6.140 -1.4093  0.4183 -0.2823
 2564SOL     OW19153   3.592   4.463   1.912  0.2101 -0.1861 -0.1400
 2564SOL    HW119154   3.521   4.524   1.930 -0.6490 -0.9589 -0.9374
 2564SOL    HW219155   3.613   4.436   2.001  0.0541 -2.7117 -0.8713
 2565SOL     OW19156   2.511   0.443   3.442 -0.3992 -0.1546 -0.3214
 2565SOL    HW119157   2.570   0.377   3.405  2.2827  2.7308 -1.0957
 2565SOL    HW219158   2.492   0.402   3.526 -1.4456  0.1757 -0.3926
 2566SOL     OW19159   4.691   0.915   0.421  0.7881 -0.2355  0.0458
 2566SOL    HW119160   4.598   0.927   0.437  0.5184 -0.7349 -1.1298
 2566SOL    HW219161   0.012   1.000   0.410  3.1283 -1.2383  1.4633
 2567SOL     OW19162   2.642   0.491  15.347  0.1405  0.0739  0.3834
 2567SOL    HW119163   2.573   0.550  15.379 -0.9854 -1.2776  0.4589
 2567SOL    HW219164   2.589   0.441  15.285 -0.0944  2.3500 -1.2586
 2568SOL     OW19165   2.275   0.319   6.174 -0.5360  0.2353 -0.4646
 2568SOL    HW119166   2.348   0.321   6.111  0.8690 -0.2357  1.1454
 2568SOL    HW219167   2.282   0.233   6.215  0.7723 -0.2045 -1.6067
 2569SOL     OW19168   4.704   4.344   8.222  0.0535 -0.4107  0.1676
 2569SOL    HW119169   4.651   4.297   8.157 -0.3106 -1.4818  1.2450
 2569SOL    HW219170   4.643   4.363   8.294  0.1716  2.3644 -0.4394
 2570SOL     OW19171   4.528   3.860   8.855  0.3927  0.2758 -0.4825
 2570SOL    HW119172   4.567   3.796   8.796  2.5997  0.0252  1.2735
 2570SOL    HW219173   4.552   3.941   8.812 -0.5045  0.5884 -0.3996
 2571SOL     OW19174   3.676   1.610  12.558 -0.2219  0.1129  0.0141
 2571SOL    HW119175   3.733   1.573  12.625  0.3195  0.7362 -0.1045
 2571SOL    HW219176   3.688   1.702  12.581 -0.0270  0.1736 -0.3319
 2572SOL     OW19177   2.571   2.076  15.044  0.1557 -0.3149 -0.0316
 2572SOL    HW119178   2.636   2.103  14.980 -0.1737  0.8650  0.1387
 2572SOL    HW219179   2.547   2.162  15.079  0.0450 -0.3264 -0.0777
 2573SOL     OW19180   2.922   1.924   2.866  0.0410  0.1697  0.4278
 2573SOL    HW119181   2.918   2.000   2.923 -1.3797 -1.3543  2.3835
 2573SOL    HW219182   2.879   1.854   2.916 -0.0993  0.1475  0.2765
 2574SOL     OW19183   3.113   3.373  14.136  0.2891 -0.1472 -1.0254
 2574SOL    HW119184   3.190   3.378  14.192  0.3332 -1.8563 -0.9466
 2574SOL    HW219185   3.109   3.281  14.110  1.2456 -0.9904  1.7661
 2575SOL     OW19186   0.176   1.745   6.270  0.0805 -0.1294  0.5969
 2575SOL    HW119187   0.232   1.758   6.346 -1.8322  0.8395  1.8403
 2575SOL    HW219188   0.113   1.686   6.311 -0.4450  1.1087  1.5762
 2576SOL     OW19189   2.906   4.201  10.058  0.2043 -0.1021  0.1770
 2576SOL    HW119190   2.876   4.265  10.123 -0.7131  2.8466 -3.1840
 2576SOL    HW219191   2.872   4.249   9.983  0.0424  1.8067  1.4748
 2577SOL     OW19192   1.433   1.642  17.060 -0.5586  0.3149  0.4776
 2577SOL    HW119193   1.344   1.676  17.056 -0.9346 -0.6543  0.5534
 2577SOL    HW219194   1.476   1.699  17.124  0.9439 -0.7592  0.4245
 2578SOL     OW19195   2.210   2.802   7.810  0.3019  0.2978  0.1918
 2578SOL    HW119196   2.155   2.853   7.750 -0.1130 -1.7910 -1.2217
 2578SOL    HW219197   2.171   2.834   7.891 -1.1892 -1.7854  0.2849
 2579SOL     OW19198   4.498   1.021  15.212  0.0418 -0.6267 -0.2322
 2579SOL    HW119199   4.429   1.083  15.235 -1.3346 -1.9030 -0.8897
 2579SOL    HW219200   4.493   0.960  15.286  1.2482 -1.2872 -0.6970
 2580SOL     OW19201   0.205   3.377   3.974 -0.1687  0.2094 -0.3728
 2580SOL    HW119202   0.256   3.430   4.035  1.0742 -0.5010 -0.7972
 2580SOL    HW219203   0.202   3.295   4.023  0.4987 -0.2850 -1.1703
 2581SOL     OW19204   4.322   1.600  13.711 -0.2117  0.0655 -0.7525
 2581SOL    HW119205   4.324   1.519  13.660 -0.3321 -0.5665  0.2436
 2581SOL    HW219206   4.271   1.659  13.655  0.0336  1.2028  0.2221
 2582SOL     OW19207   0.173   3.570   2.900 -0.1485 -0.0015 -0.5424
 2582SOL    HW119208   0.202   3.536   2.985 -1.5087 -0.5811 -0.3114
 2582SOL    HW219209   0.262   3.560   2.866  0.8178 -0.5631  2.1681
 2583SOL     OW19210   3.396   1.711   1.185  0.0966 -0.0817  0.2974
 2583SOL    HW119211   3.436   1.653   1.250 -0.5753 -0.5265  0.3148
 2583SOL    HW219212   3.372   1.650   1.115  2.6548 -0.9194  0.1375
 2584SOL     OW19213   2.293   0.210   7.351  0.3592  0.1121 -0.3365
 2584SOL    HW119214   2.219   0.173   7.302 -2.1893  1.0924  2.8052
 2584SOL    HW219215   2.319   0.272   7.283 -1.1476 -0.2761 -1.2758
 2585SOL     OW19216   1.528   2.111  17.089  0.1214 -0.4102 -0.0513
 2585SOL    HW119217   1.488   2.027  17.110 -1.4346 -0.1220 -1.8744
 2585SOL    HW219218   1.471   2.162  17.146 -1.9833 -2.5276 -0.2654
 2586SOL     OW19219   0.919   2.331   3.228 -0.3296  0.1454  0.5984
 2586SOL    HW119220   1.007   2.299   3.206 -1.0203 -1.7723  0.5710
 2586SOL    HW219221   0.933   2.401   3.292  2.0568 -0.2109  0.4669
 2587SOL     OW19222   3.034   0.503   2.062  0.0819 -0.5990  0.1238
 2587SOL    HW119223   2.975   0.477   1.991 -3.0944  2.1664  1.7457
 2587SOL    HW219224   3.111   0.537   2.016 -0.5325 -0.3447 -0.7207
 2588SOL     OW19225   2.963   0.849   8.421 -0.1806  0.1355  0.5964
 2588SOL    HW119226   3.020   0.788   8.375 -0.6356  0.0895  0.1009
 2588SOL    HW219227   2.950   0.803   8.504 -3.2206  0.7106  0.4309
 2589SOL     OW19228   1.293   4.241   8.315  0.1878 -0.3407 -0.1917
 2589SOL    HW119229   1.219   4.204   8.267 -1.1152  1.0870  0.7114
 2589SOL    HW219230   1.277   4.333   8.295 -0.5502 -0.4510 -0.1152
 2590SOL     OW19231   2.790   2.624  12.583 -0.2643  0.7372 -0.3657
 2590SOL    HW119232   2.729   2.638  12.511 -0.6908  0.9282  0.0294
 2590SOL    HW219233   2.870   2.652  12.539  0.0296  1.2668  0.5141
 2591SOL     OW19234   0.038   1.459   2.439  0.0730  0.2144  0.4944
 2591SOL    HW119235   0.053   1.481   2.530  2.9653  1.8476 -0.3979
 2591SOL    HW219236   0.023   1.548   2.407 -2.1937 -0.6828 -0.9526
 2592SOL     OW19237   0.832   2.288  13.168 -0.3461 -0.7704 -0.0235
 2592SOL    HW119238   0.782   2.242  13.101 -0.0617 -0.2590 -0.5826
 2592SOL    HW219239   0.859   2.363  13.115  0.5499 -1.7412 -0.9481
 2593SOL     OW19240   2.528   4.122  14.001 -0.5089  0.0284 -0.1148
 2593SOL    HW119241   2.587   4.051  13.979 -0.6405  0.1599 -0.8733
 2593SOL    HW219242   2.592   4.193  14.002  0.5989 -0.9898  0.3087
 2594SOL     OW19243   0.286   0.401   5.358 -0.5042 -0.6025  0.4431
 2594SOL    HW119244   0.255   0.363   5.275  0.4969  0.2424 -0.3226
 2594SOL    HW219245   0.206   0.434   5.398 -0.6325  1.4446 -1.4938
 2595SOL     OW19246   2.962   1.538   3.467  0.1137 -0.2788 -0.0194
 2595SOL    HW119247   2.978   1.465   3.528 -1.0912 -0.8009 -0.3341
 2595SOL    HW219248   3.048   1.547   3.427 -0.1450 -0.3386 -0.5779
 2596SOL     OW19249   3.760   1.634   4.759 -0.2362 -0.5159  0.0320
 2596SOL    HW119250   3.731   1.564   4.700 -2.8570 -1.4656  2.4795
 2596SOL    HW219251   3.693   1.694   4.725 -1.2848 -0.2872  2.5433
 2597SOL     OW19252   1.860   1.938   4.494 -0.2682  0.1079 -0.4104
 2597SOL    HW119253   1.921   2.006   4.524 -0.4892  0.8159 -1.5739
 2597SOL    HW219254   1.777   1.969   4.530 -0.6510  0.2158 -1.3980
 2598SOL     OW19255   2.136   2.819   6.176  0.4794 -0.3696 -0.7606
 2598SOL    HW119256   2.057   2.871   6.160  0.9239  0.5678  0.0590
 2598SOL    HW219257   2.104   2.755   6.239 -0.9375  0.2363 -0.8609
 2599SOL     OW19258   0.032   0.536   6.226  0.0489 -0.0484 -0.2340
 2599SOL    HW119259   4.681   0.552   6.287  1.0506  2.0187  0.3912
 2599SOL    HW219260   0.033   0.440   6.220  2.4384 -0.1463  1.4868
 2600SOL     OW19261   3.503   0.124   8.380 -0.3370  0.4363 -0.0444
 2600SOL    HW119262   3.572   0.107   8.445 -0.0758  1.7780  0.0287
 2600SOL    HW219263   3.471   0.039   8.351  3.7574 -1.1033 -0.1409
 2601SOL     OW19264   1.967   4.698   5.568 -0.4952  0.3593 -0.6687
 2601SOL    HW119265   2.039   4.715   5.629  0.1843 -1.8535 -0.8562
 2601SOL    HW219266   1.947   4.605   5.562  1.4737 -0.1704  1.0810
 2602SOL     OW19267   1.992   1.977  11.848  0.1606 -0.2625  0.9287
 2602SOL    HW119268   1.963   1.907  11.790 -2.7149 -0.8500  3.0379
 2602SOL    HW219269   2.058   1.936  11.903  1.6539 -0.7755 -1.2415
 2603SOL     OW19270   0.140   2.277   8.982 -0.0147 -0.5640 -0.0237
 2603SOL    HW119271   0.055   2.260   8.940  0.8098  0.0888 -1.9233
 2603SOL    HW219272   0.125   2.239   9.069  0.3562  1.3263  0.8713
 2604SOL     OW19273   3.813   1.450   8.602 -0.5412 -0.3959  0.3444
 2604SOL    HW119274   3.837   1.399   8.525  1.6168 -0.8684  1.3302
 2604SOL    HW219275   3.759   1.517   8.560 -0.9822 -0.8692  0.1689
 2605SOL     OW19276   2.161   1.673   4.081  0.0841  0.1602  0.2051
 2605SOL    HW119277   2.166   1.626   3.998 -0.5014 -0.7584  0.6851
 2605SOL    HW219278   2.255   1.691   4.089  0.3023 -0.3877 -1.0758
 2606SOL     OW19279   1.458   4.720   8.148  0.8599 -0.2491  0.6917
 2606SOL    HW119280   1.518   0.070   8.170  0.0281  0.8162 -0.5207
 2606SOL    HW219281   1.412   0.044   8.077  0.6963 -1.1641  0.2089
 2607SOL     OW19282   0.992   1.087   4.293 -0.3180  0.2896 -0.4222
 2607SOL    HW119283   1.067   1.124   4.247  1.6236  1.1600  3.4845
 2607SOL    HW219284   0.936   1.165   4.282  0.7023  1.0726 -0.1008
 2608SOL     OW19285   1.002   1.522   5.545  0.5695 -0.0344  0.4386
 2608SOL    HW119286   1.091   1.548   5.568 -0.5420  2.8593  1.5607
 2608SOL    HW219287   1.013   1.491   5.455  3.6887 -1.2650  1.2388
 2609SOL     OW19288   0.475   1.396   9.697  0.4981  0.1607 -0.0464
 2609SOL    HW119289   0.554   1.342   9.685 -0.9810 -2.3272  1.4432
 2609SOL    HW219290   0.451   1.376   9.787  1.8842  1.3348  0.5900
 2610SOL     OW19291   0.531   1.601   0.095  0.0637  0.4697 -0.4794
 2610SOL    HW119292   0.547   1.643   0.010  0.9746 -0.5256 -0.8004
 2610SOL    HW219293   0.567   1.516   0.066  2.4233  1.2933  0.0424
 2611SOL     OW19294   0.959   0.243   8.479 -0.1341 -0.0672 -0.0720
 2611SOL    HW119295   0.909   0.307   8.428 -1.7881 -0.0786  1.5378
 2611SOL    HW219296   1.027   0.298   8.518 -0.5792  0.8088 -0.5214
 2612SOL     OW19297   3.516   4.275  12.116  0.6724  0.1575  0.0696
 2612SOL    HW119298   3.492   4.338  12.049 -1.6690  1.6545  2.2983
 2612SOL    HW219299   3.526   4.200  12.057 -1.8177  0.0232 -0.2183
 2613SOL     OW19300   3.891   3.091   8.198 -0.0653 -0.0093 -0.7472
 2613SOL    HW119301   3.901   3.099   8.293 -0.0010  0.7017 -0.8140
 2613SOL    HW219302   3.804   3.051   8.206  0.8329 -1.9324 -0.5207
 2614SOL     OW19303   1.452   3.310   5.996  0.1586  0.0730 -0.3572
 2614SOL    HW119304   1.408   3.228   6.017 -0.8581  1.0278  1.2720
 2614SOL    HW219305   1.396   3.333   5.921 -1.6776 -0.4285  0.8706
 2615SOL     OW19306   1.544   2.741   2.258  0.6645 -0.2069 -0.4629
 2615SOL    HW119307   1.477   2.793   2.213 -1.1331 -0.9236  1.3717
 2615SOL    HW219308   1.612   2.807   2.273 -0.1470  0.4974  0.1172
 2616SOL     OW19309   3.662   2.030   4.042  0.0672  0.1050 -0.0589
 2616SOL    HW119310   3.629   2.109   3.999 -1.2280 -0.3456  0.1207
 2616SOL    HW219311   3.579   2.003   4.080 -0.2191  0.6392 -0.3019
 2617SOL     OW19312   3.718   4.034   2.426 -0.0468 -0.2404  0.0023
 2617SOL    HW119313   3.802   4.052   2.384  0.4021 -0.4093  0.8276
 2617SOL    HW219314   3.672   3.978   2.363 -3.2972 -1.5212  3.4858
 2618SOL     OW19315   4.670   1.073   7.575  0.6507  0.0520  0.2758
 2618SOL    HW119316   0.020   1.131   7.600  0.2139  0.7826 -0.1762
 2618SOL    HW219317   4.680   1.063   7.481  1.0399 -0.4424  0.3691
 2619SOL     OW19318   1.570   2.389   8.985 -0.5356 -0.1782 -0.3133
 2619SOL    HW119319   1.629   2.440   8.929 -1.4929  0.6954 -0.5234
 2619SOL    HW219320   1.527   2.336   8.918  0.0887  0.0585 -0.8972
 2620SOL     OW19321   1.015   2.456  15.883 -0.1145  0.1839 -0.1446
 2620SOL    HW119322   0.949   2.406  15.930  0.4165 -0.0118  0.4036
 2620SOL    HW219323   1.088   2.451  15.946 -0.9135  2.4573  0.9860
 2621SOL     OW19324   1.722   0.412  15.949 -0.2388 -0.3557  0.0919
 2621SOL    HW119325   1.664   0.416  15.874  1.8254 -1.4047 -1.5533
 2621SOL    HW219326   1.771   0.332  15.930 -1.6401 -0.6690 -2.1959
 2622SOL     OW19327   4.472   4.709   8.120  0.1958 -0.3724 -0.1552
 2622SOL    HW119328   4.436   4.635   8.072 -0.6241  1.6262 -2.6232
 2622SOL    HW219329   4.565   4.685   8.127 -0.4441 -1.9668  2.9397
 2623SOL     OW19330   0.927   4.534   1.995 -0.2505  0.2578 -0.4224
 2623SOL    HW119331   0.890   4.525   1.907 -2.6079 -1.0183  0.6835
 2623SOL    HW219332   0.977   4.615   1.990  1.4075 -0.8201 -1.0028
 2624SOL     OW19333   2.094   0.065  11.470 -0.4036  0.2434  0.7444
 2624SOL    HW119334   2.160   0.109  11.416  0.9180 -0.2543  1.9522
 2624SOL    HW219335   2.106   4.692  11.463 -0.4089  0.3269 -0.3299
 2625SOL     OW19336   3.097   4.145   5.702  0.4060 -0.6184  0.5239
 2625SOL    HW119337   3.137   4.188   5.626 -0.9362  0.7684  0.6120
 2625SOL    HW219338   3.042   4.080   5.659 -1.6306  0.8564  0.9010
 2626SOL     OW19339   1.026   4.622   5.914 -0.6846 -0.3270  0.2658
 2626SOL    HW119340   0.994   4.558   5.850  0.1312 -0.1058 -0.3608
 2626SOL    HW219341   0.940   4.646   5.948 -0.5519  0.8389 -0.2174
 2627SOL     OW19342   3.639   0.692   2.697  0.3718  0.3265  0.1964
 2627SOL    HW119343   3.587   0.621   2.661  0.5108  0.5008 -0.3392
 2627SOL    HW219344   3.664   0.658   2.783 -0.4091 -1.4471 -0.2827
 2628SOL     OW19345   3.730   3.699   1.047 -0.1171 -0.2420  0.0595
 2628SOL    HW119346   3.740   3.787   1.083  3.0894 -0.3732 -0.5252
 2628SOL    HW219347   3.634   3.701   1.040 -0.0562 -0.2694 -0.7914
 2629SOL     OW19348   3.095   4.650  16.517 -0.1645 -0.1233 -0.7002
 2629SOL    HW119349   3.057   4.692  16.440 -0.0416 -0.3972 -0.9088
 2629SOL    HW219350   3.132   0.003  16.564 -2.2384 -1.7499  3.5477
 2630SOL     OW19351   1.029   4.099  16.925 -0.1086 -0.4979  0.4875
 2630SOL    HW119352   1.083   4.153  16.867 -2.7113  2.7869  1.1249
 2630SOL    HW219353   1.057   4.008  16.916 -0.5766 -0.8043  2.1088
 2631SOL     OW19354   1.915   2.435   9.294 -0.6019 -1.1855 -0.4377
 2631SOL    HW119355   1.988   2.379   9.266  1.4724  1.9804 -1.3292
 2631SOL    HW219356   1.900   2.402   9.383  0.8259  1.7011  0.8710
 2632SOL     OW19357   0.182   2.937   2.360 -0.9354  0.0422 -0.2711
 2632SOL    HW119358   0.102   2.987   2.346  0.4341  2.5824  0.9140
 2632SOL    HW219359   0.243   3.006   2.335  1.4519 -1.8913  0.2324
 2633SOL     OW19360   1.879   3.079   3.651  0.0382 -0.5956 -0.1146
 2633SOL    HW119361   1.801   3.025   3.660  1.2337 -2.6500 -2.1151
 2633SOL    HW219362   1.854   3.118   3.567  0.2819  0.7016  0.4179
 2634SOL     OW19363   4.617   1.900  11.447 -0.0483  0.4718  0.3525
 2634SOL    HW119364   4.697   1.895  11.499 -0.7173  0.5553  1.3809
 2634SOL    HW219365   4.642   1.852  11.368  0.5221 -0.5954  1.1891
 2635SOL     OW19366   4.443   1.412   6.197 -0.7977 -0.0560 -0.1201
 2635SOL    HW119367   4.367   1.422   6.254 -1.8491  1.3104 -1.7317
 2635SOL    HW219368   4.439   1.318   6.177 -1.5104 -0.7727  3.4093
 2636SOL     OW19369   3.137   2.078   1.163 -0.8006  0.0532 -0.1856
 2636SOL    HW119370   3.092   2.081   1.079 -0.1652 -3.8673 -0.7058
 2636SOL    HW219371   3.085   2.009   1.205 -0.2652 -0.0383  0.3259
 2637SOL     OW19372   4.594   3.228   4.188  0.2664 -0.2266  0.0125
 2637SOL    HW119373   4.666   3.291   4.198  1.9390 -2.1991  0.4115
 2637SOL    HW219374   4.578   3.217   4.094  1.1246 -0.2138 -0.1339
 2638SOL     OW19375   4.396   2.344   7.276 -0.1389  0.2274  0.1462
 2638SOL    HW119376   4.467   2.281   7.271 -2.2624 -2.2445  1.6026
 2638SOL    HW219377   4.386   2.352   7.181  0.3484  0.9661  0.1525
 2639SOL     OW19378   1.006   3.749   8.371  0.4957  1.0278  0.4204
 2639SOL    HW119379   1.044   3.834   8.350  1.2861  0.5671 -0.0036
 2639SOL    HW219380   1.021   3.747   8.466 -2.8232  0.6985  0.9426
 2640SOL     OW19381   1.668   4.238   7.270  0.2735  0.7774  0.1909
 2640SOL    HW119382   1.631   4.150   7.266 -0.3593  1.0503 -0.0145
 2640SOL    HW219383   1.718   4.241   7.351 -0.4161 -1.2619  0.6917
 2641SOL     OW19384   3.796   3.538   4.759  0.3108  0.2167  0.0438
 2641SOL    HW119385   3.713   3.567   4.722  1.0849  1.6574 -0.5515
 2641SOL    HW219386   3.833   3.619   4.795  0.2261 -2.0453  5.1215
 2642SOL     OW19387   2.549   2.854   0.986 -0.3118 -0.1418  0.2063
 2642SOL    HW119388   2.610   2.781   0.972  1.0212  0.5665  2.2220
 2642SOL    HW219389   2.463   2.824   0.957 -0.2963  0.6560 -0.6527
 2643SOL     OW19390   0.165   3.239   2.575  0.5472  0.3274 -0.0569
 2643SOL    HW119391   0.161   3.333   2.557 -0.3700  0.5818  1.4396
 2643SOL    HW219392   0.087   3.218   2.523  0.4250  0.1052  0.2202
 2644SOL     OW19393   3.013   1.896   7.223 -0.2948 -0.2275  0.3021
 2644SOL    HW119394   3.069   1.973   7.226 -0.0848 -0.2919 -1.5456
 2644SOL    HW219395   3.056   1.827   7.273  0.0662 -0.7474 -0.7090
 2645SOL     OW19396   0.307   0.254  13.719 -0.2830 -0.0447  0.3269
 2645SOL    HW119397   0.275   0.235  13.808  1.2443  0.1932  0.9275
 2645SOL    HW219398   0.353   0.172  13.701  0.6584  0.4620  0.4423
 2646SOL     OW19399   0.865   1.399  10.199  0.5450  0.5422  0.4246
 2646SOL    HW119400   0.843   1.491  10.212 -0.7593  0.0426  1.7606
 2646SOL    HW219401   0.938   1.423  10.142 -0.6778  0.1575 -1.3048
 2647SOL     OW19402   1.368   1.202   4.490 -0.1762  0.1690  0.4061
 2647SOL    HW119403   1.416   1.122   4.468  2.1331  2.2991 -2.2311
 2647SOL    HW219404   1.440   1.255   4.527 -0.0015 -0.5470  1.1080
 2648SOL     OW19405   0.159   2.936   0.126  0.3091  0.6194  0.0729
 2648SOL    HW119406   0.241   2.892   0.102 -0.1733 -1.1414  1.5782
 2648SOL    HW219407   0.170   3.022   0.087  0.7657  0.2811 -0.5339
 2649SOL     OW19408   0.155   2.235   5.918  0.4013  0.3914  0.4522
 2649SOL    HW119409   0.228   2.175   5.907  0.4152  0.1122  2.0411
 2649SOL    HW219410   0.114   2.210   6.001 -1.3455  3.7240  0.5906
 2650SOL     OW19411   2.593   2.993   5.535 -0.0476 -0.2489  0.8035
 2650SOL    HW119412   2.620   3.012   5.445 -0.8315  2.2047  1.0933
 2650SOL    HW219413   2.598   3.080   5.575  0.0205  0.0705  0.1009
 2651SOL     OW19414   1.363   0.299   3.648  0.8020  0.0322 -0.0158
 2651SOL    HW119415   1.371   0.212   3.686 -0.4671 -0.2053 -0.2685
 2651SOL    HW219416   1.447   0.334   3.679  1.1749 -1.4869  0.6522
 2652SOL     OW19417   2.909   1.510   9.489 -0.3931  0.6362 -0.2514
 2652SOL    HW119418   2.953   1.487   9.570  1.6859  0.0183 -1.5634
 2652SOL    HW219419   2.826   1.543   9.523  0.0099  0.3020  1.0299
 2653SOL     OW19420   4.045   1.300   8.176 -0.2827  0.2347 -0.2394
 2653SOL    HW119421   4.092   1.217   8.173  3.3447  2.3652 -1.8604
 2653SOL    HW219422   4.088   1.361   8.236  1.8844  0.3281 -1.9045
 2654SOL     OW19423   3.167   1.851  13.345 -0.4203 -0.2743 -0.0677
 2654SOL    HW119424   3.238   1.891  13.395  1.0069 -0.0379 -2.2958
 2654SOL    HW219425   3.133   1.935  13.315  2.6730  0.3181 -1.8619
 2655SOL     OW19426   1.839   4.079   3.615  0.3579  0.1937 -0.5555
 2655SOL    HW119427   1.808   3.993   3.586  1.2569 -0.4068  0.2433
 2655SOL    HW219428   1.760   4.131   3.600 -0.7928 -1.4501 -0.1958
 2656SOL     OW19429   0.186   1.658   6.003  0.8140  0.2660 -0.0563
 2656SOL    HW119430   0.197   1.666   6.098  1.5096 -2.0383  0.0664
 2656SOL    HW219431   0.094   1.682   6.004  0.6322 -0.6133  3.2231
 2657SOL     OW19432   3.857   3.091  12.239 -0.5546  0.2876 -0.1103
 2657SOL    HW119433   3.866   3.153  12.311 -0.3345 -0.8162  0.8135
 2657SOL    HW219434   3.860   3.010  12.289 -0.5732 -0.5101 -1.4116
 2658SOL     OW19435   3.035   4.589   1.616  0.3704  0.6163  0.1131
 2658SOL    HW119436   2.942   4.569   1.604 -0.0061  2.3794  0.1550
 2658SOL    HW219437   3.041   4.628   1.529  1.3053 -1.6535 -0.8532
 2659SOL     OW19438   1.358   2.054  11.849  0.4187 -0.5759 -0.2451
 2659SOL    HW119439   1.316   2.106  11.781  1.2067  1.1599  0.5857
 2659SOL    HW219440   1.303   2.093  11.918  1.5412 -0.5825  0.6552
 2660SOL     OW19441   3.387   0.208   7.746  0.9241 -0.1698 -0.3822
 2660SOL    HW119442   3.450   0.260   7.796  1.1003 -0.6648 -0.0835
 2660SOL    HW219443   3.452   0.139   7.730  1.1389  0.2753 -1.4401
 2661SOL     OW19444   2.846   4.554   5.426 -0.1008  0.3327  0.3416
 2661SOL    HW119445   2.900   4.592   5.496  0.5330 -1.9079  1.0667
 2661SOL    HW219446   2.849   4.466   5.463 -2.7723 -0.3409 -1.0645
 2662SOL     OW19447   0.564   4.630   1.745  0.0856 -0.1401  0.4612
 2662SOL    HW119448   0.485   4.592   1.783 -0.4808  1.9767  1.4036
 2662SOL    HW219449   0.624   4.555   1.743 -0.5770 -0.6202 -1.3571
 2663SOL     OW19450   1.570   4.043   6.136 -0.3220 -0.6629  0.4007
 2663SOL    HW119451   1.533   3.983   6.201  0.2365 -1.0160  0.3964
 2663SOL    HW219452   1.646   3.995   6.104 -1.1665 -2.6056  1.2891
 2664SOL     OW19453   1.294   2.360  13.684  0.3482  0.3250  0.3833
 2664SOL    HW119454   1.333   2.273  13.692  1.5976  0.9748  1.3723
 2664SOL    HW219455   1.278   2.375  13.591  2.8320 -0.7461 -0.2071
 2665SOL     OW19456   1.900   1.457   3.967  0.0774  0.2962 -0.1529
 2665SOL    HW119457   1.873   1.394   3.900  0.4973 -1.4442  1.3192
 2665SOL    HW219458   1.950   1.408   4.031 -0.8647  0.9232  1.0611
 2666SOL     OW19459   1.110   3.819   3.344  0.6768 -0.5199  0.7429
 2666SOL    HW119460   1.043   3.850   3.283 -0.0591 -2.0355  0.7747
 2666SOL    HW219461   1.138   3.902   3.381 -0.6579 -0.1253  0.8420
 2667SOL     OW19462   0.687   3.292   0.229 -0.2037  0.1313 -0.3244
 2667SOL    HW119463   0.661   3.208   0.191 -1.9529  1.5812 -2.2923
 2667SOL    HW219464   0.774   3.264   0.260 -0.4236  0.4672  0.5777
 2668SOL     OW19465   1.952   3.687   4.506  0.3238 -1.0436 -0.1731
 2668SOL    HW119466   1.895   3.741   4.451  1.6837  1.2123  0.6280
 2668SOL    HW219467   2.030   3.669   4.453  0.4936 -1.2383  0.1404
 2669SOL     OW19468   1.947   1.932   5.506 -0.3632 -0.2911  0.1656
 2669SOL    HW119469   1.978   2.006   5.453  1.0371  1.0288  2.7940
 2669SOL    HW219470   2.027   1.900   5.548 -0.6714 -1.2697 -0.0134
 2670SOL     OW19471   1.816   2.240   8.002 -1.2359  0.4478 -0.4169
 2670SOL    HW119472   1.797   2.147   8.010  0.7548  0.1562  0.8231
 2670SOL    HW219473   1.736   2.272   7.960 -0.1041  3.2067 -0.4952
 2671SOL     OW19474   2.310   2.937   1.740  0.3421 -0.0208 -0.1221
 2671SOL    HW119475   2.290   2.882   1.816  0.6585 -0.5876 -0.4531
 2671SOL    HW219476   2.221   2.964   1.716  0.0455 -1.8148 -1.0052
 2672SOL     OW19477   1.481   0.358   5.354 -0.0266  0.2501 -0.0439
 2672SOL    HW119478   1.439   0.313   5.281 -1.6530 -1.0438  1.6810
 2672SOL    HW219479   1.423   0.334   5.427 -1.0836  0.1295 -0.9213
 2673SOL     OW19480   4.118   3.120   2.538  0.4361 -0.3732  0.2073
 2673SOL    HW119481   4.117   3.209   2.574  1.5889 -0.6829  0.9810
 2673SOL    HW219482   4.140   3.131   2.446 -0.4273  0.4724  0.0967
 2674SOL     OW19483   0.665   3.035   0.161  0.3440 -0.2114 -0.7428
 2674SOL    HW119484   0.671   2.973   0.234 -0.0726 -0.8339 -1.2398
 2674SOL    HW219485   0.660   2.970   0.091 -1.4574  0.0956 -0.9026
 2675SOL     OW19486   0.473   1.287   3.658 -0.1624  0.1685  0.0596
 2675SOL    HW119487   0.451   1.203   3.698  3.1544 -0.2689  0.9957
 2675SOL    HW219488   0.563   1.269   3.632  0.1254  2.7816 -0.7652
 2676SOL     OW19489   3.663   0.424   7.024  0.2073 -0.1395  0.1654
 2676SOL    HW119490   3.645   0.395   6.934  2.5231  3.8348 -1.6130
 2676SOL    HW219491   3.692   0.513   7.001  0.6253 -0.7034 -1.5275
 2677SOL     OW19492   4.143   1.229   4.586 -0.1334 -0.1193 -0.2849
 2677SOL    HW119493   4.090   1.242   4.507  0.0183  1.0662 -0.1802
 2677SOL    HW219494   4.184   1.315   4.590  0.9434 -0.5978 -1.1511
 2678SOL     OW19495   0.431   1.425   6.448 -0.0933 -0.0680 -0.0722
 2678SOL    HW119496   0.472   1.484   6.511 -1.6986  0.4686  0.4512
 2678SOL    HW219497   0.458   1.478   6.373 -2.5685  1.2444  0.0102
 2679SOL     OW19498   2.949   1.308   6.434 -0.3344 -0.1464 -0.8476
 2679SOL    HW119499   2.933   1.229   6.485  1.0733  0.0740 -0.0657
 2679SOL    HW219500   3.025   1.282   6.382  0.2592  0.4865 -0.2921
 2680SOL     OW19501   3.813   1.626  13.075  0.1221  0.1809  0.0581
 2680SOL    HW119502   3.777   1.659  13.157  0.0050  3.0189 -1.1281
 2680SOL    HW219503   3.858   1.705  13.043  0.3825 -0.9205 -2.3101
 2681SOL     OW19504   2.274   2.998   5.216  0.4018 -0.5711  0.3545
 2681SOL    HW119505   2.228   3.055   5.278  0.0317 -0.0447 -0.4067
 2681SOL    HW219506   2.280   2.913   5.259 -2.0475  1.0471  3.8564
 2682SOL     OW19507   1.169   0.857   5.867  0.0608 -0.5108  0.1579
 2682SOL    HW119508   1.202   0.771   5.839 -2.4287 -1.7449  0.9590
 2682SOL    HW219509   1.252   0.904   5.868 -0.6228  0.6709  0.5858
 2683SOL     OW19510   0.417   2.498   5.198 -0.7448 -0.9800 -0.5589
 2683SOL    HW119511   0.459   2.419   5.233  1.1103 -0.1793 -0.9536
 2683SOL    HW219512   0.346   2.446   5.159  0.1317  0.3909 -3.9551
 2684SOL     OW19513   3.998   1.572   3.890  0.2740 -0.4305 -1.0246
 2684SOL    HW119514   4.005   1.663   3.860  0.1410 -0.9189 -2.5607
 2684SOL    HW219515   4.014   1.528   3.807 -1.4390 -1.6058 -0.7309
 2685SOL     OW19516   0.606   2.448   6.883  0.5216 -0.7438  0.1854
 2685SOL    HW119517   0.656   2.487   6.954  0.9165 -0.0248 -0.4993
 2685SOL    HW219518   0.597   2.529   6.835  2.0617 -0.4187  0.4505
 2686SOL     OW19519   3.070   1.760   1.145 -0.0373  0.2455  0.1732
 2686SOL    HW119520   3.046   1.729   1.232 -0.7906  0.8043  0.1584
 2686SOL    HW219521   3.151   1.798   1.179  0.8996 -0.5062 -1.2106
 2687SOL     OW19522   2.847   0.953   3.672  0.2008 -0.1811  0.7371
 2687SOL    HW119523   2.887   0.938   3.587  0.1626  4.9664 -0.2024
 2687SOL    HW219524   2.921   0.937   3.731  0.2848 -0.7886  0.4638
 2688SOL     OW19525   0.858   2.404   2.254  0.4795  0.5810  0.1595
 2688SOL    HW119526   0.878   2.317   2.286 -0.4989 -0.5166 -2.1485
 2688SOL    HW219527   0.763   2.411   2.261  0.2507 -0.8077 -1.4049
 2689SOL     OW19528   1.772   3.873   5.639 -0.1181  0.4685 -0.2213
 2689SOL    HW119529   1.846   3.835   5.686  1.5547  2.3965 -1.3016
 2689SOL    HW219530   1.803   3.901   5.553  0.4861 -1.8664 -0.7468
 2690SOL     OW19531   3.267   1.902   8.453  0.5610  0.4572  0.1605
 2690SOL    HW119532   3.342   1.896   8.513  1.1613 -1.6551 -0.7664
 2690SOL    HW219533   3.284   1.994   8.433 -0.1179  0.6801  0.6133
 2691SOL     OW19534   0.940   0.012   9.173  0.3316  0.6353 -0.1255
 2691SOL    HW119535   0.852   0.040   9.150 -0.0248 -0.7826 -0.4555
 2691SOL    HW219536   0.938   4.653   9.123 -0.6135  1.0733 -0.7833
 2692SOL     OW19537   2.856   4.120   8.323 -0.0840 -0.7217  0.1039
 2692SOL    HW119538   2.903   4.053   8.273  0.0396 -0.4848 -0.0980
 2692SOL    HW219539   2.765   4.113   8.296 -0.4310 -0.1910  1.1789
 2693SOL     OW19540   4.170   2.280   6.071  0.1850 -0.3636 -0.5475
 2693SOL    HW119541   4.162   2.344   6.141  0.0816 -1.0115  0.0290
 2693SOL    HW219542   4.135   2.205   6.118  0.8591 -0.2749  0.0915
 2694SOL     OW19543   1.447   2.139  13.674 -0.1104 -0.1598 -0.1695
 2694SOL    HW119544   1.517   2.111  13.616 -2.1413 -1.6273 -1.8917
 2694SOL    HW219545   1.470   2.090  13.753 -0.7055 -2.7787 -1.6348
 2695SOL     OW19546   3.076   1.895   8.725 -0.2083 -0.1792  0.1197
 2695SOL    HW119547   3.115   1.907   8.639 -2.2040  1.2722 -0.5791
 2695SOL    HW219548   3.132   1.828   8.763 -0.6007 -0.6454 -0.1224
 2696SOL     OW19549   4.363   2.509  17.141  0.4943 -0.1684 -0.3709
 2696SOL    HW119550   4.284   2.523  17.193  1.2604 -2.3728  1.3767
 2696SOL    HW219551   4.380   2.596  17.106 -0.1953 -0.5099 -1.5944
 2697SOL     OW19552   3.243   2.595   9.107  0.1631 -0.0579  0.1345
 2697SOL    HW119553   3.196   2.549   9.177 -1.7888  1.8674  0.0861
 2697SOL    HW219554   3.181   2.666   9.088  3.1812  2.9621  1.5732
 2698SOL     OW19555   3.810   3.499   5.034 -0.2665  0.5012 -0.3990
 2698SOL    HW119556   3.769   3.497   4.947 -1.5214  0.1002  0.2041
 2698SOL    HW219557   3.820   3.405   5.053 -1.0949  0.5914  0.4839
 2699SOL     OW19558   4.213   3.178  10.198 -0.8809 -0.1774 -0.0026
 2699SOL    HW119559   4.280   3.245  10.209  0.7754 -2.0737  1.3009
 2699SOL    HW219560   4.261   3.121  10.257  1.0463  1.3137 -0.1394
 2700SOL     OW19561   0.661   3.863   4.268  0.1787 -0.2613 -0.3197
 2700SOL    HW119562   0.567   3.859   4.288  0.0630  0.2788 -0.7567
 2700SOL    HW219563   0.687   3.949   4.301 -0.0064 -0.4686  0.3887
 2701SOL     OW19564   3.622   2.379   6.497  0.1221 -0.7676 -0.0361
 2701SOL    HW119565   3.634   2.463   6.541 -1.4313 -0.5407 -0.0659
 2701SOL    HW219566   3.528   2.384   6.484  0.3090  0.2012 -0.9903
 2702SOL     OW19567   4.088   1.047  13.185 -0.3159 -0.1793  0.0574
 2702SOL    HW119568   4.013   1.102  13.162  0.2453  0.6653  0.2493
 2702SOL    HW219569   4.127   1.028  13.099 -0.1599  0.7387 -0.0774
 2703SOL     OW19570   4.573   2.319  11.594  0.1944 -0.3531 -0.1379
 2703SOL    HW119571   4.633   2.369  11.648 -1.0105  0.8540  0.0691
 2703SOL    HW219572   4.562   2.240  11.647  3.7587 -1.9914 -1.8045
 2704SOL     OW19573   0.356   1.025   3.565 -0.3850  0.1817  0.6363
 2704SOL    HW119574   0.284   0.992   3.619 -3.0683  1.4984 -2.1208
 2704SOL    HW219575   0.300   1.070   3.501 -0.3613  1.8477  1.7911
 2705SOL     OW19576   0.753   2.105   3.667  0.4024 -0.1243 -0.4472
 2705SOL    HW119577   0.673   2.125   3.619 -0.7192 -1.0369  1.0498
 2705SOL    HW219578   0.814   2.084   3.597 -2.0225  2.4097 -3.3500
 2706SOL     OW19579   2.044   2.922   7.179 -0.2652 -0.0848  0.6824
 2706SOL    HW119580   1.997   2.844   7.148 -1.9074  0.8967  0.7572
 2706SOL    HW219581   2.125   2.885   7.214 -0.2190 -0.2223  0.4387
 2707SOL     OW19582   1.323   1.603   7.141 -0.0210  0.1300  0.0070
 2707SOL    HW119583   1.359   1.525   7.099 -2.5639 -1.0607 -0.0041
 2707SOL    HW219584   1.345   1.661   7.069 -0.6595 -1.3230 -1.3510
 2708SOL     OW19585   4.583   3.439   3.154  0.9579 -0.1879  0.3077
 2708SOL    HW119586   4.490   3.456   3.140  0.8873 -1.7687 -1.0235
 2708SOL    HW219587   4.617   3.494   3.083  0.7202  1.0105  1.1272
 2709SOL     OW19588   1.693   3.966  13.252  0.5774  0.0193  0.2220
 2709SOL    HW119589   1.683   3.923  13.337  1.7587  1.1318  0.9168
 2709SOL    HW219590   1.765   3.915  13.214  0.2954  1.3438 -2.0735
 2710SOL     OW19591   2.044   2.283  13.758  0.6145  0.1784 -0.2973
 2710SOL    HW119592   2.067   2.356  13.701  2.6134 -0.6614 -0.5735
 2710SOL    HW219593   1.976   2.324  13.810  0.2021 -0.9800  0.0898
 2711SOL     OW19594   3.811   2.153  14.528 -0.6095  0.3707 -0.2092
 2711SOL    HW119595   3.829   2.180  14.438 -0.4916 -1.5276 -0.7445
 2711SOL    HW219596   3.763   2.071  14.513 -2.9548  2.0343 -1.7533
 2712SOL     OW19597   0.749   2.450   9.618 -0.1544 -0.1723  0.2205
 2712SOL    HW119598   0.820   2.428   9.678  1.5021  0.8331 -1.3240
 2712SOL    HW219599   0.757   2.546   9.612  0.2319 -0.1381  1.2826
 2713SOL     OW19600   2.749   2.372   1.644 -0.3572 -0.4535 -0.5828
 2713SOL    HW119601   2.736   2.342   1.554 -1.6446  0.9281 -0.8601
 2713SOL    HW219602   2.731   2.465   1.630  1.1035 -0.1307 -0.3573
 2714SOL     OW19603   3.386   4.507   6.821  1.0033  0.2345 -0.3218
 2714SOL    HW119604   3.414   4.481   6.734  0.0162 -0.9756 -0.2696
 2714SOL    HW219605   3.340   4.428   6.847  0.5074  1.0613  1.3387
 2715SOL     OW19606   0.275   0.947   7.401  0.3691 -0.1384 -0.2692
 2715SOL    HW119607   0.198   1.000   7.378  0.8149  0.6893  0.1611
 2715SOL    HW219608   0.227   0.867   7.380 -0.8564  0.4966  0.0682
 2716SOL     OW19609   4.565   3.630   2.955  0.1800 -0.3204  0.4432
 2716SOL    HW119610   4.609   3.714   2.939  0.2870  0.2100  3.6097
 2716SOL    HW219611   4.488   3.637   2.898 -0.4481  1.7185  1.5305
 2717SOL     OW19612   1.103   0.899  17.143  0.2454 -0.2794 -0.0558
 2717SOL    HW119613   1.051   0.965  17.098 -1.3420 -1.3423  0.2066
 2717SOL    HW219614   1.194   0.929  17.143  0.2708 -0.3655 -1.7881
 2718SOL     OW19615   1.147   1.516   5.034  0.3148 -0.1393 -0.0725
 2718SOL    HW119616   1.139   1.483   5.124 -0.9242 -0.8468 -0.4280
 2718SOL    HW219617   1.211   1.451   5.007 -1.4573 -0.2661 -3.9905
 2719SOL     OW19618   4.225   1.125  15.322  0.0044 -0.1191 -0.5144
 2719SOL    HW119619   4.229   1.211  15.364  0.6890 -1.6431  2.4959
 2719SOL    HW219620   4.176   1.150  15.243 -0.8033 -0.8409 -0.2455
 2720SOL     OW19621   0.447   0.271   3.867 -0.0138 -0.4694  0.4023
 2720SOL    HW119622   0.382   0.301   3.931  0.4110  1.2719  0.0030
 2720SOL    HW219623   0.520   0.327   3.892  0.2165 -0.3712 -0.5091
 2721SOL     OW19624   4.052   4.038   3.698 -0.2865  0.3204  0.1928
 2721SOL    HW119625   4.142   4.046   3.666  0.0088 -0.8374  0.6921
 2721SOL    HW219626   4.062   4.051   3.793 -2.0785  2.2969  0.1086
 2722SOL     OW19627   0.011   3.176   5.938  0.5453 -0.4428  0.1464
 2722SOL    HW119628   0.027   3.270   5.933  1.3698 -0.4783  2.2597
 2722SOL    HW219629   4.637   3.172   5.944  0.5346  1.9200  1.4878
 2723SOL     OW19630   0.506   4.432   5.592 -0.0848  0.1041 -0.4173
 2723SOL    HW119631   0.519   4.510   5.646 -0.6515 -0.6143  0.7690
 2723SOL    HW219632   0.497   4.477   5.509  0.2327  2.1212  0.6536
 2724SOL     OW19633   1.216   0.258   5.944  0.7869  0.5501  0.0660
 2724SOL    HW119634   1.235   0.213   5.861  0.8935  2.0267 -0.7240
 2724SOL    HW219635   1.203   0.185   6.004  0.9692  0.3012 -0.1982
 2725SOL     OW19636   3.444   2.453   5.061 -0.2575  0.2930  0.5355
 2725SOL    HW119637   3.470   2.424   4.974 -1.9753 -0.9577  0.4397
 2725SOL    HW219638   3.454   2.547   5.044 -2.3212  0.0012 -2.2013
 2726SOL     OW19639   0.020   1.310   3.442 -0.0341 -0.0864 -0.8140
 2726SOL    HW119640   0.025   1.400   3.474 -1.6977 -0.6977  1.1516
 2726SOL    HW219641   4.683   1.273   3.508 -1.2323 -0.4175 -2.0594
 2727SOL     OW19642   0.577   3.330   6.617  0.5138  0.4185  0.8795
 2727SOL    HW119643   0.649   3.393   6.615  0.7825  0.0847 -0.1793
 2727SOL    HW219644   0.586   3.284   6.534 -0.8776  1.5933  0.0621
 2728SOL     OW19645   2.105   2.524   5.634 -0.2401  0.3591 -0.2046
 2728SOL    HW119646   2.020   2.527   5.677 -1.1703  0.6232 -2.0296
 2728SOL    HW219647   2.090   2.557   5.545  0.5427  0.3245 -0.3483
 2729SOL     OW19648   4.552   2.161   2.799  0.6322  0.4280  0.7729
 2729SOL    HW119649   4.596   2.145   2.716  0.1401  1.1710  0.3681
 2729SOL    HW219650   4.460   2.135   2.789  0.7326  0.4153 -0.1285
 2730SOL     OW19651   4.008   2.743   0.526 -0.4355  0.5305 -0.4864
 2730SOL    HW119652   4.067   2.816   0.540 -0.7496  0.6509  0.2396
 2730SOL    HW219653   3.966   2.746   0.612 -0.0391  1.1285 -0.3135
 2731SOL     OW19654   3.816   0.504   6.067  0.5090 -0.3156 -0.3191
 2731SOL    HW119655   3.817   0.530   5.974  2.0521  0.3284 -0.1197
 2731SOL    HW219656   3.867   0.575   6.107 -2.7186  1.8797 -0.0525
 2732SOL     OW19657   3.381   2.969   5.981  0.4017  0.2477  0.3730
 2732SOL    HW119658   3.452   2.954   5.919  0.1125  0.4514 -0.0018
 2732SOL    HW219659   3.309   2.981   5.920  1.1571  3.0448 -0.0005
 2733SOL     OW19660   2.919   4.709   8.350 -0.8215  0.3112  0.4071
 2733SOL    HW119661   2.856   0.000   8.421  2.4341  0.9256  3.2155
 2733SOL    HW219662   2.999   0.024   8.390 -0.7310  0.8314 -0.2438
 2734SOL     OW19663   2.857   3.211   4.241  0.1558  0.0751 -0.2878
 2734SOL    HW119664   2.858   3.305   4.221  2.9653  0.3885  1.3839
 2734SOL    HW219665   2.814   3.180   4.161  0.6652  1.1885 -0.9987
 2735SOL     OW19666   3.901   3.127   7.765 -0.2034 -0.2658 -0.4226
 2735SOL    HW119667   3.838   3.056   7.780 -1.4022  1.1943  1.5424
 2735SOL    HW219668   3.980   3.074   7.756  0.3842  0.5073  0.2553
 2736SOL     OW19669   3.959   1.863  13.164 -0.0961  0.1362 -0.0139
 2736SOL    HW119670   4.023   1.903  13.106 -1.1555  0.7802 -0.7566
 2736SOL    HW219671   3.903   1.939  13.181  0.1594  0.3969 -0.3419
 2737SOL     OW19672   1.071   2.104   1.247 -0.0886 -0.4794 -0.2500
 2737SOL    HW119673   1.042   2.137   1.332 -0.6463  1.0074 -1.0161
 2737SOL    HW219674   1.112   2.022   1.276 -0.9157 -1.0374 -0.6455
 2738SOL     OW19675   0.042   2.025   7.585 -0.3496 -0.8158  0.0709
 2738SOL    HW119676   0.042   2.064   7.672 -1.9512  1.4316 -0.9556
 2738SOL    HW219677   0.137   2.015   7.580 -0.0932  2.3791 -1.1398
 2739SOL     OW19678   1.644   3.513   5.839  0.0496 -0.2998 -0.0639
 2739SOL    HW119679   1.624   3.486   5.750 -2.2474 -2.3048  1.0700
 2739SOL    HW219680   1.623   3.436   5.892 -1.0669 -0.3870 -0.6511
 2740SOL     OW19681   4.401   3.804   2.718  0.1770  0.1686 -0.2503
 2740SOL    HW119682   4.331   3.757   2.762 -0.9754  2.5144  0.4077
 2740SOL    HW219683   4.431   3.739   2.654  3.0454 -0.5250  1.7846
 2741SOL     OW19684   3.064   3.497   3.043 -0.8693 -0.0978  0.0522
 2741SOL    HW119685   3.052   3.572   2.985  2.1349 -0.2745 -0.7973
 2741SOL    HW219686   3.107   3.549   3.112 -2.9569  0.9584  0.5390
 2742SOL     OW19687   1.657   1.424   9.524  0.4370  0.1276 -0.2485
 2742SOL    HW119688   1.667   1.350   9.584  3.4393  1.6450  1.1137
 2742SOL    HW219689   1.578   1.459   9.566  0.2032 -1.1314  0.3701
 2743SOL     OW19690   0.355   2.266  17.311  0.0876 -0.1078 -0.1084
 2743SOL    HW119691   0.354   2.233  17.401 -0.0950  1.8917  0.6309
 2743SOL    HW219692   0.290   2.336  17.321  1.7323  1.6796 -1.6694
 2744SOL     OW19693   4.707   0.451   9.186  0.2211 -0.7714 -0.1277
 2744SOL    HW119694   4.634   0.497   9.147  0.0667 -0.5050  0.4698
 2744SOL    HW219695   4.691   0.438   9.280 -1.0774 -1.5281 -0.4602
 2745SOL     OW19696   0.011   1.198   0.473  0.2006  0.0497  0.6569
 2745SOL    HW119697   4.686   1.273   0.434 -1.1508 -1.1654 -0.0491
 2745SOL    HW219698   0.030   1.227   0.562  1.6424 -2.8572  1.2762
 2746SOL     OW19699   0.105   0.742   4.796 -0.0396 -0.0800  0.6929
 2746SOL    HW119700   0.093   0.834   4.771  5.1382  0.1803 -0.9735
 2746SOL    HW219701   0.173   0.719   4.733 -0.9623 -0.7724 -0.0572
 2747SOL     OW19702   0.945   0.354   9.849 -0.9910 -0.1247  0.1506
 2747SOL    HW119703   0.868   0.387   9.896 -1.2426 -0.2391 -0.1811
 2747SOL    HW219704   0.968   0.291   9.918 -1.1201 -0.7754 -0.4039
 2748SOL     OW19705   4.442   1.561   7.552 -0.2578  0.3290 -0.2911
 2748SOL    HW119706   4.373   1.568   7.617 -0.7294 -1.3304 -0.6214
 2748SOL    HW219707   4.442   1.466   7.540 -2.8387  0.2184  0.7993
 2749SOL     OW19708   3.211   0.467   8.787  0.1892  0.1027 -0.1670
 2749SOL    HW119709   3.263   0.545   8.810 -0.3591  0.8739 -1.5565
 2749SOL    HW219710   3.278   0.399   8.782 -1.1865 -1.1552 -1.5264
 2750SOL     OW19711   4.247   0.437   1.907  0.1087  0.2929 -0.0170
 2750SOL    HW119712   4.165   0.407   1.868 -1.2064 -0.2410  3.2257
 2750SOL    HW219713   4.299   0.448   1.827 -1.5631 -0.2853 -1.1915
 2751SOL     OW19714   3.064   0.119  13.947 -0.2665 -0.1404 -0.1544
 2751SOL    HW119715   2.991   0.174  13.919  0.7452  1.7644  1.0014
 2751SOL    HW219716   3.049   0.128  14.041  1.7435 -2.2287  0.3715
 2752SOL     OW19717   2.783   3.983   7.688  0.3652  0.4603  0.0463
 2752SOL    HW119718   2.753   3.892   7.681 -2.5234  1.3546  0.9575
 2752SOL    HW219719   2.707   4.025   7.728  1.7201  0.8977  2.1773
 2753SOL     OW19720   4.484   1.257   9.410 -0.0575  0.3286  0.0614
 2753SOL    HW119721   4.533   1.289   9.486 -0.1568 -1.4816  0.8739
 2753SOL    HW219722   4.440   1.181   9.448  0.5277 -0.0356  0.0113
 2754SOL     OW19723   0.320   3.202  15.635 -0.6016  0.3389 -0.7770
 2754SOL    HW119724   0.336   3.131  15.698 -0.0821 -0.2703 -1.6072
 2754SOL    HW219725   0.233   3.231  15.665 -1.4053 -2.0485 -0.7955
 2755SOL     OW19726   3.237   3.304   6.895 -0.6467  0.1745 -0.3018
 2755SOL    HW119727   3.167   3.277   6.835 -1.0909  3.0548 -1.0816
 2755SOL    HW219728   3.175   3.319   6.967 -0.2576  0.9476 -0.1291
 2756SOL     OW19729   3.884   1.024   8.279 -0.2109 -0.1405 -0.3437
 2756SOL    HW119730   3.913   0.935   8.301 -1.1435 -0.1835  0.6665
 2756SOL    HW219731   3.967   1.055   8.241  0.4787 -0.0623  1.2306
 2757SOL     OW19732   1.360   3.379  11.015 -0.3307 -0.3449  0.0630
 2757SOL    HW119733   1.380   3.429  10.936 -1.3302  1.2747  0.8138
 2757SOL    HW219734   1.451   3.366  11.043 -0.0574  0.8320 -0.2639
 2758SOL     OW19735   3.057   1.462   0.440 -0.0190  0.0991 -0.1637
 2758SOL    HW119736   2.990   1.522   0.471  0.0503 -1.2850  2.6848
 2758SOL    HW219737   3.032   1.464   0.348 -2.6306 -0.7553  0.5192
 2759SOL     OW19738   3.648   0.629   2.978 -0.0520  0.3628  0.4893
 2759SOL    HW119739   3.657   0.699   3.042 -0.0255  1.5244 -0.7842
 2759SOL    HW219740   3.553   0.619   2.969  0.1751 -0.5533 -0.9876
 2760SOL     OW19741   4.629   1.083   6.006  0.1534 -0.3501 -0.1017
 2760SOL    HW119742   4.537   1.108   5.995  1.2120  2.8192 -1.8087
 2760SOL    HW219743   4.664   1.080   5.917 -1.3492  2.7201 -0.7647
 2761SOL     OW19744   0.799   3.404   6.979 -0.1058 -0.3806  0.4607
 2761SOL    HW119745   0.866   3.472   6.988 -3.2452  2.8221 -0.7293
 2761SOL    HW219746   0.764   3.423   6.892  1.6479 -1.2477 -0.4507
 2762SOL     OW19747   0.968   1.851   6.354  0.2203  0.1858 -0.1506
 2762SOL    HW119748   0.957   1.881   6.444 -3.6565 -0.6449 -0.3501
 2762SOL    HW219749   1.019   1.929   6.336  0.7021 -0.1491 -0.2389
 2763SOL     OW19750   1.642   2.006  16.038  0.2999 -0.1201 -0.1623
 2763SOL    HW119751   1.674   2.061  15.967  1.1348  0.0322  0.3371
 2763SOL    HW219752   1.702   2.021  16.110 -1.9107  0.8341  1.4827
 2764SOL     OW19753   2.089   2.244   9.152 -0.4445 -0.7817  0.4604
 2764SOL    HW119754   2.138   2.171   9.188 -1.4142 -0.9143  1.5061
 2764SOL    HW219755   2.044   2.194   9.084 -2.1818 -1.0848  1.8376
 2765SOL     OW19756   1.949   0.681   5.865 -0.5564  0.0037  0.8092
 2765SOL    HW119757   1.917   0.631   5.940 -3.6012  1.9771  0.8300
 2765SOL    HW219758   2.040   0.651   5.869 -0.3855  0.1976 -1.7563
 2766SOL     OW19759   4.706   4.456   3.405 -0.0537 -0.1907  0.0995
 2766SOL    HW119760   0.020   4.398   3.473  2.2825  0.1320 -0.8420
 2766SOL    HW219761   4.691   4.539   3.450 -1.9381 -0.6901  0.3825
 2767SOL     OW19762   1.838   3.855   9.721 -0.2343  0.0501 -0.5515
 2767SOL    HW119763   1.921   3.828   9.681 -0.1683  0.0295 -0.4004
 2767SOL    HW219764   1.852   3.807   9.803  1.3992 -1.2021 -1.5721
 2768SOL     OW19765   3.680   3.952  13.082  0.3103  0.2528 -0.1394
 2768SOL    HW119766   3.735   3.886  13.040  0.4752 -0.6514  1.4785
 2768SOL    HW219767   3.707   3.937  13.173 -0.7693 -1.2721 -0.0592
 2769SOL     OW19768   3.283   2.823  11.744  0.3165 -0.5125 -0.1393
 2769SOL    HW119769   3.195   2.860  11.733 -0.2527 -2.4386 -2.1538
 2769SOL    HW219770   3.284   2.796  11.652 -0.1604  2.1355 -0.9178
 2770SOL     OW19771   2.570   4.395   1.266 -0.7256  0.0233  0.3868
 2770SOL    HW119772   2.617   4.313   1.281  1.6571  0.7881 -2.8286
 2770SOL    HW219773   2.581   4.445   1.346  0.1279  3.0036 -1.5878
 2771SOL     OW19774   2.838   2.393  17.414  0.0665 -0.1121 -0.1470
 2771SOL    HW119775   2.810   2.454  17.346  0.5117  1.0535  0.7093
 2771SOL    HW219776   2.850   2.316  17.359 -1.6678 -0.3216 -0.2154
 2772SOL     OW19777   1.943   1.350  12.059  0.1666  0.1855 -0.3408
 2772SOL    HW119778   1.917   1.398  11.981 -1.5839 -1.7144 -0.9292
 2772SOL    HW219779   1.862   1.362  12.109 -0.5726  1.5140 -1.8677
 2773SOL     OW19780   4.500   2.976   8.360  0.4084  0.4152  0.4968
 2773SOL    HW119781   4.498   3.033   8.283 -0.5560 -0.1015  0.1485
 2773SOL    HW219782   4.531   3.045   8.419  0.8097  0.1177  0.6414
 2774SOL     OW19783   1.884   2.717   7.954  0.1835  0.5353 -0.5305
 2774SOL    HW119784   1.887   2.637   8.006 -0.2601  0.7030 -0.2512
 2774SOL    HW219785   1.937   2.695   7.877 -0.2465 -1.9617 -0.1228
 2775SOL     OW19786   1.466   2.311   8.519  0.1494 -0.0447 -0.2402
 2775SOL    HW119787   1.446   2.402   8.495  0.8937  0.4714  1.0917
 2775SOL    HW219788   1.532   2.294   8.452  2.3147 -0.8749  2.0801
 2776SOL     OW19789   2.088   4.029   3.907  0.5690 -0.4337  0.5530
 2776SOL    HW119790   2.125   3.962   3.850 -0.9259 -1.9611  1.3771
 2776SOL    HW219791   2.059   3.981   3.985 -4.7182  0.3224 -0.9062
 2777SOL     OW19792   3.864   1.864   5.347  0.0300 -0.6797  0.4502
 2777SOL    HW119793   3.943   1.815   5.367  0.7687 -0.0124 -0.9297
 2777SOL    HW219794   3.813   1.846   5.427 -0.8597 -0.9453 -0.1757
 2778SOL     OW19795   1.518   1.881   1.395  0.1730  0.1791  0.2074
 2778SOL    HW119796   1.596   1.825   1.393  1.3014  1.6916  2.0424
 2778SOL    HW219797   1.502   1.899   1.488 -2.3898 -0.7829 -0.0443
 2779SOL     OW19798   2.957   0.320   9.972  0.0735  0.2484  0.5626
 2779SOL    HW119799   3.030   0.281  10.020  1.0882 -0.4610 -1.5546
 2779SOL    HW219800   2.974   0.279   9.887 -0.0938  0.5317  0.3933
 2780SOL     OW19801   0.241   2.554   7.838 -0.1670  0.4297  0.0420
 2780SOL    HW119802   0.183   2.535   7.912 -1.1953 -0.1633 -0.8963
 2780SOL    HW219803   0.196   2.494   7.777  0.5474  1.3495 -1.3824
 2781SOL     OW19804   0.032   1.055   7.288  0.5491  0.0002  0.2882
 2781SOL    HW119805   4.678   1.043   7.230 -0.1308  0.2356  1.1353
 2781SOL    HW219806   0.074   1.132   7.249 -0.1768  0.1611 -0.1817
 2782SOL     OW19807   3.194   0.781   3.272  0.2399 -0.8213 -0.1710
 2782SOL    HW119808   3.130   0.772   3.201 -2.1903  0.2381  1.8746
 2782SOL    HW219809   3.241   0.864   3.263 -0.0386 -0.7267 -0.7682
 2783SOL     OW19810   0.518   1.831   5.995  0.1799 -0.6521 -0.0503
 2783SOL    HW119811   0.515   1.758   5.933 -1.3437 -0.4355 -0.2484
 2783SOL    HW219812   0.609   1.822   6.020 -0.0225  0.4159  1.1125
 2784SOL     OW19813   1.362   4.303  11.224  0.2228  0.1995 -0.2462
 2784SOL    HW119814   1.321   4.233  11.275 -0.1362  0.9066  0.4536
 2784SOL    HW219815   1.332   4.379  11.274  2.3834  0.3091  0.8896
 2785SOL     OW19816   2.721   3.072   5.299  0.7029  0.0400  0.1611
 2785SOL    HW119817   2.742   3.163   5.318 -0.8695  0.6762 -1.1329
 2785SOL    HW219818   2.666   3.086   5.222  1.9404  0.7215 -0.5881
 2786SOL     OW19819   2.876   3.464   4.156  0.2210  0.4078 -0.1178
 2786SOL    HW119820   2.897   3.557   4.166 -1.5178  0.7745  0.1198
 2786SOL    HW219821   2.887   3.464   4.060 -2.0208 -2.9948 -0.3789
 2787SOL     OW19822   0.958   1.405  10.472  0.0156  0.1781  0.2955
 2787SOL    HW119823   0.911   1.374  10.394  2.0080 -0.8882 -0.5043
 2787SOL    HW219824   0.960   1.497  10.445 -0.1694  0.0488 -0.1682
 2788SOL     OW19825   2.972   1.123  13.586  0.4481  0.0250 -0.1430
 2788SOL    HW119826   2.943   1.128  13.677  0.7139  2.2846 -0.1726
 2788SOL    HW219827   3.066   1.118  13.605  0.6351  0.9931 -0.7958
 2789SOL     OW19828   0.170   0.460  15.669 -0.3424  0.0165  0.4033
 2789SOL    HW119829   0.129   0.408  15.599 -1.4159  2.9737 -1.1668
 2789SOL    HW219830   0.092   0.471  15.723  0.6982 -0.8918  2.0930
 2790SOL     OW19831   3.629   4.549  12.474 -0.0664 -0.2831  0.3767
 2790SOL    HW119832   3.586   4.464  12.477 -1.1119  0.2484  0.4542
 2790SOL    HW219833   3.608   4.571  12.565  0.4202 -2.3962  0.9909
 2791SOL     OW19834   4.666   1.306   7.068 -0.1869  0.3463 -0.0811
 2791SOL    HW119835   0.008   1.272   7.004 -0.7716 -1.9722  0.5539
 2791SOL    HW219836   4.586   1.288   7.019 -0.1407 -0.7193  0.2266
 2792SOL     OW19837   1.773   0.731   6.730 -0.5181 -0.5539 -0.2522
 2792SOL    HW119838   1.857   0.689   6.711 -0.5631 -0.6034 -0.3378
 2792SOL    HW219839   1.697   0.674   6.729 -0.9229 -0.0156 -0.1756
 2793SOL     OW19840   4.550   2.345   8.849 -0.5542 -0.2028 -0.2864
 2793SOL    HW119841   4.585   2.393   8.924 -1.5708 -2.8161  1.8598
 2793SOL    HW219842   4.520   2.417   8.794 -0.3612 -0.7675 -1.1393
 2794SOL     OW19843   1.910   3.925   2.728 -0.4780  0.6192 -0.4158
 2794SOL    HW119844   1.848   3.895   2.662  1.6354 -0.4079 -1.9283
 2794SOL    HW219845   1.857   3.954   2.802 -2.2475  1.0004 -1.8463
 2795SOL     OW19846   1.172   3.527  10.226 -0.0966  0.2813  0.5529
 2795SOL    HW119847   1.080   3.548  10.213 -0.2769 -1.2740 -0.6870
 2795SOL    HW219848   1.195   3.492  10.140 -0.8994  0.3136  0.3282
 2796SOL     OW19849   0.295   1.987  13.521 -0.2644  0.5363 -0.1696
 2796SOL    HW119850   0.289   1.947  13.608  1.6940  1.1230  0.2303
 2796SOL    HW219851   0.297   2.082  13.537  1.5175  0.3900  0.3960
 2797SOL     OW19852   0.616   3.694   8.475  0.5761 -0.1308 -0.0412
 2797SOL    HW119853   0.593   3.624   8.414 -0.7958 -2.2199  2.8587
 2797SOL    HW219854   0.581   3.772   8.433 -0.1431  0.4317  1.6062
 2798SOL     OW19855   1.241   3.835   5.099  0.1433  0.6400 -0.7223
 2798SOL    HW119856   1.258   3.741   5.099  0.6306  0.7353 -2.2300
 2798SOL    HW219857   1.149   3.841   5.127 -0.0307 -1.4155 -0.8975
 2799SOL     OW19858   2.496   0.643   7.678  0.4778 -0.5913  0.3766
 2799SOL    HW119859   2.573   0.694   7.653 -0.2061  0.5852  0.6987
 2799SOL    HW219860   2.515   0.569   7.619  0.0480  0.4262 -1.0309
 2800SOL     OW19861   3.456   1.492   8.896  0.0942  0.2931  0.2710
 2800SOL    HW119862   3.474   1.507   8.803  1.3846 -0.6873  0.3814
 2800SOL    HW219863   3.388   1.426   8.881  2.9740 -2.3633 -1.0335
 2801SOL     OW19864   2.978   3.108   9.167 -0.0515 -0.4417 -0.3438
 2801SOL    HW119865   3.004   3.150   9.084  1.4576 -1.3925 -0.3629
 2801SOL    HW219866   3.030   3.149   9.236  0.2342  0.7369 -1.2398
 2802SOL     OW19867   3.842   0.088   4.152  0.5165  0.5166  0.9955
 2802SOL    HW119868   3.840   0.043   4.068  0.6633  0.5460  0.9769
 2802SOL    HW219869   3.874   0.022   4.214 -0.8746  0.9383  2.1684
 2803SOL     OW19870   0.315   0.177   7.601 -0.1519  0.1594  0.0726
 2803SOL    HW119871   0.306   0.196   7.508 -0.1096 -0.5266 -0.0725
 2803SOL    HW219872   0.260   0.238   7.650 -0.3520  0.4357 -0.4940
 2804SOL     OW19873   1.568   0.255   8.756  0.3494 -0.1543 -0.4206
 2804SOL    HW119874   1.571   0.350   8.757 -0.5562 -0.1246  0.8201
 2804SOL    HW219875   1.474   0.240   8.773  0.5311  0.0476  0.8164
 2805SOL     OW19876   2.896   0.615   7.787  0.2410 -0.3083  0.4792
 2805SOL    HW119877   2.967   0.615   7.851  0.1366 -1.5632  0.6029
 2805SOL    HW219878   2.929   0.551   7.724 -0.9172 -1.2059  0.7869
 2806SOL     OW19879   1.556   0.480   0.843  0.3200  0.4499  0.3906
 2806SOL    HW119880   1.630   0.507   0.789 -0.1893 -0.8640 -0.9468
 2806SOL    HW219881   1.496   0.438   0.781  0.4696 -3.3747  2.8541
 2807SOL     OW19882   1.809   2.825  10.122  0.2328 -0.4788 -0.0220
 2807SOL    HW119883   1.851   2.763  10.182 -0.5445 -0.0227  0.9877
 2807SOL    HW219884   1.721   2.790  10.139 -0.4568  1.5688  0.5478
 2808SOL     OW19885   4.574   3.822   9.402  0.0920  0.1051 -0.7454
 2808SOL    HW119886   4.608   3.772   9.477 -0.8609  0.3189 -0.1690
 2808SOL    HW219887   4.487   3.782   9.404  0.2476 -0.2411 -0.8990
 2809SOL     OW19888   0.206   2.268   1.741 -0.3590 -0.2778 -0.5000
 2809SOL    HW119889   0.111   2.263   1.734 -0.6010  2.6823  0.7414
 2809SOL    HW219890   0.229   2.226   1.824  0.4988  0.3021 -0.4489
 2810SOL     OW19891   3.566   0.566   4.046  0.3332  0.0227 -0.7795
 2810SOL    HW119892   3.539   0.540   4.134  0.5488 -1.1070 -1.0538
 2810SOL    HW219893   3.653   0.529   4.035  0.2194 -0.9292  1.4494
 2811SOL     OW19894   3.459   2.420   6.260 -0.7761  0.3880 -0.1806
 2811SOL    HW119895   3.430   2.331   6.283 -2.0159  1.0423  0.7831
 2811SOL    HW219896   3.484   2.410   6.169  1.3813  2.3105  0.1961
 2812SOL     OW19897   0.142   3.048   4.291 -0.0266 -0.8002 -0.3194
 2812SOL    HW119898   0.221   3.100   4.279 -0.4496  0.3596  1.8551
 2812SOL    HW219899   0.127   3.010   4.205 -0.3344 -1.6466  0.1071
 2813SOL     OW19900   0.213   4.144  14.151  0.1337 -0.5678 -0.2859
 2813SOL    HW119901   0.273   4.080  14.188  1.0760  1.0461  0.9276
 2813SOL    HW219902   0.273   4.200  14.102  1.6759 -0.6758  1.4880
 2814SOL     OW19903   4.661   0.467  12.946  0.4613  0.2423  0.0359
 2814SOL    HW119904   4.652   0.563  12.952 -2.5030 -0.0930  1.0564
 2814SOL    HW219905   4.606   0.448  12.870  2.1575  0.2006 -1.1847
 2815SOL     OW19906   1.820   2.158   0.377 -0.4040 -0.3635 -0.4954
 2815SOL    HW119907   1.852   2.069   0.388 -0.0803 -0.0885  0.8042
 2815SOL    HW219908   1.758   2.158   0.450  1.5948 -1.4821  1.2196
 2816SOL     OW19909   3.280   2.055   7.888  0.9671  0.6484  0.5591
 2816SOL    HW119910   3.221   1.982   7.907  0.6670  0.7779  0.1317
 2816SOL    HW219911   3.231   2.114   7.830  2.3456  0.3364 -0.9073
 2817SOL     OW19912   2.798   4.371  10.288 -0.1394 -0.3110 -0.1897
 2817SOL    HW119913   2.753   4.301  10.335  0.4584 -0.6245 -0.0783
 2817SOL    HW219914   2.890   4.352  10.306  0.1233  0.5328 -0.6293
 2818SOL     OW19915   3.312   0.347   2.333  0.0859 -0.2234  0.0869
 2818SOL    HW119916   3.380   0.411   2.354 -0.8353  0.5977  0.5489
 2818SOL    HW219917   3.310   0.361   2.239  0.9812 -0.6189  0.0109
 2819SOL     OW19918   3.467   0.643   2.140 -0.7200 -0.6536  0.2569
 2819SOL    HW119919   3.521   0.627   2.063  1.8540 -0.7097  2.0930
 2819SOL    HW219920   3.379   0.620   2.111 -0.4436 -0.6510 -0.5847
 2820SOL     OW19921   3.910   1.143   3.577 -0.2590 -0.5154  0.2450
 2820SOL    HW119922   3.888   1.050   3.577  0.9725 -0.8094  0.2951
 2820SOL    HW219923   3.915   1.164   3.670 -0.2315 -0.8556  0.3210
 2821SOL     OW19924   0.380   3.427   6.952 -0.0688  0.0164 -0.4953
 2821SOL    HW119925   0.397   3.509   6.998  0.9663  0.5171 -1.8023
 2821SOL    HW219926   0.304   3.391   6.998  1.6922 -3.1601  0.0005
 2822SOL     OW19927   4.608   0.766  11.580  0.1586  0.0149 -0.3663
 2822SOL    HW119928   4.520   0.729  11.593 -0.8017  2.3168 -0.2676
 2822SOL    HW219929   4.613   0.820  11.658  0.4211  0.2275 -0.5297
 2823SOL     OW19930   1.741   4.281  16.909  0.0990 -0.9175 -0.5898
 2823SOL    HW119931   1.738   4.238  16.824 -1.2036 -1.4765 -0.2653
 2823SOL    HW219932   1.788   4.359  16.880  0.3070 -1.0740 -0.6778
 2824SOL     OW19933   0.510   0.821   8.613 -0.3230  0.4845  0.2268
 2824SOL    HW119934   0.564   0.875   8.670 -1.6950  0.9948  1.0250
 2824SOL    HW219935   0.504   0.885   8.542 -1.1663 -0.7369 -0.8136
 2825SOL     OW19936   3.927   3.004   6.766 -0.4933  0.3255 -0.3564
 2825SOL    HW119937   3.899   2.957   6.845  3.3172  0.7222  1.2263
 2825SOL    HW219938   3.878   3.085   6.779 -4.1676 -2.0084  0.2113
 2826SOL     OW19939   0.380   0.997   8.930  0.4254 -0.1954 -0.4426
 2826SOL    HW119940   0.453   1.056   8.951  0.4403  0.4226 -2.1541
 2826SOL    HW219941   0.340   0.994   9.016  0.9279  0.1079 -0.1940
 2827SOL     OW19942   4.274   1.815   6.641 -0.1204  0.0023 -0.2659
 2827SOL    HW119943   4.273   1.758   6.565 -0.7196 -1.4622  0.8440
 2827SOL    HW219944   4.334   1.781   6.707 -1.3142 -3.0152 -0.7517
 2828SOL     OW19945   4.370   4.691   2.358 -0.1261 -0.1617  0.4355
 2828SOL    HW119946   4.362   4.644   2.275  0.3464  0.4380  0.0502
 2828SOL    HW219947   4.465   4.697   2.364  0.0324  0.2250 -2.3322
 2829SOL     OW19948   3.651   4.471   7.014 -0.1737  0.6549  0.0274
 2829SOL    HW119949   3.604   4.449   6.933  0.8741 -2.1298  0.1837
 2829SOL    HW219950   3.739   4.445   6.987  0.7177  3.2343  0.4387
 2830SOL     OW19951   4.397   1.213   3.967 -0.6098 -0.1664  0.3175
 2830SOL    HW119952   4.478   1.170   3.937 -1.6859 -2.0072  0.0587
 2830SOL    HW219953   4.397   1.195   4.061  1.1894 -1.3541  0.0882
 2831SOL     OW19954   0.487   1.026   0.507  0.3777 -0.6055  0.3008
 2831SOL    HW119955   0.395   1.008   0.523 -0.3368  0.3406 -2.7376
 2831SOL    HW219956   0.494   0.998   0.415 -1.7276  1.4482 -0.4878
 2832SOL     OW19957   4.452   0.685   4.222  0.0265 -0.3096  0.1429
 2832SOL    HW119958   4.529   0.703   4.168  0.3304  0.2377  0.7485
 2832SOL    HW219959   4.420   0.607   4.178  0.4558  1.0691 -2.6375
 2833SOL     OW19960   2.257   2.500   8.521  0.3381 -0.2946 -0.0354
 2833SOL    HW119961   2.343   2.528   8.554 -0.0070  0.5603  0.1459
 2833SOL    HW219962   2.226   2.567   8.460 -0.1973  0.2816  0.8647
 2834SOL     OW19963   1.782   2.933   3.372  0.0233 -0.2856  0.1083
 2834SOL    HW119964   1.754   2.923   3.463 -4.0292 -1.2270 -1.2175
 2834SOL    HW219965   1.739   2.859   3.329 -0.3836 -0.3473  0.6199
 2835SOL     OW19966   3.548   0.635   8.396 -0.2077  0.1971 -0.2815
 2835SOL    HW119967   3.634   0.606   8.365 -0.6134  0.4782 -1.6896
 2835SOL    HW219968   3.541   0.578   8.473 -0.9053 -0.4615 -0.8263
 2836SOL     OW19969   2.804   4.598  14.581  0.5813 -0.5555 -0.6025
 2836SOL    HW119970   2.873   4.600  14.648 -1.9961 -0.2995  2.0020
 2836SOL    HW219971   2.813   4.685  14.544  2.4456  0.4319  2.1368
 2837SOL     OW19972   3.501   4.501   9.339 -0.2736  0.1830  0.7145
 2837SOL    HW119973   3.440   4.549   9.394  1.9907  2.5766  1.1407
 2837SOL    HW219974   3.570   4.477   9.400  0.3858 -0.8216 -0.4161
 2838SOL     OW19975   3.797   2.226   5.991 -0.1991  0.5573 -0.3263
 2838SOL    HW119976   3.811   2.231   6.085 -0.0986  2.4245 -0.4332
 2838SOL    HW219977   3.716   2.277   5.984 -0.8740 -0.4822 -0.1029
 2839SOL     OW19978   3.611   2.904   8.847  0.4592 -0.7629 -0.1853
 2839SOL    HW119979   3.551   2.979   8.849  2.1042  0.5340  0.1936
 2839SOL    HW219980   3.686   2.923   8.903  0.6116 -1.1044 -0.2756
 2840SOL     OW19981   2.515   2.449  13.666  0.4006  0.4376  0.4678
 2840SOL    HW119982   2.510   2.355  13.652 -2.0333  0.5344  0.5731
 2840SOL    HW219983   2.593   2.467  13.613  0.8509  0.1061  1.0212
 2841SOL     OW19984   4.214   3.989   5.438  0.3842 -0.0320  0.5884
 2841SOL    HW119985   4.281   3.974   5.504  0.9157  0.6560  0.2013
 2841SOL    HW219986   4.154   4.034   5.498 -0.9416 -0.9579 -0.0272
 2842SOL     OW19987   3.253   1.480   6.927  0.6120 -0.1344 -0.4541
 2842SOL    HW119988   3.332   1.512   6.971 -0.0867 -1.6074  1.8346
 2842SOL    HW219989   3.203   1.428   6.989  0.2450  1.1421  0.3163
 2843SOL     OW19990   3.471   3.625   3.136 -0.4882 -0.1628  0.0033
 2843SOL    HW119991   3.459   3.671   3.053 -3.1920  1.5724  1.3594
 2843SOL    HW219992   3.384   3.640   3.173 -0.9223 -1.6175 -0.4285
 2844SOL     OW19993   0.291   1.341   3.406  0.0799  0.0809  0.1266
 2844SOL    HW119994   0.303   1.359   3.499  1.1841  0.4426 -0.0894
 2844SOL    HW219995   0.201   1.307   3.406  1.2774 -3.1066  1.2211
 2845SOL     OW19996   3.663   4.312  13.614  0.2115 -0.6615  0.1351
 2845SOL    HW119997   3.588   4.372  13.615  0.2470 -0.7040  3.6260
 2845SOL    HW219998   3.617   4.233  13.587  1.1959 -1.1251 -0.2104
 2846SOL     OW19999   2.163   1.829   5.720  0.0069  0.1131 -0.1166
 2846SOL    HW120000   2.249   1.803   5.687 -0.1486  0.0311 -0.4584
 2846SOL    HW220001   2.171   1.852   5.813 -2.6466 -1.8757  0.6107
 2847SOL     OW20002   4.417   0.962   6.677  0.3353 -0.5588  0.0636
 2847SOL    HW120003   4.351   0.914   6.628  1.3711 -1.2526 -0.6707
 2847SOL    HW220004   4.377   0.978   6.763  0.1452 -0.0033 -0.1260
 2848SOL     OW20005   1.161   3.002   7.674  0.5301 -0.0766 -0.0979
 2848SOL    HW120006   1.148   2.913   7.708 -0.5500  1.3141  3.0491
 2848SOL    HW220007   1.256   3.015   7.680  0.5498 -1.1111  1.6661
 2849SOL     OW20008   1.837   3.928   8.779 -0.2189 -0.0449  0.0901
 2849SOL    HW120009   1.794   3.922   8.694  0.6510 -0.3894 -0.3220
 2849SOL    HW220010   1.923   3.966   8.759 -0.2642 -0.2484 -0.4955
 2850SOL     OW20011   2.174   1.590   8.120 -0.2949 -0.5246  0.3053
 2850SOL    HW120012   2.124   1.649   8.063 -1.1311 -1.9801 -0.4673
 2850SOL    HW220013   2.225   1.547   8.051 -1.5046  0.9769 -1.5159
 2851SOL     OW20014   4.589   2.446   7.487 -0.3932 -0.2939 -0.1233
 2851SOL    HW120015   4.641   2.424   7.409 -0.2368 -0.6545  0.0837
 2851SOL    HW220016   4.571   2.535   7.456 -2.1540 -0.8543 -0.6789
 2852SOL     OW20017   0.719   3.323   5.871 -0.0362  0.0365  0.2043
 2852SOL    HW120018   0.687   3.234   5.861 -1.3813  0.4963  0.3584
 2852SOL    HW220019   0.702   3.353   5.781 -1.7862 -1.0375  0.1767
 2853SOL     OW20020   0.832   0.554   1.857  0.2997  0.1048  0.1868
 2853SOL    HW120021   0.821   0.632   1.912  1.7947 -0.3789  1.1719
 2853SOL    HW220022   0.926   0.548   1.874 -0.0012 -0.8104  1.5719
 2854SOL     OW20023   1.953   3.511   5.614  0.9358  0.3186 -0.2911
 2854SOL    HW120024   1.970   3.578   5.548  1.6817 -0.8017 -1.2379
 2854SOL    HW220025   1.857   3.506   5.613  0.9014  0.5512  1.7757
 2855SOL     OW20026   3.285   3.803   6.308 -0.7251  0.4913  0.1665
 2855SOL    HW120027   3.330   3.854   6.375 -2.5460  1.2481  0.7896
 2855SOL    HW220028   3.361   3.787   6.251 -1.8639 -2.2366 -0.5997
 2856SOL     OW20029   4.649   0.651   5.270 -0.6646  0.2374 -0.1729
 2856SOL    HW120030   4.703   0.658   5.191 -0.3499  0.4513  0.0590
 2856SOL    HW220031   4.698   0.719   5.316 -0.0181  1.4052 -2.5551
 2857SOL     OW20032   3.449   0.113   0.873 -0.2411  0.0478  0.2289
 2857SOL    HW120033   3.468   0.180   0.808 -0.4039 -0.7935 -0.6883
 2857SOL    HW220034   3.388   0.054   0.829  1.4681 -0.2522 -1.6979
 2858SOL     OW20035   0.852   1.388  11.481 -0.3006  0.2159  0.2505
 2858SOL    HW120036   0.860   1.402  11.575 -1.7424  1.1035  0.2294
 2858SOL    HW220037   0.947   1.378  11.469 -0.3238 -0.5114  0.6258
 2859SOL     OW20038   1.966   1.760   2.001 -0.3802 -0.1509 -0.6173
 2859SOL    HW120039   1.915   1.680   2.013  0.1301 -0.2912  0.6513
 2859SOL    HW220040   2.040   1.720   1.955  1.6736  1.4452  1.3223
 2860SOL     OW20041   3.069   3.303   1.152 -0.3448  0.2267 -0.1379
 2860SOL    HW120042   3.137   3.235   1.149 -0.6872 -0.1839  1.5174
 2860SOL    HW220043   3.107   3.357   1.220  0.0246 -1.7952  1.2724
 2861SOL     OW20044   1.159   0.903  12.126  0.2116  0.4809  0.3401
 2861SOL    HW120045   1.122   0.902  12.038  0.2153 -2.0561  0.3659
 2861SOL    HW220046   1.176   0.997  12.126  4.2974 -0.2511  1.5930
 2862SOL     OW20047   4.028   2.141   6.494 -0.1747  0.2062 -0.3104
 2862SOL    HW120048   4.049   2.084   6.568  0.7365  1.5919  0.5013
 2862SOL    HW220049   3.940   2.166   6.521 -0.4675 -0.6981 -0.4335
 2863SOL     OW20050   4.626   2.617  15.124 -0.3396 -0.0993 -0.4149
 2863SOL    HW120051   4.674   2.655  15.051  0.0486 -0.5297 -0.3826
 2863SOL    HW220052   4.569   2.683  15.165 -1.4308 -0.4427 -1.3611
 2864SOL     OW20053   3.667   4.259   7.213 -0.0518 -0.0878  0.1613
 2864SOL    HW120054   3.748   4.227   7.254 -0.8658 -0.9001  1.1460
 2864SOL    HW220055   3.700   4.330   7.158  0.9094 -0.3525  0.3906
 2865SOL     OW20056   1.256   3.793   2.519  0.0812  0.1620  0.1863
 2865SOL    HW120057   1.247   3.699   2.509 -0.0073  0.1460  0.4059
 2865SOL    HW220058   1.336   3.797   2.572  0.2924 -3.4453  0.1193
 2866SOL     OW20059   1.776   1.505  15.595  0.3855  0.3323 -0.8194
 2866SOL    HW120060   1.790   1.538  15.506  1.6061  2.6853  0.2594
 2866SOL    HW220061   1.749   1.585  15.640 -0.3541 -0.5867  0.3579
 2867SOL     OW20062   3.973   3.470   6.464 -0.2122 -0.5602  0.0705
 2867SOL    HW120063   3.900   3.422   6.504 -0.3371  1.7810  2.6505
 2867SOL    HW220064   3.920   3.515   6.397  1.0243  0.2509 -0.3603
 2868SOL     OW20065   1.637   1.364   7.609 -0.6697 -0.0111  0.0152
 2868SOL    HW120066   1.582   1.309   7.665 -0.1622 -1.6272 -1.0763
 2868SOL    HW220067   1.692   1.300   7.564 -2.1021  0.1638 -1.9996
 2869SOL     OW20068   1.619   1.220   9.851 -0.0527  0.2866 -0.1298
 2869SOL    HW120069   1.693   1.231   9.911 -0.9462 -3.0301  1.5740
 2869SOL    HW220070   1.665   1.251   9.773 -1.3272  1.5776 -0.3676
 2870SOL     OW20071   4.124   2.936  16.973 -0.0503  0.2982 -0.1107
 2870SOL    HW120072   4.131   2.993  16.897 -2.1097 -2.5664 -2.4729
 2870SOL    HW220073   4.040   2.890  16.965  1.7663 -2.6591 -2.1952
 2871SOL     OW20074   0.229   2.528   3.544 -0.3287  1.0524  0.0124
 2871SOL    HW120075   0.178   2.518   3.463  0.6887 -0.5753 -0.4319
 2871SOL    HW220076   0.177   2.605   3.567 -1.0181  0.3763  0.6879
 2872SOL     OW20077   3.877   0.258   6.161  0.3488  0.0237  0.4234
 2872SOL    HW120078   3.939   0.251   6.088 -3.0672 -2.0236 -2.3268
 2872SOL    HW220079   3.829   0.338   6.139  2.0501  0.8777 -0.1310
 2873SOL     OW20080   3.280   2.570   4.491 -0.2648  0.0060  0.4297
 2873SOL    HW120081   3.354   2.565   4.431 -0.0684  0.8424  0.6012
 2873SOL    HW220082   3.283   2.664   4.506 -1.5401  0.6477 -3.2254
 2874SOL     OW20083   2.119   1.062   6.022 -0.3301 -0.2276 -0.0543
 2874SOL    HW120084   2.083   1.066   5.933 -0.2260  0.6468 -0.0560
 2874SOL    HW220085   2.187   1.126   6.007 -0.2980 -0.1663  0.3518
 2875SOL     OW20086   1.083   1.859  11.722 -0.1829 -0.5991 -0.2506
 2875SOL    HW120087   1.047   1.944  11.748  0.7176  0.3709 -2.1955
 2875SOL    HW220088   1.069   1.859  11.628  1.7566 -0.7301 -0.5370
 2876SOL     OW20089   2.869   2.646   7.428  0.1816  0.5309 -0.4148
 2876SOL    HW120090   2.815   2.716   7.465 -0.3291 -0.1082  0.0373
 2876SOL    HW220091   2.925   2.626   7.503 -0.3579 -1.2545 -0.4948
 2877SOL     OW20092   0.588   3.735   7.390  0.3849  0.6241 -0.0235
 2877SOL    HW120093   0.590   3.664   7.454  0.5460 -0.0391 -0.7564
 2877SOL    HW220094   0.552   3.804   7.445 -1.4514 -1.0533  0.8716
 2878SOL     OW20095   2.108   2.019   5.104 -0.0037  0.7019  0.2032
 2878SOL    HW120096   2.013   2.025   5.110 -0.1940 -2.2757  0.1481
 2878SOL    HW220097   2.127   2.106   5.069  1.0440  0.6130  0.5678
 2879SOL     OW20098   0.919   2.771   5.735  0.7039 -0.2937  0.2598
 2879SOL    HW120099   1.013   2.753   5.738  0.4191 -1.6118  1.1574
 2879SOL    HW220100   0.896   2.717   5.810 -1.5202 -0.0955 -0.2762
 2880SOL     OW20101   3.667   0.522  13.380  0.6886  0.0115  0.3164
 2880SOL    HW120102   3.757   0.515  13.412  0.7324  0.5048  0.2960
 2880SOL    HW220103   3.663   0.610  13.344 -3.0416  0.0662  0.8884
 2881SOL     OW20104   4.174   1.093  16.342  0.2920  0.0091  0.0756
 2881SOL    HW120105   4.080   1.076  16.346 -0.1445  1.8918 -1.8482
 2881SOL    HW220106   4.196   1.017  16.288 -2.9457  0.5534 -1.9963
 2882SOL     OW20107   3.442   4.173   7.107  0.0526 -0.0218 -0.3175
 2882SOL    HW120108   3.511   4.216   7.159  0.5518 -1.6602  0.3515
 2882SOL    HW220109   3.482   4.180   7.020 -1.0512  0.8967 -0.7587
 2883SOL     OW20110   1.444   3.196  16.581 -0.5668 -0.3962 -0.4589
 2883SOL    HW120111   1.493   3.273  16.611 -2.4665 -0.3765  2.5555
 2883SOL    HW220112   1.512   3.144  16.538 -0.0032  0.8085 -1.0354
 2884SOL     OW20113   2.431   0.489   8.535  0.2126  0.2305 -0.2529
 2884SOL    HW120114   2.412   0.542   8.457 -1.8972 -0.6641 -0.3413
 2884SOL    HW220115   2.442   0.407   8.486  4.4999 -0.1554  1.3070
 2885SOL     OW20116   4.535   0.217   3.337 -0.2480 -0.2324 -0.0587
 2885SOL    HW120117   4.563   0.196   3.426 -2.2508  4.1517  1.6041
 2885SOL    HW220118   4.623   0.235   3.304  0.2590 -1.5956  0.5258
 2886SOL     OW20119   0.091   1.500   7.977 -0.6814 -0.1847  0.3459
 2886SOL    HW120120   0.146   1.566   7.937  1.5001 -0.5925  2.6460
 2886SOL    HW220121   0.011   1.524   7.930 -0.3898  1.6262  0.7931
 2887SOL     OW20122   2.089   1.061   4.770  0.0680  0.0711 -0.3122
 2887SOL    HW120123   2.071   1.081   4.862  0.0161  1.3070 -0.5911
 2887SOL    HW220124   2.132   1.145   4.753 -0.7389  1.0610  2.5157
 2888SOL     OW20125   3.424   3.115   8.798  0.1627 -0.7439  0.3698
 2888SOL    HW120126   3.395   3.161   8.719 -0.2620  0.2213  1.0865
 2888SOL    HW220127   3.471   3.188   8.837  0.0943 -0.4601 -0.0766
 2889SOL     OW20128   0.277   0.369   4.070  0.6178 -0.2505  0.5104
 2889SOL    HW120129   0.304   0.456   4.098 -0.6152  0.7133 -1.3545
 2889SOL    HW220130   0.196   0.393   4.026 -0.0256 -1.8962  0.7978
 2890SOL     OW20131   3.125   0.002   9.563  0.4962  0.6392 -0.0454
 2890SOL    HW120132   3.121   4.698   9.471 -3.4120  0.1612  0.2458
 2890SOL    HW220133   3.175   4.654   9.606  0.4217  1.4734  1.3906
 2891SOL     OW20134   2.555   2.905  16.306  0.2660  0.6004  0.1079
 2891SOL    HW120135   2.475   2.925  16.256 -1.1726 -1.9335  1.3877
 2891SOL    HW220136   2.545   2.814  16.334 -0.8489  1.1583  1.5106
 2892SOL     OW20137   3.441   0.449   8.552 -0.3520 -0.1666  0.0878
 2892SOL    HW120138   3.442   0.400   8.634 -0.5921 -1.5763 -0.7725
 2892SOL    HW220139   3.358   0.492   8.571 -0.2637 -0.1912  0.5275
 2893SOL     OW20140   0.091   2.566   9.634 -0.3227 -0.7507 -0.7721
 2893SOL    HW120141   0.073   2.537   9.544 -0.5538 -2.1456 -0.2838
 2893SOL    HW220142   0.021   2.632   9.640  0.3826 -0.2682  2.0952
 2894SOL     OW20143   0.424   1.789   2.745  0.3007  0.2497 -0.1936
 2894SOL    HW120144   0.391   1.703   2.773 -1.0325  0.9217  0.3397
 2894SOL    HW220145   0.426   1.834   2.830  0.7176 -0.7973  0.3584
 2895SOL     OW20146   3.572   1.556   2.673 -0.1465  0.3946  0.0301
 2895SOL    HW120147   3.603   1.506   2.597 -0.9684 -1.0314  0.6387
 2895SOL    HW220148   3.486   1.578   2.637  0.3950  1.2138 -0.7752
 2896SOL     OW20149   1.869   2.829  16.667  0.5482 -0.0612  0.5423
 2896SOL    HW120150   1.901   2.919  16.672 -0.8641  0.4346  0.4571
 2896SOL    HW220151   1.942   2.789  16.620  2.5621  1.1562  2.6350
 2897SOL     OW20152   4.158   2.798  16.685  0.3064 -0.4646 -0.1946
 2897SOL    HW120153   4.252   2.792  16.699  0.3512 -1.4945 -0.9967
 2897SOL    HW220154   4.141   2.891  16.703 -1.4602 -0.9826  0.8698
 2898SOL     OW20155   3.519   2.588   9.245 -0.0221 -0.7206 -0.6285
 2898SOL    HW120156   3.453   2.655   9.263 -0.3340 -0.6822 -1.8736
 2898SOL    HW220157   3.549   2.568   9.333  3.4957 -0.2547 -1.7458
 2899SOL     OW20158   3.968   0.529   5.430  0.1253  0.3974 -0.3471
 2899SOL    HW120159   4.015   0.584   5.368 -0.0639 -0.4267 -1.2149
 2899SOL    HW220160   3.892   0.498   5.381  0.2713 -0.0182 -0.3159
 2900SOL     OW20161   4.411   0.556   2.528  0.1677 -0.0510  0.2902
 2900SOL    HW120162   4.422   0.501   2.605 -1.2854 -2.3104 -1.1319
 2900SOL    HW220163   4.422   0.486   2.464 -0.6529 -0.0492  0.1451
 2901SOL     OW20164   2.804   0.010   8.992  0.2735  0.1638 -0.6174
 2901SOL    HW120165   2.877   0.071   9.000  1.8358 -1.7185 -0.7224
 2901SOL    HW220166   2.842   4.675   9.059 -0.1093 -1.6471 -1.9287
 2902SOL     OW20167   0.126   2.608   5.672  0.3003 -0.1123 -0.1754
 2902SOL    HW120168   0.054   2.570   5.621  1.1737 -2.3497  0.2826
 2902SOL    HW220169   0.111   2.568   5.758  1.1393  1.0292  0.5009
 2903SOL     OW20170   0.445   3.853   6.358 -0.9588  0.2355  0.0334
 2903SOL    HW120171   0.417   3.930   6.309  0.8344  0.3817 -0.7393
 2903SOL    HW220172   0.529   3.879   6.394 -0.6116  1.6287 -1.8498
 2904SOL     OW20173   4.400   3.958   3.982  0.0981 -1.2026  0.4240
 2904SOL    HW120174   4.471   3.894   3.978 -0.5587 -1.8623 -0.5008
 2904SOL    HW220175   4.392   3.975   3.888  0.3626  0.3026  0.6677
 2905SOL     OW20176   2.540   0.624   9.261  0.0130  0.4894 -0.0368
 2905SOL    HW120177   2.511   0.709   9.229  0.9862  0.3193 -1.3588
 2905SOL    HW220178   2.451   0.595   9.279  0.0917 -0.1291 -0.6538
 2906SOL     OW20179   2.210   3.200   2.460 -0.0555 -0.4424 -0.1907
 2906SOL    HW120180   2.128   3.220   2.505 -0.0774  0.5741 -0.6692
 2906SOL    HW220181   2.178   3.139   2.394  1.0292 -0.3499 -0.7976
 2907SOL     OW20182   4.405   4.476   7.994  0.0791  1.2875  0.2561
 2907SOL    HW120183   4.438   4.386   8.003  2.2454  1.6875 -3.5035
 2907SOL    HW220184   4.384   4.467   7.901 -1.0865  1.5535  0.4934
 2908SOL     OW20185   4.494   4.447   1.449  0.1869  0.4826  0.0981
 2908SOL    HW120186   4.546   4.378   1.409  0.5923  0.8472 -0.0136
 2908SOL    HW220187   4.414   4.432   1.399  1.2880 -1.8308 -0.9782
 2909SOL     OW20188   3.376   3.300   5.196 -0.0292 -0.2761  0.4257
 2909SOL    HW120189   3.375   3.351   5.115 -1.0498  2.7726  2.3697
 2909SOL    HW220190   3.450   3.331   5.249 -0.3077 -1.1976  1.3595
 2910SOL     OW20191   0.376   3.052   3.575  0.1239 -1.1446 -0.0492
 2910SOL    HW120192   0.401   3.004   3.495  2.6225 -0.7069  0.4599
 2910SOL    HW220193   0.298   3.098   3.546  1.4852  2.5329  2.2411
 2911SOL     OW20194   3.998   1.429   6.019  0.2399  0.8015  0.0578
 2911SOL    HW120195   4.030   1.346   5.983  0.1033 -0.0877  2.0069
 2911SOL    HW220196   4.065   1.488   5.987  0.5972 -0.9475 -2.4378
 2912SOL     OW20197   4.353   1.033   2.721  0.3019 -0.1416 -0.1422
 2912SOL    HW120198   4.285   1.048   2.655  0.0310 -3.2631 -0.5422
 2912SOL    HW220199   4.410   0.991   2.657  0.5384 -1.2662  0.7941
 2913SOL     OW20200   2.688   3.334   4.564 -0.4242 -0.5987 -1.1514
 2913SOL    HW120201   2.658   3.424   4.548  2.0291  0.8365  2.2770
 2913SOL    HW220202   2.781   3.340   4.542 -0.1447 -1.5705 -0.2600
 2914SOL     OW20203   4.457   1.664   3.617 -0.7752 -0.1706 -0.3611
 2914SOL    HW120204   4.454   1.740   3.676 -0.8647 -0.6756  0.2927
 2914SOL    HW220205   4.490   1.600   3.680  3.4591  0.9639 -1.4913
 2915SOL     OW20206   2.518   4.008  12.963 -0.7059 -0.0381  0.1964
 2915SOL    HW120207   2.491   3.942  12.900 -0.2002  0.3967 -0.4851
 2915SOL    HW220208   2.448   4.005  13.028  0.6532  2.8956  1.8282
 2916SOL     OW20209   2.599   0.344   2.308  0.4767 -1.0454  0.4143
 2916SOL    HW120210   2.689   0.378   2.310 -0.6215  1.5272  3.6968
 2916SOL    HW220211   2.581   0.334   2.214 -1.6565 -0.0378  0.7199
 2917SOL     OW20212   4.041   4.313   4.764 -0.6022 -0.4956  0.2847
 2917SOL    HW120213   4.072   4.318   4.854  0.7473  0.5084 -0.2536
 2917SOL    HW220214   3.952   4.296   4.796  0.3187 -2.8807  1.5965
 2918SOL     OW20215   0.470   3.898   8.368  0.1162 -0.5851  0.3075
 2918SOL    HW120216   0.437   3.900   8.278  1.2606 -0.5404 -0.1142
 2918SOL    HW220217   0.411   3.963   8.406  0.6024 -0.2191  0.4412
 2919SOL     OW20218   1.508   0.363  11.621  0.2708 -0.4547  0.2920
 2919SOL    HW120219   1.548   0.434  11.571 -0.9549  1.0204  1.4309
 2919SOL    HW220220   1.417   0.384  11.602  1.1305  0.7805 -2.5381
 2920SOL     OW20221   0.554   3.784   2.250 -0.1455  0.7971  0.0781
 2920SOL    HW120222   0.530   3.877   2.246 -1.1867  0.5338 -0.0014
 2920SOL    HW220223   0.499   3.753   2.322  0.8940 -2.3118 -0.4883
 2921SOL     OW20224   1.010   3.025  13.591 -0.0972 -0.1195  0.3540
 2921SOL    HW120225   0.943   2.972  13.547  0.6790  0.1998 -1.1910
 2921SOL    HW220226   1.009   3.111  13.550 -1.1434 -0.5772 -0.5667
 2922SOL     OW20227   4.192   3.800  14.846  0.1751  0.6231 -0.1429
 2922SOL    HW120228   4.108   3.778  14.887 -0.5848  2.5022 -0.6814
 2922SOL    HW220229   4.207   3.892  14.867 -2.1719  1.2831 -1.3188
 2923SOL     OW20230   2.966   0.665   4.018 -0.0452 -0.5593 -0.2465
 2923SOL    HW120231   3.039   0.726   4.005 -1.8537  1.6955  0.1294
 2923SOL    HW220232   3.018   0.585   4.009  2.4512  0.9772  0.2689
 2924SOL     OW20233   3.119   4.499   6.548 -0.4442 -0.0627 -0.3147
 2924SOL    HW120234   3.081   4.523   6.632  2.0264  1.4852  0.3797
 2924SOL    HW220235   3.042   4.493   6.492 -0.1778  1.2358 -0.8167
 2925SOL     OW20236   3.780   2.652   9.110 -0.2012 -0.4148 -0.5522
 2925SOL    HW120237   3.748   2.625   9.025 -0.4426  1.4648 -1.0655
 2925SOL    HW220238   3.694   2.638   9.149  0.4459 -1.4975  0.4972
 2926SOL     OW20239   4.486   3.714   0.200 -0.1210 -0.5059 -0.2493
 2926SOL    HW120240   4.495   3.745   0.290  0.2633  0.5687 -0.6518
 2926SOL    HW220241   4.565   3.661   0.193 -1.3814 -2.4881  0.6137
 2927SOL     OW20242   2.181   3.440   4.912 -0.1830  0.2937  0.2685
 2927SOL    HW120243   2.228   3.487   4.981  1.5844  0.6834 -1.2129
 2927SOL    HW220244   2.229   3.357   4.917  3.9561  2.5060 -2.6346
 2928SOL     OW20245   4.608   3.835   1.180  0.1921 -0.2960  0.0023
 2928SOL    HW120246   4.688   3.872   1.143  0.4066  1.0210  1.7863
 2928SOL    HW220247   4.599   3.755   1.128  4.0864  0.0747 -1.1879
 2929SOL     OW20248   1.971   4.278   3.012  0.2274 -0.3063 -0.1690
 2929SOL    HW120249   2.015   4.359   3.040  1.3199 -0.8164 -0.4043
 2929SOL    HW220250   1.893   4.284   3.068  1.4165 -0.1655  1.4979
 2930SOL     OW20251   2.771   3.663   8.849  0.1570  0.1384  0.0894
 2930SOL    HW120252   2.683   3.665   8.812 -0.6642  0.7483  2.0909
 2930SOL    HW220253   2.753   3.583   8.898 -0.7178  0.3286  0.0781
 2931SOL     OW20254   1.390   3.231   3.815  1.2483  0.0949  0.1676
 2931SOL    HW120255   1.363   3.140   3.806  0.1515  0.4731 -0.3903
 2931SOL    HW220256   1.458   3.225   3.883  0.0547 -0.7237  1.2921
 2932SOL     OW20257   4.478   2.660   3.542 -0.2333  0.4638 -0.0838
 2932SOL    HW120258   4.461   2.570   3.515  3.5970  0.0601 -1.2207
 2932SOL    HW220259   4.485   2.709   3.460  1.5144  1.2844  0.5525
 2933SOL     OW20260   0.221   0.732  10.047  0.8161 -0.0888  0.0231
 2933SOL    HW120261   0.151   0.680  10.087 -1.4351  2.5627 -0.4523
 2933SOL    HW220262   0.241   0.782  10.126  1.6176  0.6767 -0.6606
 2934SOL     OW20263   0.813   3.232   4.073  0.4005 -0.0765  0.3588
 2934SOL    HW120264   0.804   3.322   4.041 -5.5432 -0.1421  1.7836
 2934SOL    HW220265   0.894   3.203   4.031 -0.1763 -1.8079  0.4656
 2935SOL     OW20266   3.921   4.057   8.808  0.3630 -0.4375 -0.4677
 2935SOL    HW120267   3.902   4.001   8.883  1.4229  0.1313  0.2227
 2935SOL    HW220268   3.857   4.024   8.745 -0.5540  0.9524 -0.2643
 2936SOL     OW20269   2.646   0.341   4.202 -0.1464 -0.1942 -0.3263
 2936SOL    HW120270   2.620   0.358   4.111 -0.6619 -3.3416 -0.7557
 2936SOL    HW220271   2.739   0.363   4.204  0.0688 -1.2327  1.3301
 2937SOL     OW20272   2.390   2.240   7.017 -0.2044  0.2334  0.1358
 2937SOL    HW120273   2.485   2.252   7.023 -0.1686  0.6333 -1.2588
 2937SOL    HW220274   2.393   2.183   6.941  0.5954 -1.5037  1.4731
 2938SOL     OW20275   0.242   3.503   8.810  0.1049 -0.4498  0.0663
 2938SOL    HW120276   0.305   3.553   8.758  0.3803 -0.5293  0.3258
 2938SOL    HW220277   0.212   3.569   8.873 -1.5281  0.8625 -2.0671
 2939SOL     OW20278   2.810   1.663   0.586 -0.5094 -0.5702  0.0791
 2939SOL    HW120279   2.811   1.634   0.677 -0.9321 -0.8089  0.0059
 2939SOL    HW220280   2.724   1.632   0.557 -0.2355 -0.6590 -0.6515
 2940SOL     OW20281   3.421   2.435   1.061  0.2407 -0.9270 -0.2052
 2940SOL    HW120282   3.367   2.421   1.139 -1.3442  0.4772 -1.0214
 2940SOL    HW220283   3.443   2.344   1.042 -0.6033 -1.6977  2.4708
 2941SOL     OW20284   1.721   3.144   6.487  0.5372 -0.1336  0.2583
 2941SOL    HW120285   1.662   3.096   6.429 -0.4723 -0.4664  1.5798
 2941SOL    HW220286   1.793   3.084   6.509 -0.7783 -2.0713 -0.6852
 2942SOL     OW20287   1.365   1.313   8.011 -0.1012  0.1570 -0.2191
 2942SOL    HW120288   1.355   1.226   8.049 -0.5074 -0.0305 -0.7461
 2942SOL    HW220289   1.326   1.293   7.926 -0.2713  0.5885 -0.2415
 2943SOL     OW20290   3.336   1.734  12.657  0.1074  0.5034 -0.3447
 2943SOL    HW120291   3.301   1.751  12.570 -0.2453  0.6972 -0.1672
 2943SOL    HW220292   3.424   1.769  12.642  0.5225 -0.2265  0.3695
 2944SOL     OW20293   1.123   2.279  15.277  0.5119  0.4943  0.9742
 2944SOL    HW120294   1.162   2.366  15.271  2.0522 -0.3597 -1.0951
 2944SOL    HW220295   1.073   2.283  15.359 -2.0595  0.8243 -0.6441
 2945SOL     OW20296   1.530   0.785   6.018  0.0935 -0.0773  0.0724
 2945SOL    HW120297   1.560   0.798   5.929 -1.0717 -2.6288 -0.6985
 2945SOL    HW220298   1.480   0.705   6.001 -0.8994  0.4733  0.3940
 2946SOL     OW20299   3.184   1.247   9.135  0.3950 -0.2745 -0.3722
 2946SOL    HW120300   3.183   1.300   9.214  1.3194 -0.8719  0.0393
 2946SOL    HW220301   3.180   1.159   9.172  0.8687 -0.0923  0.1168
 2947SOL     OW20302   1.070   4.424   3.742 -1.0801  0.0194 -0.3812
 2947SOL    HW120303   1.080   4.331   3.720  0.7354  0.2519 -0.4867
 2947SOL    HW220304   1.064   4.423   3.837  0.6346  1.8522 -0.2722
 2948SOL     OW20305   2.505   2.701  15.385 -0.4160 -0.5560 -0.2865
 2948SOL    HW120306   2.446   2.675  15.455  1.7160 -0.3085  1.5940
 2948SOL    HW220307   2.546   2.780  15.422 -0.1419 -1.3813  1.1635
 2949SOL     OW20308   0.311   0.228  11.726 -0.0854  0.2401  0.7355
 2949SOL    HW120309   0.229   0.199  11.766 -1.0546  0.8810 -0.7999
 2949SOL    HW220310   0.296   0.191  11.639 -0.8668 -0.2506  1.0778
 2950SOL     OW20311   1.658   2.816   4.481 -0.1390 -0.1120  0.1092
 2950SOL    HW120312   1.724   2.798   4.547 -0.2184  2.1269  0.7925
 2950SOL    HW220313   1.591   2.862   4.531  0.3415  0.9037 -0.1779
 2951SOL     OW20314   0.862   0.007  13.037 -0.4790 -0.4325  0.3414
 2951SOL    HW120315   0.871   4.673  12.959  0.7381 -0.5949  0.5919
 2951SOL    HW220316   0.937   4.697  13.087  0.9208  1.3909 -0.6058
 2952SOL     OW20317   1.381   3.661  13.542  0.7013 -0.1313 -0.3140
 2952SOL    HW120318   1.439   3.586  13.558  1.9256  1.0614  0.8048
 2952SOL    HW220319   1.443   3.727  13.512 -1.5123  0.5358 -3.4816
 2953SOL     OW20320   3.913   1.980   4.169  0.0369  0.8056  0.1478
 2953SOL    HW120321   3.836   2.018   4.127 -0.3428 -1.4704 -1.2260
 2953SOL    HW220322   3.876   1.945   4.251  1.3172  1.0438  0.8191
 2954SOL     OW20323   2.636   3.134   8.315 -0.4799 -0.4577  0.4208
 2954SOL    HW120324   2.728   3.135   8.287 -0.8792  0.0740 -0.8874
 2954SOL    HW220325   2.594   3.102   8.235 -2.0165 -1.2111  1.5451
 2955SOL     OW20326   4.110   0.324  11.724  0.1730 -0.0884 -0.0765
 2955SOL    HW120327   4.031   0.373  11.747  0.9230  0.3269  1.5555
 2955SOL    HW220328   4.182   0.387  11.725  1.0199 -1.1056  2.4852
 2956SOL     OW20329   0.690   0.874   5.593  0.3241  0.6085  0.3210
 2956SOL    HW120330   0.638   0.919   5.527 -1.9245  1.2903  2.5494
 2956SOL    HW220331   0.648   0.788   5.593 -1.8524  1.6670  1.9296
 2957SOL     OW20332   3.145   3.172   5.906 -0.0163  0.0215  0.1387
 2957SOL    HW120333   3.206   3.230   5.860 -0.9360  1.2074  0.4162
 2957SOL    HW220334   3.117   3.110   5.838 -0.2167 -2.0122  2.1022
 2958SOL     OW20335   3.930   3.465   1.836 -0.3121 -0.5410 -0.1384
 2958SOL    HW120336   3.951   3.476   1.743 -1.9100 -0.0886 -0.4595
 2958SOL    HW220337   3.945   3.554   1.867 -0.1125 -0.5992 -0.0723
 2959SOL     OW20338   3.784   3.170   4.289 -0.1959  0.2882  0.0030
 2959SOL    HW120339   3.807   3.092   4.239 -0.9916 -0.4438  0.7738
 2959SOL    HW220340   3.811   3.148   4.378  1.4487  1.9897 -0.0897
 2960SOL     OW20341   4.009   1.524   5.259  0.0623 -0.4198  0.2773
 2960SOL    HW120342   4.083   1.470   5.231  0.8118  1.1520 -0.7651
 2960SOL    HW220343   3.996   1.585   5.186  1.3124  0.9305  1.2040
 2961SOL     OW20344   4.391   3.631  12.129  0.1313  0.6487  0.1243
 2961SOL    HW120345   4.299   3.613  12.151  0.4829  1.2711  2.1317
 2961SOL    HW220346   4.378   3.720  12.096 -1.3645  0.2572 -0.3489
 2962SOL     OW20347   2.149   0.407   4.921 -0.2954  0.5696  0.3285
 2962SOL    HW120348   2.175   0.450   4.839  1.3431  0.9385  1.0527
 2962SOL    HW220349   2.076   0.353   4.890 -0.2006  0.4678  0.2832
 2963SOL     OW20350   0.402   0.576   7.313 -0.8200  0.2190 -0.5753
 2963SOL    HW120351   0.403   0.667   7.283 -1.2972  0.3457 -0.2095
 2963SOL    HW220352   0.477   0.580   7.372 -0.2199 -2.1739 -1.1953
 2964SOL     OW20353   2.306   4.182   5.860  0.1867 -0.2663  0.1362
 2964SOL    HW120354   2.228   4.214   5.813  0.3927  1.5263  0.9883
 2964SOL    HW220355   2.359   4.135   5.796  0.4055 -0.0125  0.1296
 2965SOL     OW20356   0.655   0.676  13.196 -0.3689  0.0453  0.4794
 2965SOL    HW120357   0.687   0.720  13.275  1.4639 -2.4301  1.1301
 2965SOL    HW220358   0.714   0.601  13.205  0.2224  0.6008  1.2110
 2966SOL     OW20359   2.549   3.506   3.609  0.2234 -0.3079  0.3248
 2966SOL    HW120360   2.528   3.473   3.521 -1.6463  0.1197  0.6159
 2966SOL    HW220361   2.469   3.465   3.640 -1.3009  0.2887 -2.7314
 2967SOL     OW20362   4.161   3.039   7.716 -0.0579  0.6154  0.0793
 2967SOL    HW120363   4.219   3.114   7.730  0.4024  0.3024 -0.1476
 2967SOL    HW220364   4.190   2.993   7.795 -0.3802  1.3832  0.6448
 2968SOL     OW20365   2.755   0.384   0.030  0.2842  0.1533  0.2393
 2968SOL    HW120366   2.802   0.328  17.657  1.9119  0.1389  1.4703
 2968SOL    HW220367   2.719   0.320   0.091  0.5597  1.3015  1.6064
 2969SOL     OW20368   1.164   4.447   7.269 -0.0130  0.0523  0.3942
 2969SOL    HW120369   1.230   4.389   7.232 -1.8735 -1.4388 -0.5778
 2969SOL    HW220370   1.082   4.405   7.242 -0.1726  0.4461  0.2631
 2970SOL     OW20371   4.500   4.653   5.392 -0.2627 -0.3022  0.0022
 2970SOL    HW120372   4.569   4.703   5.347  0.1889 -0.3828  0.6131
 2970SOL    HW220373   4.461   4.716   5.452 -2.5011 -2.2334  0.5429
 2971SOL     OW20374   0.383   0.309   7.351  0.0335 -0.3613  0.3593
 2971SOL    HW120375   0.418   0.393   7.323 -2.6282  0.8629  0.6751
 2971SOL    HW220376   0.352   0.261   7.274 -0.4278  1.5450 -0.6582
 2972SOL     OW20377   4.237   2.410   0.714 -0.0060 -0.8990 -0.3812
 2972SOL    HW120378   4.197   2.378   0.795 -1.4372 -1.4226 -1.2742
 2972SOL    HW220379   4.300   2.340   0.701  0.1667 -0.6473 -0.8830
 2973SOL     OW20380   1.298   2.427   5.998 -0.2313 -0.2310 -0.6206
 2973SOL    HW120381   1.365   2.420   6.066  1.1965  3.3084 -1.7021
 2973SOL    HW220382   1.233   2.481   6.043 -1.7817 -2.7214  0.1333
 2974SOL     OW20383   1.731   2.905   5.287  0.8503 -0.4160 -0.1265
 2974SOL    HW120384   1.769   2.850   5.219  1.7373 -2.3345  1.8938
 2974SOL    HW220385   1.795   2.889   5.357  1.4215  1.0560 -0.3035
 2975SOL     OW20386   4.163   1.769   8.680  0.1198  0.0651  0.3993
 2975SOL    HW120387   4.145   1.762   8.586  1.7837 -2.5962  0.2831
 2975SOL    HW220388   4.149   1.677   8.699  2.0043 -0.2590  0.2251
 2976SOL     OW20389   1.470   2.977  16.087 -0.8667  0.0389  0.7174
 2976SOL    HW120390   1.463   3.071  16.102  0.2600  0.3174 -0.4713
 2976SOL    HW220391   1.542   2.979  16.024 -0.7639 -1.0070  0.8012
 2977SOL     OW20392   0.538   3.636   5.532  0.1269 -0.1148  0.9462
 2977SOL    HW120393   0.452   3.611   5.497  1.5582 -0.7566 -2.1994
 2977SOL    HW220394   0.573   3.559   5.576 -1.6949 -0.7908  1.2143
 2978SOL     OW20395   3.323   2.307  17.101  0.0560 -0.4302 -0.7543
 2978SOL    HW120396   3.377   2.255  17.162  0.0059  1.7551  1.1395
 2978SOL    HW220397   3.397   2.340  17.050  0.3453 -2.9002 -1.9352
 2979SOL     OW20398   1.217   4.547  12.504  0.3937 -0.0456 -0.1004
 2979SOL    HW120399   1.158   4.621  12.518 -2.2721 -1.9278 -1.2471
 2979SOL    HW220400   1.238   4.568  12.413 -2.5727  1.5045 -0.4370
 2980SOL     OW20401   2.207   4.152  16.899  0.1509 -0.2168  0.2771
 2980SOL    HW120402   2.190   4.241  16.868  0.1644  0.4630  2.1959
 2980SOL    HW220403   2.126   4.132  16.946  0.0574 -1.2822 -0.3356
 2981SOL     OW20404   2.490   0.209  14.864  0.3518 -0.1058 -0.3802
 2981SOL    HW120405   2.437   0.132  14.881 -2.0909  2.1759  2.2743
 2981SOL    HW220406   2.554   0.163  14.809  0.6689  0.6498 -0.6513
 2982SOL     OW20407   1.695   4.243   4.609 -0.5851  0.0449  0.6742
 2982SOL    HW120408   1.780   4.287   4.613 -0.9332  0.7437  0.4259
 2982SOL    HW220409   1.721   4.155   4.635 -1.0724  0.4888  2.6888
 2983SOL     OW20410   3.834   1.791   8.975 -0.3011  0.1744 -1.0117
 2983SOL    HW120411   3.904   1.846   8.939  0.6998 -0.6500 -0.3258
 2983SOL    HW220412   3.756   1.844   8.962 -1.2267 -1.2378 -1.1418
 2984SOL     OW20413   1.886   4.370   8.233  0.5232 -0.2443  0.2850
 2984SOL    HW120414   1.972   4.351   8.271  0.3133  0.6172  1.2099
 2984SOL    HW220415   1.855   4.448   8.281  0.2010  0.5601 -1.2253
 2985SOL     OW20416   2.737   0.689  16.359 -0.0111  0.3350 -0.2933
 2985SOL    HW120417   2.702   0.670  16.447  1.8175 -0.1179  0.3407
 2985SOL    HW220418   2.689   0.767  16.332 -0.0330  1.3165  2.4828
 2986SOL     OW20419   2.766   0.358   8.986 -0.4475 -0.5577 -0.2420
 2986SOL    HW120420   2.681   0.341   8.946 -0.2046 -1.2305 -0.4795
 2986SOL    HW220421   2.808   0.272   8.987  0.1920 -0.2446 -0.0115
 2987SOL     OW20422   2.691   4.702  15.319  0.0384 -0.2475 -0.4056
 2987SOL    HW120423   2.666   4.621  15.364  1.7330  0.3631  1.6253
 2987SOL    HW220424   2.778   4.678  15.286  2.0105  0.1112  4.5757
 2988SOL     OW20425   0.185   1.596  15.467 -0.4397  0.0016 -0.6115
 2988SOL    HW120426   0.225   1.540  15.401  0.1809 -0.2612 -0.0164
 2988SOL    HW220427   0.188   1.547  15.550  1.5968 -0.6749 -1.0775
 2989SOL     OW20428   4.611   4.016   5.868  0.3096  0.1909 -0.9220
 2989SOL    HW120429   4.681   4.076   5.894  1.3036 -1.6442  0.5797
 2989SOL    HW220430   4.662   3.935   5.867 -0.5705 -0.3873  0.4418
 2990SOL     OW20431   4.657   2.421  17.482 -0.1866 -0.1061 -0.0415
 2990SOL    HW120432   4.567   2.446  17.460 -0.1581 -0.7501 -0.8635
 2990SOL    HW220433   4.652   2.351  17.548  1.6071  0.6048  0.8539
 2991SOL     OW20434   2.102   3.388   5.204  0.8693 -0.0316  0.2274
 2991SOL    HW120435   2.098   3.404   5.110 -1.0992  1.0866  0.5006
 2991SOL    HW220436   2.161   3.457   5.234 -0.6945  1.1111  0.6598
 2992SOL     OW20437   1.723   4.529   5.326  0.4993 -0.4302 -0.0868
 2992SOL    HW120438   1.629   4.526   5.341  0.1408  0.7637 -2.2543
 2992SOL    HW220439   1.743   4.552   5.417  0.0619  0.5257 -0.2324
 2993SOL     OW20440   1.047   1.719   1.504 -0.2845 -0.6359 -0.3955
 2993SOL    HW120441   1.075   1.795   1.453  0.8465 -1.0619 -0.3881
 2993SOL    HW220442   1.039   1.656   1.432 -0.9587 -0.8256 -0.1567
 2994SOL     OW20443   3.906   0.619   4.902  0.2123  0.0920 -0.1720
 2994SOL    HW120444   3.915   0.686   4.970 -0.3811 -0.2707  0.2608
 2994SOL    HW220445   3.939   0.540   4.946 -0.2175 -0.3907 -0.7274
 2995SOL     OW20446   0.399   2.746   7.704 -0.9204 -0.1561 -0.6552
 2995SOL    HW120447   0.349   2.678   7.750 -0.5221  0.7183  1.0842
 2995SOL    HW220448   0.342   2.782   7.636 -0.9541  0.8373 -0.0909
 2996SOL     OW20449   4.448   0.243   1.038 -1.0527  0.3174 -0.3094
 2996SOL    HW120450   4.471   0.188   0.963 -1.5899 -0.4049  0.0574
 2996SOL    HW220451   4.508   0.316   1.029 -2.2997  1.1781 -1.4841
 2997SOL     OW20452   3.625   3.975   4.490  0.1650  0.3479  0.0068
 2997SOL    HW120453   3.686   3.911   4.453 -0.6189 -0.9278  0.9201
 2997SOL    HW220454   3.670   4.011   4.566 -0.7708  1.1505  0.1824
 2998SOL     OW20455   1.282   0.501   7.311 -0.6306 -0.1048  0.2040
 2998SOL    HW120456   1.315   0.565   7.248  0.0757 -1.1401 -0.4801
 2998SOL    HW220457   1.357   0.495   7.370 -0.1078 -0.3628 -0.4960
 2999SOL     OW20458   2.724   1.636  10.626  0.5909  0.5253 -0.0503
 2999SOL    HW120459   2.630   1.656  10.623  0.8787  2.1166  1.7068
 2999SOL    HW220460   2.751   1.679  10.707 -0.8759 -0.8707  1.1745
 3000SOL     OW20461   3.880   3.043   7.241  0.3230 -0.0366 -0.5901
 3000SOL    HW120462   3.946   3.066   7.306 -1.0645  1.5357  0.2534
 3000SOL    HW220463   3.799   3.053   7.291 -0.0949 -0.7281 -1.1141
 3001SOL     OW20464   0.059   0.416   8.129 -0.0005  0.5928 -0.5161
 3001SOL    HW120465   0.140   0.401   8.079 -0.0393  0.1816 -0.4519
 3001SOL    HW220466   0.094   0.459   8.207 -3.3234  0.7356  0.8717
 3002SOL     OW20467   3.996   1.604   6.680  0.4976  0.4384 -0.6122
 3002SOL    HW120468   3.977   1.634   6.769 -1.7790  0.6447 -1.1663
 3002SOL    HW220469   3.940   1.662   6.629 -1.4147 -0.5622  0.3630
 3003SOL     OW20470   1.007   1.030   7.404  0.0754 -0.8869  0.4809
 3003SOL    HW120471   1.002   0.991   7.317 -0.1534 -0.7752  0.4435
 3003SOL    HW220472   1.100   1.054   7.408  0.1528 -0.7359 -1.8366
 3004SOL     OW20473   1.005   1.126   8.908  0.3019  0.4697 -0.7574
 3004SOL    HW120474   0.966   1.043   8.936  1.4443 -0.1744 -1.0731
 3004SOL    HW220475   1.097   1.099   8.898 -0.1350 -0.1467 -2.9837
 3005SOL     OW20476   1.960   2.091  12.769 -0.0236  0.0704  0.4964
 3005SOL    HW120477   1.980   2.015  12.823 -0.7073  0.8430  1.8419
 3005SOL    HW220478   2.045   2.103  12.725 -0.6012  1.6954 -0.1549
 3006SOL     OW20479   1.492   1.136   7.693  0.1740 -0.8474  0.1522
 3006SOL    HW120480   1.496   1.110   7.601  1.9067  0.2778 -0.0917
 3006SOL    HW220481   1.399   1.150   7.707  0.3577 -0.8006  1.3416
 3007SOL     OW20482   1.528   1.264  12.293 -0.1847  0.1195  0.7355
 3007SOL    HW120483   1.599   1.320  12.263 -1.2972  1.2987  0.2655
 3007SOL    HW220484   1.461   1.296  12.233 -0.8074 -1.5943  0.5115
 3008SOL     OW20485   2.564   1.635   2.182  0.3061  0.2124  0.6977
 3008SOL    HW120486   2.522   1.586   2.112 -0.3740  1.7234  0.0381
 3008SOL    HW220487   2.506   1.712   2.179 -0.1560 -0.2129 -0.9660
 3009SOL     OW20488   1.097   0.412   7.129  0.0318  0.5748  0.2805
 3009SOL    HW120489   1.161   0.437   7.197 -0.9042  0.4826  1.1896
 3009SOL    HW220490   1.149   0.347   7.082 -0.6123  1.5309 -1.7580
 3010SOL     OW20491   4.687   4.014   9.035  0.1660 -0.6458  0.5509
 3010SOL    HW120492   4.635   4.077   9.086  0.5802  0.5115 -0.4957
 3010SOL    HW220493   4.625   3.968   8.978 -2.3065  1.2170  1.7075
 3011SOL     OW20494   2.185   2.113   5.834  0.5497  0.2752  0.2790
 3011SOL    HW120495   2.181   2.074   5.747  1.7147 -1.5835  1.0487
 3011SOL    HW220496   2.223   2.197   5.809 -2.7471  1.9450  0.8577
 3012SOL     OW20497   1.895   3.633   9.907  0.1247  0.0739 -0.0434
 3012SOL    HW120498   1.968   3.585   9.946 -0.2337 -0.7330 -0.3612
 3012SOL    HW220499   1.858   3.570   9.846 -1.9334  1.5023 -0.2822
 3013SOL     OW20500   0.512   2.448   8.467  0.3247  0.4596 -0.1600
 3013SOL    HW120501   0.547   2.423   8.382 -0.6708  0.1395 -0.4809
 3013SOL    HW220502   0.595   2.466   8.511  0.7001  1.7587 -1.4271
 3014SOL     OW20503   1.337   1.455   4.118  0.4326  0.0306  0.1275
 3014SOL    HW120504   1.272   1.397   4.157 -0.5923  0.4277 -1.0229
 3014SOL    HW220505   1.400   1.436   4.188  0.0809  1.9781  0.9775
 3015SOL     OW20506   1.535   4.293  14.996 -0.0567 -0.3157  0.3788
 3015SOL    HW120507   1.603   4.332  14.940 -0.8223 -1.1005 -1.1126
 3015SOL    HW220508   1.522   4.212  14.947 -0.8108  0.3800 -0.5788
 3016SOL     OW20509   1.675   0.672   3.484  0.1491  0.0423  0.0337
 3016SOL    HW120510   1.674   0.577   3.472 -1.4764 -0.0899  1.2324
 3016SOL    HW220511   1.582   0.691   3.477 -0.0162 -0.7272  0.1995
 3017SOL     OW20512   4.298   4.067   8.595  0.3667 -0.2447  0.0230
 3017SOL    HW120513   4.318   4.097   8.684 -0.8455  2.5250 -0.6394
 3017SOL    HW220514   4.234   4.136   8.578  0.5629 -0.2839 -0.8319
 3018SOL     OW20515   2.713   3.477   5.514 -0.4761 -0.5418 -0.5301
 3018SOL    HW120516   2.751   3.433   5.437  1.6339  0.9210 -0.2987
 3018SOL    HW220517   2.710   3.398   5.569 -2.2916 -0.1829 -0.1223
 3019SOL     OW20518   1.158   0.088   5.691 -0.4839 -0.3658 -0.4353
 3019SOL    HW120519   1.208   0.012   5.663  1.9590  0.7726  0.8181
 3019SOL    HW220520   1.099   0.048   5.754 -0.7740 -0.6174 -0.8675
 3020SOL     OW20521   0.529   0.138   1.099  0.6209  0.5805  0.5963
 3020SOL    HW120522   0.527   0.209   1.163 -2.0634 -0.4863  1.7118
 3020SOL    HW220523   0.479   0.077   1.152  2.3129 -1.1817  0.1493
 3021SOL     OW20524   2.750   1.565   3.311 -0.0298  0.4273 -0.0098
 3021SOL    HW120525   2.765   1.657   3.292  0.7238 -0.4047 -3.5097
 3021SOL    HW220526   2.821   1.537   3.368 -0.3470 -0.7906 -0.1984
 3022SOL     OW20527   3.716   3.671  13.452  0.0930  0.0909 -0.2674
 3022SOL    HW120528   3.762   3.588  13.435 -0.3108  0.1238 -1.5323
 3022SOL    HW220529   3.708   3.667  13.547  1.5404 -0.7625 -0.1690
 3023SOL     OW20530   4.271   2.509   8.783 -0.1173  0.1469 -0.0399
 3023SOL    HW120531   4.238   2.437   8.729 -2.9663  0.1370  1.7088
 3023SOL    HW220532   4.340   2.545   8.729 -1.0411 -1.3558 -2.1985
 3024SOL     OW20533   4.258   0.369   8.567 -0.2138  0.1715  0.1946
 3024SOL    HW120534   4.176   0.361   8.616 -1.1324  0.3765 -1.3196
 3024SOL    HW220535   4.298   0.422   8.635 -0.0711  0.5893 -0.2161
 3025SOL     OW20536   4.640   3.284   3.371 -0.5116 -0.2904 -0.2669
 3025SOL    HW120537   4.609   3.335   3.296  0.4970 -0.9049 -1.1005
 3025SOL    HW220538   4.613   3.341   3.443  0.3746 -0.1400 -0.0514
 3026SOL     OW20539   1.158   2.016  13.097 -0.1785  0.3300  0.0716
 3026SOL    HW120540   1.093   1.947  13.111  1.7595 -1.2672  1.1633
 3026SOL    HW220541   1.127   2.031  13.008  1.9186 -1.7825 -1.0196
 3027SOL     OW20542   0.800   0.710   2.501  0.2604  0.2640  0.0237
 3027SOL    HW120543   0.764   0.623   2.522  0.2287  0.3952  0.5155
 3027SOL    HW220544   0.838   0.689   2.416 -1.0092 -1.0117 -0.2269
 3028SOL     OW20545   4.590   0.120   5.710 -0.8945  0.2494  0.5609
 3028SOL    HW120546   4.642   0.197   5.733  0.8981 -0.7421 -0.2395
 3028SOL    HW220547   4.521   0.113   5.777 -2.3688  2.3265 -0.7273
 3029SOL     OW20548   0.977   2.372   5.009  0.2223 -0.2207  0.0472
 3029SOL    HW120549   0.973   2.384   5.103  0.0471 -1.3635  0.1905
 3029SOL    HW220550   1.067   2.376   4.978  0.8873 -1.4472  1.8105
 3030SOL     OW20551   0.355   1.816  10.960  0.3009 -0.2194  0.6423
 3030SOL    HW120552   0.397   1.829  11.044 -0.7960  1.3620  0.9475
 3030SOL    HW220553   0.290   1.748  10.981  0.3400 -0.8619 -1.3199
 3031SOL     OW20554   4.197   1.655   8.045 -0.5967 -0.0965 -0.6558
 3031SOL    HW120555   4.264   1.716   8.077  0.0269 -0.7113 -0.7844
 3031SOL    HW220556   4.127   1.687   8.102  0.4282  2.3341 -0.7428
 3032SOL     OW20557   1.452   0.362   3.312 -0.6597 -0.0413 -0.6275
 3032SOL    HW120558   1.533   0.354   3.363  0.5698  1.7634 -2.3168
 3032SOL    HW220559   1.388   0.378   3.381 -0.5060 -1.6645 -0.1028
 3033SOL     OW20560   0.488   4.267   7.657 -0.5058  0.4454  0.0917
 3033SOL    HW120561   0.408   4.309   7.689 -0.1190  0.9749  0.3639
 3033SOL    HW220562   0.541   4.346   7.646  1.4641 -1.1303 -1.4892
 3034SOL     OW20563   0.309   1.219  12.423 -0.0696 -0.3508 -0.0206
 3034SOL    HW120564   0.337   1.285  12.359 -0.7811 -1.7656 -1.8130
 3034SOL    HW220565   0.227   1.264  12.446 -1.1081 -2.8526  1.2085
 3035SOL     OW20566   4.154   0.009   1.765  0.1418  0.3697 -0.4273
 3035SOL    HW120567   4.214   0.056   1.707  1.4591 -0.7344  0.0287
 3035SOL    HW220568   4.135   4.657   1.708  0.3496  0.0375 -0.0664
 3036SOL     OW20569   2.746   0.708   9.757  0.3982 -0.1198 -0.2107
 3036SOL    HW120570   2.760   0.742   9.845 -2.0182 -0.4752  0.2920
 3036SOL    HW220571   2.654   0.690   9.773 -0.1402  1.5154 -1.4829
 3037SOL     OW20572   1.668   0.616  11.500  0.4659 -0.3005 -0.1499
 3037SOL    HW120573   1.725   0.553  11.457  2.7158 -1.3667  4.3815
 3037SOL    HW220574   1.688   0.700  11.458  1.1005 -0.3796  0.0006
 3038SOL     OW20575   4.443   2.686   6.350 -0.4078  0.8444  0.0177
 3038SOL    HW120576   4.412   2.658   6.436 -0.5082  1.2635  0.1217
 3038SOL    HW220577   4.456   2.781   6.360  4.0291  0.0560  1.4020
 3039SOL     OW20578   2.764   2.800   9.577 -0.4273 -0.2938  0.4382
 3039SOL    HW120579   2.747   2.882   9.623  0.1547  0.2600 -0.3180
 3039SOL    HW220580   2.860   2.809   9.574 -0.2881 -1.8038  0.5626
 3040SOL     OW20581   2.840   0.491   6.047 -0.5409  0.1317 -0.1056
 3040SOL    HW120582   2.841   0.586   6.053  1.0112  0.1734 -0.8419
 3040SOL    HW220583   2.836   0.458   6.136  3.5218  1.2850  0.4813
 3041SOL     OW20584   3.099   3.689   2.836  0.3241 -0.1187  0.3887
 3041SOL    HW120585   3.191   3.680   2.813 -0.5345  1.0174 -3.6180
 3041SOL    HW220586   3.058   3.684   2.749  0.2879 -1.2589  0.4702
 3042SOL     OW20587   1.272   1.481   7.662 -0.0550  0.3899 -0.5328
 3042SOL    HW120588   1.191   1.527   7.641 -1.2635 -2.1794 -1.3838
 3042SOL    HW220589   1.314   1.481   7.576  2.0793 -1.0343  0.5065
 3043SOL     OW20590   2.560   2.205  17.245 -0.3396 -0.1206 -0.1283
 3043SOL    HW120591   2.530   2.161  17.325 -2.2705  1.7374  0.1778
 3043SOL    HW220592   2.589   2.134  17.189  0.6729  0.6436 -0.5787
 3044SOL     OW20593   3.636   3.509  16.332 -0.2329 -0.0032 -0.3176
 3044SOL    HW120594   3.553   3.515  16.378 -0.1049 -0.0630 -0.0814
 3044SOL    HW220595   3.610   3.478  16.245  0.2074 -0.4276 -0.2955
 3045SOL     OW20596   0.381   3.123   2.277  0.4178  0.1476 -0.3212
 3045SOL    HW120597   0.466   3.159   2.253  1.5407 -0.9859  1.9091
 3045SOL    HW220598   0.357   3.092   2.190  2.1347 -2.0093 -0.0157
 3046SOL     OW20599   2.267   4.475   6.221 -0.2238  0.5088  0.3209
 3046SOL    HW120600   2.231   4.540   6.162  0.6802 -0.0330 -0.8331
 3046SOL    HW220601   2.293   4.525   6.299  1.3461  1.6358 -0.9195
 3047SOL     OW20602   1.803   1.290   8.454 -0.7870  0.2560  0.1060
 3047SOL    HW120603   1.869   1.237   8.409 -2.4332 -0.1575 -1.8491
 3047SOL    HW220604   1.862   1.341   8.511  0.5292 -0.1510 -0.8925
 3048SOL     OW20605   0.315   1.447   4.983  0.8329 -0.3407 -0.5240
 3048SOL    HW120606   0.365   1.388   5.040  0.9806  0.7826  0.5221
 3048SOL    HW220607   0.370   1.487   4.916  2.3044 -1.2975  0.1143
 3049SOL     OW20608   3.559   0.898   4.620 -0.6096 -0.1291  0.6675
 3049SOL    HW120609   3.638   0.858   4.657 -1.4797 -1.1601  1.4230
 3049SOL    HW220610   3.493   0.859   4.677 -0.8075 -1.1085 -0.2228
 3050SOL     OW20611   2.577   4.218   2.779 -0.0265 -0.9704 -0.2285
 3050SOL    HW120612   2.486   4.197   2.796 -0.4210 -1.0984 -2.5217
 3050SOL    HW220613   2.582   4.313   2.794 -0.2892 -1.0099  0.1165
 3051SOL     OW20614   2.497   3.171  10.213 -0.1415  0.0382  0.2118
 3051SOL    HW120615   2.472   3.101  10.274  0.8990  0.5571  1.2304
 3051SOL    HW220616   2.585   3.194  10.240  0.4505 -0.8962 -0.9339
 3052SOL     OW20617   0.752   2.507   3.573  0.1825  0.4582 -0.6750
 3052SOL    HW120618   0.818   2.444   3.545 -0.2116 -0.3974  0.3327
 3052SOL    HW220619   0.681   2.507   3.509 -1.0259  0.4967  0.6664
 3053SOL     OW20620   4.515   4.128   9.524 -0.4969 -0.6686 -0.2039
 3053SOL    HW120621   4.607   4.101   9.524 -0.0401  0.8787 -0.9404
 3053SOL    HW220622   4.478   4.089   9.445  0.2650 -2.2792  0.2206
 3054SOL     OW20623   4.355   2.525   5.077  0.1665  0.2186 -0.5127
 3054SOL    HW120624   4.353   2.549   4.984  0.1234 -3.0283 -1.3717
 3054SOL    HW220625   4.262   2.509   5.094 -0.2668  2.7060 -0.6313
 3055SOL     OW20626   1.093   1.380   6.514  0.6455  0.0763  0.1327
 3055SOL    HW120627   1.174   1.333   6.532  1.3936  1.5529  0.6003
 3055SOL    HW220628   1.116   1.431   6.436  1.8993 -1.2794 -0.3766
 3056SOL     OW20629   1.279   0.115   2.914  0.2256 -0.1898  0.0787
 3056SOL    HW120630   1.325   0.082   2.837  2.3602  1.3683  0.6779
 3056SOL    HW220631   1.343   0.115   2.986 -0.0295 -2.1718  0.3052
 3057SOL     OW20632   0.555   1.783   2.076  0.0355 -0.1960  0.0106
 3057SOL    HW120633   0.546   1.733   1.995  0.7135  0.5995 -0.5585
 3057SOL    HW220634   0.645   1.764   2.102 -0.2161 -1.0936  0.2419
 3058SOL     OW20635   4.528   1.984   7.451  0.3278 -0.0781  0.3692
 3058SOL    HW120636   4.543   1.977   7.357  1.1115 -1.2220  0.5846
 3058SOL    HW220637   4.617   1.998   7.484  0.8178 -1.2713 -0.4365
 3059SOL     OW20638   0.335   3.503  13.622 -0.1636 -0.4156  0.2457
 3059SOL    HW120639   0.320   3.420  13.577 -2.5958  0.3462 -0.3509
 3059SOL    HW220640   0.421   3.531  13.588 -0.4359  1.1672  0.8597
 3060SOL     OW20641   2.861   3.516   0.551 -0.5174  0.0263  0.4220
 3060SOL    HW120642   2.841   3.462   0.627 -1.3516 -2.2329 -1.3929
 3060SOL    HW220643   2.945   3.552   0.581 -2.1898  1.8520  2.9751
 3061SOL     OW20644   0.522   2.073   3.481 -0.4153 -0.1518 -0.1251
 3061SOL    HW120645   0.582   2.107   3.415  0.0250 -1.2461 -0.2809
 3061SOL    HW220646   0.512   1.979   3.469 -0.9665 -0.2380  0.9565
 3062SOL     OW20647   1.196   0.859   4.266 -0.2848 -0.6151  0.1952
 3062SOL    HW120648   1.131   0.929   4.275 -0.9403 -1.2387  0.2644
 3062SOL    HW220649   1.275   0.908   4.242 -1.0230 -0.3026 -1.5931
 3063SOL     OW20650   3.847   3.266   2.013 -0.0127  0.4509 -0.3365
 3063SOL    HW120651   3.892   3.335   1.965  1.2199 -1.1807 -1.5167
 3063SOL    HW220652   3.760   3.303   2.032 -0.3874  0.5466 -2.2211
 3064SOL     OW20653   0.062   2.122   7.849  0.5782  0.0414  0.2685
 3064SOL    HW120654   0.143   2.102   7.896  0.5729  1.5853  0.9377
 3064SOL    HW220655   4.714   2.077   7.896 -1.1351  2.2088 -0.1950
 3065SOL     OW20656   1.307   4.060   6.220  0.0441  0.2084  0.8193
 3065SOL    HW120657   1.379   4.068   6.157  0.0875  1.3273  1.0063
 3065SOL    HW220658   1.276   3.971   6.201 -0.8524  0.8200 -0.5786
 3066SOL     OW20659   3.300   3.600   5.807 -0.2284  0.4947  0.4711
 3066SOL    HW120660   3.341   3.614   5.721  0.2426 -1.7429  0.3213
 3066SOL    HW220661   3.307   3.504   5.813  0.4647  0.4898 -0.2968
 3067SOL     OW20662   2.130   2.714   0.938 -0.4518 -0.6660 -0.4713
 3067SOL    HW120663   2.089   2.781   0.882  0.4626 -0.7586 -1.2406
 3067SOL    HW220664   2.207   2.693   0.885  0.3271 -0.9277  0.7796
 3068SOL     OW20665   1.920   2.776   8.315 -0.1681 -0.2513  0.2408
 3068SOL    HW120666   1.831   2.750   8.293 -0.2980  0.9419 -0.6313
 3068SOL    HW220667   1.923   2.731   8.399 -0.4392 -0.5283  0.0994
 3069SOL     OW20668   0.477   0.176  13.355  0.5008  0.4626 -0.0597
 3069SOL    HW120669   0.397   0.220  13.327  1.2346  1.1148 -1.1624
 3069SOL    HW220670   0.515   0.234  13.420  0.7208 -1.2702  1.3644
 3070SOL     OW20671   2.671   3.274   5.689  0.2751 -0.6707 -0.4699
 3070SOL    HW120672   2.710   3.218   5.756  1.2166  1.6715  0.9486
 3070SOL    HW220673   2.602   3.312   5.743 -0.2017 -2.3662  0.1129
 3071SOL     OW20674   0.217   3.803   2.147 -0.3275 -0.3121 -0.1763
 3071SOL    HW120675   0.286   3.764   2.093  1.2374  1.6161  0.4050
 3071SOL    HW220676   0.219   3.896   2.125  1.4751 -0.2273  0.3191
 3072SOL     OW20677   2.694   4.390   4.046 -0.0460  0.3893  0.5795
 3072SOL    HW120678   2.643   4.310   4.052 -0.7651  0.8267  0.2558
 3072SOL    HW220679   2.645   4.421   3.970 -0.0796  0.6510  0.7079
 3073SOL     OW20680   4.523   1.292   5.319  0.1685  0.0257 -0.1496
 3073SOL    HW120681   4.600   1.257   5.275  1.3526  1.7059  0.6202
 3073SOL    HW220682   4.563   1.311   5.404 -0.3541  0.2059  0.0551
 3074SOL     OW20683   4.106   3.687   5.111 -0.3917 -0.7463 -0.0712
 3074SOL    HW120684   4.100   3.608   5.057 -0.5528  0.2738 -1.5548
 3074SOL    HW220685   4.058   3.741   5.047 -0.1559 -2.0637 -1.3620
 3075SOL     OW20686   4.105   0.377   2.415 -0.6664 -0.5646  0.4071
 3075SOL    HW120687   4.075   0.338   2.333  2.5574 -1.3597 -0.4006
 3075SOL    HW220688   4.175   0.321   2.449 -0.5427 -1.0636 -0.6535
 3076SOL     OW20689   2.531   2.332   3.929  0.2572  0.6033 -0.4997
 3076SOL    HW120690   2.464   2.301   3.868 -0.2481 -0.4253  0.5571
 3076SOL    HW220691   2.543   2.248   3.975  0.8768  0.8217 -0.2593
 3077SOL     OW20692   1.377   3.823  12.823  0.2372 -0.1582  0.6700
 3077SOL    HW120693   1.380   3.914  12.851 -0.9383 -0.5184  2.0162
 3077SOL    HW220694   1.370   3.782  12.909 -0.7263  1.3372  1.2963
 3078SOL     OW20695   3.449   0.826   4.029  0.4465  0.3004  0.1753
 3078SOL    HW120696   3.510   0.893   4.000  1.2429 -1.3703 -1.9875
 3078SOL    HW220697   3.507   0.750   4.034  0.1337  0.1927  2.3758
 3079SOL     OW20698   2.014   4.399  13.140 -0.5425  0.2460  0.5327
 3079SOL    HW120699   1.941   4.410  13.078 -1.3957 -0.9714  1.3167
 3079SOL    HW220700   2.049   4.324  13.092  1.4183  2.0579 -0.8605
 3080SOL     OW20701   0.159   2.618   5.220 -0.6438 -0.4652  0.2066
 3080SOL    HW120702   0.253   2.625   5.203 -0.3218  0.8068  2.5008
 3080SOL    HW220703   0.123   2.706   5.221  0.8869  0.1463  1.3504
 3081SOL     OW20704   0.746   3.662  11.848  0.2481 -0.2916 -0.0911
 3081SOL    HW120705   0.735   3.585  11.903 -0.2548  0.1957  0.4829
 3081SOL    HW220706   0.703   3.728  11.901 -0.4684 -1.7445  1.1240
 3082SOL     OW20707   0.137   1.181   9.720 -0.6489 -0.7428 -0.3539
 3082SOL    HW120708   0.222   1.164   9.681  0.7346  0.6749  2.0585
 3082SOL    HW220709   0.101   1.093   9.704 -1.0001 -0.7580  0.4808
 3083SOL     OW20710   3.212   3.348   6.537  0.0714  0.5724 -0.3874
 3083SOL    HW120711   3.181   3.410   6.471 -1.3643 -1.2823 -1.4425
 3083SOL    HW220712   3.302   3.380   6.542 -0.3131  1.8681 -1.6382
 3084SOL     OW20713   0.207   3.035   4.864 -0.3389  0.3120  0.1438
 3084SOL    HW120714   0.176   3.118   4.901 -0.9629 -0.0602  0.4525
 3084SOL    HW220715   0.151   3.029   4.787 -0.7994 -1.4319  0.6098
 3085SOL     OW20716   0.989   3.861   6.871 -0.1174  0.1232  0.8658
 3085SOL    HW120717   0.909   3.852   6.819  0.2194 -1.1025  0.5641
 3085SOL    HW220718   0.973   3.795   6.939 -0.4381  0.9406  1.5797
 3086SOL     OW20719   2.722   2.660   8.798 -0.2796 -0.2658  0.2794
 3086SOL    HW120720   2.785   2.677   8.728  0.1435 -3.5990 -0.1275
 3086SOL    HW220721   2.786   2.617   8.854  0.0336 -2.7254 -2.0236
 3087SOL     OW20722   3.034   2.262   7.460 -0.5777 -0.0618 -0.0987
 3087SOL    HW120723   3.013   2.191   7.400 -0.1818 -0.0649 -0.2333
 3087SOL    HW220724   3.101   2.307   7.409  0.3794 -0.0354  1.1813
 3088SOL     OW20725   0.713   2.218   3.358 -0.0121 -0.6449 -0.1405
 3088SOL    HW120726   0.680   2.307   3.349 -0.8067 -0.9944 -0.7149
 3088SOL    HW220727   0.798   2.244   3.325  0.1387  0.3815  1.0554
 3089SOL     OW20728   0.612   0.911   0.195 -0.0230  0.4273 -0.0493
 3089SOL    HW120729   0.591   0.828   0.152 -0.6104  1.1956 -1.2435
 3089SOL    HW220730   0.682   0.892   0.257 -0.2347  1.8236  0.6136
 3090SOL     OW20731   1.180   1.012   3.752  0.0185  0.4672  0.0598
 3090SOL    HW120732   1.086   0.994   3.754 -0.1696  1.4369 -0.3423
 3090SOL    HW220733   1.190   1.100   3.788  1.7713  0.6823 -0.9583
 3091SOL     OW20734   4.570   0.412   0.502 -0.2171 -0.0676 -0.2432
 3091SOL    HW120735   4.582   0.507   0.498 -0.5674 -0.0123  0.0826
 3091SOL    HW220736   4.575   0.402   0.406  0.3218  0.1611 -0.2402
 3092SOL     OW20737   4.102   3.626   6.647  0.2272 -1.0358  0.0405
 3092SOL    HW120738   4.150   3.680   6.585  0.8755  0.2909  1.6977
 3092SOL    HW220739   4.054   3.572   6.585 -1.0522 -0.0404  0.1660
 3093SOL     OW20740   2.752   1.390   4.995 -0.6198 -0.2904  0.0815
 3093SOL    HW120741   2.771   1.365   4.904  4.0667  3.7744 -0.0881
 3093SOL    HW220742   2.830   1.369   5.047 -0.0930 -1.7803 -1.3286
 3094SOL     OW20743   1.959   1.598  13.224 -0.4409 -0.3344 -0.6420
 3094SOL    HW120744   1.941   1.632  13.311  1.9387  0.9051 -0.6303
 3094SOL    HW220745   1.908   1.658  13.170  0.5179  2.0102  1.0417
 3095SOL     OW20746   2.469   1.950   2.425 -0.2214 -1.0364  0.2999
 3095SOL    HW120747   2.439   2.033   2.387  1.4853  1.0593  3.4991
 3095SOL    HW220748   2.398   1.890   2.400  0.9589 -1.0543 -3.0313
 3096SOL     OW20749   1.070   0.688  17.318 -0.3506 -0.0595 -0.5562
 3096SOL    HW120750   1.070   0.745  17.241  0.8847  0.6691 -0.0201
 3096SOL    HW220751   1.105   0.754  17.379  0.6086 -2.1885  1.1867
 3097SOL     OW20752   1.706   2.501   2.219  0.0744  0.3171  0.0838
 3097SOL    HW120753   1.656   2.583   2.217  1.0561  0.9296  0.7369
 3097SOL    HW220754   1.748   2.513   2.304 -0.6867 -0.1926  0.5316
 3098SOL     OW20755   3.566   3.311  13.272 -0.3246 -0.1170 -0.3871
 3098SOL    HW120756   3.595   3.362  13.196 -0.9955  0.0510 -0.5256
 3098SOL    HW220757   3.471   3.323  13.266 -0.0382  1.6943 -1.2799
 3099SOL     OW20758   3.517   0.554  13.885 -0.6561  0.1732 -0.5131
 3099SOL    HW120759   3.508   0.638  13.839 -0.0698  2.0933  2.9090
 3099SOL    HW220760   3.579   0.582  13.952 -1.6692 -1.9659  1.2942
 3100SOL     OW20761   4.606   2.127  14.817 -0.8899 -0.0219  0.1676
 3100SOL    HW120762   4.521   2.095  14.788 -0.8006 -0.4137  0.3378
 3100SOL    HW220763   4.658   2.139  14.737  0.6720 -1.2353  1.0110
 3101SOL     OW20764   4.232   4.038   2.224  0.4508  0.3632  0.0347
 3101SOL    HW120765   4.260   4.107   2.284 -1.1193  0.2472  0.9111
 3101SOL    HW220766   4.313   3.995   2.199 -1.3317 -2.8019 -0.3277
 3102SOL     OW20767   0.288   3.175   9.482  0.2955 -0.5770  0.0607
 3102SOL    HW120768   0.196   3.150   9.472 -0.7161  1.1430  4.9821
 3102SOL    HW220769   0.305   3.097   9.536 -2.7530  0.2113  2.1694
 3103SOL     OW20770   2.827   0.165  13.128  0.7387 -0.3712  0.7817
 3103SOL    HW120771   2.823   0.247  13.078  1.1825  1.0141  3.0443
 3103SOL    HW220772   2.790   0.106  13.062 -1.5220  0.3121  1.4336
 3104SOL     OW20773   0.908   2.765  13.904  0.3032  0.4536  0.3518
 3104SOL    HW120774   0.844   2.766  13.976 -0.5915 -0.9546 -0.4078
 3104SOL    HW220775   0.857   2.711  13.843 -1.0440  0.5566  1.3703
 3105SOL     OW20776   1.152   3.679   6.694  0.4836  0.0842  0.4913
 3105SOL    HW120777   1.226   3.691   6.753  0.4464  0.6442  0.4212
 3105SOL    HW220778   1.090   3.746   6.722 -0.9874 -0.4912 -1.3595
 3106SOL     OW20779   1.554   1.261  11.965  0.3271  0.2480  0.7506
 3106SOL    HW120780   1.621   1.240  11.899  0.4655 -0.6640  1.1910
 3106SOL    HW220781   1.602   1.247  12.046  0.5151  0.5387  0.6905
 3107SOL     OW20782   1.406   3.099   4.284 -0.2477 -0.6534 -0.2142
 3107SOL    HW120783   1.399   3.010   4.250 -0.0074  1.2182 -5.1849
 3107SOL    HW220784   1.314   3.123   4.269  0.5743  2.4925 -0.3825
 3108SOL     OW20785   1.355   0.100   6.159 -0.0014 -0.1034  0.1662
 3108SOL    HW120786   1.416   0.137   6.095  1.0546 -0.9557  0.6945
 3108SOL    HW220787   1.335   0.010   6.132 -1.2168  0.2309 -0.0406
 3109SOL     OW20788   1.088   3.569   6.427 -0.2985  0.2057  0.5005
 3109SOL    HW120789   1.139   3.643   6.395  1.1182 -0.4494  1.2393
 3109SOL    HW220790   1.096   3.577   6.522  0.2553  0.8343  0.3933
 3110SOL     OW20791   0.699   0.955  11.885  0.1675 -0.2222 -0.4286
 3110SOL    HW120792   0.748   1.031  11.915 -0.7017  1.6923 -3.7772
 3110SOL    HW220793   0.688   0.976  11.792 -0.8363  0.2761 -0.1982
 3111SOL     OW20794   2.383   2.559   3.223  0.7227 -0.8238  0.4689
 3111SOL    HW120795   2.378   2.530   3.131 -2.3173  1.6844 -0.1538
 3111SOL    HW220796   2.330   2.497   3.272 -1.4190  0.3170 -0.4223
 3112SOL     OW20797   1.949   4.516   9.968 -0.6929 -0.2659 -0.0684
 3112SOL    HW120798   1.886   4.474   9.910 -1.7088 -0.0771  0.8806
 3112SOL    HW220799   2.031   4.528   9.921 -0.3329 -1.6085  0.2162
 3113SOL     OW20800   2.241   1.938   3.625  0.7429  0.0930 -0.1969
 3113SOL    HW120801   2.162   1.942   3.571  0.5275  0.9946  0.1837
 3113SOL    HW220802   2.210   1.941   3.716  1.6643  1.5626  0.0707
 3114SOL     OW20803   0.613   1.252  11.522  0.0813  0.1074  0.0555
 3114SOL    HW120804   0.695   1.299  11.504  0.3360 -0.6759 -0.8489
 3114SOL    HW220805   0.624   1.234  11.615 -0.9515  0.2633  0.2074
 3115SOL     OW20806   2.999   3.964   5.996  0.3325  0.4589 -0.6097
 3115SOL    HW120807   2.992   3.914   6.077 -1.3810 -0.1331 -1.1253
 3115SOL    HW220808   3.018   3.892   5.936  3.4604  0.6277  0.1861
 3116SOL     OW20809   4.153   1.886   3.526 -0.0583  0.2082  0.1877
 3116SOL    HW120810   4.134   1.891   3.619  0.0796  1.3536  0.1576
 3116SOL    HW220811   4.175   1.978   3.511 -0.0956 -0.0716 -1.6855
 3117SOL     OW20812   0.545   1.025  12.173 -0.5625 -0.1050  0.7754
 3117SOL    HW120813   0.487   1.101  12.164  1.0051  1.2278  2.0657
 3117SOL    HW220814   0.531   0.981  12.089 -1.2325  0.9850  0.3024
 3118SOL     OW20815   1.029   3.658   7.367  0.0453  0.1362 -0.3643
 3118SOL    HW120816   1.088   3.586   7.388 -0.5344 -0.9171 -2.3314
 3118SOL    HW220817   0.957   3.641   7.428  0.5468 -1.9961 -0.3968
 3119SOL     OW20818   0.467   1.296   9.962 -0.5313 -0.7792  0.5147
 3119SOL    HW120819   0.561   1.279   9.969 -0.5185  0.1129  2.5666
 3119SOL    HW220820   0.430   1.209   9.980 -0.0705 -1.3073 -1.0892
 3120SOL     OW20821   1.945   3.772   6.743  0.4756 -0.1074 -0.6060
 3120SOL    HW120822   1.911   3.827   6.672  0.2568 -1.2813 -1.3926
 3120SOL    HW220823   1.962   3.843   6.806  0.2579  0.9578 -1.7386
 3121SOL     OW20824   4.353   1.973  13.220  0.7316 -0.3148 -0.1364
 3121SOL    HW120825   4.407   1.952  13.296  0.2927 -1.7904 -0.2208
 3121SOL    HW220826   4.400   1.915  13.160 -1.0084 -0.5982 -1.2453
 3122SOL     OW20827   2.541   2.054   3.986 -0.1629  1.0226  0.2879
 3122SOL    HW120828   2.548   2.009   3.901  0.6555 -0.2802  1.0477
 3122SOL    HW220829   2.628   2.049   4.026 -0.7212 -1.1121  1.2418
 3123SOL     OW20830   1.977   1.599  10.678  0.0305 -0.0931 -0.2728
 3123SOL    HW120831   1.923   1.624  10.753 -0.4598 -4.5775  0.8852
 3123SOL    HW220832   1.930   1.526  10.637  0.6545 -0.7235  0.1362
 3124SOL     OW20833   2.921   2.799  15.840 -0.0742 -1.0037 -0.4930
 3124SOL    HW120834   2.898   2.747  15.917 -3.2895  0.2355 -0.6447
 3124SOL    HW220835   2.842   2.800  15.786  1.1190 -2.1762 -2.2612
 3125SOL     OW20836   1.572   2.459   6.340  0.6720  0.1544  0.3296
 3125SOL    HW120837   1.543   2.402   6.411  0.2318 -0.5752 -0.4232
 3125SOL    HW220838   1.556   2.404   6.263 -2.4692  0.2420  0.9377
 3126SOL     OW20839   3.737   0.781  13.277  0.2650 -0.1588  0.2596
 3126SOL    HW120840   3.711   0.872  13.292  0.0797  0.0916 -1.5834
 3126SOL    HW220841   3.828   0.798  13.253 -0.0054 -0.2009 -0.7756
 3127SOL     OW20842   3.168   3.898  11.751  0.0931  0.3251  0.3880
 3127SOL    HW120843   3.212   3.948  11.682 -1.7259  1.2376 -0.1079
 3127SOL    HW220844   3.189   3.955  11.826  4.3947 -0.9735  0.1877
 3128SOL     OW20845   2.725   4.255   1.453  0.4628 -0.3439 -0.2195
 3128SOL    HW120846   2.652   4.252   1.516  0.6500 -0.0941  0.0076
 3128SOL    HW220847   2.746   4.162   1.467  1.3809 -0.0865  0.0609
 3129SOL     OW20848   4.034   4.617   5.990 -0.2286  0.4305 -0.0102
 3129SOL    HW120849   4.127   4.621   5.969 -0.3277  0.9326 -0.3496
 3129SOL    HW220850   3.995   4.673   5.923 -1.1854 -2.5459 -1.9400
 3130SOL     OW20851   2.050   1.778  16.414  0.3178  0.0093  0.6094
 3130SOL    HW120852   2.079   1.718  16.482 -0.0093 -1.5605 -0.6417
 3130SOL    HW220853   2.136   1.796  16.377  0.8671 -1.3745  1.2073
 3131SOL     OW20854   3.375   2.995   3.724 -0.7033 -0.1767  1.1416
 3131SOL    HW120855   3.321   2.917   3.730 -0.2260 -0.4679  1.6741
 3131SOL    HW220856   3.351   3.032   3.640  3.2065 -0.4358 -0.1099
 3132SOL     OW20857   0.199   1.821  13.754  0.0426 -0.4595  0.2945
 3132SOL    HW120858   0.281   1.821  13.805  0.7404  1.5981 -0.8459
 3132SOL    HW220859   0.158   1.740  13.786 -2.1720  0.2527 -0.7835
 3133SOL     OW20860   0.247   2.683   3.826 -0.3444  0.2126 -0.4294
 3133SOL    HW120861   0.158   2.663   3.798  0.6892 -2.9886 -1.3950
 3133SOL    HW220862   0.234   2.772   3.858  2.7071 -0.0183  1.4857
 3134SOL     OW20863   0.533   3.353  14.675  0.0959 -0.0343  0.9446
 3134SOL    HW120864   0.596   3.345  14.604  1.2418 -0.9829  2.0624
 3134SOL    HW220865   0.543   3.271  14.724  2.4443  0.4337  1.2400
 3135SOL     OW20866   1.501   2.616   6.838  0.1729  0.2512  0.1546
 3135SOL    HW120867   1.470   2.572   6.759  1.3890 -0.2607 -0.0272
 3135SOL    HW220868   1.460   2.562   6.905  1.0701  0.8659  1.1962
 3136SOL     OW20869   4.384   1.909   3.720  0.6048  0.3322  0.5570
 3136SOL    HW120870   4.414   1.892   3.810 -0.9746  2.8458  1.5588
 3136SOL    HW220871   4.306   1.959   3.745  0.1318  0.5554 -1.3532
 3137SOL     OW20872   0.033   1.345   8.505 -0.2770 -0.4059 -0.4472
 3137SOL    HW120873   0.050   1.417   8.444 -2.9951 -0.9888 -1.8929
 3137SOL    HW220874   0.083   1.376   8.581 -0.7502 -2.0406  0.5353
 3138SOL     OW20875   3.760   1.422  14.415 -0.2145 -0.1338  0.2564
 3138SOL    HW120876   3.691   1.440  14.352 -1.9869  1.1856  2.6017
 3138SOL    HW220877   3.840   1.452  14.371 -0.4376  0.2690  0.1227
 3139SOL     OW20878   4.214   2.009   4.817 -0.5982 -0.3825  0.0754
 3139SOL    HW120879   4.134   1.957   4.806 -0.2274 -0.8144 -0.5670
 3139SOL    HW220880   4.180   2.083   4.867 -2.0259 -1.2403  0.3919
 3140SOL     OW20881   0.156   4.260   3.085 -0.3568 -0.2737  0.1268
 3140SOL    HW120882   0.087   4.326   3.080 -1.3860 -1.2364  1.4791
 3140SOL    HW220883   0.220   4.325   3.113 -0.3495  0.1289 -0.8146
 3141SOL     OW20884   2.322   1.564   7.495 -0.1154 -0.0720 -0.2823
 3141SOL    HW120885   2.231   1.587   7.513  0.1214 -0.2411  1.0879
 3141SOL    HW220886   2.304   1.472   7.475 -2.3333  0.5332 -1.1230
 3142SOL     OW20887   1.229   3.476   7.246 -0.5413 -0.0603  0.2072
 3142SOL    HW120888   1.225   3.420   7.324  0.4814  1.0098  1.0281
 3142SOL    HW220889   1.319   3.508   7.240 -0.1948 -1.3333 -1.3123
 3143SOL     OW20890   2.260   2.053   2.267  0.0348  0.8239 -0.1257
 3143SOL    HW120891   2.174   2.024   2.236  0.2004  1.4008 -1.1192
 3143SOL    HW220892   2.243   2.142   2.298 -1.2924  0.0822  1.2735
 3144SOL     OW20893   4.176   1.410   5.014 -0.0564 -0.3680  0.8185
 3144SOL    HW120894   4.134   1.341   4.964  0.2188 -0.0897  0.2068
 3144SOL    HW220895   4.126   1.490   4.997  2.0822  0.7519 -0.2115
 3145SOL     OW20896   0.948   3.424   2.282 -0.9116 -0.3041  0.5288
 3145SOL    HW120897   0.919   3.351   2.228  0.1787 -0.3821  0.0636
 3145SOL    HW220898   0.879   3.485   2.257 -0.1092  0.2576 -0.3125
 3146SOL     OW20899   1.893   0.511   4.178 -0.4390  0.6218 -0.2248
 3146SOL    HW120900   1.986   0.525   4.160 -0.7148  0.2886 -1.9245
 3146SOL    HW220901   1.884   0.421   4.147 -1.6164  0.4077  0.7197
 3147SOL     OW20902   3.957   4.088   5.592 -0.0530 -0.6094  0.4855
 3147SOL    HW120903   3.908   4.092   5.674  0.0720  1.7725  0.4348
 3147SOL    HW220904   4.014   4.164   5.602  0.1769 -0.7504  0.2256
 3148SOL     OW20905   2.136   3.201   3.600 -0.5201 -0.3246  0.6661
 3148SOL    HW120906   2.122   3.162   3.514  0.3288 -0.1563  0.4533
 3148SOL    HW220907   2.078   3.149   3.656 -3.6891  2.3900 -0.1189
 3149SOL     OW20908   3.074   1.174   8.344 -0.1764  0.0759 -0.2697
 3149SOL    HW120909   3.109   1.218   8.422  0.6815 -0.0161 -0.6022
 3149SOL    HW220910   3.031   1.251   8.306 -2.3335 -0.3613  1.2915
 3150SOL     OW20911   3.010   0.297   5.871 -0.4811 -0.0603  0.1281
 3150SOL    HW120912   2.960   0.359   5.924  0.0090  0.8830 -0.5162
 3150SOL    HW220913   2.962   0.300   5.789  0.2606  1.2303 -0.2559
 3151SOL     OW20914   2.739   4.410  15.785 -0.5235  0.0763 -0.1182
 3151SOL    HW120915   2.769   4.399  15.695  0.3721  0.6211  0.1057
 3151SOL    HW220916   2.824   4.404  15.829  1.4669 -0.0534 -4.0132
 3152SOL     OW20917   3.080   1.466   9.694  0.4759 -0.1301 -0.1406
 3152SOL    HW120918   3.147   1.532   9.676  0.7588 -0.3309  0.1789
 3152SOL    HW220919   3.142   1.393   9.699 -0.7939 -1.1855  0.2368
 3153SOL     OW20920   1.835   0.331   0.399 -0.3612 -0.2779 -0.4576
 3153SOL    HW120921   1.764   0.283   0.355 -0.7706 -1.3411  1.3629
 3153SOL    HW220922   1.879   0.250   0.425 -1.5199 -0.0559  2.2017
 3154SOL     OW20923   2.613   1.490   6.738  0.1994 -0.1692 -0.3495
 3154SOL    HW120924   2.641   1.417   6.683 -0.9217  0.5042 -1.8015
 3154SOL    HW220925   2.617   1.454   6.827  1.5715 -0.2864 -0.4484
 3155SOL     OW20926   3.035   2.933  11.743  0.1085  0.2022  0.1535
 3155SOL    HW120927   2.946   2.897  11.739 -0.4768  1.8861 -1.7124
 3155SOL    HW220928   3.031   3.027  11.730  1.7031  0.0948 -1.0386
 3156SOL     OW20929   4.435   0.840   9.616  0.1296  0.2018  0.0904
 3156SOL    HW120930   4.461   0.839   9.708  2.1996 -1.4762 -0.5235
 3156SOL    HW220931   4.466   0.755   9.585 -1.1177 -0.1068 -0.3011
 3157SOL     OW20932   0.479   4.387   2.445  0.0395  0.0270 -0.0515
 3157SOL    HW120933   0.547   4.339   2.397  0.5559  0.7330 -0.0301
 3157SOL    HW220934   0.499   4.374   2.538  1.3577  0.0396 -0.3374
 3158SOL     OW20935   2.791   2.495   3.596 -0.2369 -0.1390  0.2843
 3158SOL    HW120936   2.833   2.577   3.622 -0.7143  1.3661 -3.5601
 3158SOL    HW220937   2.798   2.451   3.680 -0.4597  0.2581  0.5080
 3159SOL     OW20938   3.705   3.690   6.075 -0.3818  0.2022 -0.0948
 3159SOL    HW120939   3.741   3.677   5.988  1.6372  0.0798  0.7714
 3159SOL    HW220940   3.614   3.702   6.047 -0.0794  0.1527 -1.0713
 3160SOL     OW20941   0.450   2.375   7.643  0.3602 -0.1048 -0.0874
 3160SOL    HW120942   0.513   2.443   7.667  0.0916  0.6004 -1.3776
 3160SOL    HW220943   0.423   2.348   7.731  0.0858  0.3573 -0.0250
 3161SOL     OW20944   4.434   0.334  16.873  0.1167 -0.2379  0.7468
 3161SOL    HW120945   4.347   0.304  16.901 -0.8540  1.2849 -0.5965
 3161SOL    HW220946   4.410   0.376  16.790  1.4994  1.2265  1.0793
 3162SOL     OW20947   4.485   3.929   2.163  0.2415  0.7566 -0.2557
 3162SOL    HW120948   4.548   3.885   2.220 -1.1875 -0.7628  0.1806
 3162SOL    HW220949   4.499   3.895   2.075  1.4316 -0.3951  0.3826
 3163SOL     OW20950   1.836   0.611   5.529  0.1727 -0.3839 -0.1534
 3163SOL    HW120951   1.867   0.635   5.442 -0.6270 -2.1609 -0.9345
 3163SOL    HW220952   1.920   0.603   5.575  1.4960  1.9487 -2.1944
 3164SOL     OW20953   1.749   4.677   5.984 -0.0786  0.4603 -0.2337
 3164SOL    HW120954   1.699   4.601   5.954  1.5077 -0.3022 -0.9219
 3164SOL    HW220955   1.768   4.714   5.898  1.6224  3.1680  1.2711
 3165SOL     OW20956   2.688   2.803   7.572 -0.8233  0.0744 -0.1905
 3165SOL    HW120957   2.739   2.799   7.653 -0.0289  3.2205 -0.5427
 3165SOL    HW220958   2.604   2.765   7.600 -0.8458 -0.8066 -1.4505
 3166SOL     OW20959   2.524   0.505   6.449  0.7869 -0.1937  0.2135
 3166SOL    HW120960   2.501   0.507   6.542 -0.1737 -1.2618 -0.0097
 3166SOL    HW220961   2.536   0.411   6.435 -0.2278  0.1903 -3.2870
 3167SOL     OW20962   0.899   0.526   4.600 -0.6436  0.1608 -0.5144
 3167SOL    HW120963   0.804   0.537   4.594 -0.7955 -0.6863  0.3058
 3167SOL    HW220964   0.917   0.498   4.510 -0.8358  3.4012 -1.5625
 3168SOL     OW20965   1.811   2.035   1.624  0.0612  0.8388  0.2101
 3168SOL    HW120966   1.842   2.039   1.534 -2.5757 -2.4422 -0.8750
 3168SOL    HW220967   1.829   1.946   1.653 -1.3451 -0.2444 -2.2140
 3169SOL     OW20968   3.498   3.273   6.001  1.0923  0.5347  0.2484
 3169SOL    HW120969   3.498   3.331   5.925 -0.9624 -0.2470 -0.3689
 3169SOL    HW220970   3.519   3.189   5.960  1.6457  0.2817  1.0490
 3170SOL     OW20971   2.200   0.050   9.201  0.5091 -0.4325 -0.5349
 3170SOL    HW120972   2.258   4.698   9.182  1.1529 -0.2571  0.7395
 3170SOL    HW220973   2.167   0.060   9.112 -0.5081 -2.0991 -0.3492
 3171SOL     OW20974   4.207   1.739   8.379  0.1416  0.0918  0.1994
 3171SOL    HW120975   4.279   1.784   8.336  1.2606  0.4718  2.4888
 3171SOL    HW220976   4.148   1.812   8.399  0.2936 -0.0297  1.1130
 3172SOL     OW20977   0.053   1.717   8.263  0.3421 -0.3566  0.4670
 3172SOL    HW120978   4.719   1.684   8.193  1.1699 -0.4093 -0.1665
 3172SOL    HW220979   0.002   1.695   8.341  0.0546  0.4747  0.5177
 3173SOL     OW20980   3.469   4.370   7.937  0.4444 -0.2693  0.5757
 3173SOL    HW120981   3.401   4.437   7.934 -2.3322 -3.3374 -4.1975
 3173SOL    HW220982   3.449   4.318   7.859 -1.3131  0.4153  0.5799
 3174SOL     OW20983   0.872   0.082   4.223  0.5621 -0.3773  0.2974
 3174SOL    HW120984   0.918   0.098   4.141 -0.3022 -0.9691 -0.3155
 3174SOL    HW220985   0.823   0.006   4.190  1.1415 -1.7613  2.6389
 3175SOL     OW20986   0.981   4.616   2.283 -0.0957  0.4716 -0.3748
 3175SOL    HW120987   0.974   4.598   2.190 -3.8146 -2.2414  0.4328
 3175SOL    HW220988   1.054   4.678   2.283  1.2702 -1.1282 -0.0619
 3176SOL     OW20989   1.979   3.380  14.219 -0.1505 -0.1582  0.1799
 3176SOL    HW120990   1.962   3.445  14.288  1.1399  0.0808  0.2732
 3176SOL    HW220991   2.054   3.428  14.184 -2.3736  2.1169 -1.4120
 3177SOL     OW20992   3.182   3.190   3.829  0.3459  0.2717 -0.0257
 3177SOL    HW120993   3.246   3.120   3.843 -0.7545 -1.0389 -1.4975
 3177SOL    HW220994   3.102   3.138   3.834  1.0177 -0.9630 -2.0678
 3178SOL     OW20995   0.607   3.749   4.699 -0.4112  0.4054  0.9094
 3178SOL    HW120996   0.623   3.669   4.749  1.9514 -0.0254 -0.5327
 3178SOL    HW220997   0.512   3.753   4.705 -0.4136  0.3723  0.8923
 3179SOL     OW20998   3.929   0.643   3.277 -0.6023 -0.3288 -0.2122
 3179SOL    HW120999   3.863   0.658   3.209  0.1512 -1.2788 -1.1588
 3179SOL    HW221000   3.889   0.584   3.342  0.8986 -1.2377 -0.1021
 3180SOL     OW21001   3.953   4.053   4.589  0.1056  0.5658 -0.2088
 3180SOL    HW121002   3.894   4.049   4.664  1.1477 -1.1343  0.5138
 3180SOL    HW221003   4.035   4.053   4.638 -0.3749  3.3879  0.6268
 3181SOL     OW21004   3.618   3.195  10.861  0.1236  0.2019 -0.0518
 3181SOL    HW121005   3.694   3.184  10.803 -0.1172  0.9397 -0.5058
 3181SOL    HW221006   3.656   3.209  10.948  1.7516 -0.2694 -0.6842
 3182SOL     OW21007   4.016   2.928   3.466  0.2692 -0.3217  0.9417
 3182SOL    HW121008   4.096   2.934   3.414  0.9130 -1.6795  1.7819
 3182SOL    HW221009   3.979   2.850   3.424 -1.0338 -0.3152  2.0659
 3183SOL     OW21010   0.130   3.752   2.447 -0.4485  0.7483  0.5309
 3183SOL    HW121011   0.186   3.766   2.370 -0.4626 -1.9321  0.0279
 3183SOL    HW221012   0.159   3.823   2.505 -0.2955 -0.3373  1.7811
 3184SOL     OW21013   3.599   0.394  14.673  0.7078  0.2285  0.2868
 3184SOL    HW121014   3.617   0.473  14.724  0.4880 -0.4859  1.4725
 3184SOL    HW221015   3.634   0.325  14.730  2.9098  1.3346  0.2551
 3185SOL     OW21016   2.274   3.069   6.077 -0.4147  0.5893  0.0391
 3185SOL    HW121017   2.223   3.023   6.145 -1.3627 -1.6706 -2.2231
 3185SOL    HW221018   2.275   3.159   6.110 -0.7681  0.8508 -0.6826
 3186SOL     OW21019   1.343   1.470   5.255  0.1978  0.6048  0.1391
 3186SOL    HW121020   1.388   1.385   5.259 -1.0647 -0.0868 -0.3632
 3186SOL    HW221021   1.262   1.441   5.296  0.2735 -1.6961 -1.3496
 3187SOL     OW21022   1.268   3.905   0.554  0.4772 -0.2401 -0.1731
 3187SOL    HW121023   1.337   3.877   0.614 -0.6307 -0.2013  1.1301
 3187SOL    HW221024   1.198   3.939   0.610 -0.3788 -0.9138 -0.8114
 3188SOL     OW21025   1.454   2.817  17.058  0.4832  0.0032  0.6778
 3188SOL    HW121026   1.518   2.814  16.987  1.9814 -1.7337  2.0935
 3188SOL    HW221027   1.378   2.833  17.001  0.5471  1.7962  1.1090
 3189SOL     OW21028   0.859   3.963   8.651 -0.1598 -0.2383 -0.1555
 3189SOL    HW121029   0.865   3.998   8.740 -2.0026  1.3402 -0.6313
 3189SOL    HW221030   0.935   3.998   8.604 -0.2009 -1.4428 -1.1348
 3190SOL     OW21031   4.339   4.592   4.100 -0.2928  0.2535  0.5765
 3190SOL    HW121032   4.390   4.663   4.062 -1.0582 -0.0690 -1.0468
 3190SOL    HW221033   4.262   4.633   4.140 -0.2400  0.3902  0.5377
 3191SOL     OW21034   0.873   2.581  15.666 -0.7599 -0.4850  0.1742
 3191SOL    HW121035   0.828   2.658  15.701 -0.2671 -0.4004  0.6074
 3191SOL    HW221036   0.935   2.561  15.735  0.4022  2.1210 -0.0868
 3192SOL     OW21037   3.774   3.239   8.824 -0.7638 -0.1338 -0.4058
 3192SOL    HW121038   3.727   3.310   8.868  0.6318 -0.4198  1.5485
 3192SOL    HW221039   3.850   3.222   8.880 -1.9482 -0.6854  1.0733
 3193SOL     OW21040   1.395   0.154  14.808 -0.9745 -0.0606  0.5264
 3193SOL    HW121041   1.429   0.210  14.878 -0.9810  0.6274 -0.0296
 3193SOL    HW221042   1.394   0.064  14.841 -0.0852 -0.3438 -0.2413
 3194SOL     OW21043   0.932   4.286  11.624 -0.0565  0.1896  0.1527
 3194SOL    HW121044   0.932   4.234  11.544  0.8313 -1.1389  1.0087
 3194SOL    HW221045   1.006   4.251  11.673  1.2936  2.3545 -0.3786
 3195SOL     OW21046   2.448   3.600   6.310 -0.3101  0.0817 -0.4530
 3195SOL    HW121047   2.355   3.620   6.308 -0.7394 -1.8830 -0.0619
 3195SOL    HW221048   2.476   3.650   6.386 -2.7645  2.3996 -1.0599
 3196SOL     OW21049   2.243   2.612   4.454  0.0752  0.2925  0.6381
 3196SOL    HW121050   2.301   2.687   4.443  1.3540 -0.6587  0.9735
 3196SOL    HW221051   2.220   2.622   4.546 -0.2183 -1.0884  0.7177
 3197SOL     OW21052   2.298   1.369   3.659 -0.0325 -0.4277 -0.1338
 3197SOL    HW121053   2.346   1.436   3.610  1.0270 -1.5803 -0.6498
 3197SOL    HW221054   2.346   1.290   3.634 -1.9287 -1.0605 -1.7897
 3198SOL     OW21055   0.194   3.117  11.753  0.3138 -0.5080 -0.0367
 3198SOL    HW121056   0.196   3.118  11.657  0.5425 -2.5152 -0.0510
 3198SOL    HW221057   0.218   3.208  11.770  1.0637 -0.7241  0.0420
 3199SOL     OW21058   2.666   1.585  15.190 -0.0780 -0.2303 -0.1558
 3199SOL    HW121059   2.572   1.590  15.209  0.0852 -0.5206  0.7297
 3199SOL    HW221060   2.691   1.674  15.212  4.1300 -1.3568 -0.3258
 3200SOL     OW21061   3.998   4.517   5.565 -0.0432  0.2730 -0.1569
 3200SOL    HW121062   4.089   4.546   5.557  0.1480 -0.0364  0.9230
 3200SOL    HW221063   3.992   4.463   5.486 -2.1256 -1.3251  1.0880
 3201SOL     OW21064   1.384   1.075  15.060 -0.3838 -0.1249  0.5235
 3201SOL    HW121065   1.371   1.016  14.987 -0.3902  2.1776 -1.3386
 3201SOL    HW221066   1.475   1.102  15.047 -0.2852  0.3298  2.0606
 3202SOL     OW21067   3.322   1.266   3.863  0.0155  0.3402  0.2106
 3202SOL    HW121068   3.398   1.270   3.806  0.4161  1.4293  0.8235
 3202SOL    HW221069   3.291   1.185   3.823 -0.3052  0.4076  0.3174
 3203SOL     OW21070   0.001   2.916   3.137 -0.4056 -0.0588  0.3383
 3203SOL    HW121071   0.071   2.976   3.113  1.0256 -2.1294 -0.6164
 3203SOL    HW221072   4.676   2.969   3.202  0.4569 -0.8065  1.5616
 3204SOL     OW21073   4.417   3.057   5.931 -0.0528  0.2578  0.3911
 3204SOL    HW121074   4.365   3.105   5.996 -0.4292 -0.0050  0.2886
 3204SOL    HW221075   4.352   3.054   5.861 -0.7602  0.0702  1.0545
 3205SOL     OW21076   0.713   4.509  16.834  0.7837 -0.6655  0.2978
 3205SOL    HW121077   0.674   4.565  16.767  2.0843 -1.5126 -1.1689
 3205SOL    HW221078   0.692   4.422  16.800 -2.1088  0.7898 -1.6353
 3206SOL     OW21079   1.541   1.011   4.424  0.5393  0.2977 -0.4457
 3206SOL    HW121080   1.520   0.920   4.443  0.0889  0.6688  0.8235
 3206SOL    HW221081   1.629   1.012   4.461  0.7910  0.2317 -1.0385
 3207SOL     OW21082   4.535   0.596   5.873 -0.4854 -0.1846  0.4313
 3207SOL    HW121083   4.443   0.605   5.897 -0.1684  0.9974  1.1914
 3207SOL    HW221084   4.584   0.662   5.923  2.3069  0.5855 -3.3345
 3208SOL     OW21085   3.519   2.009  16.547 -0.4006  0.3403 -0.5388
 3208SOL    HW121086   3.527   2.046  16.635  1.3013  0.6069 -0.8028
 3208SOL    HW221087   3.556   2.078  16.493  1.9157 -1.2883 -1.0356
 3209SOL     OW21088   4.691   1.275   0.126 -0.5763 -0.1270 -0.1420
 3209SOL    HW121089   4.607   1.256   0.166 -1.3015 -2.0387 -2.6038
 3209SOL    HW221090   4.698   1.370   0.141  2.2584 -0.2018 -0.8571
 3210SOL     OW21091   3.997   3.337   5.351  0.1585 -0.4702 -0.0188
 3210SOL    HW121092   4.077   3.326   5.300 -0.5422 -1.5893 -0.8643
 3210SOL    HW221093   3.976   3.429   5.335 -0.7706 -0.6376  0.2448
 3211SOL     OW21094   1.131   0.014   7.591 -0.0247  0.4449 -0.4092
 3211SOL    HW121095   1.117   0.014   7.686  0.4754  1.7778 -0.3456
 3211SOL    HW221096   1.046   4.713   7.553  0.4755 -2.1233 -0.0010
 3212SOL     OW21097   0.017   0.122   4.780 -0.2430 -0.5046  0.3971
 3212SOL    HW121098   4.691   0.102   4.700 -0.4402 -0.1843  0.4389
 3212SOL    HW221099   0.103   0.087   4.756  0.1741  0.5385  0.3763
 3213SOL     OW21100   0.054   2.072   6.854 -0.0158 -0.0402  0.7541
 3213SOL    HW121101   0.034   2.155   6.898  0.4581  1.9401 -2.8106
 3213SOL    HW221102   0.023   2.017   6.926  0.0124  0.2980  1.0253
 3214SOL     OW21103   2.190   2.332   8.299  0.2126  0.8453 -0.3191
 3214SOL    HW121104   2.206   2.239   8.313 -0.8337  0.5015 -1.3208
 3214SOL    HW221105   2.197   2.366   8.388  0.5309 -0.5374  0.1781
 3215SOL     OW21106   0.147   3.818   4.032 -0.2625  0.1940  0.0818
 3215SOL    HW121107   0.071   3.788   4.081  0.5963  1.7351  2.3768
 3215SOL    HW221108   0.157   3.746   3.970  2.6132  1.2761 -0.7228
 3216SOL     OW21109   2.072   2.304   3.417 -0.2502 -0.4956  0.4649
 3216SOL    HW121110   2.163   2.277   3.422  0.2597  0.5131 -4.0560
 3216SOL    HW221111   2.063   2.387   3.463 -2.2514  0.4218 -1.5798
 3217SOL     OW21112   4.346   0.547   7.211  0.0706  0.0275 -0.1401
 3217SOL    HW121113   4.313   0.549   7.121  0.4509  0.7069 -0.2649
 3217SOL    HW221114   4.271   0.522   7.265  0.0749  0.6623  0.1631
 3218SOL     OW21115   3.997   4.440   9.282  0.2366 -0.2973  0.0005
 3218SOL    HW121116   4.063   4.431   9.351  2.3127 -0.6338 -2.0176
 3218SOL    HW221117   3.918   4.438   9.334 -0.6336  2.1036 -1.2258
 3219SOL     OW21118   1.364   0.438  15.404  0.2010 -0.0742  0.8593
 3219SOL    HW121119   1.310   0.512  15.378 -0.1587 -0.1990  1.2541
 3219SOL    HW221120   1.453   0.454  15.373 -0.5301  0.5232 -0.9369
 3220SOL     OW21121   4.485   3.625   0.714  0.2768 -0.1972 -0.6483
 3220SOL    HW121122   4.426   3.572   0.769  0.4474  0.7186  0.4239
 3220SOL    HW221123   4.568   3.586   0.741 -0.3455 -0.3817  1.0335
 3221SOL     OW21124   2.786   2.927   4.654 -0.0204  0.4849 -0.3112
 3221SOL    HW121125   2.798   2.854   4.593  1.9546  0.7936 -0.3209
 3221SOL    HW221126   2.776   3.004   4.598 -0.6212  1.0095  0.5248
 3222SOL     OW21127   0.360   1.122  14.400  0.0629  0.6655  0.5703
 3222SOL    HW121128   0.444   1.104  14.358 -1.0680 -3.4535  0.0581
 3222SOL    HW221129   0.351   1.039  14.447  1.6336  0.6406  0.8120
 3223SOL     OW21130   0.191   2.427  14.827  0.2425  0.0745  0.2396
 3223SOL    HW121131   0.161   2.337  14.835  0.7132 -0.1152 -0.1738
 3223SOL    HW221132   0.172   2.476  14.908 -1.4197  0.9745 -0.7031
 3224SOL     OW21133   1.136   0.385   6.561  0.3900 -0.5800 -0.0341
 3224SOL    HW121134   1.216   0.430   6.589  1.3066 -2.4313  0.3889
 3224SOL    HW221135   1.182   0.332   6.495 -0.8849 -1.9167  0.1396
 3225SOL     OW21136   2.020   1.441   6.108  0.0860  0.2938 -0.1062
 3225SOL    HW121137   2.038   1.429   6.201  0.9904  0.1706 -0.2909
 3225SOL    HW221138   2.066   1.523   6.092 -0.2792  0.7999  1.4210
 3226SOL     OW21139   1.406   1.029   2.451  0.5059 -0.5844  0.3505
 3226SOL    HW121140   1.385   1.122   2.444 -0.0884 -0.8868 -1.9778
 3226SOL    HW221141   1.417   0.999   2.360 -1.9769  0.6384 -0.3459
 3227SOL     OW21142   2.410   1.752   1.317  0.1167 -0.0480 -0.3081
 3227SOL    HW121143   2.487   1.734   1.371  0.0408 -0.9587 -0.5037
 3227SOL    HW221144   2.376   1.663   1.313 -1.2339  0.4252  0.7870
 3228SOL     OW21145   1.074   0.945  11.848  0.1655 -0.5885  0.4940
 3228SOL    HW121146   1.136   0.886  11.806 -0.7341 -0.9707 -0.3098
 3228SOL    HW221147   1.020   0.952  11.769 -1.8405 -0.7891  1.8514
 3229SOL     OW21148   1.647   2.517   0.654 -0.8603 -0.2617  0.1024
 3229SOL    HW121149   1.734   2.551   0.676 -0.7338 -0.2976 -0.3521
 3229SOL    HW221150   1.628   2.475   0.738 -0.8440 -1.6460 -0.5891
 3230SOL     OW21151   2.516   1.174   2.289  0.5682 -0.0869 -0.8162
 3230SOL    HW121152   2.537   1.081   2.295 -1.0285 -0.3426  1.0020
 3230SOL    HW221153   2.593   1.213   2.249 -1.0833  3.3405 -0.6642
 3231SOL     OW21154   0.742   3.939   0.127 -0.1302 -0.1857  0.4068
 3231SOL    HW121155   0.764   4.031   0.115 -1.8052  0.0462 -0.8170
 3231SOL    HW221156   0.826   3.897   0.145 -0.7206 -1.0124  1.2065
 3232SOL     OW21157   3.444   1.801   7.779 -0.2094  0.1297 -0.3244
 3232SOL    HW121158   3.398   1.761   7.853 -0.0198 -2.1054 -1.4057
 3232SOL    HW221159   3.387   1.780   7.705 -0.6978 -0.3630  0.1842
 3233SOL     OW21160   2.486   2.603   4.870 -0.1639 -0.2305 -0.1398
 3233SOL    HW121161   2.533   2.656   4.934 -0.1581  1.5309 -1.6025
 3233SOL    HW221162   2.452   2.667   4.808 -0.5164 -1.4934 -1.2508
 3234SOL     OW21163   2.182   3.623  13.817  0.4730 -0.5973 -0.3441
 3234SOL    HW121164   2.139   3.705  13.843 -1.0890 -1.4780 -0.1396
 3234SOL    HW221165   2.217   3.646  13.731 -0.5556  2.0003 -0.0913
 3235SOL     OW21166   3.394   4.468   4.106 -0.2849  0.1776 -0.4822
 3235SOL    HW121167   3.347   4.406   4.050 -0.5118 -1.0342  1.0526
 3235SOL    HW221168   3.485   4.455   4.080 -0.6891  1.9311 -2.8179
 3236SOL     OW21169   2.407   0.250   5.709  0.2918 -0.4022 -0.2878
 3236SOL    HW121170   2.456   0.241   5.790 -2.0184 -0.2851  1.1107
 3236SOL    HW221171   2.384   0.343   5.707 -0.0288 -0.4657  0.8355
 3237SOL     OW21172   1.138   3.038   6.990  0.5637  0.1177 -0.0344
 3237SOL    HW121173   1.065   3.053   6.931 -1.4771 -2.6644  1.7881
 3237SOL    HW221174   1.092   2.996   7.063 -1.2576  0.6084 -0.8978
 3238SOL     OW21175   2.571   1.762  15.512  0.4157 -0.2292  0.1088
 3238SOL    HW121176   2.566   1.670  15.536  0.4910 -0.0255  0.9067
 3238SOL    HW221177   2.636   1.753  15.442  0.8993  0.2231  0.5000
 3239SOL     OW21178   3.274   3.872   4.518 -0.4959  0.1690  0.4007
 3239SOL    HW121179   3.263   3.810   4.446 -3.0572  0.6853  0.3626
 3239SOL    HW221180   3.211   3.850   4.586  1.4297 -2.4897  1.3300
 3240SOL     OW21181   2.852   1.168  11.546  0.2213  0.0109 -0.1067
 3240SOL    HW121182   2.912   1.165  11.621  0.8105 -1.9008 -0.6621
 3240SOL    HW221183   2.887   1.225  11.478  1.2768 -1.2408 -0.6280
 3241SOL     OW21184   3.553   2.384   8.437  0.2177  0.1020  0.0431
 3241SOL    HW121185   3.606   2.424   8.367  0.8434  0.0097  0.4643
 3241SOL    HW221186   3.462   2.409   8.420  0.4265  0.6650 -0.2776
 3242SOL     OW21187   4.357   0.037  16.477  0.0901  0.7823  0.5389
 3242SOL    HW121188   4.301   0.039  16.554 -1.5894 -2.4201 -0.6102
 3242SOL    HW221189   4.432   0.092  16.501  0.9087  0.4060 -1.1228
 3243SOL     OW21190   0.481   4.465   4.127  0.0030 -0.4812  0.5235
 3243SOL    HW121191   0.536   4.389   4.145  1.5439  0.8146  1.2818
 3243SOL    HW221192   0.407   4.418   4.088  1.1463 -2.0929  0.2993
 3244SOL     OW21193   4.151   3.168   3.125  0.0595  0.6155 -0.1154
 3244SOL    HW121194   4.236   3.195   3.090  0.9637  0.5814  2.0263
 3244SOL    HW221195   4.138   3.234   3.193  2.8040 -0.0166  1.0632
 3245SOL     OW21196   2.609   2.069   7.101  0.3580 -0.1414  0.5195
 3245SOL    HW121197   2.608   1.996   7.038 -3.0694  1.6933 -1.5013
 3245SOL    HW221198   2.683   2.125   7.077 -0.0223 -0.4626 -1.3687
 3246SOL     OW21199   0.056   4.074   3.928 -0.2545 -0.0041  0.2344
 3246SOL    HW121200   0.080   4.004   3.867 -2.2073 -1.6244  1.3357
 3246SOL    HW221201   0.047   4.026   4.010  1.7837 -1.1671 -0.2056
 3247SOL     OW21202   2.427   2.448   2.440  0.0317  0.2099 -0.3656
 3247SOL    HW121203   2.398   2.400   2.518  0.9791 -0.1371 -0.2194
 3247SOL    HW221204   2.501   2.501   2.469 -0.2043  1.4399 -2.0323
 3248SOL     OW21205   0.196   4.214   4.435 -0.1825  0.2186  0.1149
 3248SOL    HW121206   0.212   4.176   4.521  1.0270  1.0956  0.2703
 3248SOL    HW221207   0.234   4.302   4.440 -1.4069  0.7470  0.1766
 3249SOL     OW21208   3.852   2.698   2.540 -0.2421 -0.2082  0.1787
 3249SOL    HW121209   3.845   2.738   2.453 -1.0598  0.5346  0.5836
 3249SOL    HW221210   3.928   2.746   2.575  1.5811 -1.4154 -2.0715
 3250SOL     OW21211   3.407   0.756   9.496 -0.4231 -0.3499  0.0601
 3250SOL    HW121212   3.334   0.812   9.524  0.5927 -0.3693  2.7753
 3250SOL    HW221213   3.471   0.814   9.457 -0.4793  0.1576  0.7226
 3251SOL     OW21214   3.769   1.913   8.119 -0.2205 -0.7930 -0.6114
 3251SOL    HW121215   3.704   1.875   8.061  0.3658 -1.0758 -1.0771
 3251SOL    HW221216   3.820   1.835   8.141 -0.3171 -0.5032  0.6739
 3252SOL     OW21217   1.540   3.204  14.866  0.1697  0.2190  0.0438
 3252SOL    HW121218   1.555   3.298  14.857  3.3983 -0.2750  0.5239
 3252SOL    HW221219   1.513   3.180  14.777 -3.0756 -3.3706  1.9804
 3253SOL     OW21220   3.895   2.670   5.658  0.3214 -0.0070  0.0844
 3253SOL    HW121221   3.820   2.636   5.706  2.1345 -2.0925  1.4173
 3253SOL    HW221222   3.904   2.605   5.589 -1.6996  2.2795 -2.3415
 3254SOL     OW21223   0.800   1.279   2.802 -0.0330 -0.0643  0.2589
 3254SOL    HW121224   0.755   1.248   2.723  0.6066  0.0879 -0.1680
 3254SOL    HW221225   0.733   1.344   2.823 -0.6857 -0.5314 -0.3582
 3255SOL     OW21226   3.487   0.980   9.735  0.0773 -0.0571  0.3402
 3255SOL    HW121227   3.541   0.902   9.748 -1.2204 -1.0365 -0.0240
 3255SOL    HW221228   3.401   0.946   9.707  0.4008 -1.5442  1.1488
 3256SOL     OW21229   0.697   3.407  15.374 -0.7708  0.1621 -0.1631
 3256SOL    HW121230   0.766   3.381  15.313 -0.8872  0.8440 -0.5785
 3256SOL    HW221231   0.645   3.468  15.322 -1.1095  0.3535  0.3897
 3257SOL     OW21232   0.901   4.441   8.087 -0.5721  0.2091  0.0625
 3257SOL    HW121233   0.973   4.406   8.139 -2.3017  0.7593  2.7721
 3257SOL    HW221234   0.824   4.409   8.133 -0.2999 -1.4476 -0.6004
 3258SOL     OW21235   2.927   0.491   4.520  0.1446  0.6249  0.5624
 3258SOL    HW121236   3.005   0.498   4.575 -0.0166  1.0469  0.7405
 3258SOL    HW221237   2.878   0.561   4.565 -0.3654  0.2462  0.6028
 3259SOL     OW21238   2.391   0.662   2.279 -0.1893  0.0327  0.5113
 3259SOL    HW121239   2.355   0.743   2.244 -0.8806 -0.4747  0.0640
 3259SOL    HW221240   2.346   0.602   2.220 -1.6250 -0.0621  1.7018
 3260SOL     OW21241   2.638   2.366   9.497  0.6130  0.0805  0.0734
 3260SOL    HW121242   2.629   2.437   9.561  0.2214  0.5073 -0.4564
 3260SOL    HW221243   2.720   2.379   9.450  0.8179  0.0504  0.4183
 3261SOL     OW21244   3.220   2.157   4.142 -0.2610 -0.0688 -0.2447
 3261SOL    HW121245   3.280   2.229   4.162 -1.8894  0.8458  1.3677
 3261SOL    HW221246   3.175   2.196   4.067 -0.9131  0.4349  0.3994
 3262SOL     OW21247   1.243   2.089   9.174 -0.3944  0.2637  0.1668
 3262SOL    HW121248   1.203   2.172   9.198 -2.9748 -0.5269 -1.4354
 3262SOL    HW221249   1.228   2.039   9.255  1.0539  1.5014  1.1870
 3263SOL     OW21250   2.837   2.640   5.867  0.6314  0.1769 -0.0024
 3263SOL    HW121251   2.847   2.719   5.919 -2.0864 -0.5374  1.6322
 3263SOL    HW221252   2.749   2.664   5.837 -0.0734 -0.3559  1.6236
 3264SOL     OW21253   3.234   1.892   2.392 -0.2052 -0.0883 -0.0017
 3264SOL    HW121254   3.143   1.861   2.396 -0.7262  1.5379  0.3651
 3264SOL    HW221255   3.274   1.835   2.326  2.1251  0.6531  0.7717
 3265SOL     OW21256   0.160   1.291  13.354  0.3210  0.1872  0.2983
 3265SOL    HW121257   0.217   1.358  13.391  1.9206 -1.1837  0.3277
 3265SOL    HW221258   0.183   1.210  13.400 -0.1791  0.6775  1.4055
 3266SOL     OW21259   2.315   0.517   7.518  0.2436  0.3797 -0.6519
 3266SOL    HW121260   2.398   0.470   7.513 -0.8729 -1.5459 -1.1001
 3266SOL    HW221261   2.338   0.595   7.569 -1.2497 -1.2842  2.5534
 3267SOL     OW21262   3.775   3.716   4.004  0.6354 -0.0264 -0.1601
 3267SOL    HW121263   3.801   3.656   3.934 -0.6008 -0.2290 -0.4472
 3267SOL    HW221264   3.858   3.756   4.029  1.8915 -1.5730 -1.8272
 3268SOL     OW21265   2.748   0.003   8.557 -0.1843 -0.0875  0.6004
 3268SOL    HW121266   2.688   0.014   8.630  1.1044  1.5580  1.4024
 3268SOL    HW221267   2.714   4.639   8.529  0.4945 -0.2136  0.1611
 3269SOL     OW21268   3.031   0.161   9.000 -0.1839 -0.2460  0.0500
 3269SOL    HW121269   3.067   0.176   9.088  0.2951 -2.7992  0.2887
 3269SOL    HW221270   3.100   0.116   8.952  0.4563  0.6604  0.1224
 3270SOL     OW21271   1.893   2.488   7.407 -0.0915 -0.1274 -0.1024
 3270SOL    HW121272   1.880   2.549   7.480 -0.7876 -2.1056  1.4123
 3270SOL    HW221273   1.913   2.416   7.467  0.9890 -0.1023 -0.4268
 3271SOL     OW21274   2.041   3.021   7.436  0.5858 -0.0347  1.0738
 3271SOL    HW121275   2.045   3.003   7.342 -1.0554 -2.6005  1.4932
 3271SOL    HW221276   2.129   3.059   7.445 -0.7466  3.0227  0.9535
 3272SOL     OW21277   0.353   0.561   4.513 -0.0696  0.1847 -1.0579
 3272SOL    HW121278   0.281   0.573   4.452  1.5002  0.7343 -2.7747
 3272SOL    HW221279   0.323   0.473   4.538  1.3112 -0.3178 -1.1727
 3273SOL     OW21280   0.720   2.606   1.590 -0.1530 -0.4225 -0.0033
 3273SOL    HW121281   0.804   2.581   1.629 -0.3866 -2.7088 -0.9535
 3273SOL    HW221282   0.696   2.664   1.662 -0.0467 -1.9513  1.2436
 3274SOL     OW21283   2.387   4.071   8.354  0.0461  0.1118 -0.3292
 3274SOL    HW121284   2.401   4.093   8.446 -0.3265  1.0032 -0.4817
 3274SOL    HW221285   2.292   4.078   8.362  0.1072  2.0197 -1.0806
 3275SOL     OW21286   0.746   0.514   7.381 -0.3081  0.1560 -0.2803
 3275SOL    HW121287   0.688   0.574   7.427 -0.3338 -0.2428  0.2108
 3275SOL    HW221288   0.732   0.433   7.430 -1.0272  0.5548  0.1801
 3276SOL     OW21289   0.495   0.847   1.111 -0.1614 -0.0185 -0.2435
 3276SOL    HW121290   0.547   0.921   1.143 -1.8485  1.1165 -0.1431
 3276SOL    HW221291   0.424   0.845   1.175 -0.6919 -0.2196 -0.8511
 3277SOL     OW21292   3.895   1.087   1.817  0.6201 -0.6166 -0.1975
 3277SOL    HW121293   3.839   1.161   1.793  0.3329 -1.3403 -1.7536
 3277SOL    HW221294   3.975   1.099   1.766 -0.0489  1.2972 -0.8300
 3278SOL     OW21295   4.663   0.596  10.126 -0.0220  0.1614  0.0065
 3278SOL    HW121296   4.677   0.546  10.045 -1.4757  0.2948 -0.3311
 3278SOL    HW221297   4.591   0.653  10.101 -0.2134 -0.5751 -1.1718
 3279SOL     OW21298   0.297   2.487   5.987  0.2055  0.2633  0.3746
 3279SOL    HW121299   0.273   2.396   5.969  0.6926  0.1396  0.3669
 3279SOL    HW221300   0.217   2.529   6.018  0.8676  0.6508  1.5470
 3280SOL     OW21301   4.113   3.461  16.648 -0.0307  0.7474  0.4491
 3280SOL    HW121302   4.154   3.430  16.729 -0.1600  0.3815  0.3773
 3280SOL    HW221303   4.020   3.460  16.674 -0.1635 -0.2721 -0.0595
 3281SOL     OW21304   1.135   0.529  15.620  0.5022  0.3993  0.5446
 3281SOL    HW121305   1.213   0.564  15.662  0.8938 -0.6801  0.7206
 3281SOL    HW221306   1.150   0.549  15.528  3.2055  1.2463  1.1693
 3282SOL     OW21307   4.529   0.607   6.379 -0.4298  0.0756 -0.0500
 3282SOL    HW121308   4.489   0.547   6.442 -2.6841  0.9627 -0.6229
 3282SOL    HW221309   4.466   0.598   6.307  0.0184  0.7642 -0.5197
 3283SOL     OW21310   1.180   0.647   7.955 -0.1776  0.4925 -0.2309
 3283SOL    HW121311   1.176   0.610   7.866 -0.8860  0.4373 -0.1779
 3283SOL    HW221312   1.202   0.567   8.004  0.0376  0.0014 -1.1229
 3284SOL     OW21313   0.946   2.303  16.568  0.6360 -0.2619  0.3451
 3284SOL    HW121314   0.977   2.389  16.538  1.2280 -0.3024  0.8295
 3284SOL    HW221315   0.962   2.251  16.489  0.9706  1.5921 -0.8131
 3285SOL     OW21316   2.790   2.822  12.929 -0.1457  0.1300 -0.8585
 3285SOL    HW121317   2.753   2.802  13.015 -2.0176  0.9225 -1.4763
 3285SOL    HW221318   2.787   2.917  12.940 -1.5639  0.1980 -1.8514
 3286SOL     OW21319   1.893   3.619  14.446 -0.7791  0.1744 -0.3532
 3286SOL    HW121320   1.956   3.664  14.389 -1.8148  0.4453 -1.2973
 3286SOL    HW221321   1.914   3.651  14.533  2.7213 -1.0172 -0.7696
 3287SOL     OW21322   1.079   0.646   2.632 -0.4207 -0.3839  0.4873
 3287SOL    HW121323   1.099   0.553   2.621  0.6617 -0.1935  0.7695
 3287SOL    HW221324   1.128   0.672   2.554  0.8962  2.1054  2.1420
 3288SOL     OW21325   1.798   2.551  14.066  0.2763 -0.2225 -0.2992
 3288SOL    HW121326   1.813   2.645  14.063  0.4816 -0.2148  1.1087
 3288SOL    HW221327   1.883   2.524  14.101  0.1599 -0.7012 -0.3851
 3289SOL     OW21328   2.019   3.077  16.732 -0.2941  0.2112 -0.3570
 3289SOL    HW121329   2.075   3.118  16.798 -1.2805 -2.2562  2.0451
 3289SOL    HW221330   1.936   3.124  16.743 -0.4512 -0.6265  2.2783
 3290SOL     OW21331   3.105   3.478   9.278  0.7469  0.2208 -0.3265
 3290SOL    HW121332   3.108   3.526   9.195 -1.4211 -2.5400 -2.0140
 3290SOL    HW221333   3.177   3.516   9.329  3.6284 -3.4727 -1.6643
 3291SOL     OW21334   3.480   2.908   2.716 -0.4098 -0.2130  0.0631
 3291SOL    HW121335   3.515   2.822   2.691 -0.5290 -0.4157  0.5885
 3291SOL    HW221336   3.410   2.916   2.651  1.6485  0.9106 -2.0376
 3292SOL     OW21337   3.063   4.267   2.578  0.0699  0.3963 -0.3562
 3292SOL    HW121338   3.086   4.332   2.513  0.7263 -1.1331 -1.6507
 3292SOL    HW221339   3.105   4.185   2.551  2.7311  1.9044 -0.8230
 3293SOL     OW21340   3.940   4.720   3.101 -0.0061  0.1294 -0.6017
 3293SOL    HW121341   3.969   0.048   3.177 -2.4291 -1.6354  1.4856
 3293SOL    HW221342   3.969   4.631   3.123 -1.2040  0.1665  1.1020
 3294SOL     OW21343   3.786   0.227   6.440  0.5905 -0.0748  0.1778
 3294SOL    HW121344   3.725   0.254   6.509  0.2160 -0.7444  0.1100
 3294SOL    HW221345   3.815   0.308   6.399  2.2632 -1.4418 -1.3798
 3295SOL     OW21346   2.101   4.490   4.283  0.4859  0.2882  0.0557
 3295SOL    HW121347   2.133   4.486   4.373  0.6802  2.2711  0.0892
 3295SOL    HW221348   2.095   4.586   4.277  2.1392  0.3873 -0.0033
 3296SOL     OW21349   1.276   4.286   4.277 -0.1495  0.8001  0.0860
 3296SOL    HW121350   1.235   4.256   4.358  0.9821  2.6490  1.3489
 3296SOL    HW221351   1.351   4.325   4.323  1.1206 -0.6657 -0.7631
 3297SOL     OW21352   0.184   0.150   2.838 -0.4811 -0.4162  0.1319
 3297SOL    HW121353   0.211   0.204   2.912  0.1681  1.8415 -1.7593
 3297SOL    HW221354   0.162   0.063   2.870  1.5082 -0.1286  2.2463
 3298SOL     OW21355   2.724   3.758   2.897 -0.2760  0.4617 -0.0386
 3298SOL    HW121356   2.649   3.779   2.951 -0.7623 -2.0026  0.2612
 3298SOL    HW221357   2.793   3.802   2.947  0.3126  0.2914 -0.6991
 3299SOL     OW21358   3.892   2.740   3.331 -0.0484 -0.8569  0.3155
 3299SOL    HW121359   3.902   2.651   3.364  0.9344 -0.8427  0.0289
 3299SOL    HW221360   3.798   2.762   3.334  0.2650  0.5205  0.0486
 3300SOL     OW21361   0.232   2.858   5.718  0.2560  0.2907 -0.1109
 3300SOL    HW121362   0.164   2.909   5.764  0.0717  1.3422 -1.5444
 3300SOL    HW221363   0.186   2.776   5.699  0.9910  0.1027 -1.1143
 3301SOL     OW21364   0.265   2.964   9.662  0.2323  0.2522  0.8656
 3301SOL    HW121365   0.291   3.003   9.746  2.1147  0.6260  0.1156
 3301SOL    HW221366   0.201   2.903   9.696  1.4773 -0.0621  2.6635
 3302SOL     OW21367   1.614   0.121  10.729  0.5227 -0.7557  0.2274
 3302SOL    HW121368   1.644   0.058  10.795 -0.4879 -1.3048  0.1689
 3302SOL    HW221369   1.606   0.207  10.770 -1.4065 -1.1023  0.5782
 3303SOL     OW21370   3.326   3.923   4.127  0.0005 -0.5437  0.4057
 3303SOL    HW121371   3.293   4.013   4.130 -1.5757 -1.0944 -0.3424
 3303SOL    HW221372   3.409   3.927   4.079 -0.8488  0.1897 -0.9876
 3304SOL     OW21373   4.358   0.962   3.107 -0.0770  0.3185  0.2110
 3304SOL    HW121374   4.278   0.942   3.154 -0.0127 -0.4447 -0.0090
 3304SOL    HW221375   4.384   0.871   3.090  0.7732  0.4657  0.7066
 3305SOL     OW21376   4.046   2.892   4.872  0.2743  0.1376  0.7588
 3305SOL    HW121377   3.968   2.836   4.876 -0.7323  1.3922 -1.0928
 3305SOL    HW221378   4.103   2.853   4.938  0.0405 -3.2194 -0.9587
 3306SOL     OW21379   0.146   2.803   2.744 -0.0492  0.0754  0.0013
 3306SOL    HW121380   0.202   2.758   2.681 -0.9556 -1.9483  0.6491
 3306SOL    HW221381   0.061   2.786   2.705  0.9217 -0.3180 -1.9179
 3307SOL     OW21382   2.926   3.449   5.775 -0.3370 -0.4836  0.1558
 3307SOL    HW121383   2.951   3.371   5.823 -0.0656 -0.1540  0.5486
 3307SOL    HW221384   2.845   3.421   5.730 -1.9294  2.4050  1.2052
 3308SOL     OW21385   0.328   1.072   4.903 -0.4165  0.4490  0.1771
 3308SOL    HW121386   0.247   1.113   4.933  0.3778  1.5504  0.8156
 3308SOL    HW221387   0.321   1.100   4.812 -2.0517  0.0800  0.1876
 3309SOL     OW21388   1.626   3.391   3.048  0.2894  0.4787  0.6383
 3309SOL    HW121389   1.702   3.342   3.078 -0.0176 -0.0994  0.4700
 3309SOL    HW221390   1.556   3.333   3.077 -1.7311  2.2964 -0.5711
 3310SOL     OW21391   1.444   0.330   6.950  0.2203 -0.3415 -0.1451
 3310SOL    HW121392   1.421   0.280   6.872  2.8740 -1.8526  0.0215
 3310SOL    HW221393   1.395   0.275   7.013  0.1218 -2.8632 -2.4088
 3311SOL     OW21394   1.125   2.084   5.552 -0.4791  0.0991 -0.3547
 3311SOL    HW121395   1.073   2.012   5.517 -0.0618 -1.1756  1.6239
 3311SOL    HW221396   1.198   2.034   5.589 -0.3970 -0.9436 -1.9724
 3312SOL     OW21397   1.870   1.907   0.445 -0.2202  0.5853  0.2889
 3312SOL    HW121398   1.829   1.862   0.371  1.0863  0.8061 -0.5649
 3312SOL    HW221399   1.897   1.845   0.512 -0.7836  1.5904  1.4464
 3313SOL     OW21400   1.058   4.209   8.153  0.0135 -0.6069 -0.3860
 3313SOL    HW121401   1.051   4.178   8.063 -0.1576 -1.7837  0.0298
 3313SOL    HW221402   0.964   4.204   8.174  0.5223 -0.1196  1.9929
 3314SOL     OW21403   0.007   0.819   8.928 -0.3478 -0.4307  0.2515
 3314SOL    HW121404   0.071   0.810   8.858 -1.0745  2.2547 -0.7519
 3314SOL    HW221405   0.057   0.852   9.002 -0.7188 -0.2973  0.4413
 3315SOL     OW21406   2.197   2.402   1.302 -0.1477 -0.7502 -0.0064
 3315SOL    HW121407   2.132   2.421   1.235  0.3122  3.2565  0.6935
 3315SOL    HW221408   2.215   2.492   1.328 -3.6305  0.0821 -0.5963
 3316SOL     OW21409   4.088   3.671   6.037  0.1094  0.1100 -0.4643
 3316SOL    HW121410   4.090   3.643   5.946  1.9657 -0.9945 -0.0745
 3316SOL    HW221411   4.043   3.600   6.083 -0.1699  0.9773  0.6014
 3317SOL     OW21412   3.707   1.686   3.124  0.4887  0.2841 -0.3123
 3317SOL    HW121413   3.679   1.634   3.049 -1.0803 -0.4020  0.7639
 3317SOL    HW221414   3.780   1.720   3.072 -0.1140 -0.2919 -1.5471
 3318SOL     OW21415   2.229   3.440   4.278  0.1518  0.3307  0.4691
 3318SOL    HW121416   2.150   3.386   4.285  0.6234 -0.5407 -0.9724
 3318SOL    HW221417   2.272   3.383   4.215  0.3237 -2.5589  3.1773
 3319SOL     OW21418   0.168   0.751   4.112  0.1445 -0.7711  0.4467
 3319SOL    HW121419   0.178   0.845   4.100 -1.2921 -0.9553 -2.3051
 3319SOL    HW221420   0.254   0.710   4.109 -0.3746 -1.7605 -1.2101
 3320SOL     OW21421   0.294   2.685   1.759 -0.5740  0.4762  0.4237
 3320SOL    HW121422   0.199   2.685   1.749 -0.4341 -1.6314 -0.8913
 3320SOL    HW221423   0.320   2.594   1.745 -0.1885  0.3184  2.1741
 3321SOL     OW21424   0.575   3.567  11.685  0.1290 -0.2504  0.2937
 3321SOL    HW121425   0.653   3.611  11.718  0.4676  1.5608 -2.9264
 3321SOL    HW221426   0.590   3.572  11.591 -1.3465  1.2285  0.1203
 3322SOL     OW21427   1.154   2.832   5.522 -0.4700 -0.0255  0.5361
 3322SOL    HW121428   1.196   2.829   5.607  1.9002 -0.6523 -0.6660
 3322SOL    HW221429   1.149   2.739   5.501  0.9448  0.2633 -1.0950
 3323SOL     OW21430   0.368   4.094   6.269 -0.0330  0.9486  0.4875
 3323SOL    HW121431   0.430   4.130   6.332  1.5748 -2.1319  0.6937
 3323SOL    HW221432   0.297   4.157   6.281 -1.9583 -0.7432 -2.1992
 3324SOL     OW21433   2.279   3.829   4.112  0.0536 -0.0558  0.3089
 3324SOL    HW121434   2.184   3.835   4.116  0.2885  3.2641  1.5657
 3324SOL    HW221435   2.289   3.774   4.035 -0.5057  1.1499 -0.6214
 3325SOL     OW21436   3.693   1.656   8.507  0.6020 -0.0742  0.0086
 3325SOL    HW121437   3.749   1.686   8.436  1.9139 -0.1029  1.0413
 3325SOL    HW221438   3.708   1.734   8.560  0.9247 -0.7738  0.9421
 3326SOL     OW21439   0.197   0.743   5.851  0.3250  0.0007 -0.5383
 3326SOL    HW121440   0.230   0.660   5.816 -1.4686 -1.1085  0.4536
 3326SOL    HW221441   0.234   0.797   5.781  0.2345  2.1166  1.0637
 3327SOL     OW21442   3.496   4.565   7.334  0.4318  0.0321 -0.1188
 3327SOL    HW121443   3.514   4.601   7.247 -1.3309 -1.1144 -0.9683
 3327SOL    HW221444   3.411   4.603   7.355  0.2967  0.2090 -0.9975
 3328SOL     OW21445   2.627   2.876  15.806  0.1369  0.1692 -0.2587
 3328SOL    HW121446   2.633   2.967  15.837  1.9305  0.1887 -0.6433
 3328SOL    HW221447   2.655   2.875  15.715  2.4501  0.9587  0.4402
 3329SOL     OW21448   2.938   4.206   6.571  0.0193  0.1784  0.0881
 3329SOL    HW121449   2.913   4.279   6.629 -0.3495 -0.3780  0.6234
 3329SOL    HW221450   2.952   4.134   6.631  0.2412 -1.0467 -1.4305
 3330SOL     OW21451   1.468   4.427  17.195 -0.1634 -0.1852 -0.4257
 3330SOL    HW121452   1.381   4.460  17.174 -0.5758 -1.0229 -0.0646
 3330SOL    HW221453   1.513   4.511  17.185  0.0677 -0.1133  1.1612
 3331SOL     OW21454   3.494   2.371   4.577 -0.4173  0.3398 -0.5987
 3331SOL    HW121455   3.414   2.420   4.558  0.3574  1.7051 -0.3795
 3331SOL    HW221456   3.559   2.441   4.572 -0.6734  0.6518  0.3669
 3332SOL     OW21457   0.430   4.662   2.998 -0.3902  0.4289  0.1744
 3332SOL    HW121458   0.353   4.679   3.052 -1.4241  0.6126 -1.3726
 3332SOL    HW221459   0.497   4.693   3.059 -1.6737  0.1809  1.7151
 3333SOL     OW21460   4.488   4.084   4.760  0.0398  0.3114 -0.3271
 3333SOL    HW121461   4.509   4.083   4.667 -0.7757 -2.2149 -0.4808
 3333SOL    HW221462   4.437   4.003   4.759  0.1398  0.2682 -1.5836
 3334SOL     OW21463   2.781   2.095   6.193 -0.6118 -0.6547  0.6002
 3334SOL    HW121464   2.868   2.133   6.206 -0.1985 -1.1290 -0.7841
 3334SOL    HW221465   2.803   2.022   6.136  4.1851  0.2775  1.2334
 3335SOL     OW21466   3.826   1.345   9.183 -0.2570  0.5890 -0.0083
 3335SOL    HW121467   3.732   1.358   9.175 -0.5995 -2.0308 -0.3418
 3335SOL    HW221468   3.858   1.425   9.141 -0.5036  0.9010  0.3968
 3336SOL     OW21469   2.496   1.635   3.848  0.0428 -0.5069  1.1014
 3336SOL    HW121470   2.574   1.582   3.831 -0.7667 -1.7898  1.4720
 3336SOL    HW221471   2.424   1.576   3.870 -0.7183 -0.9720 -2.6481
 3337SOL     OW21472   0.517   3.313   1.958  0.5236  0.3761 -0.1619
 3337SOL    HW121473   0.589   3.315   1.896  0.7141  0.3698  0.0596
 3337SOL    HW221474   0.555   3.365   2.029 -0.7746  0.6096  0.3651
 3338SOL     OW21475   1.648   2.859   7.915  0.6158 -0.8545 -0.2209
 3338SOL    HW121476   1.711   2.796   7.949 -0.8145 -2.3398 -0.3741
 3338SOL    HW221477   1.660   2.918   7.990 -0.3448 -0.4763 -0.3619
 3339SOL     OW21478   1.306   1.261   5.003 -0.0001  0.7456  0.1637
 3339SOL    HW121479   1.402   1.268   5.009  0.0274 -0.4887  1.2538
 3339SOL    HW221480   1.285   1.197   5.071 -0.9098 -1.8348 -2.5868
 3340SOL     OW21481   4.381   3.737   5.833  0.3305 -0.6012 -0.1006
 3340SOL    HW121482   4.420   3.694   5.910  3.0595 -2.2624 -2.3878
 3340SOL    HW221483   4.328   3.665   5.799  1.8368 -1.0230 -1.5609
 3341SOL     OW21484   3.171   0.205   3.423  0.8851  0.1532 -0.6807
 3341SOL    HW121485   3.216   0.230   3.505 -0.2887 -0.6313  0.1996
 3341SOL    HW221486   3.199   0.114   3.422 -0.2360 -0.1501 -3.2139
 3342SOL     OW21487   1.834   3.383   9.398  0.1539 -0.2894  0.1185
 3342SOL    HW121488   1.887   3.452   9.436  1.5502 -1.4092  0.1940
 3342SOL    HW221489   1.748   3.425   9.401  0.3596  0.0964  0.5135
 3343SOL     OW21490   4.617   4.030   5.503  0.1747  0.0198 -0.2509
 3343SOL    HW121491   4.652   4.096   5.444  0.7689 -0.7063 -0.7102
 3343SOL    HW221492   4.668   4.047   5.583 -0.4726 -2.3992  0.6965
 3344SOL     OW21493   2.593   1.126   8.265 -0.0041 -0.6516 -0.2263
 3344SOL    HW121494   2.550   1.209   8.245  0.0056 -0.7118 -0.4999
 3344SOL    HW221495   2.594   1.116   8.360  0.7347  0.2718 -0.1367
 3345SOL     OW21496   1.542   2.997   5.617  0.2234  0.6279  0.5862
 3345SOL    HW121497   1.481   2.992   5.690 -0.7805  0.0342 -0.2843
 3345SOL    HW221498   1.608   2.933   5.642 -0.3473 -0.5801 -0.9389
 3346SOL     OW21499   4.398   3.986  12.298  0.0289 -0.8625  0.0011
 3346SOL    HW121500   4.401   4.077  12.268  1.9045 -0.8907  0.0630
 3346SOL    HW221501   4.359   3.943  12.223 -0.5640 -1.1555  0.4829
 3347SOL     OW21502   3.560   0.480   6.182 -0.0875  0.0830  0.0905
 3347SOL    HW121503   3.641   0.512   6.142 -0.6157  0.3820 -0.7357
 3347SOL    HW221504   3.504   0.556   6.162 -0.8903  0.0089  1.9790
 3348SOL     OW21505   3.370   1.635   2.504  0.0181  0.1013  0.1739
 3348SOL    HW121506   3.328   1.554   2.475  0.1821  0.6768 -1.7000
 3348SOL    HW221507   3.377   1.681   2.420 -2.2704 -0.5973 -0.4059
 3349SOL     OW21508   4.130   4.505   1.990 -0.5929  0.0766 -0.2144
 3349SOL    HW121509   4.053   4.515   2.047 -0.9062 -0.5571 -0.5360
 3349SOL    HW221510   4.093   4.482   1.905 -1.0751  1.5031 -0.4057
 3350SOL     OW21511   3.401   4.247   9.944 -0.4184 -0.3368  0.0876
 3350SOL    HW121512   3.471   4.201   9.896  0.2600 -0.6319  1.3534
 3350SOL    HW221513   3.454   4.315   9.986  1.1999 -1.5790  0.0842
 3351SOL     OW21514   0.678   2.832   1.752 -0.2914 -0.3449 -0.1757
 3351SOL    HW121515   0.635   2.897   1.696 -0.7217  0.1300  0.7033
 3351SOL    HW221516   0.642   2.870   1.832 -1.7814  0.3928 -1.1808
 3352SOL     OW21517   4.331   3.518   8.134 -0.0343  0.0562 -0.4892
 3352SOL    HW121518   4.265   3.501   8.201  1.5443 -1.1984  0.7465
 3352SOL    HW221519   4.335   3.614   8.130  2.7859 -0.0522 -0.4707
 3353SOL     OW21520   0.399   3.123  14.501 -0.2208 -0.3111  0.4994
 3353SOL    HW121521   0.478   3.161  14.462 -0.8324 -0.1125 -0.5461
 3353SOL    HW221522   0.431   3.105  14.590 -0.4694 -1.5008  0.3444
 3354SOL     OW21523   2.513   3.145  16.033  0.4037 -0.0799 -0.2230
 3354SOL    HW121524   2.560   3.155  15.950  0.6600  1.2542  0.0841
 3354SOL    HW221525   2.458   3.224  16.029  0.5463 -0.0212 -1.0069
 3355SOL     OW21526   3.206   2.878   2.259  0.1717 -0.1913 -0.4721
 3355SOL    HW121527   3.300   2.873   2.241  0.4293 -1.2478  1.2440
 3355SOL    HW221528   3.186   2.805   2.200  2.1255 -2.1321  1.2990
 3356SOL     OW21529   1.487   3.833   2.655  0.1830  0.0993  0.0489
 3356SOL    HW121530   1.545   3.883   2.713  0.0686 -0.4154  0.5971
 3356SOL    HW221531   1.547   3.821   2.581 -0.3327  0.8082 -0.4767
 3357SOL     OW21532   3.208   4.236   6.495 -0.5118 -0.0519 -0.4378
 3357SOL    HW121533   3.163   4.312   6.458 -1.1724 -1.0699 -1.7319
 3357SOL    HW221534   3.128   4.198   6.532 -0.4235  0.9466  0.8054
 3358SOL     OW21535   2.299   2.275   9.695  0.5511 -0.4953  0.0600
 3358SOL    HW121536   2.279   2.320   9.613  0.1383  0.2020  0.5453
 3358SOL    HW221537   2.302   2.183   9.673  0.2514  0.0010 -1.9953
 3359SOL     OW21538   2.320   1.419   1.091 -0.4479 -0.1763  0.5078
 3359SOL    HW121539   2.321   1.326   1.068  2.3798 -0.8499  3.2764
 3359SOL    HW221540   2.338   1.417   1.185  1.5184 -1.8777  0.1067
 3360SOL     OW21541   1.966   4.041   6.035 -0.1720 -0.1270 -0.6447
 3360SOL    HW121542   1.936   3.957   6.069 -0.1035  0.0141 -0.2365
 3360SOL    HW221543   2.044   4.028   5.980  1.7701  1.4264  1.7290
 3361SOL     OW21544   2.354   2.535   5.220 -0.1051  0.1723  0.2260
 3361SOL    HW121545   2.384   2.469   5.158  1.8966 -0.7702  2.1846
 3361SOL    HW221546   2.433   2.525   5.273  0.1032 -1.3215 -0.3780
 3362SOL     OW21547   0.912   2.686   4.628 -0.1026  0.2959 -0.2809
 3362SOL    HW121548   0.920   2.673   4.722  0.8178 -1.0531 -0.5387
 3362SOL    HW221549   0.927   2.596   4.598 -0.1179 -0.0706  0.8234
 3363SOL     OW21550   2.658   1.678   5.046  0.1993 -0.2650  0.0246
 3363SOL    HW121551   2.712   1.603   5.022  2.6122  1.8247 -1.0788
 3363SOL    HW221552   2.594   1.674   4.975  0.4689 -3.0225 -0.0586
 3364SOL     OW21553   3.804   1.854   4.400  0.2245 -0.3574  0.0563
 3364SOL    HW121554   3.750   1.850   4.479 -0.1690  1.9886 -0.1034
 3364SOL    HW221555   3.753   1.800   4.339  0.4964  1.3276 -1.6689
 3365SOL     OW21556   2.755   0.649   0.143 -0.0282 -0.2888  0.1287
 3365SOL    HW121557   2.794   0.677   0.060 -2.9835 -0.6404 -1.3597
 3365SOL    HW221558   2.743   0.556   0.121  2.4910 -0.6907  0.3955
 3366SOL     OW21559   0.774   3.175  15.940  0.2695  0.9944 -0.9473
 3366SOL    HW121560   0.762   3.264  15.974  0.1077  0.4396  0.4388
 3366SOL    HW221561   0.819   3.193  15.858  1.8419  1.7518  0.0918
 3367SOL     OW21562   0.090   3.025   8.258  0.2898  0.3521 -0.8030
 3367SOL    HW121563   0.180   3.019   8.290  0.3097 -1.3999 -1.2080
 3367SOL    HW221564   0.046   2.981   8.331  2.3262 -0.4155 -0.0438
 3368SOL     OW21565   3.127   3.837   4.764 -0.3256 -0.2143 -0.3327
 3368SOL    HW121566   3.065   3.892   4.718  0.9585  1.3342 -0.1907
 3368SOL    HW221567   3.101   3.865   4.852 -0.8262  0.1439 -0.5976
 3369SOL     OW21568   0.588   3.797  17.159 -0.1544  0.2212 -0.2753
 3369SOL    HW121569   0.513   3.737  17.150  1.5645 -2.3627  2.6652
 3369SOL    HW221570   0.586   3.826  17.250  0.5393 -1.0662  0.1494
 3370SOL     OW21571   4.140   3.799  12.502  0.1894  0.5475 -0.0343
 3370SOL    HW121572   4.200   3.855  12.551 -0.2066  0.9262  0.0175
 3370SOL    HW221573   4.157   3.711  12.535 -0.4165 -0.1021 -1.4582
 3371SOL     OW21574   4.313   1.076  16.831 -0.2600  0.1901 -0.4036
 3371SOL    HW121575   4.306   1.007  16.765  3.1054 -1.7055  1.2514
 3371SOL    HW221576   4.304   1.148  16.768  0.6786  2.6868  2.3059
 3372SOL     OW21577   3.833   3.001   3.899 -0.2076 -0.4666 -0.4820
 3372SOL    HW121578   3.743   2.967   3.896 -0.2451 -0.3743 -0.3985
 3372SOL    HW221579   3.866   2.952   3.823 -1.4717  2.0869 -2.7016
 3373SOL     OW21580   4.295   1.368  11.961  0.9603 -0.0483 -0.1638
 3373SOL    HW121581   4.228   1.308  11.929 -0.1081  1.2115 -0.3092
 3373SOL    HW221582   4.241   1.447  11.956  0.4643 -0.4423 -1.1177
 3374SOL     OW21583   3.545   0.884  12.616 -0.0132 -0.0862 -0.0523
 3374SOL    HW121584   3.565   0.795  12.647  0.1312  0.6034  1.8497
 3374SOL    HW221585   3.600   0.894  12.539  2.0602 -0.9067  1.3324
 3375SOL     OW21586   3.936   0.481   1.032 -0.0725 -0.0380 -0.0715
 3375SOL    HW121587   4.031   0.490   1.036 -0.0254 -0.6197  0.0334
 3375SOL    HW221588   3.927   0.392   1.066  0.3931  0.5346  1.5560
 3376SOL     OW21589   4.127   0.206   8.886 -0.5524 -0.0136  0.0811
 3376SOL    HW121590   4.063   0.223   8.817 -1.3741 -0.4031  0.7415
 3376SOL    HW221591   4.100   0.274   8.948 -0.6227 -0.7732  0.8901
 3377SOL     OW21592   1.228   2.831   2.436  0.6016  0.1989 -0.2760
 3377SOL    HW121593   1.222   2.797   2.347  0.4003 -0.0997 -0.1499
 3377SOL    HW221594   1.320   2.849   2.457  0.1291  1.3024  0.8754
 3378SOL     OW21595   1.786   0.440  14.934 -0.3334 -0.1167 -0.3581
 3378SOL    HW121596   1.749   0.351  14.929 -0.0577 -0.3058  0.8287
 3378SOL    HW221597   1.814   0.445  14.843 -1.0016 -2.3363 -0.6877
 3379SOL     OW21598   0.001   0.783   3.568 -0.3342  0.6048  0.1818
 3379SOL    HW121599   4.687   0.695   3.580 -1.2556  0.8591 -0.7518
 3379SOL    HW221600   4.689   0.807   3.482 -0.8308 -1.6938 -0.2516
 3380SOL     OW21601   3.880   1.710  11.474 -0.4283 -0.0217  0.5657
 3380SOL    HW121602   3.803   1.758  11.445 -0.9342 -0.8786  0.5248
 3380SOL    HW221603   3.896   1.656  11.397 -2.2562  1.3107 -0.7416
 3381SOL     OW21604   2.020   1.576   3.290  0.3852 -0.4126 -0.1122
 3381SOL    HW121605   2.005   1.482   3.301  0.5962 -0.5561 -1.0361
 3381SOL    HW221606   2.103   1.578   3.337  1.2092  1.4480 -1.6370
 3382SOL     OW21607   4.378   1.064   5.755  0.0184 -0.5798 -0.1872
 3382SOL    HW121608   4.283   1.067   5.741 -0.3076  1.0480  2.2489
 3382SOL    HW221609   4.385   1.039   5.848  3.5768 -2.1668 -0.8963
 3383SOL     OW21610   1.974   1.245   2.472  0.0980 -0.0690 -0.2468
 3383SOL    HW121611   1.962   1.329   2.428  1.8230  0.2044 -0.1891
 3383SOL    HW221612   1.884   1.221   2.496  0.4825 -0.2905  0.9559
 3384SOL     OW21613   0.842   1.246  11.033 -0.1663  0.2654  0.0165
 3384SOL    HW121614   0.787   1.198  10.971  0.3151  1.8595 -1.6374
 3384SOL    HW221615   0.816   1.212  11.118  2.6781 -0.2886  0.6731
 3385SOL     OW21616   4.611   3.049   1.762 -0.0635 -0.0587  0.0256
 3385SOL    HW121617   4.644   2.989   1.694  2.0020  0.5133  0.5175
 3385SOL    HW221618   4.624   3.134   1.721  0.9392 -0.1510  0.1590
 3386SOL     OW21619   1.436   2.102   0.107  0.0296 -0.3247  0.3764
 3386SOL    HW121620   1.388   2.028   0.145 -2.7054  0.7945 -0.9452
 3386SOL    HW221621   1.520   2.059   0.092 -0.3310 -0.6820 -0.6495
 3387SOL     OW21622   1.252   4.706   7.330  0.2601 -0.1152  0.1730
 3387SOL    HW121623   1.196   4.634   7.300  1.2163 -0.6820 -0.2381
 3387SOL    HW221624   1.206   0.024   7.404 -1.0838 -3.3321  1.0553
 3388SOL     OW21625   0.316   3.632   7.731 -0.1438  0.2929 -0.0461
 3388SOL    HW121626   0.222   3.619   7.742  0.3644 -1.4281  2.2971
 3388SOL    HW221627   0.330   3.553   7.679 -0.3440 -0.4003  0.9635
 3389SOL     OW21628   2.442   0.376  11.208 -0.2883 -0.5118 -0.4258
 3389SOL    HW121629   2.493   0.310  11.162  2.6212  2.0671 -0.9069
 3389SOL    HW221630   2.504   0.408  11.273 -0.3014 -1.3029 -0.0230
 3390SOL     OW21631   3.593   2.207   2.528 -0.1764 -0.0127 -0.3191
 3390SOL    HW121632   3.516   2.264   2.527  1.0486  1.6234 -1.5355
 3390SOL    HW221633   3.572   2.165   2.444 -0.2033  2.0917 -1.3748
 3391SOL     OW21634   1.425   3.576   1.272  0.1043 -0.4393 -0.2330
 3391SOL    HW121635   1.349   3.604   1.220  0.8882 -1.1068 -1.7503
 3391SOL    HW221636   1.496   3.623   1.227 -1.2957  0.8858 -1.0559
 3392SOL     OW21637   2.196   3.991   2.483 -0.0298 -0.1350 -0.3544
 3392SOL    HW121638   2.276   3.961   2.440  0.4937  0.7819 -0.0358
 3392SOL    HW221639   2.200   3.928   2.555 -4.3728  0.7191  0.6099
 3393SOL     OW21640   0.275   2.871   7.238  0.6733  0.3562 -0.1573
 3393SOL    HW121641   0.288   2.798   7.177 -0.4911  0.1972 -0.2145
 3393SOL    HW221642   0.225   2.829   7.307 -1.1607  0.5268 -1.3569
 3394SOL     OW21643   0.296   0.095   1.944  1.1219 -0.1339  0.1581
 3394SOL    HW121644   0.238   0.048   2.005 -1.3914  1.2731 -1.1283
 3394SOL    HW221645   0.351   0.147   2.001  1.7049  1.2078 -1.6186
 3395SOL     OW21646   0.448   1.163   2.795 -0.0369 -0.0924 -0.1793
 3395SOL    HW121647   0.371   1.182   2.850 -0.2657  0.2889 -0.6252
 3395SOL    HW221648   0.496   1.112   2.859  1.2374  0.5799 -0.6118
 3396SOL     OW21649   1.713   3.028   4.295  0.3846  0.2302  0.4332
 3396SOL    HW121650   1.707   2.976   4.375 -0.2169 -2.3682 -1.2759
 3396SOL    HW221651   1.677   3.110   4.328 -0.4887 -0.4376  1.1523
 3397SOL     OW21652   4.220   3.437  12.345  0.0992  0.1159 -0.0555
 3397SOL    HW121653   4.127   3.443  12.366  0.5508  2.8653  1.1165
 3397SOL    HW221654   4.252   3.510  12.398  0.8014  0.4637 -0.9564
 3398SOL     OW21655   1.065   4.677   7.849 -0.4814 -0.4717  0.2309
 3398SOL    HW121656   0.986   4.626   7.867  0.2439 -1.1088  1.6810
 3398SOL    HW221657   1.127   4.621   7.896 -0.1199 -0.0125  0.3047
 3399SOL     OW21658   1.062   1.610   8.442 -0.5001 -0.1373  0.3606
 3399SOL    HW121659   1.057   1.646   8.530 -1.0495 -0.7622  0.5929
 3399SOL    HW221660   1.060   1.518   8.469 -3.8421 -0.1822  0.0505
 3400SOL     OW21661   4.100   1.905   5.070 -0.5823 -0.2340  0.0842
 3400SOL    HW121662   4.125   1.896   5.162 -2.0321 -0.3148  0.4722
 3400SOL    HW221663   4.144   1.989   5.056 -0.3521 -0.2358  0.7983
 3401SOL     OW21664   3.732   0.850   4.163  0.2630  0.2932 -0.3595
 3401SOL    HW121665   3.714   0.804   4.245  1.3193 -0.0616 -0.3353
 3401SOL    HW221666   3.783   0.776   4.131 -1.5390 -1.2356  0.3258
 3402SOL     OW21667   3.399   0.085   8.638 -0.0330  0.0592 -0.2333
 3402SOL    HW121668   3.487   0.049   8.646 -1.3009 -2.1584  3.5163
 3402SOL    HW221669   3.412   0.175   8.667  0.8670 -0.2221  0.2045
 3403SOL     OW21670   3.793   2.688  16.741 -0.8936  0.3811  0.3348
 3403SOL    HW121671   3.782   2.760  16.679  1.2982 -0.0499 -0.5421
 3403SOL    HW221672   3.781   2.737  16.823 -1.1781 -0.1822  0.6308
 3404SOL     OW21673   1.795   2.684   4.259  0.2198 -0.2485  0.0242
 3404SOL    HW121674   1.775   2.766   4.303 -0.2180 -0.0518 -0.5418
 3404SOL    HW221675   1.715   2.674   4.208  0.7351 -0.8894 -0.6592
 3405SOL     OW21676   1.493   2.947   4.650 -0.1390 -0.1530  0.1166
 3405SOL    HW121677   1.498   2.959   4.745  1.7109 -1.3240  0.1690
 3405SOL    HW221678   1.400   2.925   4.641 -0.6682  1.3050  2.1055
 3406SOL     OW21679   3.396   2.413  10.089  0.1167  0.6134  0.0806
 3406SOL    HW121680   3.330   2.461  10.139  0.3070  1.0996 -0.1264
 3406SOL    HW221681   3.445   2.363  10.154  0.2450 -0.4088 -0.8159
 3407SOL     OW21682   2.057   0.461   7.298 -0.0723  0.2445 -0.5084
 3407SOL    HW121683   2.129   0.439   7.238  0.1052  1.5549 -0.7828
 3407SOL    HW221684   1.992   0.492   7.236 -0.1708 -0.4790 -0.7646
 3408SOL     OW21685   2.769   4.355  14.302 -0.3453  0.0581  0.8825
 3408SOL    HW121686   2.750   4.447  14.280  0.4296 -0.3440 -1.5188
 3408SOL    HW221687   2.729   4.347  14.388  1.3800 -0.1188  1.6732
 3409SOL     OW21688   2.394   1.976  12.846 -0.2155  0.3176 -0.2953
 3409SOL    HW121689   2.436   2.055  12.880 -0.7203  0.7601 -0.7191
 3409SOL    HW221690   2.459   1.907  12.861  0.5164  1.4818  1.9935
 3410SOL     OW21691   3.278   2.275   1.273  0.3313 -0.1184  0.0743
 3410SOL    HW121692   3.235   2.273   1.358  0.6744  0.7288  0.2726
 3410SOL    HW221693   3.233   2.207   1.223 -1.1812  0.3563  0.8057
 3411SOL     OW21694   4.347   0.399   7.929 -0.3418  0.0409  0.1518
 3411SOL    HW121695   4.369   0.392   7.836 -0.2540 -3.7550  0.4650
 3411SOL    HW221696   4.429   0.388   7.978 -0.6560  2.1188  1.1616
 3412SOL     OW21697   3.595   0.753   9.822 -0.4404  0.5491  1.1236
 3412SOL    HW121698   3.660   0.712   9.765 -1.9350  0.3645 -0.4598
 3412SOL    HW221699   3.626   0.722   9.907  0.8836  0.8409  0.7508
 3413SOL     OW21700   3.891   3.253  16.873  0.1986 -0.3919  0.1998
 3413SOL    HW121701   3.865   3.291  16.789  2.6408  1.4741  0.2926
 3413SOL    HW221702   3.960   3.315  16.899  0.5913 -0.4601 -0.6699
 3414SOL     OW21703   4.644   4.149   2.012 -1.0053  0.0467 -0.3224
 3414SOL    HW121704   4.579   4.114   2.071  1.1314 -1.8534  0.9064
 3414SOL    HW221705   4.692   4.205   2.073 -0.6278 -1.1757  0.4870
 3415SOL     OW21706   1.884   1.134   0.126 -0.0144  0.0898 -0.2206
 3415SOL    HW121707   1.824   1.072   0.086 -0.5134  1.0492 -0.9639
 3415SOL    HW221708   1.894   1.101   0.215  0.1415 -0.2657 -0.3677
 3416SOL     OW21709   0.258   4.455   2.289 -0.4112  0.1466 -0.5997
 3416SOL    HW121710   0.308   4.417   2.361 -2.2196  2.1175  1.6564
 3416SOL    HW221711   0.327   4.478   2.226  0.1082  0.5421  0.1151
 3417SOL     OW21712   3.478   2.235  17.570 -0.0326  0.0497 -0.2747
 3417SOL    HW121713   3.404   2.272  17.617 -0.1970 -0.4947 -0.1120
 3417SOL    HW221714   3.548   2.265  17.628 -2.7201  2.6952  1.5991
 3418SOL     OW21715   2.530   0.874   9.618  0.2015  0.5925 -0.1215
 3418SOL    HW121716   2.524   0.937   9.690 -1.3228  0.9720 -0.5811
 3418SOL    HW221717   2.456   0.814   9.625  0.3062  0.5859  0.9199
 3419SOL     OW21718   3.513   0.636  13.569  0.2310 -0.2351 -0.2567
 3419SOL    HW121719   3.520   0.576  13.495 -0.5895 -0.5358 -0.0946
 3419SOL    HW221720   3.419   0.655  13.572  0.4222  0.5401  1.4244
 3420SOL     OW21721   3.983   0.114  15.115  0.1370  0.3618 -0.5706
 3420SOL    HW121722   4.023   0.086  15.033 -1.0284 -0.1525 -0.9652
 3420SOL    HW221723   3.944   0.197  15.090  0.4806  0.5611 -0.4489
 3421SOL     OW21724   3.824   4.360  15.137 -0.3245  0.5486  0.6669
 3421SOL    HW121725   3.773   4.285  15.106 -0.3030 -0.2002  2.4267
 3421SOL    HW221726   3.889   4.314  15.190 -0.1790  1.6099  1.4008
 3422SOL     OW21727   2.804   1.047   6.140 -0.3379  0.3324 -0.4221
 3422SOL    HW121728   2.854   1.013   6.214 -3.0794  1.3125  1.8752
 3422SOL    HW221729   2.790   1.140   6.157  3.3770  0.6336  1.1015
 3423SOL     OW21730   2.266   0.485   3.992 -0.0133  0.3586  0.2576
 3423SOL    HW121731   2.210   0.408   3.983  0.3273  0.0295  0.8961
 3423SOL    HW221732   2.233   0.535   3.918  1.0057 -2.4752 -2.1046
 3424SOL     OW21733   1.029   2.358   7.494  0.5739  0.7046  0.0830
 3424SOL    HW121734   1.123   2.358   7.476  0.3946 -0.9049 -0.8007
 3424SOL    HW221735   1.009   2.269   7.467  1.0500  0.8237 -0.6416
 3425SOL     OW21736   2.899   2.452   0.927  0.1057  0.1421 -0.0146
 3425SOL    HW121737   2.840   2.527   0.938  0.0056  0.2897 -1.6876
 3425SOL    HW221738   2.982   2.481   0.965 -0.5788 -0.5250  2.0051
 3426SOL     OW21739   4.515   4.072   4.477 -0.0197  0.6606 -0.4162
 3426SOL    HW121740   4.446   4.087   4.412  0.3066 -0.9916 -1.1490
 3426SOL    HW221741   4.551   3.992   4.438 -0.2798  0.6935 -0.7239
 3427SOL     OW21742   1.470   2.632   6.523  0.2724  0.5568  0.0453
 3427SOL    HW121743   1.539   2.698   6.531 -1.9207  2.5657  2.2701
 3427SOL    HW221744   1.505   2.595   6.442  2.7312  1.7577  0.5666
 3428SOL     OW21745   2.636   1.534   4.587  0.5056 -0.8955  0.5690
 3428SOL    HW121746   2.646   1.628   4.574 -1.8568 -1.1499 -3.0189
 3428SOL    HW221747   2.580   1.522   4.510 -0.0784  0.9505  0.7138
 3429SOL     OW21748   2.761   3.835  12.842 -0.2185 -0.2757  0.5343
 3429SOL    HW121749   2.667   3.818  12.832 -0.2529  0.0654  0.2722
 3429SOL    HW221750   2.772   3.791  12.926 -0.8801  0.0578  0.7967
 3430SOL     OW21751   0.092   0.221   2.326  0.3655 -0.2101  0.1685
 3430SOL    HW121752   0.104   0.264   2.411  1.3346  2.0742 -1.1228
 3430SOL    HW221753   0.178   0.179   2.316  0.8851  0.6110  1.1239
 3431SOL     OW21754   2.357   4.175   8.621  0.1035  0.2625 -0.0080
 3431SOL    HW121755   2.433   4.189   8.678 -0.1604 -0.1571  0.4415
 3431SOL    HW221756   2.308   4.257   8.625  1.6732  1.2328 -0.6023
 3432SOL     OW21757   2.174   4.318   7.511 -0.0165  0.4695  0.2633
 3432SOL    HW121758   2.169   4.304   7.416  3.2762  1.7800 -0.0917
 3432SOL    HW221759   2.104   4.382   7.524  0.5832  1.1248  0.2543
 3433SOL     OW21760   1.793   2.851   8.854  0.1844  0.3433  0.4649
 3433SOL    HW121761   1.810   2.824   8.944 -0.0824 -0.5956  0.2287
 3433SOL    HW221762   1.861   2.810   8.801 -1.0600 -1.6392  0.4003
 3434SOL     OW21763   4.327   3.739   6.138  0.1380 -0.0407 -0.1749
 3434SOL    HW121764   4.346   3.660   6.189 -2.8643 -1.5811 -1.4573
 3434SOL    HW221765   4.244   3.722   6.094  0.2133 -0.0595 -0.3086
 3435SOL     OW21766   0.959   2.606   1.730  0.0475  0.0892  0.0789
 3435SOL    HW121767   1.001   2.520   1.730  0.4073  0.2645  0.3118
 3435SOL    HW221768   0.901   2.577   1.801 -1.2307 -0.6517 -1.2812
 3436SOL     OW21769   2.910   1.427   1.277  0.1046  0.6456 -0.1471
 3436SOL    HW121770   2.840   1.455   1.218  0.5883 -1.6821 -1.8411
 3436SOL    HW221771   2.884   1.460   1.363 -0.7982 -0.6762  0.0892
 3437SOL     OW21772   2.105   3.032  10.110  0.3062 -0.7100 -0.0458
 3437SOL    HW121773   2.104   2.941  10.137  1.7051 -0.1962  1.7452
 3437SOL    HW221774   2.183   3.032  10.055 -0.8956 -0.6401 -1.7700
 3438SOL     OW21775   2.370   3.629   3.250  0.8843 -0.1263  0.1016
 3438SOL    HW121776   2.373   3.545   3.295  1.0423  1.6307  3.3299
 3438SOL    HW221777   2.318   3.680   3.313  0.1375 -1.9319  0.9531
 3439SOL     OW21778   0.687   0.312   7.186  0.2134  0.0823 -0.2520
 3439SOL    HW121779   0.773   0.274   7.165 -0.3768 -1.4213  0.0126
 3439SOL    HW221780   0.712   0.384   7.243 -0.4205 -0.0265  0.1675
 3440SOL     OW21781   2.160   0.078   5.009  0.0596  0.4685 -0.3651
 3440SOL    HW121782   2.137   4.707   5.010 -0.0027  0.4899  1.3812
 3440SOL    HW221783   2.250   0.067   4.980 -0.2851 -0.0062 -1.2313
 3441SOL     OW21784   4.541   2.001   7.906  0.0351 -0.3690  0.4783
 3441SOL    HW121785   4.489   2.060   7.851 -1.4958  1.6024  3.9960
 3441SOL    HW221786   4.480   1.930   7.922  0.8983 -1.0466  0.7317
 3442SOL     OW21787   3.746   0.412  14.460 -0.1773 -0.5800 -0.0907
 3442SOL    HW121788   3.790   0.488  14.497  2.0347 -1.9877  0.1368
 3442SOL    HW221789   3.678   0.393  14.524  0.4627 -2.7832 -0.0737
 3443SOL     OW21790   2.456   0.274   4.617 -0.2746 -0.0327  0.9835
 3443SOL    HW121791   2.417   0.351   4.658 -0.2638  1.0776 -1.0483
 3443SOL    HW221792   2.549   0.298   4.616  0.5312 -3.2430 -0.0917
 3444SOL     OW21793   3.958   4.397   7.394  0.3505 -0.2449 -0.0250
 3444SOL    HW121794   3.932   4.463   7.331  1.4726 -0.4767 -0.7334
 3444SOL    HW221795   4.023   4.447   7.445  0.4101 -0.2143 -0.1319
 3445SOL     OW21796   1.653   3.845   3.588  0.6938  0.1125  0.1530
 3445SOL    HW121797   1.568   3.887   3.576 -1.3630 -4.6262 -1.9088
 3445SOL    HW221798   1.637   3.765   3.637  0.6788  1.4131  2.2506
 3446SOL     OW21799   4.433   4.590  16.260  0.1702 -0.0524  0.0192
 3446SOL    HW121800   4.412   4.632  16.343  0.6744 -0.3523  0.3021
 3446SOL    HW221801   4.389   4.506  16.277  2.0633 -1.1092 -0.1977
 3447SOL     OW21802   2.532   3.371   2.931 -0.2746  0.0958  0.5431
 3447SOL    HW121803   2.512   3.303   2.996 -1.5923 -1.9319 -1.9850
 3447SOL    HW221804   2.627   3.371   2.928 -0.3173 -0.4628 -0.9939
 3448SOL     OW21805   0.501   1.324   0.365  0.1869 -0.5718  0.4462
 3448SOL    HW121806   0.455   1.254   0.318 -0.2599 -0.0139  0.0585
 3448SOL    HW221807   0.585   1.322   0.318 -0.2303 -0.4853 -0.3025
 3449SOL     OW21808   2.584   0.918   1.010  0.0028 -0.0675  0.4144
 3449SOL    HW121809   2.531   0.995   1.032  1.3535  0.4441  1.8867
 3449SOL    HW221810   2.582   0.911   0.914 -2.0910 -0.9627  0.5077
 3450SOL     OW21811   0.417   0.607   4.125  0.1280  0.3813 -0.9322
 3450SOL    HW121812   0.477   0.617   4.051 -1.5131 -0.4755 -2.3590
 3450SOL    HW221813   0.481   0.571   4.187 -0.5382  0.8926  0.0545
 3451SOL     OW21814   0.096   0.780   2.395 -0.1481  0.4978 -0.2968
 3451SOL    HW121815   0.179   0.743   2.423  1.6329  3.0273 -2.2494
 3451SOL    HW221816   0.039   0.766   2.470  0.7114 -0.4492  0.1808
 3452SOL     OW21817   3.617   1.771   1.974  0.0311  0.5810  0.7015
 3452SOL    HW121818   3.699   1.803   2.011  1.0049  0.3243 -1.2375
 3452SOL    HW221819   3.630   1.773   1.879 -1.2159 -1.2698  0.4957
 3453SOL     OW21820   3.226   1.248   9.655 -0.0124 -0.4456  0.2375
 3453SOL    HW121821   3.281   1.184   9.608  0.1395  0.2604 -0.5603
 3453SOL    HW221822   3.183   1.208   9.730 -0.0868 -1.5063 -0.3553
 3454SOL     OW21823   4.544   3.236  14.712  0.5333  0.4795 -0.0377
 3454SOL    HW121824   4.533   3.168  14.645 -1.0472 -1.2281  1.9383
 3454SOL    HW221825   4.469   3.291  14.691 -0.5437 -1.5924 -1.6402
 3455SOL     OW21826   1.838   4.128   2.153 -0.3821 -0.3410  0.0209
 3455SOL    HW121827   1.874   4.056   2.102 -0.1393  0.4926 -0.9743
 3455SOL    HW221828   1.874   4.206   2.112 -0.3742 -0.7245 -0.7004
 3456SOL     OW21829   3.911   0.076   7.836 -0.4155 -0.0222 -0.2999
 3456SOL    HW121830   3.818   0.069   7.858  0.0244  0.7315  1.8342
 3456SOL    HW221831   3.922   0.003   7.775  1.0398  2.2407 -2.7401
 3457SOL     OW21832   2.205   3.042   8.732  0.3334  0.0851 -1.0417
 3457SOL    HW121833   2.123   3.092   8.733 -0.0074 -0.4954  1.3956
 3457SOL    HW221834   2.226   3.060   8.824 -0.5231 -0.0006 -0.8299
 3458SOL     OW21835   0.457   2.705  14.197 -0.5879  0.0605  0.0825
 3458SOL    HW121836   0.394   2.647  14.239  0.1721  0.5303  1.8812
 3458SOL    HW221837   0.419   2.785  14.232 -1.1312  0.0411 -0.4562
 3459SOL     OW21838   1.307   2.644   0.527  0.1025 -0.3095 -0.6212
 3459SOL    HW121839   1.322   2.701   0.602 -1.2716 -0.3822 -0.3003
 3459SOL    HW221840   1.212   2.637   0.522  0.1522 -0.7177 -1.0168
 3460SOL     OW21841   2.174   0.278   5.521  0.2395 -0.1476  0.1560
 3460SOL    HW121842   2.133   0.275   5.435 -1.6971  1.0613  1.0309
 3460SOL    HW221843   2.224   0.197   5.517 -0.2577 -0.4225 -0.5605
 3461SOL     OW21844   0.193   2.744   7.537 -0.0269  0.1195  0.2087
 3461SOL    HW121845   0.163   2.678   7.474  1.8585 -0.4975 -0.0395
 3461SOL    HW221846   0.107   2.776   7.564 -0.5849  0.0305 -1.4834
 3462SOL     OW21847   2.225   3.722  12.047 -0.3224  0.5026 -0.4499
 3462SOL    HW121848   2.164   3.765  12.107 -1.5264 -0.8426 -0.7250
 3462SOL    HW221849   2.301   3.774  12.074  1.9059 -1.5250 -2.9054
 3463SOL     OW21850   3.287   4.182   8.635 -0.1250  0.2093 -0.1404
 3463SOL    HW121851   3.380   4.157   8.636 -0.0997  0.1587 -3.2255
 3463SOL    HW221852   3.245   4.099   8.611 -2.6154  1.2006  0.8510
 3464SOL     OW21853   1.455   1.038   6.109 -0.1786  0.0482  0.0187
 3464SOL    HW121854   1.493   0.967   6.057  0.3988  0.6834 -0.4205
 3464SOL    HW221855   1.363   1.030   6.084  0.1161 -0.4774 -0.9127
 3465SOL     OW21856   0.843   1.781   0.265 -0.7136  0.5283  0.2256
 3465SOL    HW121857   0.816   1.855   0.319  1.0009  0.1853  1.5572
 3465SOL    HW221858   0.893   1.726   0.325 -0.0613 -1.3092 -1.9900
 3466SOL     OW21859   2.538   2.207   1.783  0.6701  0.7094  0.0254
 3466SOL    HW121860   2.518   2.181   1.693 -0.6889 -0.7238  0.7414
 3466SOL    HW221861   2.621   2.253   1.771  0.1632  1.5801 -0.1443
 3467SOL     OW21862   1.674   2.931  15.317 -0.4500  0.5038  0.0373
 3467SOL    HW121863   1.607   2.941  15.384  0.1449 -1.7374  0.9771
 3467SOL    HW221864   1.650   3.005  15.262 -1.3062  0.1375 -0.0850
 3468SOL     OW21865   3.220   4.467  11.306  0.1803  0.0603  0.8699
 3468SOL    HW121866   3.255   4.380  11.291  1.0260  0.3422  1.1958
 3468SOL    HW221867   3.158   4.456  11.378 -0.2780 -0.3395  0.4126
 3469SOL     OW21868   3.494   2.864   5.517 -0.2409 -0.6014 -0.0585
 3469SOL    HW121869   3.399   2.862   5.528 -0.2086  2.0820  0.7099
 3469SOL    HW221870   3.520   2.772   5.523 -2.0080 -0.9293  2.3543
 3470SOL     OW21871   3.730   4.340   3.172  0.1652  0.0575  0.2967
 3470SOL    HW121872   3.702   4.336   3.264  1.4329 -0.1421  0.6777
 3470SOL    HW221873   3.743   4.246   3.160  0.4339  0.0785  0.4331
 3471SOL     OW21874   3.505   2.625   7.744  0.0543  0.0563  0.1574
 3471SOL    HW121875   3.430   2.628   7.804  0.2500 -0.5203  0.4323
 3471SOL    HW221876   3.505   2.718   7.718  1.6245  0.9624  3.4336
 3472SOL     OW21877   1.523   1.584   5.476 -0.2727 -0.5044 -0.0317
 3472SOL    HW121878   1.485   1.499   5.495  1.1845 -0.7017  2.0240
 3472SOL    HW221879   1.517   1.628   5.561  0.0362 -0.8684  0.1769
 3473SOL     OW21880   3.103   4.580   6.858  0.2906  0.0931  0.6252
 3473SOL    HW121881   3.126   4.504   6.912  1.5024 -0.0253 -0.0554
 3473SOL    HW221882   3.188   4.602   6.819 -1.8268  2.3957 -2.6632
 3474SOL     OW21883   4.167   3.772   4.615  0.7653  0.0020  0.5883
 3474SOL    HW121884   4.162   3.806   4.526 -1.2758 -0.5588  0.4890
 3474SOL    HW221885   4.172   3.679   4.592  1.6206  0.4435 -1.0105
 3475SOL     OW21886   3.862   2.947   4.185  0.0507  0.6015  0.1953
 3475SOL    HW121887   3.854   2.963   4.091 -1.5974 -0.4542  0.1663
 3475SOL    HW221888   3.957   2.959   4.187  0.4228 -2.3729 -0.2526
 3476SOL     OW21889   3.229   1.419   0.641 -0.3060 -0.1384  0.0993
 3476SOL    HW121890   3.201   1.478   0.710 -0.4702  1.4643 -1.3284
 3476SOL    HW221891   3.173   1.444   0.567  1.3592 -0.4167 -1.2601
 3477SOL     OW21892   1.499   0.472   4.881  0.2662 -0.3664 -0.3226
 3477SOL    HW121893   1.515   0.388   4.838 -0.2938  0.1998 -1.6554
 3477SOL    HW221894   1.444   0.524   4.822  0.7687 -2.3844 -2.5997
 3478SOL     OW21895   3.492   2.230   7.083 -0.0424  0.6666 -0.1175
 3478SOL    HW121896   3.587   2.218   7.090 -0.0947 -0.0200 -0.6000
 3478SOL    HW221897   3.485   2.253   7.176  0.3158  1.0248 -0.1814
 3479SOL     OW21898   1.206   0.697   2.403  0.4683 -0.0292  0.0768
 3479SOL    HW121899   1.164   0.783   2.405  1.7129  0.6282 -1.9783
 3479SOL    HW221900   1.297   0.724   2.392 -0.3462  2.5725 -0.3828
 3480SOL     OW21901   1.447   2.480   5.620 -0.3020  0.7535 -0.2920
 3480SOL    HW121902   1.472   2.432   5.541  1.3830  0.5193  0.3987
 3480SOL    HW221903   1.526   2.467   5.672 -0.7566 -0.7789  0.0189
 3481SOL     OW21904   0.487   2.806   5.134 -0.2790 -0.2203 -0.1484
 3481SOL    HW121905   0.438   2.795   5.053 -1.3543 -0.9330  0.6046
 3481SOL    HW221906   0.573   2.771   5.115  0.5801  0.9126  1.6452
 3482SOL     OW21907   0.271   2.061  15.530  0.3994  0.0972 -0.0026
 3482SOL    HW121908   0.266   2.130  15.464 -0.3242 -0.6935 -0.7645
 3482SOL    HW221909   0.236   1.986  15.483  1.8781 -1.3059  1.1209
 3483SOL     OW21910   3.912   2.103   8.634 -0.3209 -0.5348 -0.2920
 3483SOL    HW121911   3.858   2.152   8.572  0.9315 -1.0203 -1.7625
 3483SOL    HW221912   3.890   2.149   8.714 -0.0065  3.0433 -2.2858
 3484SOL     OW21913   2.651   0.328  10.796 -0.0889  0.6332  0.1491
 3484SOL    HW121914   2.568   0.331  10.844  0.8960  2.7708  1.7070
 3484SOL    HW221915   2.672   0.235  10.802 -1.0643  0.4753  1.1961
 3485SOL     OW21916   3.635   0.194   8.062 -0.3678 -0.1681  0.3524
 3485SOL    HW121917   3.567   0.131   8.038  0.2981 -1.2396  1.2619
 3485SOL    HW221918   3.684   0.145   8.129 -0.1919  0.0803  0.4062
 3486SOL     OW21919   1.943   3.618  14.062  0.2104  0.5894 -0.0504
 3486SOL    HW121920   1.867   3.593  14.010  1.6869 -0.2353 -1.8041
 3486SOL    HW221921   2.011   3.555  14.036 -1.0150  0.8765 -3.9193
 3487SOL     OW21922   1.600   3.795   1.724 -0.6687  0.3694  0.0558
 3487SOL    HW121923   1.544   3.860   1.681  2.5907  1.5094 -2.5366
 3487SOL    HW221924   1.575   3.803   1.816  0.6375 -2.9278  0.6968
 3488SOL     OW21925   1.586   0.529   5.736 -0.6241 -0.2574  0.9480
 3488SOL    HW121926   1.651   0.597   5.717 -0.5845 -1.2211 -2.3579
 3488SOL    HW221927   1.500   0.570   5.740  1.3606  4.1879 -1.3189
 3489SOL     OW21928   1.776   2.295   6.897  0.6554 -0.0134 -0.1709
 3489SOL    HW121929   1.871   2.295   6.905  0.4891 -2.6263  1.8411
 3489SOL    HW221930   1.760   2.203   6.878  0.8356 -0.3358  1.2271
 3490SOL     OW21931   3.924   1.000   2.242  0.3760 -0.5202 -0.3887
 3490SOL    HW121932   3.963   0.986   2.156  1.9365 -0.6501  0.3339
 3490SOL    HW221933   3.980   0.935   2.284  0.4316 -0.0919  0.2017
 3491SOL     OW21934   2.596   3.395   1.579 -0.2254 -0.0317  0.4372
 3491SOL    HW121935   2.643   3.328   1.529 -0.3930 -0.1475  0.4365
 3491SOL    HW221936   2.567   3.449   1.506 -1.3867 -0.5240  0.5485
 3492SOL     OW21937   4.250   0.771  12.745 -0.6511  0.4594 -0.6156
 3492SOL    HW121938   4.260   0.848  12.800 -1.8373  0.2723 -0.1476
 3492SOL    HW221939   4.176   0.802  12.692  0.0069  0.4675 -1.5449
 3493SOL     OW21940   1.410   2.161   3.710  0.0080  0.9781  0.5294
 3493SOL    HW121941   1.392   2.067   3.712 -1.6171  1.2551 -1.3806
 3493SOL    HW221942   1.450   2.162   3.623  2.9908 -1.8211  1.8528
 3494SOL     OW21943   0.049   1.256   4.176  0.1522 -0.3944 -0.3325
 3494SOL    HW121944   0.059   1.337   4.126  2.2349 -0.2515  0.3086
 3494SOL    HW221945   4.675   1.256   4.171  0.2194  0.6319 -1.6458
 3495SOL     OW21946   3.795   3.618   5.822  0.1613 -0.2919  0.5052
 3495SOL    HW121947   3.886   3.588   5.814  0.8716  2.1155 -0.3244
 3495SOL    HW221948   3.752   3.546   5.777  0.7263  0.7113 -1.6184
 3496SOL     OW21949   2.940   2.376  12.151  0.0275 -0.6883  0.1588
 3496SOL    HW121950   2.865   2.329  12.188 -0.0364 -1.3326 -0.7907
 3496SOL    HW221951   2.994   2.299  12.134 -0.9710 -1.4988  0.7009
 3497SOL     OW21952   4.690   1.444   5.884  0.5452 -0.1364 -0.0739
 3497SOL    HW121953   0.026   1.452   5.808  0.0777 -2.3412 -0.6674
 3497SOL    HW221954   0.017   1.402   5.955  0.8995  0.7977  0.2356
 3498SOL     OW21955   4.362   1.994  14.722  0.2995  0.7586  0.2629
 3498SOL    HW121956   4.385   1.905  14.749  0.4720  1.3445  2.0185
 3498SOL    HW221957   4.355   1.979  14.628 -1.6550 -0.7140  0.6529
 3499SOL     OW21958   1.306   0.980   3.475  0.2063  0.0916  0.7395
 3499SOL    HW121959   1.214   0.991   3.453  0.1935 -0.8458  0.3121
 3499SOL    HW221960   1.299   0.958   3.567 -1.1515 -1.4594  0.2640
 3500SOL     OW21961   4.524   1.787  12.689  0.2386  0.4447 -0.3365
 3500SOL    HW121962   4.444   1.750  12.652  1.2511 -1.3792 -0.6913
 3500SOL    HW221963   4.491   1.862  12.739 -1.1171 -0.8850  0.7383
 3501SOL     OW21964   1.521   3.763   4.570 -0.4854 -0.0605  0.1571
 3501SOL    HW121965   1.526   3.669   4.588 -2.2670 -0.0750  0.5146
 3501SOL    HW221966   1.451   3.758   4.504  0.7263 -0.0813 -1.1355
 3502SOL     OW21967   4.659   4.527  16.146 -0.2908  0.3150 -0.8236
 3502SOL    HW121968   4.586   4.569  16.190  0.0385  1.0136 -0.9306
 3502SOL    HW221969   4.624   4.440  16.129 -1.2429  0.5296  0.0688
 3503SOL     OW21970   2.694   4.255   3.437  0.4704 -1.0749  0.0226
 3503SOL    HW121971   2.727   4.266   3.348  2.6606 -0.2234  0.9631
 3503SOL    HW221972   2.600   4.269   3.425  1.1512  2.1504 -1.4817
 3504SOL     OW21973   3.513   4.330   1.468  0.7987 -0.0513  0.0766
 3504SOL    HW121974   3.449   4.334   1.540  0.8561  0.2457  0.1114
 3504SOL    HW221975   3.456   4.364   1.399  1.1791 -0.7267 -0.5650
 3505SOL     OW21976   2.808   3.971  15.676 -0.2849  0.2574 -0.1116
 3505SOL    HW121977   2.772   3.918  15.605  1.4032 -1.6626  0.4434
 3505SOL    HW221978   2.749   3.955  15.750  1.7483 -1.1034  1.2372
 3506SOL     OW21979   1.794   2.410   2.916 -0.6439 -0.2398  0.4135
 3506SOL    HW121980   1.802   2.325   2.959  1.0043  0.0058  0.5584
 3506SOL    HW221981   1.730   2.398   2.846  2.8780  0.7309 -2.9473
 3507SOL     OW21982   2.899   2.636  12.223 -0.2324  0.1776  0.1510
 3507SOL    HW121983   2.951   2.683  12.158  0.4365 -1.1678 -0.2794
 3507SOL    HW221984   2.902   2.552  12.177  0.8088  0.0649  0.4177
 3508SOL     OW21985   3.734   3.117  17.022 -0.0546  0.3479 -0.6653
 3508SOL    HW121986   3.781   3.154  16.947  1.6459  2.2357  1.3203
 3508SOL    HW221987   3.713   3.192  17.077 -2.5035 -0.9453  0.1455
 3509SOL     OW21988   0.295   1.976   8.413  0.2099  0.0279 -0.2486
 3509SOL    HW121989   0.215   1.992   8.363 -0.0542 -1.3298 -0.2464
 3509SOL    HW221990   0.319   2.065   8.438 -1.1315  0.4664 -0.5007
 3510SOL     OW21991   2.715   1.308   2.141  0.0461  0.3168 -0.1849
 3510SOL    HW121992   2.655   1.341   2.074 -0.4511 -1.4312 -0.5795
 3510SOL    HW221993   2.755   1.233   2.098 -1.2476 -1.2594  1.3859
 3511SOL     OW21994   3.181   1.453   8.037  0.0941  0.7328  0.1673
 3511SOL    HW121995   3.255   1.394   8.049 -0.7673 -0.0961  1.3809
 3511SOL    HW221996   3.113   1.411   8.090 -1.4081  0.2357 -2.1471
 3512SOL     OW21997   4.579   4.472   2.363  0.0024  0.1034  0.0328
 3512SOL    HW121998   4.522   4.481   2.439 -1.7864  0.4977 -1.3699
 3512SOL    HW221999   4.607   4.563   2.352 -0.8452  0.1551 -1.6715
 3513SOL     OW22000   0.238   4.611  10.115 -0.1113  0.4699  0.3639
 3513SOL    HW122001   0.301   4.640  10.049  2.0307  0.2364  2.3143
 3513SOL    HW222002   0.247   4.674  10.186  2.3842  0.0365  0.4221
 3514SOL     OW22003   4.000   1.644   4.997 -0.4869 -0.1289  0.0952
 3514SOL    HW122004   4.024   1.736   5.006 -3.8224  0.9096 -1.6354
 3514SOL    HW222005   3.917   1.649   4.950  0.9571  2.2532 -2.2211
 3515SOL     OW22006   3.476   4.627   2.398 -0.1892 -0.9048 -0.2703
 3515SOL    HW122007   3.525   4.703   2.430 -1.1278 -0.5458  0.3032
 3515SOL    HW222008   3.546   4.561   2.403  1.8822  1.3578  0.7576
 3516SOL     OW22009   0.574   3.139   4.837 -0.2792 -0.2879 -0.4293
 3516SOL    HW122010   0.506   3.123   4.903  0.3771  0.2045  0.3683
 3516SOL    HW222011   0.643   3.102   4.892 -0.1957  2.4424  1.3180
 3517SOL     OW22012   1.443   3.339   3.586  0.2362  0.1389 -0.3924
 3517SOL    HW122013   1.416   3.281   3.657  0.2853  2.1303  1.2636
 3517SOL    HW222014   1.483   3.272   3.531 -0.6244  0.2422 -1.1357
 3518SOL     OW22015   3.326   1.487   4.030  0.3311 -0.3955 -0.3761
 3518SOL    HW122016   3.330   1.399   3.994  1.9302 -1.1401  1.6495
 3518SOL    HW222017   3.411   1.526   4.011  0.9043 -1.3254  0.2810
 3519SOL     OW22018   3.878   1.090   3.195 -0.0290  0.1929  0.4158
 3519SOL    HW122019   3.791   1.068   3.161  1.0674 -3.3450 -0.0050
 3519SOL    HW222020   3.870   1.184   3.176  0.3982 -0.2132 -1.7351
 3520SOL     OW22021   1.290   3.733   2.822  0.1066  0.0135  0.0429
 3520SOL    HW122022   1.292   3.643   2.792  2.2705 -0.1913  0.7916
 3520SOL    HW222023   1.363   3.775   2.776  0.8943 -1.6779 -0.2254
 3521SOL     OW22024   3.795   1.066  13.363  0.5671 -0.8785 -0.5223
 3521SOL    HW122025   3.759   1.154  13.354 -2.4945 -1.9836  1.1230
 3521SOL    HW222026   3.808   1.047  13.270 -1.3438 -0.2960 -0.9038
 3522SOL     OW22027   0.031   4.332   5.426  0.5804  0.5559 -0.6755
 3522SOL    HW122028   0.122   4.304   5.429  0.4051  0.3380  2.7674
 3522SOL    HW222029   0.055   4.425   5.422  0.5667  0.6088  0.5160
 3523SOL     OW22030   0.570   0.474   3.574 -0.4171  0.3670  0.3645
 3523SOL    HW122031   0.608   0.460   3.487 -0.4460 -1.6971  0.6975
 3523SOL    HW222032   0.603   0.559   3.605  2.6256 -1.0287  1.0082
 3524SOL     OW22033   2.640   4.055   9.310  0.2988  0.5451  0.4806
 3524SOL    HW122034   2.582   4.009   9.369  1.3679 -0.2762  0.8939
 3524SOL    HW222035   2.720   4.003   9.307 -1.3205 -1.8413 -0.9828
 3525SOL     OW22036   4.056   2.940   8.442  0.0433  0.3076  0.3256
 3525SOL    HW122037   4.052   2.955   8.536 -0.6360  1.1280  0.1708
 3525SOL    HW222038   3.970   2.902   8.425  0.2200 -0.2723  0.7317
 3526SOL     OW22039   2.356   3.500   8.671 -0.6578  0.1110 -0.0850
 3526SOL    HW122040   2.395   3.418   8.702 -2.5300 -0.0072  2.0034
 3526SOL    HW222041   2.429   3.561   8.681 -1.1354  0.3591  1.9291
 3527SOL     OW22042   0.913   3.392   9.998  0.0610  0.1288 -0.1221
 3527SOL    HW122043   0.884   3.342   9.921  1.5446 -0.3115 -0.3828
 3527SOL    HW222044   1.003   3.408   9.971  0.6897  1.0041  2.5583
 3528SOL     OW22045   3.678   2.981   5.353 -0.3734 -0.3500  0.1519
 3528SOL    HW122046   3.603   2.944   5.400 -0.3258  1.5226  1.7089
 3528SOL    HW222047   3.733   2.991   5.431 -2.4665  2.2458  1.3121
 3529SOL     OW22048   4.254   0.171   1.551 -0.3628  0.0810  0.0514
 3529SOL    HW122049   4.220   0.111   1.485 -1.8329  1.4640 -0.4451
 3529SOL    HW222050   4.346   0.175   1.526 -0.5169  1.5280 -0.2682
 3530SOL     OW22051   0.684   1.825   8.418 -0.3048 -0.2367 -0.0984
 3530SOL    HW122052   0.620   1.836   8.347 -0.2766 -1.2280 -0.2750
 3530SOL    HW222053   0.622   1.819   8.491  0.7486 -1.8191  0.6496
 3531SOL     OW22054   0.044   2.116  16.775  0.1050 -0.0328 -0.1379
 3531SOL    HW122055   0.066   2.140  16.686  0.8227  1.6260  0.4870
 3531SOL    HW222056   4.700   2.181  16.801  0.6121  0.5447 -0.3083
 3532SOL     OW22057   3.066   4.016   2.181  0.7264 -0.4202 -0.1099
 3532SOL    HW122058   3.137   4.033   2.243 -0.5418 -0.7241  1.3912
 3532SOL    HW222059   2.986   4.016   2.233  0.6289 -1.2719 -0.2633
 3533SOL     OW22060   1.912   2.095  13.109 -1.0581 -0.1798 -0.1346
 3533SOL    HW122061   1.918   2.079  13.203  4.2031  0.3185 -0.3983
 3533SOL    HW222062   1.880   2.008  13.083  0.0373 -1.4188  2.6731
 3534SOL     OW22063   2.890   3.910   6.489  0.3786 -0.8220 -0.8264
 3534SOL    HW122064   2.835   3.831   6.488  2.3527 -2.1947 -0.8472
 3534SOL    HW222065   2.903   3.921   6.583 -0.1875 -1.3463 -0.6861
 3535SOL     OW22066   4.357   3.527   8.904  0.0816 -0.7675  0.0351
 3535SOL    HW122067   4.270   3.487   8.894 -1.1821  1.7593  0.6683
 3535SOL    HW222068   4.324   3.617   8.912 -0.4436 -0.9504 -0.0867
 3536SOL     OW22069   4.047   1.345   2.882 -0.2522 -0.0741  0.0834
 3536SOL    HW122070   4.102   1.268   2.898 -1.2065 -0.6131  0.7652
 3536SOL    HW222071   3.995   1.338   2.962 -1.3828  2.0680 -0.4600
 3537SOL     OW22072   2.693   4.710   6.484 -0.1069  0.2433 -0.0356
 3537SOL    HW122073   2.758   4.653   6.445  0.5035  0.3131  0.8779
 3537SOL    HW222074   2.632   4.644   6.518 -1.0099  1.2714  0.3521
 3538SOL     OW22075   2.199   3.898   5.980 -0.1574  0.1107 -0.6742
 3538SOL    HW122076   2.239   3.985   5.978  0.1689 -0.0090  0.7734
 3538SOL    HW222077   2.152   3.900   5.897 -0.1905  2.3632 -0.6095
 3539SOL     OW22078   0.020   0.839  17.243  0.2568 -0.0325  0.1399
 3539SOL    HW122079   0.003   0.862  17.152  1.6016  1.3769  0.2617
 3539SOL    HW222080   0.016   0.743  17.245 -1.2337 -0.0114 -1.8955
 3540SOL     OW22081   4.694   0.951   2.216  0.2583  0.3907  0.4409
 3540SOL    HW122082   0.031   1.017   2.253  0.5799  0.8737 -0.9383
 3540SOL    HW222083   4.711   0.881   2.279  2.5182 -0.8502 -1.5582
 3541SOL     OW22084   4.637   4.092   7.138  0.2742  0.3886  0.3438
 3541SOL    HW122085   4.625   3.997   7.131 -0.9511  0.5453  0.3815
 3541SOL    HW222086   4.639   4.106   7.232  0.4844 -0.8464  0.5200
 3542SOL     OW22087   0.979   0.739  14.875  0.1968 -0.2108 -0.0791
 3542SOL    HW122088   1.040   0.810  14.856  1.2679 -1.0055  0.3746
 3542SOL    HW222089   0.996   0.736  14.969  2.1078 -1.0081 -0.4568
 3543SOL     OW22090   2.917   3.046   3.831 -0.1045  0.1487 -0.1661
 3543SOL    HW122091   2.860   3.064   3.906  1.2479 -1.6265  1.3124
 3543SOL    HW222092   2.990   2.992   3.863 -0.2211  0.1262  0.0660
 3544SOL     OW22093   2.561   3.966   0.848 -0.5966  0.2871 -0.8389
 3544SOL    HW122094   2.486   4.022   0.827 -1.9058 -2.2810 -2.9532
 3544SOL    HW222095   2.627   3.998   0.787  2.2074 -1.6969  1.1756
 3545SOL     OW22096   2.119   1.103   4.320  0.3760 -0.0830  0.1254
 3545SOL    HW122097   2.193   1.073   4.372  1.6568  0.4297 -1.4351
 3545SOL    HW222098   2.141   1.077   4.231 -0.0505 -1.9587  0.5597
 3546SOL     OW22099   0.056   3.034   2.075 -0.3144  0.5229  0.4335
 3546SOL    HW122100   0.152   3.038   2.083 -0.2144  2.1798 -1.3511
 3546SOL    HW222101   0.040   2.958   2.019 -0.1010  0.7633  0.0438
 3547SOL     OW22102   3.452   1.674  16.044  0.1931 -0.4343  0.3656
 3547SOL    HW122103   3.544   1.661  16.025  0.2449 -1.0611  1.0484
 3547SOL    HW222104   3.404   1.627  15.976  0.3938  0.4566 -0.4054
 3548SOL     OW22105   3.875   1.586   3.286 -0.6329 -0.1409  0.2862
 3548SOL    HW122106   3.858   1.598   3.379  0.6078 -0.9458  0.6214
 3548SOL    HW222107   3.799   1.615   3.235  0.0912  1.3026  0.0241
 3549SOL     OW22108   1.454   0.163  15.896 -0.1778 -0.4115  0.8211
 3549SOL    HW122109   1.461   0.161  15.991  1.1658  2.9825  0.7996
 3549SOL    HW222110   1.386   0.098  15.882 -1.6011  1.3095 -0.1653
 3550SOL     OW22111   1.661   3.041   1.584  0.6545  0.1976 -0.5128
 3550SOL    HW122112   1.731   3.056   1.520  2.3212 -0.9772  1.0722
 3550SOL    HW222113   1.591   3.060   1.521  1.3414  0.7773 -1.1119
 3551SOL     OW22114   4.714   2.729   8.925  0.7383 -0.0194 -0.7171
 3551SOL    HW122115   4.687   2.740   8.834  1.6806  0.0490 -0.9902
 3551SOL    HW222116   0.084   2.759   8.921  0.4687  0.9819  0.9582
 3552SOL     OW22117   3.699   2.120   5.038 -0.6152  0.2316  0.0433
 3552SOL    HW122118   3.632   2.117   4.970 -0.7042  0.9822  0.1025
 3552SOL    HW222119   3.687   2.207   5.075  0.1588  0.7691 -0.9818
 3553SOL     OW22120   4.476   2.094   8.913  0.1363  0.0383  0.3896
 3553SOL    HW122121   4.571   2.089   8.922  0.0588  0.5151  1.5999
 3553SOL    HW222122   4.469   2.186   8.887 -0.6071 -0.3899 -0.9076
 3554SOL     OW22123   1.926   0.879  10.004  0.5776 -0.1235  0.3529
 3554SOL    HW122124   1.849   0.823   9.995  0.2158  0.1552  1.6812
 3554SOL    HW222125   1.998   0.846   9.950  2.0668  1.9469  1.0462
 3555SOL     OW22126   3.291   0.255   6.930 -0.1438 -0.1387 -0.2997
 3555SOL    HW122127   3.268   0.192   6.998 -1.9245 -1.5986 -2.2465
 3555SOL    HW222128   3.334   0.197   6.868 -0.9213 -0.0699 -0.9042
 3556SOL     OW22129   2.593   1.267  11.598 -0.1795 -0.4848 -0.3933
 3556SOL    HW122130   2.669   1.210  11.585  0.8866  0.6621  0.7465
 3556SOL    HW222131   2.627   1.333  11.658 -1.5631  1.6229 -1.9385
 3557SOL     OW22132   1.807   3.674   0.406 -0.0921  0.2702 -0.0525
 3557SOL    HW122133   1.717   3.657   0.434  0.2197 -2.0820 -0.4890
 3557SOL    HW222134   1.857   3.653   0.485  0.1258  0.4435 -0.1444
 3558SOL     OW22135   2.021   3.629   4.198 -0.0377 -0.0649 -0.1494
 3558SOL    HW122136   1.954   3.610   4.132 -0.6643  2.3306 -0.1979
 3558SOL    HW222137   2.033   3.544   4.240  1.4464  0.7072  0.9965
 3559SOL     OW22138   1.042   4.211   0.444 -0.2803  0.2409  0.2489
 3559SOL    HW122139   1.022   4.148   0.375 -0.2913 -0.5708  0.9916
 3559SOL    HW222140   1.058   4.289   0.391 -1.6512  0.6599  0.4607
 3560SOL     OW22141   3.150   0.484   7.343  0.5790 -0.1833  0.5555
 3560SOL    HW122142   3.182   0.519   7.426 -0.9018  2.8327 -0.1077
 3560SOL    HW222143   3.225   0.433   7.313  1.2518  1.6939 -0.9668
 3561SOL     OW22144   1.230   3.054  14.336 -0.2695  0.0108  0.1797
 3561SOL    HW122145   1.167   3.091  14.274  1.7877  0.1934 -1.8098
 3561SOL    HW222146   1.294   3.125  14.344  1.6037 -1.4102 -2.0194
 3562SOL     OW22147   4.084   0.478   2.684 -0.0029 -0.0313 -0.6873
 3562SOL    HW122148   4.067   0.452   2.593 -0.4254 -0.1230 -0.5824
 3562SOL    HW222149   4.083   0.573   2.671 -2.5292  0.1190  0.5984
 3563SOL     OW22150   3.325   3.834   3.639 -0.4479  0.3152 -0.3555
 3563SOL    HW122151   3.314   3.916   3.590 -1.5259  0.0327 -0.5965
 3563SOL    HW222152   3.399   3.856   3.695 -2.1229  1.3179  1.4745
 3564SOL     OW22153   1.923   2.011  13.386  0.2573 -0.3331  0.0306
 3564SOL    HW122154   1.987   2.043  13.449 -0.1794  1.8376 -0.6458
 3564SOL    HW222155   1.927   1.915  13.391  0.6592 -0.4739 -3.0049
 3565SOL     OW22156   1.101   2.342   6.928 -0.6750 -0.4418  0.2872
 3565SOL    HW122157   1.023   2.293   6.900 -2.1721  0.1287  3.4814
 3565SOL    HW222158   1.087   2.346   7.022  0.9205 -1.3160  0.5484
 3566SOL     OW22159   3.338   0.807  11.330 -0.1760 -0.4766  1.0035
 3566SOL    HW122160   3.325   0.834  11.240  0.1375  0.3255  1.2032
 3566SOL    HW222161   3.278   0.732  11.329 -0.4789 -0.2307  0.7364
 3567SOL     OW22162   3.035   4.146   3.053  0.4839 -0.2322 -0.4123
 3567SOL    HW122163   3.102   4.121   2.989  1.6224  0.1130  0.6520
 3567SOL    HW222164   3.024   4.241   3.040 -2.4632 -0.4235  0.6906
 3568SOL     OW22165   2.034   2.255   7.068 -0.2454  0.1820  0.2016
 3568SOL    HW122166   2.085   2.246   6.988 -0.2191  0.6980  0.1601
 3568SOL    HW222167   2.089   2.329   7.092  0.1975  0.1213 -0.6479
 3569SOL     OW22168   4.317   2.554   5.691  0.1011  0.0857 -0.2154
 3569SOL    HW122169   4.251   2.623   5.693  0.7645  0.7788 -2.2094
 3569SOL    HW222170   4.304   2.514   5.605  1.3401  0.4889 -0.5832
 3570SOL     OW22171   4.485   2.257  17.069 -0.4313 -0.6480  0.2547
 3570SOL    HW122172   4.476   2.272  16.975  1.1485  0.5290  0.2986
 3570SOL    HW222173   4.442   2.336  17.101 -0.1540 -0.8330  1.0731
 3571SOL     OW22174   3.533   1.848   6.006  0.4127  0.2546  0.5200
 3571SOL    HW122175   3.613   1.800   5.990 -0.1288  0.2877 -2.2006
 3571SOL    HW222176   3.549   1.907   6.080  0.3836  0.7694  0.1152
 3572SOL     OW22177   1.910   4.417  12.126  0.6014 -0.7615  0.1947
 3572SOL    HW122178   1.862   4.369  12.193  0.1077 -0.4652  0.0622
 3572SOL    HW222179   1.934   4.495  12.175  0.5398 -1.0569  0.6876
 3573SOL     OW22180   3.245   1.003   8.174 -0.2317 -0.1301 -0.0120
 3573SOL    HW122181   3.195   1.053   8.238  0.0071  1.1006 -0.7699
 3573SOL    HW222182   3.313   0.962   8.227  0.9595 -0.6255 -1.9100
 3574SOL     OW22183   2.123   4.050   8.489 -0.5232 -0.1929  0.6689
 3574SOL    HW122184   2.035   4.073   8.458 -1.1291  0.4228  2.8102
 3574SOL    HW222185   2.117   4.064   8.584  0.6226 -1.7743  0.9769
 3575SOL     OW22186   2.671   1.933   5.316 -0.2564  0.8507 -0.3390
 3575SOL    HW122187   2.737   1.865   5.305  1.4792  2.3842  0.5937
 3575SOL    HW222188   2.644   1.907   5.405 -2.1525  0.2170 -1.0936
 3576SOL     OW22189   3.134   0.095   8.491 -0.0996 -0.3353  0.3725
 3576SOL    HW122190   3.131   0.190   8.503  3.1312 -0.2912  1.0044
 3576SOL    HW222191   3.225   0.087   8.520 -0.2084 -1.3495  0.4291
 3577SOL     OW22192   2.675   2.767   6.751 -0.1660  0.2617  0.2887
 3577SOL    HW122193   2.689   2.801   6.839  1.2009 -0.8029  0.4929
 3577SOL    HW222194   2.585   2.791   6.730  0.1654  0.1954 -1.2624
 3578SOL     OW22195   1.474   0.901   7.186  0.0993  1.3772 -0.2244
 3578SOL    HW122196   1.385   0.936   7.189 -1.3983 -2.7061  1.9861
 3578SOL    HW222197   1.483   0.847   7.264  0.4361  0.6031 -0.7957
 3579SOL     OW22198   3.511   3.592   8.370 -0.2031  0.4235  0.1901
 3579SOL    HW122199   3.542   3.633   8.290 -1.5739  0.5790 -0.2510
 3579SOL    HW222200   3.591   3.602   8.423  0.1039  2.9636 -0.7986
 3580SOL     OW22201   4.548   0.222   4.216 -0.2019 -0.1236  0.2442
 3580SOL    HW122202   4.569   0.134   4.248 -0.8691 -0.6014 -0.6303
 3580SOL    HW222203   4.525   0.204   4.125 -0.0129 -0.1786  0.2070
 3581SOL     OW22204   3.579   1.235  15.745  0.2723  0.1480  0.0965
 3581SOL    HW122205   3.649   1.275  15.693  0.4934  0.2384  0.4617
 3581SOL    HW222206   3.574   1.159  15.686 -0.2461 -0.3936  0.8311
 3582SOL     OW22207   0.615   0.021   2.746  0.5668  0.3879  0.4124
 3582SOL    HW122208   0.575   0.041   2.830  0.1841 -0.2965  0.3919
 3582SOL    HW222209   0.655   4.656   2.754 -1.8652 -0.9209 -1.4700
 3583SOL     OW22210   4.607   3.605  12.382 -0.0590  0.3525 -0.1928
 3583SOL    HW122211   4.548   3.599  12.307 -1.0504  1.0994  0.5326
 3583SOL    HW222212   4.610   3.697  12.409 -0.7081  0.5754 -0.8740
 3584SOL     OW22213   1.954   0.649   3.231 -0.3296 -0.1369  0.4621
 3584SOL    HW122214   2.026   0.591   3.255  0.5245  1.5395  1.8924
 3584SOL    HW222215   1.967   0.651   3.136  0.4560 -2.9189  0.5174
 3585SOL     OW22216   0.787   2.415   1.062  0.2218 -0.3580 -0.3623
 3585SOL    HW122217   0.811   2.361   0.987  0.2801  0.4443 -0.9101
 3585SOL    HW222218   0.865   2.386   1.110  1.9691  1.0073 -2.4171
 3586SOL     OW22219   1.572   1.359   8.334  0.2966 -0.4517  0.2772
 3586SOL    HW122220   1.647   1.348   8.393  0.4039 -2.5513 -0.2403
 3586SOL    HW222221   1.595   1.300   8.262  2.7980  0.6475  0.1997
 3587SOL     OW22222   3.491   1.965   0.211  0.0476  0.4292 -0.2600
 3587SOL    HW122223   3.546   1.931   0.282 -1.0526  0.3133  0.5388
 3587SOL    HW222224   3.538   2.047   0.193 -1.1402  0.5423 -2.8205
 3588SOL     OW22225   4.479   0.919   5.526  0.2607  0.0319  0.0115
 3588SOL    HW122226   4.569   0.949   5.517 -0.5374  2.5863  0.4724
 3588SOL    HW222227   4.465   0.959   5.612  2.8775  0.0371  0.4298
 3589SOL     OW22228   3.190   4.012   7.681 -0.0803  0.9383 -0.4386
 3589SOL    HW122229   3.137   3.937   7.654  0.6265 -0.2228  1.3695
 3589SOL    HW222230   3.180   4.003   7.776 -1.8290 -0.3712 -0.7254
 3590SOL     OW22231   1.470   2.127   4.002  0.4164  0.1678 -0.1098
 3590SOL    HW122232   1.448   2.148   3.911 -0.5065  1.2019  0.3495
 3590SOL    HW222233   1.381   2.101   4.029  0.4539 -0.9864 -1.0656
 3591SOL     OW22234   1.815   3.052   8.550 -0.2971  0.4153 -0.1877
 3591SOL    HW122235   1.869   3.116   8.503 -0.3485 -0.1018 -0.9393
 3591SOL    HW222236   1.881   2.986   8.570 -0.4600  0.1616 -0.4905
 3592SOL     OW22237   2.108   2.339   9.914 -0.0371 -0.1345 -0.1272
 3592SOL    HW122238   2.179   2.319   9.853 -1.2524 -3.4067 -0.4995
 3592SOL    HW222239   2.053   2.262   9.898 -1.6210  1.6187 -3.2290
 3593SOL     OW22240   4.166   3.773   1.645  0.4168  0.3890  0.5618
 3593SOL    HW122241   4.242   3.743   1.695  0.8242  1.9501  0.8774
 3593SOL    HW222242   4.107   3.808   1.712 -0.3908 -0.7231  0.4192
 3594SOL     OW22243   3.224   0.706   3.538 -0.1192  0.1509 -0.0750
 3594SOL    HW122244   3.220   0.762   3.461  0.6362  0.6289  0.2423
 3594SOL    HW222245   3.294   0.653   3.499 -1.1026 -1.0503 -0.2304
 3595SOL     OW22246   0.666   4.245  12.724  0.5829  0.4532  0.0891
 3595SOL    HW122247   0.622   4.330  12.720 -0.9793 -0.4059 -1.2398
 3595SOL    HW222248   0.656   4.218  12.815  0.1732 -0.0818 -0.1170
 3596SOL     OW22249   0.866   3.675   3.414  0.1780 -0.0720 -0.1751
 3596SOL    HW122250   0.857   3.628   3.498  2.4183 -0.1866 -0.0150
 3596SOL    HW222251   0.951   3.650   3.380 -0.4068 -0.4760 -1.3397
 3597SOL     OW22252   4.480   3.599   7.168 -0.2153 -0.2979 -0.0158
 3597SOL    HW122253   4.505   3.507   7.160  0.5986 -0.1450  0.7023
 3597SOL    HW222254   4.395   3.589   7.211  0.4734 -0.1790  1.4039
 3598SOL     OW22255   3.631   1.083   8.594  0.3066 -0.0612  0.1633
 3598SOL    HW122256   3.668   1.004   8.555 -0.4677 -1.0984  1.5479
 3598SOL    HW222257   3.541   1.052   8.603  0.0289  0.9693  0.9407
 3599SOL     OW22258   0.406   4.222   4.895 -0.0601 -0.0814 -0.1648
 3599SOL    HW122259   0.460   4.225   4.974 -0.0288  1.1622 -0.2328
 3599SOL    HW222260   0.457   4.285   4.844 -0.6902 -0.6316 -1.4757
 3600SOL     OW22261   1.485   2.391  10.821 -0.2254  0.1280  0.5058
 3600SOL    HW122262   1.564   2.444  10.830  0.4938 -0.7372 -0.6292
 3600SOL    HW222263   1.430   2.440  10.882  0.3887  0.1654  1.0299
 3601SOL     OW22264   1.961   0.493  12.200 -0.5577 -0.1071  0.3188
 3601SOL    HW122265   1.913   0.478  12.118  0.4697 -1.6369 -0.0009
 3601SOL    HW222266   1.885   0.522  12.250  1.3402  1.0407  2.5330
 3602SOL     OW22267   0.554   4.034  15.565 -0.1246  0.0563  0.3553
 3602SOL    HW122268   0.573   4.117  15.608 -0.8747 -0.7713  2.3131
 3602SOL    HW222269   0.500   4.071  15.495  0.7685  2.3465  0.8951
 3603SOL     OW22270   1.940   3.123   8.241  0.4248  0.4021 -0.7716
 3603SOL    HW122271   1.890   3.198   8.274  0.9912 -0.0287  1.0937
 3603SOL    HW222272   2.028   3.137   8.276  0.0170  0.9357  0.0562
 3604SOL     OW22273   2.332   1.742   5.482 -0.3683  0.6462 -0.1698
 3604SOL    HW122274   2.401   1.732   5.416 -1.1687  1.2114 -1.1000
 3604SOL    HW222275   2.284   1.817   5.447 -0.3601  0.2072 -1.1190
 3605SOL     OW22276   1.451   4.275  16.003  0.2316 -0.1340  0.7592
 3605SOL    HW122277   1.473   4.367  15.988  1.1315 -0.1569  1.9545
 3605SOL    HW222278   1.467   4.240  15.915  0.7436 -0.3077  0.9199
 3606SOL     OW22279   3.808   3.890   1.779 -0.4271  0.2341  0.1566
 3606SOL    HW122280   3.728   3.845   1.807 -0.5477  0.5705  0.3558
 3606SOL    HW222281   3.770   3.972   1.748  1.2866  0.4180 -1.4625
 3607SOL     OW22282   4.627   0.045   2.382  0.5790 -0.0212 -0.3785
 3607SOL    HW122283   4.695   0.010   2.440  1.0003 -1.7430 -1.8956
 3607SOL    HW222284   4.669   0.122   2.345  0.0892 -0.3008 -1.5187
 3608SOL     OW22285   4.307   0.892  16.619 -0.1768  0.2372 -0.2139
 3608SOL    HW122286   4.373   0.938  16.569 -0.2317 -0.7917 -1.2344
 3608SOL    HW222287   4.226   0.923  16.579 -0.3961  0.6286  0.5295
 3609SOL     OW22288   0.391   4.428   5.907 -0.0368 -0.2873 -0.6874
 3609SOL    HW122289   0.350   4.343   5.926 -1.1261  0.1994 -0.8522
 3609SOL    HW222290   0.310   4.479   5.914  1.4592  1.9973 -0.2365
 3610SOL     OW22291   2.897   1.011   7.257  0.5173 -0.1671 -0.4497
 3610SOL    HW122292   2.863   1.049   7.338 -0.5393  2.1294 -1.9888
 3610SOL    HW222293   2.975   0.975   7.300  1.0133 -2.3182 -3.1575
 3611SOL     OW22294   0.259   2.094   2.800 -0.5534 -0.1976 -0.1129
 3611SOL    HW122295   0.291   2.034   2.867 -0.1232 -0.6434 -0.7142
 3611SOL    HW222296   0.180   2.047   2.773 -1.0684  0.7850 -0.3142
 3612SOL     OW22297   1.537   0.383  15.734  0.0341 -0.2696  0.1385
 3612SOL    HW122298   1.595   0.342  15.670 -0.9667  1.1706 -1.6980
 3612SOL    HW222299   1.485   0.308  15.761  1.5721 -1.3985 -0.0010
 3613SOL     OW22300   1.220   3.277   6.814  0.3725 -0.1077 -0.0072
 3613SOL    HW122301   1.203   3.358   6.863  0.5853 -0.8733  1.3438
 3613SOL    HW222302   1.207   3.210   6.881 -2.4242 -0.1460 -0.6223
 3614SOL     OW22303   0.183   2.071   8.095 -0.0145 -0.1653  0.0441
 3614SOL    HW122304   0.225   2.149   8.132  0.1758 -0.0478 -0.4205
 3614SOL    HW222305   0.090   2.087   8.113  0.0526  1.8073 -1.3488
 3615SOL     OW22306   2.357   0.338   4.223  0.3842 -0.6114 -0.3588
 3615SOL    HW122307   2.378   0.390   4.145  0.5001 -0.3038 -0.1207
 3615SOL    HW222308   2.444   0.325   4.261 -0.2775 -2.1163  0.6161
 3616SOL     OW22309   3.558   3.574   6.804 -0.0534 -0.1408 -0.2929
 3616SOL    HW122310   3.545   3.524   6.885  0.4208  1.5086  0.8001
 3616SOL    HW222311   3.628   3.635   6.828 -0.1129 -0.0123 -0.4515
 3617SOL     OW22312   1.591   4.050   8.445 -0.0474 -0.7078 -0.7227
 3617SOL    HW122313   1.537   3.972   8.444  1.7156 -1.9471  0.5636
 3617SOL    HW222314   1.527   4.111   8.481 -2.1422 -2.2798 -1.8177
 3618SOL     OW22315   3.072   2.294   1.459 -0.2735  0.4026  0.3604
 3618SOL    HW122316   3.036   2.322   1.543  0.1700 -0.4467  0.8311
 3618SOL    HW222317   3.054   2.376   1.414 -0.4246  1.4593  2.3510
 3619SOL     OW22318   3.174   2.007   5.217  0.4360 -0.0975 -0.2653
 3619SOL    HW122319   3.099   2.005   5.277 -2.1895  0.4660 -3.5115
 3619SOL    HW222320   3.223   1.929   5.244 -0.0732  0.0234  1.0010
 3620SOL     OW22321   1.036   0.888   3.442  0.2367 -0.0314 -0.1956
 3620SOL    HW122322   1.031   0.865   3.535  2.4116  1.5290  0.3261
 3620SOL    HW222323   0.948   0.876   3.408  0.6149 -0.3199 -1.0978
 3621SOL     OW22324   2.484   1.707   6.388 -0.1539  0.6875  0.2039
 3621SOL    HW122325   2.454   1.644   6.454  1.2330  0.7026  0.8529
 3621SOL    HW222326   2.575   1.680   6.399  0.1484  2.1517  1.2935
 3622SOL     OW22327   2.364   2.035   8.981 -0.1960 -0.1493  0.4955
 3622SOL    HW122328   2.292   2.006   8.924 -0.0136 -0.8587  0.6273
 3622SOL    HW222329   2.408   2.106   8.936 -0.2593 -0.5143 -0.1506
 3623SOL     OW22330   1.788   2.730   1.365 -0.0388 -0.3315  0.2053
 3623SOL    HW122331   1.696   2.753   1.353  0.0203 -0.4660 -0.5148
 3623SOL    HW222332   1.804   2.715   1.458 -1.5052  0.5082  0.5941
 3624SOL     OW22333   2.880   2.731   4.832  0.6753 -0.0113 -0.1546
 3624SOL    HW122334   2.882   2.809   4.777  0.7405  1.0201  1.3122
 3624SOL    HW222335   2.818   2.755   4.900  1.5687 -0.8754  0.9685
 3625SOL     OW22336   2.859   0.204  14.848 -0.0854 -0.0476  0.2256
 3625SOL    HW122337   2.821   0.117  14.835 -1.2551  0.1969  2.0572
 3625SOL    HW222338   2.951   0.178  14.847  0.0461  0.4326 -0.1864
 3626SOL     OW22339   1.536   3.664  16.952  0.0386  0.2045  0.4491
 3626SOL    HW122340   1.577   3.685  17.036 -1.0348 -0.3701  1.1181
 3626SOL    HW222341   1.559   3.738  16.896 -0.9138 -0.3728 -0.6972
 3627SOL     OW22342   1.060   4.023   8.460  0.1522  0.0416 -0.2665
 3627SOL    HW122343   1.067   4.065   8.375  0.7712 -0.5359 -0.5065
 3627SOL    HW222344   1.152   4.002   8.477  0.7193  1.7870 -1.1771
 3628SOL     OW22345   1.056   0.463   5.588  0.1944 -0.6858 -0.4124
 3628SOL    HW122346   1.016   0.472   5.675  1.5316  1.7393 -0.0375
 3628SOL    HW222347   1.083   0.554   5.574 -0.7225 -0.1105  1.4251
 3629SOL     OW22348   2.987   2.560   5.031  0.0778  0.3037 -0.2786
 3629SOL    HW122349   3.053   2.609   5.078  1.9872  0.0813 -2.6900
 3629SOL    HW222350   2.962   2.619   4.960 -0.1808  0.6116  0.0706
 3630SOL     OW22351   3.398   0.826   1.623 -0.0307  0.3451  0.0310
 3630SOL    HW122352   3.397   0.903   1.680  1.2173  0.6942 -0.4086
 3630SOL    HW222353   3.402   0.865   1.536  0.6784 -0.0324 -0.1109
 3631SOL     OW22354   1.774   0.075   8.125  0.2438  0.0794  0.8344
 3631SOL    HW122355   1.791   4.717   8.075  0.5817  2.4492 -2.8874
 3631SOL    HW222356   1.836   0.072   8.197 -0.7555  0.9914  1.7331
 3632SOL     OW22357   3.705   1.486   4.000  0.1964  0.0007  0.0128
 3632SOL    HW122358   3.735   1.558   3.945  0.0808  0.0651  0.0359
 3632SOL    HW222359   3.696   1.419   3.931  0.8100 -1.1497  1.0493
 3633SOL     OW22360   4.577   2.700   5.085 -0.0950 -0.1051  0.2888
 3633SOL    HW122361   4.547   2.744   5.164  1.4451  1.5202 -0.0448
 3633SOL    HW222362   4.500   2.645   5.070  0.3759 -0.4650 -0.8745
 3634SOL     OW22363   0.576   0.482   4.293 -0.0734  0.0639 -0.6748
 3634SOL    HW122364   0.665   0.490   4.259  0.2626 -1.0971 -0.0836
 3634SOL    HW222365   0.587   0.519   4.380  1.1198  0.2882 -0.9130
 3635SOL     OW22366   1.055   4.131   6.959  0.6189 -0.2683  0.3842
 3635SOL    HW122367   1.006   4.202   6.918 -2.5094 -1.6739  1.6559
 3635SOL    HW222368   0.995   4.058   6.941  0.4304 -0.3335  1.2651
 3636SOL     OW22369   1.529   3.180   8.881  0.2653 -0.0355 -0.3411
 3636SOL    HW122370   1.613   3.135   8.892 -0.3964 -1.4281 -1.0864
 3636SOL    HW222371   1.472   3.132   8.940  1.4525 -2.3066 -1.0663
 3637SOL     OW22372   0.246   1.222   1.462 -0.0693  0.4093  0.4504
 3637SOL    HW122373   0.264   1.135   1.496  1.3624  0.4160 -0.2907
 3637SOL    HW222374   0.164   1.236   1.509 -2.3898 -2.3788 -2.7544
 3638SOL     OW22375   2.853   4.006   5.556 -0.1556  0.4418 -0.8135
 3638SOL    HW122376   2.803   3.947   5.613 -0.3067  2.1549  0.8196
 3638SOL    HW222377   2.801   3.997   5.476  1.2506 -1.1574 -1.5468
 3639SOL     OW22378   1.394   4.464   7.551 -0.2289 -0.5918  0.1936
 3639SOL    HW122379   1.344   4.510   7.484  0.2884 -1.2384 -0.6411
 3639SOL    HW222380   1.401   4.533   7.617  0.8170 -1.2492  0.7757
 3640SOL     OW22381   3.213   1.508   3.696  0.0892  0.1019  0.0776
 3640SOL    HW122382   3.294   1.480   3.653 -0.3427  0.5026 -1.0146
 3640SOL    HW222383   3.214   1.460   3.778  0.5413  1.5858  0.9342
 3641SOL     OW22384   3.328   4.441   8.602  0.1203  0.1476  0.5562
 3641SOL    HW122385   3.302   4.350   8.589 -0.6569  0.4849 -0.2583
 3641SOL    HW222386   3.240   4.479   8.596  0.5253  0.2512 -4.7064
 3642SOL     OW22387   2.798   0.262  12.406  0.2100 -0.2942  0.2840
 3642SOL    HW122388   2.821   0.342  12.454 -0.1984  0.8101 -1.3617
 3642SOL    HW222389   2.885   0.250  12.368 -0.4472  3.0830 -2.2677
 3643SOL     OW22390   0.322   0.863   4.603 -0.2982 -0.2157 -0.3441
 3643SOL    HW122391   0.349   0.808   4.530 -1.5461 -1.2069 -0.0657
 3643SOL    HW222392   0.351   0.948   4.570 -1.8580  0.4595  0.0409
 3644SOL     OW22393   3.060   4.373  17.369 -0.2827  0.2623 -0.1637
 3644SOL    HW122394   2.969   4.354  17.391 -1.2019  1.8105 -2.6603
 3644SOL    HW222395   3.047   4.457  17.326 -1.2502  1.3070  2.1502
 3645SOL     OW22396   1.480   0.727   2.330 -0.4586  0.3196  0.1664
 3645SOL    HW122397   1.517   0.800   2.280 -1.6425  1.7236  1.3330
 3645SOL    HW222398   1.559   0.690   2.370 -1.7030 -0.6680  1.7300
 3646SOL     OW22399   1.415   3.383   2.495  0.3397 -0.0646  0.4148
 3646SOL    HW122400   1.413   3.320   2.424 -0.0530  0.5199 -0.0902
 3646SOL    HW222401   1.482   3.445   2.466 -0.5229  0.0217 -1.3800
 3647SOL     OW22402   4.165   2.500   9.046 -0.2538 -0.1278 -0.2112
 3647SOL    HW122403   4.220   2.497   8.968 -1.1258 -0.9704 -0.7892
 3647SOL    HW222404   4.208   2.568   9.098  1.1796 -0.6518 -0.6953
 3648SOL     OW22405   0.131   3.293   7.350 -0.1949  0.7495 -0.4448
 3648SOL    HW122406   0.054   3.307   7.295 -1.2830  1.4176  1.2714
 3648SOL    HW222407   0.093   3.257   7.430 -1.1382  0.4256 -1.0416
 3649SOL     OW22408   3.395   0.939   8.543 -0.1421  0.8313  0.0095
 3649SOL    HW122409   3.416   0.894   8.461  2.0849  1.5452  0.1774
 3649SOL    HW222410   3.300   0.928   8.552  0.3727 -2.5301  1.6232
 3650SOL     OW22411   4.365   0.318   2.145  0.5291  0.4223 -0.3423
 3650SOL    HW122412   4.449   0.281   2.117  0.6768  0.7085 -0.2754
 3650SOL    HW222413   4.316   0.336   2.065  1.7217 -0.2917 -1.2339
 3651SOL     OW22414   4.499   2.708   7.192 -0.2295 -0.2741 -0.4359
 3651SOL    HW122415   4.443   2.687   7.266  0.7241  1.4099  0.7856
 3651SOL    HW222416   4.431   2.721   7.126 -0.5401  1.5432  0.2377
 3652SOL     OW22417   2.269   0.818   8.256  0.0348  0.1112  0.4143
 3652SOL    HW122418   2.328   0.832   8.182  0.0980 -0.1363  0.4169
 3652SOL    HW222419   2.214   0.895   8.241  1.3126  0.8662 -0.3431
 3653SOL     OW22420   0.410   2.296   9.012  0.5865 -0.3822 -0.3879
 3653SOL    HW122421   0.436   2.383   9.044  1.2037 -0.4681 -0.6669
 3653SOL    HW222422   0.315   2.307   9.003  0.4389  0.1065  1.6370
 3654SOL     OW22423   4.037   2.495   3.054 -0.1667 -0.0550 -0.4767
 3654SOL    HW122424   4.044   2.401   3.067 -2.5122 -0.2460 -0.6362
 3654SOL    HW222425   3.963   2.505   2.994  0.5279  0.4407 -1.2490
 3655SOL     OW22426   1.312   0.135   3.248  0.4397  0.3517  0.0762
 3655SOL    HW122427   1.368   0.078   3.196 -2.3208 -0.3388 -2.1453
 3655SOL    HW222428   1.370   0.209   3.269  2.7096 -0.6650 -2.6826
 3656SOL     OW22429   4.675   1.858   0.052  0.1527  0.0078 -0.6782
 3656SOL    HW122430   4.713   1.795  17.680  3.0400  1.5526 -0.4858
 3656SOL    HW222431   0.003   1.936   0.026  1.8705 -1.0065 -0.4270
 3657SOL     OW22432   1.777   1.150   4.221 -0.3220 -1.1101 -0.0672
 3657SOL    HW122433   1.837   1.089   4.177  0.2875  0.2252 -1.0591
 3657SOL    HW222434   1.791   1.130   4.314  2.2344 -2.9691 -0.8629
 3658SOL     OW22435   4.562   3.267  13.280 -0.2727  0.4876  0.1404
 3658SOL    HW122436   4.567   3.198  13.213  1.9830  0.1977  0.6115
 3658SOL    HW222437   4.471   3.265  13.311  0.0146  0.7524  0.9938
 3659SOL     OW22438   4.472   2.970   6.418 -0.4343 -0.2276  0.5316
 3659SOL    HW122439   4.381   2.996   6.432 -1.0360 -0.3088 -3.2355
 3659SOL    HW222440   4.508   2.946   6.503 -0.4755 -1.0562  0.3109
 3660SOL     OW22441   2.868   3.856   3.625 -0.1000 -0.4118  0.5323
 3660SOL    HW122442   2.790   3.882   3.575 -0.1882 -0.8984  0.4119
 3660SOL    HW222443   2.845   3.890   3.711  0.5833  1.8344 -0.1725
 3661SOL     OW22444   3.082   1.234  11.754  0.1007  0.0135 -0.1513
 3661SOL    HW122445   3.168   1.242  11.796 -0.0853 -3.6805  0.9583
 3661SOL    HW222446   3.112   1.251  11.664  1.0760  0.3684  0.2371
 3662SOL     OW22447   4.522   2.740  16.257  0.4331  0.0041 -0.3149
 3662SOL    HW122448   4.460   2.775  16.320  2.0704  2.7021 -0.2094
 3662SOL    HW222449   4.577   2.813  16.228 -0.6676  1.8180  2.1709
 3663SOL     OW22450   0.156   4.325   4.077 -0.5111  0.1712  0.0278
 3663SOL    HW122451   0.194   4.295   4.160  0.6078  0.2130 -0.4609
 3663SOL    HW222452   0.107   4.251   4.043 -1.1942  1.9288 -2.8322
 3664SOL     OW22453   2.851   3.185   5.892 -0.0173  0.0776 -0.0613
 3664SOL    HW122454   2.930   3.131   5.900 -0.2257 -0.3074 -0.5795
 3664SOL    HW222455   2.806   3.172   5.975 -0.8563 -0.2846 -0.5693
 3665SOL     OW22456   3.665   0.992   8.110 -0.2401 -0.0270 -0.7342
 3665SOL    HW122457   3.751   0.981   8.150 -0.2848  0.5810 -0.4628
 3665SOL    HW222458   3.653   1.085   8.130 -2.1451 -0.9749  2.6364
 3666SOL     OW22459   2.741   1.557   5.586  0.3130  0.4030  0.4613
 3666SOL    HW122460   2.651   1.553   5.619 -0.1734  0.0181 -0.9275
 3666SOL    HW222461   2.740   1.474   5.539  0.5560  0.5201  0.2502
 3667SOL     OW22462   1.825   1.846   8.231  0.4260  0.6296  0.2079
 3667SOL    HW122463   1.774   1.849   8.312  1.2334 -0.1748  0.7386
 3667SOL    HW222464   1.818   1.753   8.212  1.2547  1.0791 -2.3128
 3668SOL     OW22465   3.021   1.655   6.884  0.1135 -0.2811 -0.7453
 3668SOL    HW122466   3.104   1.609   6.869  1.4248  1.7425  0.3054
 3668SOL    HW222467   2.954   1.592   6.858 -0.8576  0.7651 -0.7590
 3669SOL     OW22468   2.466   4.335   6.906  0.2407 -0.5430 -0.2120
 3669SOL    HW122469   2.390   4.385   6.876  1.3191  0.2754 -1.5568
 3669SOL    HW222470   2.509   4.314   6.823  1.0296  1.3474 -0.2858
 3670SOL     OW22471   3.274   1.606   9.204  0.3446 -0.5211 -0.1487
 3670SOL    HW122472   3.237   1.543   9.266 -0.7557 -0.7024 -0.9875
 3670SOL    HW222473   3.225   1.578   9.126 -0.7081 -0.8694  0.6353
 3671SOL     OW22474   0.967   0.885   5.388  0.0388 -0.0731  0.3440
 3671SOL    HW122475   1.002   0.899   5.300  0.3718 -2.1594  0.1298
 3671SOL    HW222476   1.029   0.832   5.438 -0.5590 -1.6910 -0.6193
 3672SOL     OW22477   1.695   0.307  13.486 -0.0666  0.1093  0.4596
 3672SOL    HW122478   1.679   0.298  13.580 -0.3342 -0.9426  0.3107
 3672SOL    HW222479   1.654   0.224  13.461  0.2958 -0.0442  0.3762
 3673SOL     OW22480   3.153   0.980   4.453  0.1450 -0.5798  0.2560
 3673SOL    HW122481   3.084   1.001   4.391  0.5366 -0.2692 -0.0762
 3673SOL    HW222482   3.224   0.953   4.395 -1.0485  0.1508 -1.5082
 3674SOL     OW22483   0.006   0.932   5.239 -0.5517  0.0054 -0.7312
 3674SOL    HW122484   0.069   0.894   5.178  1.7272 -0.9770  2.2484
 3674SOL    HW222485   4.661   0.962   5.177 -0.7358  0.1589 -0.4599
 3675SOL     OW22486   2.388   2.639   7.404  0.1886 -0.4356  0.0228
 3675SOL    HW122487   2.402   2.545   7.388  0.7922 -0.6591  1.8470
 3675SOL    HW222488   2.434   2.647   7.487 -1.7069  0.6729  0.9744
 3676SOL     OW22489   0.507   0.565  11.375  0.2495  0.2772 -0.2325
 3676SOL    HW122490   0.532   0.614  11.296  0.7988 -1.2268 -0.9870
 3676SOL    HW222491   0.584   0.509  11.387  2.0146  2.7456  0.1250
 3677SOL     OW22492   2.542   0.328   8.824  0.3678  0.4354  0.3252
 3677SOL    HW122493   2.481   0.377   8.878 -1.2136 -0.4813 -0.5842
 3677SOL    HW222494   2.524   0.367   8.738 -0.0419 -1.0437 -0.2660
 3678SOL     OW22495   0.009   3.097   9.476  0.1603  0.2832  0.8930
 3678SOL    HW122496   4.671   3.036   9.433 -0.5406  2.0800 -0.6624
 3678SOL    HW222497   4.703   3.185   9.450  3.7164  1.1322  0.0243
 3679SOL     OW22498   3.917   3.861  11.856  0.0408 -0.0009 -0.7753
 3679SOL    HW122499   3.958   3.937  11.815 -1.4343  0.8376 -0.7147
 3679SOL    HW222500   3.894   3.897  11.942  0.9120  0.2096 -0.6328
 3680SOL     OW22501   0.676   2.287   5.202  0.1889 -0.0982  0.5517
 3680SOL    HW122502   0.726   2.368   5.213 -2.7116  1.9233 -1.2053
 3680SOL    HW222503   0.732   2.217   5.236 -0.3440  0.8204  3.3381
 3681SOL     OW22504   0.500   0.231   6.748 -0.6982 -0.5246  0.1655
 3681SOL    HW122505   0.477   0.304   6.690 -1.7499 -2.0837 -1.3660
 3681SOL    HW222506   0.455   0.164   6.697 -2.0312  0.3473  0.1800
 3682SOL     OW22507   1.152   2.315   5.798 -0.6434  0.1627 -0.5389
 3682SOL    HW122508   1.068   2.320   5.845 -1.0578  1.5503 -1.4351
 3682SOL    HW222509   1.213   2.360   5.856  1.7835 -1.8403 -1.5221
 3683SOL     OW22510   0.353   0.608   8.183  0.0357 -0.0272  0.3033
 3683SOL    HW122511   0.412   0.665   8.231 -1.5459  1.6532  0.2699
 3683SOL    HW222512   0.324   0.664   8.110  2.5383  1.5715  0.5408
 3684SOL     OW22513   2.214   0.963   7.854  0.1607  0.0957  0.3951
 3684SOL    HW122514   2.165   0.881   7.849 -0.1526  0.3534 -0.7706
 3684SOL    HW222515   2.206   0.995   7.764  3.3181  1.1936  0.5080
 3685SOL     OW22516   3.107   1.395   3.003 -0.3499  0.2081  0.4733
 3685SOL    HW122517   3.079   1.474   3.047  2.0390  1.2644  0.0973
 3685SOL    HW222518   3.059   1.404   2.921 -0.2155 -1.0905  0.2375
 3686SOL     OW22519   1.882   3.683   8.216  0.2588  0.1957 -0.3091
 3686SOL    HW122520   1.829   3.609   8.188 -0.1103 -0.8686  3.1667
 3686SOL    HW222521   1.821   3.737   8.267  0.5336 -0.1033  0.3345
 3687SOL     OW22522   1.329   1.088   3.152  0.2331  0.2286  0.2400
 3687SOL    HW122523   1.281   1.009   3.175 -1.8807  0.8460 -2.0426
 3687SOL    HW222524   1.419   1.059   3.162  0.5558  2.2177  3.3684
 3688SOL     OW22525   3.121   0.066  17.359 -0.1069  0.6736  0.3003
 3688SOL    HW122526   3.185   4.716  17.366 -1.6539 -0.7534 -0.1088
 3688SOL    HW222527   3.162   0.139  17.405  0.8967  0.6439 -0.5482
 3689SOL     OW22528   1.802   3.954  13.966 -0.2688 -0.9947  0.6799
 3689SOL    HW122529   1.825   3.922  14.054  2.9354  1.7266  0.8209
 3689SOL    HW222530   1.734   4.018  13.988  0.8712  1.0729 -1.8680
 3690SOL     OW22531   0.075   3.276   8.097  0.2224  0.1138  0.0277
 3690SOL    HW122532   0.044   3.236   8.178  0.9540  0.2084  0.3612
 3690SOL    HW222533   0.167   3.251   8.107 -0.4464 -2.0288  0.6575
 3691SOL     OW22534   2.491   2.170  12.571  0.2687  0.6018 -0.4222
 3691SOL    HW122535   2.503   2.123  12.653 -2.1577  0.8708  0.1067
 3691SOL    HW222536   2.559   2.236  12.578  2.1733 -1.2588 -1.3953
 3692SOL     OW22537   1.404   4.341   2.970  0.2268  0.3486  0.4568
 3692SOL    HW122538   1.446   4.388   3.042 -0.3559 -1.7943  2.2247
 3692SOL    HW222539   1.314   4.346   3.004  0.0646  0.0312  0.0705
 3693SOL     OW22540   0.716   3.921   3.963  1.2469 -0.1475 -0.0128
 3693SOL    HW122541   0.727   3.990   3.897 -0.0311 -0.0552 -0.1393
 3693SOL    HW222542   0.703   3.964   4.048 -0.4770 -0.1271 -0.2809
 3694SOL     OW22543   4.574   0.466   7.446 -0.1489  0.3760 -0.2366
 3694SOL    HW122544   4.669   0.473   7.460 -0.5601  1.0454  2.1613
 3694SOL    HW222545   4.579   0.523   7.369  1.5956  0.1796 -0.2868
 3695SOL     OW22546   3.899   4.291   1.738  0.0170  0.2290  0.3669
 3695SOL    HW122547   3.880   4.383   1.759 -0.1627  0.3790 -0.4588
 3695SOL    HW222548   3.818   4.242   1.750  0.6725 -0.4545  1.9639
 3696SOL     OW22549   2.075   0.311   6.916 -0.3327  0.1690  0.4766
 3696SOL    HW122550   2.133   0.280   6.985  0.8561 -1.6368 -1.3095
 3696SOL    HW222551   1.991   0.287   6.955 -0.3709 -0.2637  0.1395
 3697SOL     OW22552   2.547   4.663   7.006 -0.4671  0.0786 -0.0437
 3697SOL    HW122553   2.610   4.652   7.078 -2.1244 -1.0573  1.2490
 3697SOL    HW222554   2.538   4.571   6.981 -2.8360  0.7859 -1.8065
 3698SOL     OW22555   2.538   0.848   3.480  0.1227 -0.2625 -0.3095
 3698SOL    HW122556   2.584   0.893   3.409  1.4335 -0.1045  0.6507
 3698SOL    HW222557   2.613   0.845   3.539  0.3779 -0.9528 -0.6677
 3699SOL     OW22558   3.196   1.164   5.540  0.1228  0.7740  0.3373
 3699SOL    HW122559   3.162   1.194   5.455  2.2688 -1.0998 -1.1835
 3699SOL    HW222560   3.114   1.123   5.568  0.2208 -0.3345 -1.0366
 3700SOL     OW22561   3.033   4.025   8.131  0.0396 -0.5442  0.4428
 3700SOL    HW122562   3.101   4.072   8.084  0.0875 -0.7259  0.3307
 3700SOL    HW222563   2.974   4.003   8.059  0.1923  1.3816 -0.2440
 3701SOL     OW22564   0.661   2.700   8.159 -0.2683  0.1203  0.2176
 3701SOL    HW122565   0.729   2.653   8.207 -0.5091 -0.5778 -0.1272
 3701SOL    HW222566   0.589   2.707   8.222 -1.1904  1.2853 -0.9575
 3702SOL     OW22567   3.247   1.332   7.608  0.2468 -0.3524  0.4001
 3702SOL    HW122568   3.151   1.331   7.612  0.2746 -0.1601  1.0112
 3702SOL    HW222569   3.264   1.277   7.685 -2.0190  0.6309  1.6149
 3703SOL     OW22570   3.216   2.917   7.300 -0.0242 -0.3025  0.1513
 3703SOL    HW122571   3.181   2.932   7.212  0.8259  2.5577  0.3140
 3703SOL    HW222572   3.262   3.000   7.314 -1.3162  0.2123  1.3525
 3704SOL     OW22573   3.189   0.508   5.277 -0.4626  0.8082 -0.7296
 3704SOL    HW122574   3.175   0.432   5.220  0.3851 -1.0462  1.5122
 3704SOL    HW222575   3.234   0.467   5.351 -1.7233  0.5341 -0.1212
 3705SOL     OW22576   1.200   3.748   3.922 -0.4738  0.2414 -0.0358
 3705SOL    HW122577   1.256   3.735   3.846  0.4027  0.8217  0.5185
 3705SOL    HW222578   1.115   3.743   3.877 -2.1966 -0.0758  3.2016
 3706SOL     OW22579   1.120   2.847   4.026  0.0328 -0.2783 -0.5198
 3706SOL    HW122580   1.067   2.805   4.094 -0.9693 -0.2203 -1.2617
 3706SOL    HW222581   1.065   2.831   3.949  0.0639 -1.2609 -0.3413
 3707SOL     OW22582   2.570   3.678   5.387 -0.2855 -0.1004  0.0066
 3707SOL    HW122583   2.539   3.735   5.458 -1.4955  0.1684 -0.7373
 3707SOL    HW222584   2.624   3.614   5.434  0.8534 -0.1690 -1.3991
 3708SOL     OW22585   3.653   1.237  11.840  0.7235  0.1156  0.2647
 3708SOL    HW122586   3.579   1.217  11.783  1.3949 -1.7818  0.0520
 3708SOL    HW222587   3.616   1.273  11.920 -1.5771 -0.9195 -0.3439
 3709SOL     OW22588   4.652   0.849   9.269 -0.3099 -0.3254 -0.4525
 3709SOL    HW122589   4.656   0.927   9.213 -2.0611  0.4865  0.5487
 3709SOL    HW222590   4.557   0.834   9.264 -0.2649 -0.7290 -0.0181
 3710SOL     OW22591   1.675   2.000  12.615  0.0817 -0.3699  0.0865
 3710SOL    HW122592   1.721   2.065  12.670  0.2194  0.9283 -1.5775
 3710SOL    HW222593   1.748   1.951  12.577 -0.7702 -0.2648 -1.6466
 3711SOL     OW22594   0.592   1.601   4.076 -0.1444 -0.1665 -0.1135
 3711SOL    HW122595   0.498   1.581   4.069 -0.0847  0.0753 -1.5509
 3711SOL    HW222596   0.631   1.514   4.084 -1.4312 -0.7309  0.0034
 3712SOL     OW22597   3.944   4.384   0.645  0.6921 -0.5046  0.2703
 3712SOL    HW122598   3.913   4.333   0.570 -1.2888  0.5621  0.3773
 3712SOL    HW222599   3.863   4.390   0.697  1.2866  0.1328  1.1263
 3713SOL     OW22600   4.164   2.437   7.955  0.2202  0.0676 -0.2430
 3713SOL    HW122601   4.157   2.385   8.035  1.9198  1.3225  0.7114
 3713SOL    HW222602   4.077   2.475   7.952  0.9160  1.6704 -0.2936
 3714SOL     OW22603   4.063   0.332   1.685 -0.1150  0.5187 -0.3667
 3714SOL    HW122604   4.002   0.314   1.613 -0.3591 -2.0859  0.4778
 3714SOL    HW222605   4.136   0.288   1.640 -1.5352 -4.2446  2.0256
 3715SOL     OW22606   3.028   2.457   8.558 -0.2592 -0.2637 -0.0451
 3715SOL    HW122607   3.017   2.550   8.537 -0.9054 -0.4585 -0.5404
 3715SOL    HW222608   2.943   2.419   8.540  0.1314 -0.2494 -1.9122
 3716SOL     OW22609   1.860   4.372   4.207 -0.3276  0.4134  0.4062
 3716SOL    HW122610   1.882   4.367   4.114  0.3825 -0.5906  0.6367
 3716SOL    HW222611   1.945   4.397   4.243  0.1938 -1.5574  0.5054
 3717SOL     OW22612   2.304   3.725   6.522  0.5288  0.8192 -0.0310
 3717SOL    HW122613   2.236   3.786   6.494 -2.4013 -1.9363  1.0811
 3717SOL    HW222614   2.257   3.646   6.495  0.0884  0.0399  3.0506
 3718SOL     OW22615   3.971   0.675   7.578 -0.0775 -0.1148 -1.0463
 3718SOL    HW122616   3.878   0.656   7.591  0.1817 -1.2549 -0.8467
 3718SOL    HW222617   3.982   0.757   7.626  0.6278  0.4636 -2.2010
 3719SOL     OW22618   0.623   3.821  12.030  0.0076 -0.9647  0.6505
 3719SOL    HW122619   0.658   3.904  11.997 -0.5631 -0.8266  0.3866
 3719SOL    HW222620   0.532   3.851  12.039  0.8247  1.4061  0.8788
 3720SOL     OW22621   3.549   2.307   1.288  0.0997 -0.0039 -0.7890
 3720SOL    HW122622   3.564   2.271   1.201 -2.2612 -1.6358 -0.5031
 3720SOL    HW222623   3.454   2.303   1.294  0.1804  2.4795  2.4692
 3721SOL     OW22624   3.388   2.362  14.340 -0.6028  0.0537  0.1930
 3721SOL    HW122625   3.460   2.398  14.393 -0.2468 -2.2923  1.2833
 3721SOL    HW222626   3.313   2.401  14.385  0.4332 -0.0879  2.0448
 3722SOL     OW22627   2.936   0.868  12.888  0.4307 -0.5494  1.0499
 3722SOL    HW122628   3.005   0.835  12.946 -0.5535 -0.6416  2.1595
 3722SOL    HW222629   2.947   0.963  12.891 -0.7258 -0.3321 -1.1501
 3723SOL     OW22630   4.199   0.548   8.809 -0.0630 -0.2957  0.2557
 3723SOL    HW122631   4.257   0.496   8.864 -0.4242 -0.0046  0.9004
 3723SOL    HW222632   4.263   0.608   8.771 -1.1924  0.2004 -0.8649
 3724SOL     OW22633   1.777   1.770   1.602  0.5653 -0.0505 -0.2037
 3724SOL    HW122634   1.802   1.683   1.633 -1.1480  0.1855  1.8099
 3724SOL    HW222635   1.749   1.750   1.513  1.7321  0.4219 -0.6736
 3725SOL     OW22636   1.347   0.588   4.688  0.0778  0.0847  0.3682
 3725SOL    HW122637   1.255   0.605   4.706  0.0782  0.8333 -0.2988
 3725SOL    HW222638   1.341   0.547   4.602 -1.6268 -1.1974  1.0993
 3726SOL     OW22639   3.635   1.145  17.076 -0.1886  0.4643  0.5935
 3726SOL    HW122640   3.597   1.057  17.071 -1.1527  0.8489  1.2194
 3726SOL    HW222641   3.718   1.126  17.032 -1.2472 -0.2174 -1.1088
 3727SOL     OW22642   0.993   1.275   9.143 -0.8922 -0.0048  0.0555
 3727SOL    HW122643   1.076   1.322   9.146 -1.3690  0.8783 -0.5341
 3727SOL    HW222644   0.981   1.254   9.050 -1.1390  1.6639 -0.2869
 3728SOL     OW22645   2.107   1.898  15.290 -0.5052  0.1487  0.6476
 3728SOL    HW122646   2.195   1.912  15.324 -0.3580 -0.0531  0.3481
 3728SOL    HW222647   2.127   1.848  15.211  0.4824 -0.4952  1.3109
 3729SOL     OW22648   3.224   0.287   0.193  0.0868  0.3386  1.0062
 3729SOL    HW122649   3.191   0.368   0.154 -1.2682 -1.2324 -1.1107
 3729SOL    HW222650   3.156   0.221   0.178  0.6128 -0.7756  3.3878
 3730SOL     OW22651   3.119   3.534   0.677 -0.0071  0.3219  0.5847
 3730SOL    HW122652   3.078   3.484   0.749  0.1389 -1.3045 -0.4548
 3730SOL    HW222653   3.165   3.459   0.639  0.0121  0.1479  0.9456
 3731SOL     OW22654   0.304   2.219   7.110 -0.0191 -0.0960 -0.4978
 3731SOL    HW122655   0.304   2.154   7.040 -0.1901  0.4049 -0.9664
 3731SOL    HW222656   0.225   2.189   7.155  1.0319  0.1639  1.5627
 3732SOL     OW22657   1.479   2.623   2.623  0.0920 -0.0902  0.0024
 3732SOL    HW122658   1.423   2.633   2.546 -2.7574 -2.2817  1.7777
 3732SOL    HW222659   1.422   2.580   2.686 -1.0307 -0.0045 -0.9423
 3733SOL     OW22660   0.511   2.323  13.128 -0.4411  0.0999 -0.2042
 3733SOL    HW122661   0.599   2.288  13.144 -1.1180 -1.6252 -0.2267
 3733SOL    HW222662   0.461   2.285  13.200 -0.6402  1.8751  0.5939
 3734SOL     OW22663   4.360   1.584  11.681 -0.6702  0.2073 -0.0895
 3734SOL    HW122664   4.285   1.614  11.629  0.0440 -0.4483 -1.4730
 3734SOL    HW222665   4.310   1.520  11.731  0.9256 -0.6126  0.4326
 3735SOL     OW22666   0.780   4.721  17.294 -0.5248 -0.3082 -0.2278
 3735SOL    HW122667   0.839   4.649  17.317  1.8269  1.8705  0.5984
 3735SOL    HW222668   0.767   0.037  17.381 -0.1218 -0.4216 -0.1176
 3736SOL     OW22669   0.408   2.423   3.718 -0.2791  0.0650 -0.3849
 3736SOL    HW122670   0.431   2.509   3.753 -3.9272  0.8546  0.1075
 3736SOL    HW222671   0.340   2.451   3.657 -0.0136  2.0909  0.2478
 3737SOL     OW22672   2.762   1.642   6.358  0.2821 -0.4270 -0.3393
 3737SOL    HW122673   2.834   1.704   6.367  1.5220 -1.9531  0.3249
 3737SOL    HW222674   2.791   1.589   6.284  0.4904  0.6021 -0.9935
 3738SOL     OW22675   2.195   1.427   6.672 -0.5198 -0.5398  0.2881
 3738SOL    HW122676   2.100   1.420   6.660 -0.5677 -0.7681  0.7929
 3738SOL    HW222677   2.204   1.508   6.723 -0.2900 -0.8905  0.8053
 3739SOL     OW22678   4.451   2.792   3.295 -0.5040  0.5381 -0.1174
 3739SOL    HW122679   4.465   2.784   3.201 -1.1288  1.0512 -0.2585
 3739SOL    HW222680   4.514   2.861   3.317  1.8288 -1.3546 -0.9137
 3740SOL     OW22681   3.589   3.769  12.487 -0.0272 -0.1055 -0.3403
 3740SOL    HW122682   3.578   3.749  12.580  0.5752  1.0256 -0.0306
 3740SOL    HW222683   3.683   3.776  12.471  0.2080  0.9348  1.6344
 3741SOL     OW22684   3.751   2.037   1.431  0.3085 -0.5503 -0.3787
 3741SOL    HW122685   3.773   1.957   1.383  1.2120 -0.7610  0.4015
 3741SOL    HW222686   3.745   2.105   1.363 -2.0318 -0.1002  0.2695
 3742SOL     OW22687   1.222   1.412   0.861 -0.3965 -0.3419  0.3698
 3742SOL    HW122688   1.134   1.376   0.848 -0.6870  0.1937  0.8545
 3742SOL    HW222689   1.272   1.332   0.876 -0.1936 -0.2389  0.2552
 3743SOL     OW22690   1.865   2.092  14.289  0.3699  0.2460  0.6665
 3743SOL    HW122691   1.954   2.121  14.306  1.2922 -3.6284  2.5411
 3743SOL    HW222692   1.882   1.999  14.307 -0.6860 -0.3779 -1.5588
 3744SOL     OW22693   3.017   3.873   8.835  0.5924 -0.3311 -0.2560
 3744SOL    HW122694   3.047   3.902   8.921 -0.3703 -0.1739  0.0297
 3744SOL    HW222695   2.930   3.835   8.847  1.0029 -0.4996  2.1059
 3745SOL     OW22696   2.059   3.488   8.628 -0.1992 -0.0569 -0.0499
 3745SOL    HW122697   2.152   3.484   8.651 -0.9009  0.3994  2.9697
 3745SOL    HW222698   2.061   3.576   8.591  0.2735 -0.1480 -0.2400
 3746SOL     OW22699   3.978   3.229   9.005 -0.7989  0.0006 -0.0935
 3746SOL    HW122700   4.070   3.208   9.022 -0.3678  1.4739 -0.5941
 3746SOL    HW222701   3.938   3.266   9.084 -1.5925  0.3966 -0.6813
 3747SOL     OW22702   0.509   1.431   4.755 -0.0435  0.6212  0.2486
 3747SOL    HW122703   0.542   1.342   4.765  0.2445  0.7837  0.7617
 3747SOL    HW222704   0.441   1.408   4.691  0.6112  0.3563 -0.3572
 3748SOL     OW22705   3.746   1.746  10.211  0.2950  0.3225 -0.4691
 3748SOL    HW122706   3.738   1.656  10.244 -0.1405  0.2880 -0.6773
 3748SOL    HW222707   3.797   1.733  10.131  0.9359 -0.8076  0.1045
 3749SOL     OW22708   0.647   2.396   4.834  0.1354 -0.4067 -0.5070
 3749SOL    HW122709   0.560   2.375   4.867 -0.3580  2.6462  0.1996
 3749SOL    HW222710   0.702   2.321   4.856 -1.5058 -1.8114 -1.1895
 3750SOL     OW22711   4.669   2.151   4.306  0.2795  0.1819  0.4568
 3750SOL    HW122712   4.721   2.194   4.374  1.7013 -0.9459  0.0846
 3750SOL    HW222713   4.585   2.197   4.300 -0.4266 -1.2022 -0.2373
 3751SOL     OW22714   3.765   0.212  15.780 -0.3005 -0.0623  0.4002
 3751SOL    HW122715   3.746   0.238  15.870 -0.5432 -1.3943  0.7272
 3751SOL    HW222716   3.775   0.299  15.741 -1.0327 -0.6949 -1.1879
 3752SOL     OW22717   1.982   3.968  10.455  0.0296 -0.0868  0.3845
 3752SOL    HW122718   2.042   3.910  10.406 -0.6152  1.2458 -2.0004
 3752SOL    HW222719   1.915   3.984  10.389  2.2949  1.8450 -1.4878
 3753SOL     OW22720   3.418   2.739  10.161 -0.2178 -0.3665  0.3551
 3753SOL    HW122721   3.324   2.723  10.172  0.1988 -2.2563  1.2414
 3753SOL    HW222722   3.452   2.669  10.217  0.8811 -0.6073 -0.6130
 3754SOL     OW22723   4.336   0.021   3.489 -0.5452  0.3158  0.6179
 3754SOL    HW122724   4.321   4.683   3.416 -0.0474 -0.7625  1.4096
 3754SOL    HW222725   4.342   0.104   3.442 -1.2076  0.4207  0.7174
 3755SOL     OW22726   1.822   0.683   4.759  0.1369 -0.2567 -0.3924
 3755SOL    HW122727   1.860   0.615   4.816  1.3282  2.4816  2.0761
 3755SOL    HW222728   1.729   0.660   4.767 -0.2074  0.3761 -2.5687
 3756SOL     OW22729   1.336   0.475   8.593  0.1154 -0.2476  0.3316
 3756SOL    HW122730   1.373   0.563   8.580  0.0047 -0.2610 -0.0794
 3756SOL    HW222731   1.244   0.490   8.610  0.1135 -1.0891  1.0158
 3757SOL     OW22732   4.587   0.550   3.880 -0.1958  0.1544  0.3858
 3757SOL    HW122733   4.665   0.504   3.848  0.1783  0.9628  0.1113
 3757SOL    HW222734   4.546   0.562   3.794 -0.7085  2.5988  0.9586
 3758SOL     OW22735   3.147   1.389   9.373 -0.4564 -0.0612 -0.0675
 3758SOL    HW122736   3.069   1.439   9.399  0.8287  3.6637 -3.4143
 3758SOL    HW222737   3.158   1.340   9.454  1.0686  0.4072  0.0057
 3759SOL     OW22738   4.657   3.486   2.104  0.2781 -0.6782 -0.0777
 3759SOL    HW122739   4.716   3.555   2.075 -1.2763  1.4225  1.7396
 3759SOL    HW222740   4.592   3.476   2.034 -0.5347 -0.9735  0.7107
 3760SOL     OW22741   4.058   0.724  15.146 -0.0707 -0.2517  0.0508
 3760SOL    HW122742   4.052   0.750  15.238  2.2432  0.7146 -0.0487
 3760SOL    HW222743   4.108   0.797  15.108  1.6870 -0.8041  1.3174
 3761SOL     OW22744   0.751   1.626   6.507  0.8126  0.4360  0.1340
 3761SOL    HW122745   0.677   1.618   6.567  1.2362 -0.9312  0.4893
 3761SOL    HW222746   0.730   1.709   6.464  1.9528  1.4964  1.6445
 3762SOL     OW22747   0.389   1.901   4.060  0.0348 -0.4008 -0.5145
 3762SOL    HW122748   0.328   1.975   4.072 -1.1226 -1.5470  0.7160
 3762SOL    HW222749   0.468   1.953   4.043  2.2146 -2.7692  2.3559
 3763SOL     OW22750   2.229   0.321   5.166  0.3783  0.1114  0.0185
 3763SOL    HW122751   2.146   0.338   5.209 -0.4063 -0.4240 -1.2765
 3763SOL    HW222752   2.214   0.346   5.075  0.2186  1.0434  0.3065
 3764SOL     OW22753   1.930   0.691  15.205  0.4335 -0.1240  0.4002
 3764SOL    HW122754   1.978   0.731  15.132  1.2934 -0.4219  0.8048
 3764SOL    HW222755   1.991   0.631  15.248 -0.5639 -0.7030  0.9982
 3765SOL     OW22756   1.088   2.451   3.956  0.3152 -0.4369  0.0327
 3765SOL    HW122757   1.126   2.414   4.036  0.9567  0.4837  0.1560
 3765SOL    HW222758   1.004   2.486   3.988 -0.7366 -1.9428 -1.0578
 3766SOL     OW22759   3.753   0.269  12.919  0.2428 -0.0814 -0.2094
 3766SOL    HW122760   3.803   0.188  12.911  0.8294  0.3903 -1.4452
 3766SOL    HW222761   3.775   0.313  13.001  1.8460 -1.9136  0.3305
 3767SOL     OW22762   0.572   3.013   1.555 -0.3677  0.3551  0.0983
 3767SOL    HW122763   0.528   3.087   1.515 -0.5550  0.2426  0.0963
 3767SOL    HW222764   0.662   3.026   1.524 -1.1653  1.0485 -1.9286
 3768SOL     OW22765   3.427   1.976   1.453 -0.2266  0.0526 -0.2356
 3768SOL    HW122766   3.446   2.001   1.363  2.5936  1.1440  0.6301
 3768SOL    HW222767   3.507   1.930   1.479  0.4216 -0.4000 -3.0916
 3769SOL     OW22768   3.785   0.522   2.449  0.5509 -0.1694  0.0588
 3769SOL    HW122769   3.815   0.446   2.399  4.2339  0.9698  0.5118
 3769SOL    HW222770   3.787   0.486   2.538 -0.3623 -0.6853 -0.1352
 3770SOL     OW22771   4.209   2.949   9.301  0.5276 -0.1376 -0.2964
 3770SOL    HW122772   4.183   2.941   9.393  1.1481  0.2829 -0.0850
 3770SOL    HW222773   4.213   3.043   9.282  1.4624 -0.2746 -0.7852
 3771SOL     OW22774   3.999   0.779  14.753  0.6723  0.4025 -0.2540
 3771SOL    HW122775   3.952   0.805  14.832  0.1967  0.7468 -0.6548
 3771SOL    HW222776   4.052   0.856  14.734  1.0596  0.3852  0.7572
 3772SOL     OW22777   4.277   4.373   4.414  0.0205 -0.5348 -0.0714
 3772SOL    HW122778   4.182   4.370   4.409 -0.0270  0.2999  0.4721
 3772SOL    HW222779   4.285   4.335   4.501 -1.2780  1.4088  0.8713
 3773SOL     OW22780   1.579   3.498   4.555  0.3135  0.3104  0.2803
 3773SOL    HW122781   1.512   3.442   4.594 -0.4993  1.1801  0.1497
 3773SOL    HW222782   1.560   3.507   4.461 -0.8006 -0.5085  0.4255
 3774SOL     OW22783   2.119   0.832   4.589 -0.1859  0.4640  0.0334
 3774SOL    HW122784   2.102   0.897   4.657 -1.2068  1.5763 -1.2805
 3774SOL    HW222785   2.200   0.872   4.558 -1.2583  1.2267 -1.7583
 3775SOL     OW22786   2.040   1.941   2.171  0.0730  0.3151  0.1785
 3775SOL    HW122787   2.007   1.867   2.120  0.3521  0.8090 -0.7195
 3775SOL    HW222788   2.045   2.008   2.102 -0.5073 -0.8601 -0.9955
 3776SOL     OW22789   1.870   0.056  13.337  0.3146 -0.0866 -0.0470
 3776SOL    HW122790   1.777   0.042  13.316  0.4997  0.4394 -1.1737
 3776SOL    HW222791   1.865   0.085  13.428  0.2772  0.6128 -0.2716
 3777SOL     OW22792   1.248   0.217   4.314  0.2650 -0.0402  0.0940
 3777SOL    HW122793   1.212   0.195   4.228  0.3619 -0.0642  0.0595
 3777SOL    HW222794   1.291   0.134   4.334 -0.4169  0.0848  2.0983
 3778SOL     OW22795   3.256   0.965   2.549  0.3662  0.4223  0.4586
 3778SOL    HW122796   3.318   0.913   2.499 -0.1968  0.6330 -0.4687
 3778SOL    HW222797   3.303   1.049   2.549 -2.4961  2.0388 -1.6716
 3779SOL     OW22798   1.236   1.558   9.387 -0.5774  0.2099 -0.2014
 3779SOL    HW122799   1.269   1.474   9.420 -0.4449  0.6454  0.7503
 3779SOL    HW222800   1.207   1.531   9.299  0.1669  1.4388 -0.8175
 3780SOL     OW22801   2.018   1.039   2.838  0.2893 -0.2774  0.6155
 3780SOL    HW122802   1.983   1.120   2.875 -1.4167 -0.0892 -1.4581
 3780SOL    HW222803   1.951   0.999   2.784 -1.8115  1.2108  2.1032
 3781SOL     OW22804   4.511   3.694  10.108 -0.2278  0.2321 -0.6078
 3781SOL    HW122805   4.430   3.644  10.109 -1.5769  2.4209 -1.1305
 3781SOL    HW222806   4.515   3.747  10.188 -0.3929 -2.2555  1.0615
 3782SOL     OW22807   4.212   1.052   3.473 -0.0372 -0.4906 -0.4404
 3782SOL    HW122808   4.134   1.073   3.524 -0.4774  0.4653 -1.5417
 3782SOL    HW222809   4.171   1.017   3.394  0.1748  1.2610 -1.3051
 3783SOL     OW22810   2.026   2.701   9.281  0.4399  0.6300 -0.2190
 3783SOL    HW122811   2.021   2.606   9.283 -0.4093  0.6662 -0.7211
 3783SOL    HW222812   1.985   2.719   9.366 -1.5552 -4.7757 -0.0604
 3784SOL     OW22813   3.465   1.392   3.615 -0.0877 -0.4491  0.0755
 3784SOL    HW122814   3.498   1.468   3.663  1.1633 -0.8386 -0.1652
 3784SOL    HW222815   3.541   1.395   3.557  1.0233  2.6858  1.6834
 3785SOL     OW22816   0.882   2.318   6.479 -0.0216 -0.1495 -0.3239
 3785SOL    HW122817   0.801   2.269   6.466 -0.8562  1.3517 -0.8442
 3785SOL    HW222818   0.852   2.408   6.463  0.1454 -0.2077 -0.9790
 3786SOL     OW22819   4.565   0.800   3.340 -0.7719 -0.2455  0.3505
 3786SOL    HW122820   4.483   0.773   3.382 -0.8030 -1.4625 -0.4867
 3786SOL    HW222821   4.575   0.724   3.282  1.9835 -1.0068  1.8606
 3787SOL     OW22822   1.832   3.493   4.666  0.2477 -0.8193 -0.3801
 3787SOL    HW122823   1.874   3.571   4.630  1.3380 -1.2745 -0.0907
 3787SOL    HW222824   1.766   3.477   4.598  0.5424  0.4478 -0.9671
 3788SOL     OW22825   1.186   0.910   7.614  0.2803  0.4221 -0.1745
 3788SOL    HW122826   1.131   0.832   7.611  2.9009 -1.4091 -0.5205
 3788SOL    HW222827   1.132   0.976   7.656  0.9706  1.6594 -1.2400
 3789SOL     OW22828   3.800   4.220  14.199 -0.0668  0.1748  0.2300
 3789SOL    HW122829   3.801   4.132  14.236  0.6375  0.3761  0.6753
 3789SOL    HW222830   3.891   4.224  14.170 -0.4458  0.0543 -1.0186
 3790SOL     OW22831   2.640   4.398   4.330 -0.5210 -0.2417  0.5990
 3790SOL    HW122832   2.559   4.377   4.283  0.1490 -0.3890 -0.4971
 3790SOL    HW222833   2.683   4.426   4.249  0.6100  0.1224  1.3294
 3791SOL     OW22834   2.950   0.251  10.534 -0.7259  0.1691 -0.0720
 3791SOL    HW122835   3.033   0.205  10.539  0.5616  2.3198 -2.1080
 3791SOL    HW222836   2.884   0.184  10.518 -3.1175  2.4112  0.3427
 3792SOL     OW22837   0.912   3.128  15.173 -0.8303 -0.1627 -0.4576
 3792SOL    HW122838   0.883   3.042  15.200  1.8900 -1.1651 -0.7052
 3792SOL    HW222839   0.830   3.175  15.158 -0.9683 -0.0129  0.7847
 3793SOL     OW22840   2.144   2.263   4.339  0.8214  0.4853 -0.0144
 3793SOL    HW122841   2.051   2.263   4.318  0.6491  1.4202  0.7355
 3793SOL    HW222842   2.173   2.301   4.256 -1.8352  3.7684  0.5736
 3794SOL     OW22843   4.122   3.718   7.501 -0.3056 -0.1133 -0.6429
 3794SOL    HW122844   4.167   3.802   7.510 -1.6778  0.5563 -0.0763
 3794SOL    HW222845   4.073   3.730   7.420 -1.9735  0.5144  0.4622
 3795SOL     OW22846   0.933   1.475   0.289  0.1172 -0.3892 -0.8868
 3795SOL    HW122847   0.866   1.491   0.356  2.0265 -0.1982  1.0014
 3795SOL    HW222848   0.997   1.450   0.356 -1.7661  0.4361  1.2271
 3796SOL     OW22849   0.524   2.045   2.062 -0.6206  0.4711  0.2009
 3796SOL    HW122850   0.547   1.953   2.064  2.1335  1.1704  0.3693
 3796SOL    HW222851   0.598   2.069   2.007 -1.6804  0.0164 -1.4200
 3797SOL     OW22852   0.209   4.263   3.793 -0.2269 -0.7638 -0.2888
 3797SOL    HW122853   0.154   4.203   3.843 -0.0141 -0.5128  0.2553
 3797SOL    HW222854   0.286   4.207   3.785 -0.5796 -1.5417  1.6401
 3798SOL     OW22855   1.182   4.123   3.179 -0.4136 -0.0737  0.0791
 3798SOL    HW122856   1.174   4.212   3.144 -2.0710 -1.2496 -2.5632
 3798SOL    HW222857   1.177   4.134   3.274 -0.5278 -1.1942  0.1997
 3799SOL     OW22858   2.569   3.451  10.721  0.2217  0.3239 -0.0153
 3799SOL    HW122859   2.535   3.396  10.651  1.1293 -2.0659  1.4082
 3799SOL    HW222860   2.502   3.445  10.788  2.3289  3.2002  2.3527
 3800SOL     OW22861   1.103   1.566   4.224  0.3448 -0.5041  0.0838
 3800SOL    HW122862   1.123   1.564   4.130  0.2636 -0.3148  0.0632
 3800SOL    HW222863   1.162   1.637   4.247 -2.4072  0.9645  2.6012
 3801SOL     OW22864   2.983   0.229  16.805  0.0525  0.5364  0.5207
 3801SOL    HW122865   2.964   0.137  16.785  1.1334  0.3990  0.1685
 3801SOL    HW222866   3.069   0.221  16.764 -1.0907 -1.1874 -1.5589
 3802SOL     OW22867   0.483   0.277   5.530 -0.2785  0.5149  0.4554
 3802SOL    HW122868   0.431   0.318   5.461  1.0021 -0.1640 -0.9226
 3802SOL    HW222869   0.563   0.325   5.507  0.8980 -1.2396  0.8218
 3803SOL     OW22870   1.059   2.230   0.628  0.1869  0.4108  0.4197
 3803SOL    HW122871   1.056   2.253   0.535 -0.7035  0.3806  0.4390
 3803SOL    HW222872   1.039   2.138   0.610 -0.0572  0.3737  0.8749
 3804SOL     OW22873   3.875   2.865   0.331 -0.3284  0.2454  0.0452
 3804SOL    HW122874   3.796   2.849   0.384 -0.6947 -0.8961 -0.8438
 3804SOL    HW222875   3.948   2.816   0.369  0.9869  1.2932 -1.1583
 3805SOL     OW22876   3.357   4.094  12.322  0.1185 -0.1258  0.3544
 3805SOL    HW122877   3.263   4.076  12.316  0.1675 -0.4153  0.4290
 3805SOL    HW222878   3.362   4.141  12.239 -0.6296  0.7052  0.7790
 3806SOL     OW22879   4.524   3.256   3.911 -0.0999 -0.1185 -0.6136
 3806SOL    HW122880   4.432   3.233   3.921 -0.0084  0.1402  0.8072
 3806SOL    HW222881   4.538   3.221   3.823  1.9977  1.3974 -0.8852
 3807SOL     OW22882   2.118   4.074   3.492 -0.0237  0.0936 -0.5466
 3807SOL    HW122883   2.027   4.087   3.519 -0.4441 -3.1808 -0.4705
 3807SOL    HW222884   2.107   4.085   3.397 -0.7343  0.2422 -0.4449
 3808SOL     OW22885   1.275   1.051   5.164 -0.2058 -0.3136  0.1758
 3808SOL    HW122886   1.340   1.017   5.226  0.0027  0.1806  0.2238
 3808SOL    HW222887   1.224   0.973   5.139  2.0584 -2.1762  1.3767
 3809SOL     OW22888   4.461   0.874   8.537 -0.2403 -0.3296  0.4319
 3809SOL    HW122889   4.554   0.892   8.550  0.1644  0.1185 -2.8795
 3809SOL    HW222890   4.472   0.797   8.482 -1.7130  0.6250 -1.2118
 3810SOL     OW22891   3.891   1.754  10.533  0.2862 -0.0626  0.0340
 3810SOL    HW122892   3.818   1.794  10.579 -1.8101 -1.4772 -2.0879
 3810SOL    HW222893   3.853   1.758  10.445 -2.8272  0.7148  1.4211
 3811SOL     OW22894   4.101   0.028  13.665 -0.0824 -0.6247 -0.3695
 3811SOL    HW122895   4.107   0.032  13.760  1.2553  0.0226 -0.4762
 3811SOL    HW222896   4.176   4.692  13.647  0.6386 -0.1505  1.1984
 3812SOL     OW22897   2.440   1.285   2.524  0.7409 -0.4894 -0.4445
 3812SOL    HW122898   2.465   1.258   2.436 -1.3146  0.0554 -1.2053
 3812SOL    HW222899   2.463   1.207   2.575  1.0867 -0.5622 -0.7112
 3813SOL     OW22900   1.832   0.547   7.141  0.3297  0.4062 -0.2648
 3813SOL    HW122901   1.800   0.619   7.086  0.8784 -1.1031 -2.5457
 3813SOL    HW222902   1.752   0.494   7.143  1.3809 -1.1700 -1.0159
 3814SOL     OW22903   0.592   0.623   1.384  0.1120  0.3249 -0.1839
 3814SOL    HW122904   0.651   0.554   1.353 -0.6151 -0.9009  1.1955
 3814SOL    HW222905   0.563   0.591   1.469  2.2261  3.0346  1.5532
 3815SOL     OW22906   0.251   2.747   4.136  0.3790  0.1831 -0.3963
 3815SOL    HW122907   0.232   2.791   4.218  0.0467  0.7588 -0.7836
 3815SOL    HW222908   0.317   2.803   4.095  0.0172  2.1685  1.7501
 3816SOL     OW22909   1.380   3.323   5.356 -0.4208  0.2626  0.1991
 3816SOL    HW122910   1.326   3.244   5.362 -0.3843  0.0859 -1.7980
 3816SOL    HW222911   1.467   3.284   5.353 -0.7958 -0.3720 -2.3497
 3817SOL     OW22912   3.505   4.251   8.177 -0.0874  0.1965  0.0712
 3817SOL    HW122913   3.501   4.296   8.093 -0.0605  1.9627  1.0152
 3817SOL    HW222914   3.411   4.258   8.196  0.1456  2.0089  0.5351
 3818SOL     OW22915   2.727   4.373   5.169  0.0598 -0.2888  0.1840
 3818SOL    HW122916   2.759   4.395   5.256  1.3178  0.3578 -0.4411
 3818SOL    HW222917   2.674   4.295   5.183  1.4219 -0.8633  2.0592
 3819SOL     OW22918   2.613   3.916   7.114  0.6463  0.2843  0.0692
 3819SOL    HW122919   2.525   3.880   7.119  0.4993  0.8171  1.2471
 3819SOL    HW222920   2.652   3.835   7.081 -0.2634 -0.3124  0.4598
 3820SOL     OW22921   4.541   3.892   7.843 -0.6081  0.1842  0.1620
 3820SOL    HW122922   4.620   3.902   7.895  1.3035  0.3991 -2.7840
 3820SOL    HW222923   4.548   3.969   7.787  1.7568 -0.9746 -1.1293
 3821SOL     OW22924   0.896   1.022  11.352  0.1993  0.7696 -0.0362
 3821SOL    HW122925   0.962   1.023  11.283 -0.4936  1.5044 -0.6900
 3821SOL    HW222926   0.816   1.047  11.306  1.2983  1.0813 -1.7574
 3822SOL     OW22927   4.184   0.400  14.482  0.3157 -0.5393  0.4483
 3822SOL    HW122928   4.101   0.356  14.463 -0.3326  0.0781  1.7990
 3822SOL    HW222929   4.170   0.434  14.571  0.7507  1.7242 -0.3525
 3823SOL     OW22930   2.895   2.682   3.192  0.5494  0.1300  0.0891
 3823SOL    HW122931   2.892   2.777   3.188  0.8625  0.1357  0.0182
 3823SOL    HW222932   2.808   2.659   3.226  0.1550  0.2764 -0.7950
 3824SOL     OW22933   0.832   3.576   7.587  0.0516  0.4480  0.5831
 3824SOL    HW122934   0.838   3.672   7.587  1.8409  0.3422  1.1491
 3824SOL    HW222935   0.862   3.566   7.678 -0.4068 -1.0274  0.5701
 3825SOL     OW22936   4.097   1.206   5.911  0.2525 -0.0502 -0.4421
 3825SOL    HW122937   4.169   1.143   5.921 -0.5964 -1.1969 -1.6058
 3825SOL    HW222938   4.068   1.180   5.824 -0.5853  1.9060 -0.7393
 3826SOL     OW22939   2.034   0.514   3.524 -0.4385  0.1017  0.3509
 3826SOL    HW122940   2.100   0.527   3.456  0.1380  0.7436  1.0454
 3826SOL    HW222941   1.975   0.456   3.474 -2.5396  0.5392  2.3154
 3827SOL     OW22942   0.963   2.049   9.625 -0.0236  0.2079  0.0330
 3827SOL    HW122943   0.892   2.112   9.627 -1.8928 -1.8702 -0.3624
 3827SOL    HW222944   0.922   1.978   9.676 -2.3223  1.3317 -0.2386
 3828SOL     OW22945   1.451   3.022   7.801  0.7060 -0.4191  0.9703
 3828SOL    HW122946   1.463   3.117   7.802  2.4004 -0.6275  0.0151
 3828SOL    HW222947   1.533   2.987   7.835  1.1681 -1.6823 -1.4054
 3829SOL     OW22948   2.403   0.095   5.210 -0.0203  0.4272 -0.2942
 3829SOL    HW122949   2.411   0.073   5.117  2.0145  0.1881 -0.0648
 3829SOL    HW222950   2.331   0.159   5.215  0.7411  1.1139  2.0151
 3830SOL     OW22951   2.646   0.781   8.462  0.3752  0.7685  0.3102
 3830SOL    HW122952   2.650   0.777   8.366  1.7119 -5.3636  0.6450
 3830SOL    HW222953   2.690   0.699   8.481 -1.7052 -0.6523 -0.9310
 3831SOL     OW22954   0.028   1.884   7.091 -0.2954  0.1428  0.3918
 3831SOL    HW122955   4.663   1.891   7.132  0.5639  2.9261  1.7161
 3831SOL    HW222956   0.039   1.793   7.063  2.9330  1.2991 -2.0686
 3832SOL     OW22957   2.603   2.447   5.320  0.7139  0.2794  0.1656
 3832SOL    HW122958   2.627   2.358   5.295 -2.7987 -0.0392 -2.0675
 3832SOL    HW222959   2.681   2.502   5.311  0.9875 -0.0225  0.6693
 3833SOL     OW22960   3.604   3.371   2.331 -1.0053 -0.0169  0.6781
 3833SOL    HW122961   3.510   3.355   2.341 -1.2089  0.7884  0.0070
 3833SOL    HW222962   3.608   3.388   2.237  0.5677 -0.6749  0.6247
 3834SOL     OW22963   3.250   2.750   3.749 -0.0552 -0.1464 -0.3701
 3834SOL    HW122964   3.181   2.739   3.684  1.3435  0.3052 -1.9606
 3834SOL    HW222965   3.281   2.659   3.750 -0.9374 -0.4288  1.0306
 3835SOL     OW22966   0.081   1.577  16.892  0.0690  0.4959  0.2748
 3835SOL    HW122967   4.720   1.622  16.907  1.2764  2.2418  1.7353
 3835SOL    HW222968   0.135   1.628  16.831  0.9140 -0.4786  0.1998
 3836SOL     OW22969   3.316   0.639   4.307  0.0468 -0.9075  0.1098
 3836SOL    HW122970   3.220   0.630   4.312 -0.0173 -0.6210 -0.6347
 3836SOL    HW222971   3.342   0.555   4.269  0.0712 -1.5424  1.5275
 3837SOL     OW22972   1.430   3.781  12.509  0.0482  0.6114 -0.6424
 3837SOL    HW122973   1.475   3.697  12.513  2.1384  1.7561 -0.2811
 3837SOL    HW222974   1.378   3.784  12.590  1.1562 -0.3670  0.1044
 3838SOL     OW22975   2.693   1.506  15.511  0.4861  0.1633  0.0032
 3838SOL    HW122976   2.671   1.513  15.418  0.6296  0.5543 -0.0018
 3838SOL    HW222977   2.761   1.440  15.524  0.1847  0.2056  1.7548
 3839SOL     OW22978   1.351   1.719   2.796 -0.0318  0.3042 -0.4195
 3839SOL    HW122979   1.266   1.751   2.766  0.3263  0.8055 -0.8961
 3839SOL    HW222980   1.329   1.626   2.802  0.6169  0.0939 -1.3323
 3840SOL     OW22981   2.098   2.922   8.041 -0.4961  0.5841 -0.0500
 3840SOL    HW122982   2.013   2.915   8.086 -1.2091 -0.3596 -1.5547
 3840SOL    HW222983   2.148   2.937   8.122  1.2841 -0.9253 -0.8707
 3841SOL     OW22984   1.760   1.255  11.788  0.3258  0.6300  0.1683
 3841SOL    HW122985   1.807   1.334  11.813 -1.2823  2.1448 -1.6058
 3841SOL    HW222986   1.831   1.191  11.784 -0.8795 -0.7372  0.4201
 3842SOL     OW22987   0.727   1.303   0.198  0.1724  0.1180 -0.7250
 3842SOL    HW122988   0.804   1.345   0.236 -0.4683  0.0900  0.5961
 3842SOL    HW222989   0.764   1.216   0.186  0.6405 -0.0729  2.0601
 3843SOL     OW22990   3.016   0.866  14.893  0.5639  0.5916 -0.1731
 3843SOL    HW122991   3.050   0.815  14.819 -0.5056 -0.8183  0.3075
 3843SOL    HW222992   3.002   0.951  14.852 -0.3696  0.2768 -0.4987
 3844SOL     OW22993   2.590   3.453   8.397  0.3900  0.9691  0.2909
 3844SOL    HW122994   2.593   3.547   8.376  1.7346  0.9661  0.4712
 3844SOL    HW222995   2.652   3.418   8.333 -1.9865 -0.7044 -1.0856
 3845SOL     OW22996   3.659   0.455   0.865  0.7915 -0.0552  0.8439
 3845SOL    HW122997   3.578   0.486   0.905 -0.9984 -3.5278 -0.1201
 3845SOL    HW222998   3.637   0.486   0.777  0.4361  1.4908  1.4652
 3846SOL     OW22999   3.125   0.057   5.807  0.2140  0.3067 -0.0715
 3846SOL    HW123000   3.103   0.148   5.829 -0.3577 -0.3485  2.0494
 3846SOL    HW223001   3.220   0.064   5.808  0.2097  0.5527 -1.6984
 3847SOL     OW23002   0.565   0.661   7.548  0.6154  0.0265 -0.5254
 3847SOL    HW123003   0.513   0.598   7.598  3.5841 -1.4894  0.6903
 3847SOL    HW223004   0.614   0.690   7.625  1.0718  0.8275 -1.1142
 3848SOL     OW23005   3.078   1.154   3.094 -0.3857 -0.1416 -0.1419
 3848SOL    HW123006   3.092   1.249   3.092 -1.2581  0.0047  0.6225
 3848SOL    HW223007   2.986   1.148   3.120 -0.1263  0.7366  0.9944
 3849SOL     OW23008   1.539   1.490  15.373 -0.6544 -0.1850 -0.4387
 3849SOL    HW123009   1.616   1.434  15.363 -1.6882 -1.7875  0.7109
 3849SOL    HW223010   1.579   1.577  15.378 -1.1485 -0.0107  0.4468
 3850SOL     OW23011   0.839   2.932   2.174  0.5170  0.2559  0.0052
 3850SOL    HW123012   0.892   2.852   2.181 -0.9327 -0.7242 -0.2536
 3850SOL    HW223013   0.802   2.928   2.086  0.3366  3.1370 -0.0282
 3851SOL     OW23014   2.718   0.469  10.576 -0.2101  0.3748  0.5979
 3851SOL    HW123015   2.706   0.429  10.662 -0.2461 -0.1334  0.3549
 3851SOL    HW223016   2.780   0.404  10.545 -1.9447 -2.1836  2.5257
 3852SOL     OW23017   1.871   3.302   5.351  0.8483  0.2575 -0.5059
 3852SOL    HW123018   1.952   3.333   5.312  1.5787 -0.7825  0.1962
 3852SOL    HW223019   1.891   3.215   5.385  0.6819  0.5905  0.4423
 3853SOL     OW23020   2.244   3.944   1.256 -0.4571 -0.0060  0.9321
 3853SOL    HW123021   2.149   3.957   1.249  0.0803  3.0360 -0.3428
 3853SOL    HW223022   2.271   3.976   1.170  2.1039 -0.7936  1.4688
 3854SOL     OW23023   3.179   4.610   8.159 -0.1937 -0.0593 -0.5377
 3854SOL    HW123024   3.134   4.540   8.110 -0.0143  0.2900 -1.2026
 3854SOL    HW223025   3.106   4.638   8.214  0.0245  2.4930 -1.5665
 3855SOL     OW23026   3.706   0.203   3.190 -0.0442  0.7688  0.3542
 3855SOL    HW123027   3.668   0.145   3.124  0.7280 -0.0141  0.5915
 3855SOL    HW223028   3.747   0.130   3.237  2.3163  1.8348 -0.0093
 3856SOL     OW23029   3.921   2.062  12.128  0.2749 -0.1425  0.4530
 3856SOL    HW123030   3.964   1.977  12.128 -0.5972 -0.5863  1.2949
 3856SOL    HW223031   3.996   2.112  12.096  0.6315  0.1428  1.7157
 3857SOL     OW23032   2.921   0.123   0.370 -0.4201 -0.1755  0.2963
 3857SOL    HW123033   2.996   0.158   0.418 -0.0488  0.2775 -0.6347
 3857SOL    HW223034   2.958   0.108   0.284  1.9998 -0.1514  1.3420
 3858SOL     OW23035   4.188   3.892   9.445 -0.2152 -0.6982 -0.3363
 3858SOL    HW123036   4.199   3.979   9.406  1.1147 -1.0222 -0.6737
 3858SOL    HW223037   4.098   3.906   9.474  0.2140 -1.9842  1.5818
 3859SOL     OW23038   1.150   3.919   7.726 -0.3803  0.1355 -0.1690
 3859SOL    HW123039   1.219   3.939   7.789  1.0036 -0.3496 -1.5265
 3859SOL    HW223040   1.156   3.824   7.728 -2.3613 -0.0284 -1.2061
 3860SOL     OW23041   0.452   1.096   4.298  0.4167 -0.4046  0.0259
 3860SOL    HW123042   0.533   1.129   4.339 -0.5070 -1.2369  2.4978
 3860SOL    HW223043   0.416   1.177   4.261 -0.9149 -1.1041 -0.1969
 3861SOL     OW23044   0.751   2.578   5.671 -0.2025  0.3700 -0.3009
 3861SOL    HW123045   0.783   2.669   5.674  0.0295  0.2384  1.6563
 3861SOL    HW223046   0.668   2.573   5.717 -0.6966  0.0231 -1.2422
 3862SOL     OW23047   2.919   1.854   3.581  0.0407 -0.8052 -0.0360
 3862SOL    HW123048   2.926   1.786   3.514  0.3489 -0.9442  0.1349
 3862SOL    HW223049   2.980   1.817   3.645 -1.1261 -1.5283  0.6582
 3863SOL     OW23050   1.336   1.347  10.517  0.3189  0.0427  0.3862
 3863SOL    HW123051   1.390   1.375  10.591  0.8931 -0.4077  0.1372
 3863SOL    HW223052   1.255   1.343  10.568  1.0293 -3.4523  1.1862
 3864SOL     OW23053   3.969   3.611   4.329  0.0045  0.1921 -0.2222
 3864SOL    HW123054   3.924   3.549   4.386 -0.3199  0.3537 -0.2986
 3864SOL    HW223055   3.967   3.558   4.249  0.6567  1.9097 -1.3890
 3865SOL     OW23056   0.366   2.049   5.989  0.0095 -0.5294 -0.4016
 3865SOL    HW123057   0.400   2.091   6.068  1.8592 -2.6347 -0.0812
 3865SOL    HW223058   0.422   1.972   5.980  1.9987  0.8340  0.2554
 3866SOL     OW23059   1.979   2.352   3.137  0.1857 -0.4387 -0.3846
 3866SOL    HW123060   2.012   2.365   3.226  0.8576  0.7271 -0.8025
 3866SOL    HW223061   1.910   2.418   3.134 -0.4918 -0.9699  2.7003
 3867SOL     OW23062   0.871   3.985   2.581  0.4486  0.1409  0.4565
 3867SOL    HW123063   0.823   3.902   2.591  0.2469  0.0484 -1.2098
 3867SOL    HW223064   0.791   4.032   2.559 -0.3679 -1.2898  0.3281
 3868SOL     OW23065   4.505   2.185   5.227 -0.0827 -0.6642  0.1745
 3868SOL    HW123066   4.494   2.133   5.148 -2.9650 -0.5279  0.4766
 3868SOL    HW223067   4.599   2.203   5.231 -0.2429 -0.1753  1.7682
 3869SOL     OW23068   1.456   0.875   8.875 -0.1644 -0.0985 -0.3097
 3869SOL    HW123069   1.542   0.860   8.835 -0.0536  2.8498 -1.1760
 3869SOL    HW223070   1.470   0.809   8.943 -0.6090 -0.1615 -0.2768
 3870SOL     OW23071   2.967   0.239  15.573  0.2797  0.3200  0.1023
 3870SOL    HW123072   3.016   0.309  15.617  0.6012  0.0112  0.2399
 3870SOL    HW223073   2.944   0.286  15.493  0.8751 -1.6412 -1.2319
 3871SOL     OW23074   1.169   1.124   6.063  0.1278  0.0940 -0.1976
 3871SOL    HW123075   1.077   1.098   6.057  0.0861  0.1573  0.1322
 3871SOL    HW223076   1.167   1.122   6.159  1.2377  1.7029 -0.1494
 3872SOL     OW23077   0.687   3.587   9.904 -0.2349  0.7382  0.0420
 3872SOL    HW123078   0.760   3.570   9.964 -1.2621 -1.7184  0.5931
 3872SOL    HW223079   0.631   3.651   9.948 -0.2331 -0.3242  1.5831
 3873SOL     OW23080   4.139   4.091  11.958  0.0755 -0.5380  0.3972
 3873SOL    HW123081   4.113   4.067  11.868  2.6726  1.6129 -0.9182
 3873SOL    HW223082   4.086   4.167  11.980  0.3655  0.2418 -1.6049
 3874SOL     OW23083   0.170   4.596   5.928  0.2878  0.2014 -0.3965
 3874SOL    HW123084   0.146   4.656   5.998  3.6712  2.3725 -1.1228
 3874SOL    HW223085   0.091   4.581   5.875 -0.1753 -2.9876  1.1914
 3875SOL     OW23086   0.810   0.677   5.307  0.2973  0.1963  0.2803
 3875SOL    HW123087   0.807   0.742   5.236  0.4055 -1.4899 -1.2553
 3875SOL    HW223088   0.855   0.734   5.369  1.2314  2.0678 -2.1305
 3876SOL     OW23089   4.561   0.254   3.652  0.0710  0.3088 -0.0634
 3876SOL    HW123090   4.479   0.295   3.678  1.6559  3.0685  0.5780
 3876SOL    HW223091   4.620   0.275   3.724 -0.6883 -0.9839  0.9276
 3877SOL     OW23092   1.406   0.982   5.789  0.2038  0.0066  0.2306
 3877SOL    HW123093   1.427   1.071   5.818  0.1961 -0.6254  2.2194
 3877SOL    HW223094   1.401   1.000   5.695  0.5853 -3.0402 -0.3512
 3878SOL     OW23095   0.340   2.977   8.342 -0.2579 -0.1910 -0.2097
 3878SOL    HW123096   0.403   2.988   8.271  1.0779  0.1924  1.0289
 3878SOL    HW223097   0.366   2.888   8.367  1.1445 -0.0909 -1.3761
 3879SOL     OW23098   0.377   3.073   6.652  0.2716  0.1318 -0.1857
 3879SOL    HW123099   0.375   3.115   6.738  2.4847 -0.0227 -0.0587
 3879SOL    HW223100   0.416   3.142   6.598 -2.0174  0.4809 -1.3906
 3880SOL     OW23101   0.944   0.393   9.574 -0.0169 -0.8572  0.1346
 3880SOL    HW123102   0.947   0.309   9.528 -2.0712 -1.8192  1.7677
 3880SOL    HW223103   0.929   0.376   9.667 -0.8516  2.9353  0.6869
 3881SOL     OW23104   4.249   0.520   4.861 -0.0276 -0.1176  0.4389
 3881SOL    HW123105   4.331   0.525   4.911 -0.4909 -0.9937  1.2997
 3881SOL    HW223106   4.249   0.597   4.804 -1.3235 -0.6501 -0.2877
 3882SOL     OW23107   3.541   2.069   6.597  0.4250  0.2323 -0.1723
 3882SOL    HW123108   3.490   2.094   6.674 -0.3021  1.6610 -1.1190
 3882SOL    HW223109   3.545   1.977   6.623 -2.4854 -0.3182 -1.5949
 3883SOL     OW23110   3.502   1.204   7.049  0.6299 -0.5751 -0.3794
 3883SOL    HW123111   3.413   1.226   7.079  0.8952 -2.1195  1.5564
 3883SOL    HW223112   3.476   1.167   6.964 -1.2264 -0.1120 -0.0282
 3884SOL     OW23113   2.684   2.946   3.010  0.3643  0.0840 -0.5126
 3884SOL    HW123114   2.629   2.902   2.945 -1.9696 -0.7582  2.0407
 3884SOL    HW223115   2.756   2.971   2.952  0.4151 -2.1208 -1.4222
 3885SOL     OW23116   4.481   0.499  14.001  0.3763  0.1914  0.1064
 3885SOL    HW123117   4.523   0.522  13.919  3.9420 -2.1904  1.2465
 3885SOL    HW223118   4.431   0.426  13.964 -0.8608  0.4443  1.2532
 3886SOL     OW23119   1.635   2.154  16.609 -0.7721  0.2510  0.4935
 3886SOL    HW123120   1.617   2.189  16.696 -2.6096  0.2991  0.0996
 3886SOL    HW223121   1.708   2.213  16.587 -0.2590 -1.3004 -1.9146
 3887SOL     OW23122   3.872   1.270   8.397 -0.6088 -0.1455  0.1593
 3887SOL    HW123123   3.865   1.177   8.376  1.0059  0.0744 -1.3787
 3887SOL    HW223124   3.897   1.300   8.310 -2.1455 -2.3806 -1.0488
 3888SOL     OW23125   2.469   4.563  14.491  0.1761  1.0054 -0.0872
 3888SOL    HW123126   2.488   4.575  14.398 -0.4053  0.6662 -0.2537
 3888SOL    HW223127   2.374   4.548  14.483  0.2909  0.8264 -1.1750
 3889SOL     OW23128   3.586   2.885   4.243 -0.6799  0.0921 -0.1268
 3889SOL    HW123129   3.657   2.902   4.181  0.3004 -0.1160  0.9361
 3889SOL    HW223130   3.561   2.971   4.275 -0.5671  0.6534 -1.5431
 3890SOL     OW23131   3.908   2.208   4.466  0.3301 -0.4398 -0.3525
 3890SOL    HW123132   3.818   2.179   4.456  0.6681 -1.9529  0.9857
 3890SOL    HW223133   3.940   2.147   4.532 -0.2048 -1.7567 -1.3098
 3891SOL     OW23134   2.629   1.719   6.634 -0.1609 -0.5767  0.3455
 3891SOL    HW123135   2.725   1.718   6.628 -0.2495 -0.4981 -1.1321
 3891SOL    HW223136   2.610   1.628   6.659  0.4925 -1.6386 -2.9315
 3892SOL     OW23137   3.274   2.332  14.072  0.3277  0.2205  0.2841
 3892SOL    HW123138   3.261   2.426  14.059 -1.8373 -0.0973  0.1915
 3892SOL    HW223139   3.318   2.335  14.157  2.2925  0.1266 -0.7165
 3893SOL     OW23140   0.763   1.140   9.186  0.6947 -0.0035  0.1954
 3893SOL    HW123141   0.799   1.052   9.185  1.5470  0.3367  2.7335
 3893SOL    HW223142   0.846   1.187   9.183  0.6646 -0.0139 -0.7529
 3894SOL     OW23143   2.177   1.125  11.502  0.0418  0.8285 -0.1594
 3894SOL    HW123144   2.231   1.151  11.427  3.5332 -1.2610  1.6319
 3894SOL    HW223145   2.252   1.108  11.559 -0.3604 -1.0281 -0.1932
 3895SOL     OW23146   4.519   2.515   1.034 -0.4275  0.1333  0.0539
 3895SOL    HW123147   4.568   2.574   1.091  1.7462  0.6963 -2.3871
 3895SOL    HW223148   4.580   2.442   1.024 -1.7392 -0.5646 -3.1706
 3896SOL     OW23149   4.430   3.396   8.527 -0.4702  0.1778 -0.5060
 3896SOL    HW123150   4.335   3.386   8.528 -0.3993 -0.5313 -0.4392
 3896SOL    HW223151   4.436   3.491   8.540 -0.3112 -0.4119  3.7903
 3897SOL     OW23152   3.081   1.928   5.629  0.1188  0.7391 -0.2658
 3897SOL    HW123153   3.084   2.017   5.665  0.2250 -0.4407  2.6876
 3897SOL    HW223154   3.054   1.951   5.540 -0.3850  1.2287  0.0133
 3898SOL     OW23155   2.877   2.869   5.367 -0.3645  0.1303 -0.2554
 3898SOL    HW123156   2.970   2.880   5.387 -0.8833  1.5978  1.3935
 3898SOL    HW223157   2.845   2.958   5.353 -2.9099 -0.2513  3.0838
 3899SOL     OW23158   4.677   3.707   9.638  0.0317 -0.1585  0.3041
 3899SOL    HW123159   4.628   3.634   9.599 -0.3490  0.0540  0.3859
 3899SOL    HW223160   4.714   3.669   9.717 -1.5580 -0.7322  0.7718
 3900SOL     OW23161   0.848   4.161  11.236  0.2036 -0.2907 -0.2768
 3900SOL    HW123162   0.780   4.183  11.299  1.7144 -0.0108  1.2699
 3900SOL    HW223163   0.797   4.105  11.177  1.7021  2.0538 -3.8272
 3901SOL     OW23164   0.011   1.108   2.636  0.0859 -0.7402 -0.0785
 3901SOL    HW123165   0.104   1.114   2.614  0.3775  0.2894  1.3924
 3901SOL    HW223166   0.011   1.159   2.717 -2.4420  1.0415 -1.1982
 3902SOL     OW23167   2.668   1.017   3.323 -0.4389 -0.1106 -0.1496
 3902SOL    HW123168   2.700   1.045   3.237  0.7175 -0.3601  0.2096
 3902SOL    HW223169   2.655   1.099   3.370 -0.3174  0.0189 -0.3431
 3903SOL     OW23170   1.993   3.228   8.990  0.2843 -0.0000 -0.4384
 3903SOL    HW123171   1.972   3.321   8.981  1.9770  0.5557  1.4315
 3903SOL    HW223172   1.914   3.192   8.949 -0.4482  0.0349  0.9416
 3904SOL     OW23173   4.235   2.037   4.400  0.6614 -0.0093 -0.0203
 3904SOL    HW123174   4.192   2.032   4.315  0.6360 -3.5574  0.1971
 3904SOL    HW223175   4.322   2.071   4.379  0.6624  0.4790  0.7957
 3905SOL     OW23176   4.388   2.509  16.808 -0.1266 -0.0579 -0.0184
 3905SOL    HW123177   4.303   2.545  16.783  1.1076  1.9639 -1.2826
 3905SOL    HW223178   4.394   2.553  16.892  0.7160 -2.9799  1.4746
 3906SOL     OW23179   0.832   0.940  16.227 -0.1104 -0.3398 -0.0036
 3906SOL    HW123180   0.825   0.870  16.162 -1.3232 -0.8251  0.6298
 3906SOL    HW223181   0.924   0.936  16.251  0.2168  0.7867 -1.0793
 3907SOL     OW23182   0.243   0.424   9.066 -0.0364  0.2311  0.6422
 3907SOL    HW123183   0.314   0.465   9.115 -0.8472  1.1724  1.0130
 3907SOL    HW223184   0.173   0.448   9.125  1.1081  2.9060  0.9107
 3908SOL     OW23185   2.758   1.785  11.041  0.3907 -0.1041  0.4663
 3908SOL    HW123186   2.794   1.772  10.953  0.9229  1.6859  0.4127
 3908SOL    HW223187   2.714   1.869  11.035  2.0357  0.8170  1.3343
 3909SOL     OW23188   3.068   4.135   9.505 -0.4862  0.2589  0.3488
 3909SOL    HW123189   3.037   4.223   9.522 -0.5813  0.4740 -0.9213
 3909SOL    HW223190   3.133   4.121   9.574  0.1364 -0.1499 -0.3220
 3910SOL     OW23191   3.485   1.469  14.635  0.0177 -0.2806 -0.3033
 3910SOL    HW123192   3.417   1.404  14.616 -0.1803 -0.2441  0.2781
 3910SOL    HW223193   3.555   1.418  14.675  1.6852  3.7317  1.8861
 3911SOL     OW23194   3.714   1.328   4.473 -0.0881  0.2872 -0.3555
 3911SOL    HW123195   3.715   1.287   4.386 -4.5795 -1.2684  0.3451
 3911SOL    HW223196   3.666   1.410   4.473 -0.5914 -0.0109 -0.6224
 3912SOL     OW23197   3.180   4.588   3.632  0.2179  0.0388  0.2190
 3912SOL    HW123198   3.195   4.498   3.603 -0.3421  0.0885 -0.2307
 3912SOL    HW223199   3.198   4.629   3.547 -0.6394  0.6403  0.3334
 3913SOL     OW23200   3.767   0.908   3.753 -0.0230  0.0912 -0.2106
 3913SOL    HW123201   3.752   0.848   3.826 -0.2043  0.2466 -0.1181
 3913SOL    HW223202   3.844   0.871   3.711  0.8424  0.5858  0.9155
 3914SOL     OW23203   2.713   3.925  11.324  0.1192  0.4412  0.2685
 3914SOL    HW123204   2.684   3.971  11.402  0.0226 -1.7290  1.5020
 3914SOL    HW223205   2.655   3.958  11.256 -0.4190 -2.5607 -0.7298
 3915SOL     OW23206   1.842   4.709   9.749 -0.1152  0.5284 -0.1043
 3915SOL    HW123207   1.800   4.691   9.833  0.4164  1.9570  0.4760
 3915SOL    HW223208   1.797   0.065   9.717 -1.8766  0.0092  1.0995
 3916SOL     OW23209   0.429   2.881   5.911 -0.0759  0.2736 -0.1135
 3916SOL    HW123210   0.459   2.808   5.965 -1.1461 -0.0816 -0.0014
 3916SOL    HW223211   0.378   2.845   5.838  2.3750 -1.7129 -0.8662
 3917SOL     OW23212   1.289   4.534   8.228  0.2541  0.8131 -0.5475
 3917SOL    HW123213   1.232   4.610   8.240 -1.0884 -0.4762  1.1583
 3917SOL    HW223214   1.374   4.578   8.223  1.0622 -0.4960  1.8998
 3918SOL     OW23215   0.708   2.300   9.360  0.7149  0.6787 -0.3369
 3918SOL    HW123216   0.701   2.223   9.415  2.0583  0.0718 -1.0084
 3918SOL    HW223217   0.775   2.352   9.404 -0.5395  2.0124  0.0165
 3919SOL     OW23218   0.064   2.650  17.465  0.4107  0.3071 -0.5989
 3919SOL    HW123219   0.033   2.678  17.551 -1.0958  0.0190 -1.0459
 3919SOL    HW223220   0.021   2.565  17.459  2.1390 -0.6646  0.5331
 3920SOL     OW23221   3.694   4.233   3.450  0.4894 -0.2463  0.9124
 3920SOL    HW123222   3.694   4.143   3.482  0.7834 -0.1180  1.2703
 3920SOL    HW223223   3.630   4.274   3.508 -1.6309 -2.3711  0.0460
 3921SOL     OW23224   1.924   2.910  14.650 -0.3214 -0.5460 -0.2114
 3921SOL    HW123225   1.988   2.862  14.597  0.6793  1.0535 -0.4495
 3921SOL    HW223226   1.851   2.906  14.588  0.4084 -0.2065 -1.0902
 3922SOL     OW23227   0.568   0.363   2.809  0.4336 -0.0133  0.4696
 3922SOL    HW123228   0.616   0.436   2.848 -0.1491 -0.0588  1.2789
 3922SOL    HW223229   0.484   0.367   2.855 -1.0290  0.0583 -2.1939
 3923SOL     OW23230   3.292   4.425   2.716 -0.0293  0.4224 -0.1878
 3923SOL    HW123231   3.267   4.396   2.628  3.1122 -0.3500 -0.8293
 3923SOL    HW223232   3.218   4.482   2.739 -0.5749  0.7055 -2.6824
 3924SOL     OW23233   2.436   1.633   6.090  0.1046 -0.1060  0.1773
 3924SOL    HW123234   2.472   1.558   6.138  1.4021  0.2899 -0.1795
 3924SOL    HW223235   2.424   1.684   6.169 -0.9808 -0.6242  0.3396
 3925SOL     OW23236   1.542   1.037  12.452 -0.6395 -0.6503 -0.3668
 3925SOL    HW123237   1.557   1.115  12.399  2.5689 -1.3335 -0.4589
 3925SOL    HW223238   1.628   1.037  12.494 -0.1978  0.6622 -1.2837
 3926SOL     OW23239   4.193   4.323   3.889 -0.9760  0.2109 -0.2872
 3926SOL    HW123240   4.239   4.350   3.969 -3.1310  0.1903  0.9598
 3926SOL    HW223241   4.227   4.234   3.886 -0.3856  0.3828  0.9378
 3927SOL     OW23242   4.484   4.346  10.872  0.1945 -0.5463  0.1359
 3927SOL    HW123243   4.401   4.394  10.879  0.1016 -0.5700 -0.7420
 3927SOL    HW223244   4.533   4.395  10.938 -2.1199  0.4354  1.1315
 3928SOL     OW23245   0.836   3.670   4.184 -0.3277  0.8232 -0.1973
 3928SOL    HW123246   0.752   3.706   4.214  0.1602 -0.3146  2.5556
 3928SOL    HW223247   0.861   3.752   4.140 -0.5526  0.4262 -1.0629
 3929SOL     OW23248   4.108   3.692  12.793  0.0379  0.0765 -0.1579
 3929SOL    HW123249   4.055   3.760  12.835 -0.5094 -0.5005  0.0923
 3929SOL    HW223250   4.097   3.624  12.860  0.2761 -0.1589 -0.3562
 3930SOL     OW23251   0.272   1.646   8.928 -0.0430 -0.1198  0.0738
 3930SOL    HW123252   0.278   1.603   9.013 -0.0544 -0.4677 -0.1009
 3930SOL    HW223253   0.239   1.732   8.952  2.6956  0.8953  0.1751
 3931SOL     OW23254   3.746   4.173   5.799  0.4031  1.1675  0.3047
 3931SOL    HW123255   3.659   4.174   5.840 -0.9510  0.8947 -2.4906
 3931SOL    HW223256   3.732   4.231   5.724 -0.3513  1.0419  0.3453
 3932SOL     OW23257   1.638   1.697  16.476  0.4676 -0.2744 -0.3123
 3932SOL    HW123258   1.557   1.684  16.427  2.4509 -1.1800 -3.3207
 3932SOL    HW223259   1.658   1.608  16.506  1.8850 -0.1898 -1.0106
 3933SOL     OW23260   2.270   1.486   3.902 -0.0106 -0.2817  0.4408
 3933SOL    HW123261   2.235   1.424   3.838 -0.1569  0.0573  0.1931
 3933SOL    HW223262   2.296   1.437   3.980  2.8692 -1.6038 -1.3431
 3934SOL     OW23263   0.995   1.240   0.624 -0.2828 -0.3743  0.3830
 3934SOL    HW123264   0.938   1.179   0.576 -2.9340 -0.4748  3.6526
 3934SOL    HW223265   1.059   1.190   0.673 -0.3547 -0.0991  0.7609
 3935SOL     OW23266   2.754   0.324  10.271  0.1860  0.0545  0.0768
 3935SOL    HW123267   2.842   0.357  10.289  1.7153 -2.3546 -2.9669
 3935SOL    HW223268   2.751   0.236  10.308 -1.2930 -0.0125 -0.2086
 3936SOL     OW23269   0.748   3.998   1.497  0.8520  0.4073  0.7282
 3936SOL    HW123270   0.714   3.912   1.470  0.5755  0.2667  1.5039
 3936SOL    HW223271   0.662   4.030   1.522  0.1192  0.3742 -1.7157
 3937SOL     OW23272   4.010   4.137   6.411 -0.4053 -0.1759  0.2131
 3937SOL    HW123273   3.923   4.099   6.393 -1.5466  3.4589 -1.8903
 3937SOL    HW223274   4.057   4.107   6.334  1.2674  2.4875  0.2165
 3938SOL     OW23275   2.600   0.560   8.248 -0.0557 -0.4591 -0.6460
 3938SOL    HW123276   2.505   0.551   8.237 -0.1508 -0.2904  0.0199
 3938SOL    HW223277   2.613   0.600   8.162 -2.4383  2.8575  0.5081
 3939SOL     OW23278   1.725   1.196   3.948  0.0434 -0.2052  0.0431
 3939SOL    HW123279   1.708   1.256   4.021 -0.9084  0.9314 -1.1188
 3939SOL    HW223280   1.729   1.113   3.995  0.4985 -1.0128 -1.4444
 3940SOL     OW23281   2.409   2.945  10.359 -0.0275  0.2444 -0.5241
 3940SOL    HW123282   2.473   2.880  10.389 -1.1878 -0.6501  0.0281
 3940SOL    HW223283   2.382   2.904  10.277 -0.9553 -0.6309  0.2117
 3941SOL     OW23284   0.644   1.135   7.661 -0.1631  0.2221 -0.6461
 3941SOL    HW123285   0.579   1.069   7.684  0.0660  0.2217 -0.0270
 3941SOL    HW223286   0.596   1.218   7.655 -0.1593  0.2802  0.1648
 3942SOL     OW23287   0.164   3.665   9.434  0.1307 -0.3983 -0.5855
 3942SOL    HW123288   0.095   3.625   9.382  0.1253 -0.6470 -0.3884
 3942SOL    HW223289   0.208   3.588   9.470 -0.4720 -1.3770 -1.9532
 3943SOL     OW23290   3.713   1.979   3.301  0.4116  0.2267 -0.0384
 3943SOL    HW123291   3.679   1.935   3.223 -0.4256  1.4739 -0.3873
 3943SOL    HW223292   3.801   2.001   3.271  0.3619 -0.1539 -0.4635
 3944SOL     OW23293   1.711   4.455   5.845  0.3194  0.2399 -0.2847
 3944SOL    HW123294   1.636   4.409   5.884  1.1177 -0.2614  0.6707
 3944SOL    HW223295   1.784   4.393   5.852 -0.7682 -0.9025  0.8871
 3945SOL     OW23296   3.008   3.060  12.271 -0.0305  0.3706 -0.0538
 3945SOL    HW123297   3.076   3.070  12.338 -1.4913  1.3002  1.2781
 3945SOL    HW223298   3.014   3.148  12.233  0.6388 -1.1640 -3.5226
 3946SOL     OW23299   1.515   1.711   5.722  0.1214 -0.6812  0.0785
 3946SOL    HW123300   1.453   1.772   5.761  2.9875  1.2914  1.5827
 3946SOL    HW223301   1.595   1.743   5.763  0.6174  0.2837 -1.6073
 3947SOL     OW23302   0.217   0.266   4.664  0.7039  0.1816  0.6485
 3947SOL    HW123303   0.285   0.274   4.597  3.2212  1.0583  3.3530
 3947SOL    HW223304   0.138   0.247   4.612  0.6635  1.5298  0.2181
 3948SOL     OW23305   1.558   3.032   5.138 -0.1362 -0.1741  0.2349
 3948SOL    HW123306   1.599   2.987   5.212  2.3801  0.2211 -0.9249
 3948SOL    HW223307   1.593   3.122   5.137  0.3831 -0.3680  1.3084
 3949SOL     OW23308   4.608   0.230   8.995 -0.6055  0.0606  0.3823
 3949SOL    HW123309   4.531   0.285   8.981  0.2937  0.6961 -1.9952
 3949SOL    HW223310   4.584   0.183   9.075  1.1351  1.1040  1.5292
 3950SOL     OW23311   2.140   3.515   6.385 -0.1073  0.4524  0.0477
 3950SOL    HW123312   2.116   3.519   6.293 -1.5377 -2.0783  0.3047
 3950SOL    HW223313   2.064   3.545   6.436  0.8846  1.2556  1.0679
 3951SOL     OW23314   3.968   0.366  12.270 -0.4674 -0.2788 -0.0638
 3951SOL    HW123315   3.988   0.460  12.267  0.0945 -0.3447  1.2633
 3951SOL    HW223316   3.905   0.357  12.199 -0.2949  0.5999 -0.3246
 3952SOL     OW23317   3.461   3.287  13.648 -0.2138 -0.1286 -0.4128
 3952SOL    HW123318   3.463   3.218  13.582  1.3532 -0.7106  0.2442
 3952SOL    HW223319   3.522   3.256  13.714 -2.5476 -1.3082  1.2088
 3953SOL     OW23320   1.260   1.454  14.724  0.3519 -0.3843 -0.3462
 3953SOL    HW123321   1.203   1.525  14.694  0.1644 -0.5564 -0.3972
 3953SOL    HW223322   1.230   1.385  14.666  2.3083 -1.9052  0.4404
 3954SOL     OW23323   1.831   0.983  10.828 -0.1021 -0.1460 -0.4720
 3954SOL    HW123324   1.872   1.069  10.825  0.6854 -0.4698  1.0135
 3954SOL    HW223325   1.888   0.935  10.769  1.0839 -0.6486  1.0729
 3955SOL     OW23326   1.543   2.162   0.879 -0.2926  0.1776  0.3490
 3955SOL    HW123327   1.458   2.201   0.896 -0.3030 -0.1908  1.1245
 3955SOL    HW223328   1.531   2.074   0.914 -0.7287 -0.6010 -1.7653
 3956SOL     OW23329   2.578   2.391  16.535  0.7387  0.3955 -0.5342
 3956SOL    HW123330   2.635   2.315  16.532  0.8674  0.4557  0.6735
 3956SOL    HW223331   2.506   2.368  16.475 -0.9712 -1.4061  2.1666
 3957SOL     OW23332   1.794   2.047   6.794 -0.0307  0.2133  0.0090
 3957SOL    HW123333   1.801   2.065   6.700  0.9557 -0.8407 -0.1253
 3957SOL    HW223334   1.714   1.997   6.804 -0.8873  1.4966 -0.3951
 3958SOL     OW23335   2.971   0.448   0.332 -0.3457 -0.2411 -0.5991
 3958SOL    HW123336   3.010   0.490   0.409 -0.3517  0.5938 -1.0512
 3958SOL    HW223337   2.890   0.420   0.375 -0.5898  0.9268 -0.2775
 3959SOL     OW23338   2.425   2.086   2.003  0.0987 -0.1587  0.0803
 3959SOL    HW123339   2.433   2.161   2.061 -1.3723 -0.9266  1.3027
 3959SOL    HW223340   2.461   2.128   1.925 -0.3759 -0.6051 -0.3750
 3960SOL     OW23341   4.511   0.172   1.452 -0.2637 -0.1274 -0.1509
 3960SOL    HW123342   4.519   0.110   1.380 -2.9991 -0.0433 -0.5152
 3960SOL    HW223343   4.590   0.223   1.434 -1.7385  2.2172 -0.0446
 3961SOL     OW23344   4.433   1.208   0.250  0.1000 -0.3506 -0.4420
 3961SOL    HW123345   4.366   1.242   0.309  1.7442  1.6998  0.2364
 3961SOL    HW223346   4.455   1.126   0.295 -1.8747 -0.4269  0.3690
 3962SOL     OW23347   2.364   2.411   0.360 -0.5502 -0.2578  0.3834
 3962SOL    HW123348   2.376   2.501   0.329 -2.3296 -0.0733  0.2116
 3962SOL    HW223349   2.455   2.388   0.378 -0.4598 -1.0842 -1.1439
 3963SOL     OW23350   2.892   1.516   6.143 -0.1781  0.7973  0.4232
 3963SOL    HW123351   2.863   1.513   6.052  0.5147 -0.9259  0.2636
 3963SOL    HW223352   2.983   1.545   6.133  0.6182 -1.4530  1.2813
 3964SOL     OW23353   3.403   3.571   3.483  0.4084 -0.1872  0.4007
 3964SOL    HW123354   3.399   3.538   3.573 -0.4676  0.3166  0.5376
 3964SOL    HW223355   3.394   3.664   3.503 -0.2950  0.1038 -1.3157
 3965SOL     OW23356   4.321   3.372   4.237 -0.0118 -0.5881 -0.2176
 3965SOL    HW123357   4.280   3.286   4.240 -0.0685 -0.5541 -0.0127
 3965SOL    HW223358   4.366   3.365   4.321  1.2485  0.4622 -0.8050
 3966SOL     OW23359   1.973   1.471   8.577  0.6442 -0.4008 -0.4523
 3966SOL    HW123360   1.891   1.517   8.597  0.5108 -0.4854 -0.8053
 3966SOL    HW223361   2.031   1.481   8.653 -0.2215  0.0355  0.1507
 3967SOL     OW23362   3.035   2.831   9.548  0.0789  0.2351 -0.1327
 3967SOL    HW123363   3.130   2.820   9.537  0.3900  2.3490  0.4857
 3967SOL    HW223364   3.004   2.832   9.458 -1.2306  1.2851  0.3393
 3968SOL     OW23365   1.601   2.941  14.155 -0.1412 -0.1838 -0.3934
 3968SOL    HW123366   1.611   2.962  14.248  3.9697 -0.3759 -0.7996
 3968SOL    HW223367   1.687   2.909  14.128 -0.0743  0.3940 -0.8652
 3969SOL     OW23368   0.567   2.592   1.056  0.1554  0.2720 -0.1481
 3969SOL    HW123369   0.640   2.531   1.064  1.3111  1.6614 -0.0723
 3969SOL    HW223370   0.515   2.550   1.125  1.0870 -1.8413 -0.7151
 3970SOL     OW23371   3.199   3.622   3.272  0.3482  0.0227 -0.3739
 3970SOL    HW123372   3.157   3.695   3.318 -2.1498 -0.6531 -1.5762
 3970SOL    HW223373   3.257   3.583   3.337 -0.2223  0.0702  0.1643
 3971SOL     OW23374   2.376   2.663   9.359 -0.1082  0.3617 -0.2882
 3971SOL    HW123375   2.370   2.568   9.375 -2.5123  0.2559 -1.7711
 3971SOL    HW223376   2.460   2.683   9.319  1.7628 -2.6251  2.1323
 3972SOL     OW23377   1.765   2.344   3.625  0.3019 -0.1003 -0.0710
 3972SOL    HW123378   1.773   2.276   3.691  0.6371  0.4282  0.4320
 3972SOL    HW223379   1.769   2.298   3.541 -1.0514 -0.8967  0.3051
 3973SOL     OW23380   1.888   3.011   4.867 -0.5696  0.4636 -0.0413
 3973SOL    HW123381   1.899   2.998   4.961 -1.4768 -0.6243 -0.0918
 3973SOL    HW223382   1.942   3.084   4.837 -0.5884  0.6684  0.4318
 3974SOL     OW23383   1.588   0.482   6.009  0.2737 -0.0368 -0.7684
 3974SOL    HW123384   1.681   0.490   6.029  0.2803 -2.8489  0.3570
 3974SOL    HW223385   1.584   0.492   5.914  0.4436  0.8475 -0.6811
 3975SOL     OW23386   0.538   4.402   4.709  0.6357 -0.0284  0.4657
 3975SOL    HW123387   0.595   4.410   4.634 -0.0936 -2.0712 -0.3144
 3975SOL    HW223388   0.461   4.442   4.669  0.3607 -0.2214  0.7933
 3976SOL     OW23389   3.327   3.297   5.741 -0.0056  0.0787  0.2706
 3976SOL    HW123390   3.385   3.222   5.752  1.2029  1.3371  2.4022
 3976SOL    HW223391   3.296   3.291   5.650  0.8652 -1.0619  0.0533
 3977SOL     OW23392   0.274   2.722   2.505  0.2633 -0.4849 -0.2712
 3977SOL    HW123393   0.189   2.678   2.499  0.1834 -0.1936 -1.1334
 3977SOL    HW223394   0.248   2.795   2.449  0.0586  0.7156  1.3707
 3978SOL     OW23395   1.520   0.915   7.862  1.0627  0.0801  0.3644
 3978SOL    HW123396   1.536   0.982   7.796  0.2573  1.3060  1.4100
 3978SOL    HW223397   1.430   0.944   7.877  0.7821 -0.3913 -0.4262
 3979SOL     OW23398   2.776   2.945   0.742  0.3442  0.2157  0.0681
 3979SOL    HW123399   2.794   2.857   0.776  0.5857 -0.2076 -1.1503
 3979SOL    HW223400   2.710   2.939   0.673 -0.1231  0.4973  0.4855
 3980SOL     OW23401   2.253   3.729   9.959 -0.6031 -0.0841  0.5281
 3980SOL    HW123402   2.203   3.649   9.976  0.0556 -0.3864  1.0417
 3980SOL    HW223403   2.315   3.726  10.031 -0.3491 -1.7990  0.2387
 3981SOL     OW23404   3.559   3.420   8.934  0.4941 -0.4350 -0.3595
 3981SOL    HW123405   3.484   3.398   8.989  0.3857  0.8891  0.0293
 3981SOL    HW223406   3.515   3.472   8.866  1.2264  2.9603  1.7569
 3982SOL     OW23407   2.378   0.977   5.330 -0.1361 -0.0663  0.0405
 3982SOL    HW123408   2.350   1.001   5.241  4.4058 -1.9614 -1.8577
 3982SOL    HW223409   2.440   1.048   5.346  1.4226 -1.5975  0.6875
 3983SOL     OW23410   1.589   2.487  16.827 -0.3511  0.0811  0.1370
 3983SOL    HW123411   1.675   2.457  16.797 -0.6582 -0.9776  0.3307
 3983SOL    HW223412   1.555   2.401  16.852 -0.7351  0.0841 -0.3837
 3984SOL     OW23413   0.916   3.909   1.708  0.2754 -0.7193 -0.3215
 3984SOL    HW123414   0.881   3.949   1.628  0.4078 -0.3113 -0.1737
 3984SOL    HW223415   0.855   3.944   1.774 -1.2292  0.6087 -2.4115
 3985SOL     OW23416   0.684   1.681   1.015 -0.0593 -0.5304  0.2259
 3985SOL    HW123417   0.672   1.727   1.097 -2.2810 -0.6266 -0.0444
 3985SOL    HW223418   0.608   1.623   1.016  0.3985 -1.1373 -0.0795
 3986SOL     OW23419   1.155   1.276  13.197 -0.2874 -0.1359  0.1462
 3986SOL    HW123420   1.172   1.209  13.264  0.0980 -0.6846 -0.4957
 3986SOL    HW223421   1.228   1.337  13.213  0.4954 -1.3339  1.1946
 3987SOL     OW23422   0.533   0.075   0.557  0.8022 -0.4256 -0.4416
 3987SOL    HW123423   0.444   0.041   0.562  0.9660 -0.7069  0.5395
 3987SOL    HW223424   0.503   0.147   0.502  1.6286 -0.2465 -0.6602
 3988SOL     OW23425   1.152   1.793  12.098 -0.0432  0.3023  0.1826
 3988SOL    HW123426   1.101   1.852  12.153 -0.5304 -1.1077  1.2417
 3988SOL    HW223427   1.238   1.835  12.109 -0.0771  0.3993  0.0725
 3989SOL     OW23428   2.419   3.740   8.180  0.0657  0.2028 -0.6859
 3989SOL    HW123429   2.403   3.669   8.118 -0.5845  0.3808 -0.7192
 3989SOL    HW223430   2.328   3.749   8.207  0.1648  2.1300 -1.0030
 3990SOL     OW23431   3.152   2.992   0.365  0.4817 -0.1506  0.1621
 3990SOL    HW123432   3.074   2.979   0.312 -0.5703 -1.3359  2.0436
 3990SOL    HW223433   3.215   3.009   0.295 -1.0204 -0.0504 -1.1643
 3991SOL     OW23434   4.384   0.049   4.950  0.3573 -0.4630 -0.1209
 3991SOL    HW123435   4.332   4.696   4.922  0.8757 -0.6286 -0.6427
 3991SOL    HW223436   4.360   0.110   4.881  1.7070 -1.7289 -1.7139
 3992SOL     OW23437   4.300   2.014   8.677  0.4189  0.2626  0.5974
 3992SOL    HW123438   4.262   1.926   8.676  0.4233  0.2300  3.2161
 3992SOL    HW223439   4.359   2.011   8.752  2.0692 -2.3521 -0.8348
 3993SOL     OW23440   3.740   3.633   8.824 -0.2696 -0.0773 -0.1588
 3993SOL    HW123441   3.827   3.657   8.793 -0.2455 -1.6710 -1.3506
 3993SOL    HW223442   3.748   3.599   8.913 -0.1606 -1.1932 -0.5967
 3994SOL     OW23443   0.540   1.745  11.202 -0.2214 -0.0053  0.2274
 3994SOL    HW123444   0.603   1.674  11.202  0.8932  0.9876  0.9203
 3994SOL    HW223445   0.588   1.799  11.139  0.1820  0.1202  0.6435
 3995SOL     OW23446   1.829   1.702   7.837  0.1580 -0.1090 -0.1323
 3995SOL    HW123447   1.758   1.687   7.899  0.3433  0.5503  0.2427
 3995SOL    HW223448   1.861   1.618   7.803 -0.6115 -0.0893 -0.8855
 3996SOL     OW23449   4.401   1.054   6.285 -0.2409 -0.2290  0.1509
 3996SOL    HW123450   4.441   1.102   6.358 -0.5789  1.1606 -0.5650
 3996SOL    HW223451   4.471   0.990   6.280  0.2515  0.2322  1.0890
 3997SOL     OW23452   4.615   3.181   4.510  0.3315  0.2212 -0.6718
 3997SOL    HW123453   4.627   3.159   4.417  1.1624  0.8244 -0.7144
 3997SOL    HW223454   4.578   3.110   4.561  0.9596  0.0138 -0.4991
 3998SOL     OW23455   3.420   0.385   1.338  0.0239 -0.7150 -0.3640
 3998SOL    HW123456   3.327   0.386   1.361 -0.1142  1.0946 -1.0245
 3998SOL    HW223457   3.443   0.476   1.357 -2.2841  0.0386 -1.2328
 3999SOL     OW23458   3.570   3.025   8.385 -0.0339  0.5625 -0.0752
 3999SOL    HW123459   3.498   2.961   8.380  0.5876 -0.0221 -1.5076
 3999SOL    HW223460   3.525   3.110   8.390  0.2525  0.6753  0.6226
 4000SOL     OW23461   2.762   2.086   3.665 -0.2069  0.0627 -0.1604
 4000SOL    HW123462   2.744   1.999   3.699  3.1280 -0.6931 -0.3336
 4000SOL    HW223463   2.831   2.071   3.600  0.4129  1.1788  0.2465
 4001SOL     OW23464   0.629   4.572   0.657  0.3385  0.2455 -0.0224
 4001SOL    HW123465   0.631   4.647   0.596 -2.9313 -0.2567 -0.7730
 4001SOL    HW223466   0.549   4.600   0.701  1.0920 -0.1710  1.5798
 4002SOL     OW23467   1.486   3.547  12.077 -0.2607 -0.4032 -0.3924
 4002SOL    HW123468   1.579   3.529  12.093  0.0493  2.7604  1.4989
 4002SOL    HW223469   1.480   3.498  11.996 -0.2268  1.9288 -1.8193
 4003SOL     OW23470   2.134   2.416   8.948 -0.7221 -0.0963 -0.2809
 4003SOL    HW123471   2.196   2.479   8.985 -1.3154 -0.6356  1.6660
 4003SOL    HW223472   2.134   2.358   9.025 -1.0595 -1.3226 -1.1937
 4004SOL     OW23473   1.779   1.787  17.578  0.1482  0.1885 -0.0962
 4004SOL    HW123474   1.756   1.836  17.498 -1.0131 -0.3675 -0.1047
 4004SOL    HW223475   1.852   1.732  17.550 -0.7510 -1.0427 -0.0301
 4005SOL     OW23476   3.914   1.933   5.924  0.3899  0.1189  0.2120
 4005SOL    HW123477   3.991   1.877   5.912 -0.6866 -1.5901  1.3178
 4005SOL    HW223478   3.851   1.863   5.938  1.7352 -0.7786  1.7280
 4006SOL     OW23479   1.095   0.622   4.314 -0.1068 -0.0021  0.1697
 4006SOL    HW123480   1.156   0.673   4.260 -0.4717 -0.8246 -1.0170
 4006SOL    HW223481   1.056   0.696   4.361  1.1301  2.7080 -3.0442
 4007SOL     OW23482   3.021   3.092   0.807  0.3178 -0.0866 -0.6150
 4007SOL    HW123483   2.933   3.063   0.787  0.1044  0.8769 -1.0911
 4007SOL    HW223484   3.042   3.039   0.884 -0.3342 -1.4775 -1.4057
 4008SOL     OW23485   2.652   1.583   7.188  0.0079 -0.1426 -0.2854
 4008SOL    HW123486   2.696   1.648   7.134 -1.0965 -0.1680 -1.2154
 4008SOL    HW223487   2.581   1.635   7.227  0.0105 -1.1127  1.0427
 4009SOL     OW23488   1.779   1.653  14.217 -0.4165  0.5298 -0.6942
 4009SOL    HW123489   1.784   1.574  14.271 -1.0297  1.9157  1.3780
 4009SOL    HW223490   1.840   1.711  14.262 -0.8409  1.2608 -1.0686
 4010SOL     OW23491   0.380   0.679   0.545 -0.5495 -0.6279  0.0495
 4010SOL    HW123492   0.395   0.707   0.635 -1.5724 -1.4597  0.4880
 4010SOL    HW223493   0.466   0.642   0.530 -0.6374 -0.8486  0.0881
 4011SOL     OW23494   2.615   2.635   4.228 -0.4770 -0.0408 -0.6175
 4011SOL    HW123495   2.633   2.600   4.141  3.7535 -2.4033  1.2027
 4011SOL    HW223496   2.540   2.580   4.250  0.8390 -1.5036  0.2182
 4012SOL     OW23497   3.361   2.219   0.175  0.0854  0.4553  0.7585
 4012SOL    HW123498   3.341   2.233   0.082 -1.3106 -1.3535  0.7661
 4012SOL    HW223499   3.453   2.245   0.175  0.0985  0.4057  1.4277
 4013SOL     OW23500   4.034   2.568   4.840  0.8210  0.3429  0.4673
 4013SOL    HW123501   3.990   2.506   4.783  0.6202 -0.0156  1.0099
 4013SOL    HW223502   3.956   2.620   4.856  1.5596  1.4649  0.4499
 4014SOL     OW23503   2.927   3.843   0.761 -0.1832  0.3403 -0.5087
 4014SOL    HW123504   2.972   3.802   0.835 -0.4327  0.9803  0.0019
 4014SOL    HW223505   2.846   3.793   0.766  0.1567 -0.0734  0.7003
 4015SOL     OW23506   3.983   2.573   9.270 -0.0748  0.1973  0.8212
 4015SOL    HW123507   3.903   2.608   9.231  0.8097 -0.6999 -1.7800
 4015SOL    HW223508   4.026   2.560   9.186 -0.1813 -1.1870  0.9713
 4016SOL     OW23509   3.481   2.338  15.804 -0.6958 -0.6684 -0.0691
 4016SOL    HW123510   3.568   2.347  15.765 -1.1043  0.2747 -0.7563
 4016SOL    HW223511   3.418   2.382  15.747 -0.0930 -0.0518 -0.2540
 4017SOL     OW23512   4.313   0.572   6.936  0.4811 -0.4800 -0.3085
 4017SOL    HW123513   4.350   0.588   6.849 -0.0972 -1.5833 -0.7543
 4017SOL    HW223514   4.243   0.638   6.937 -0.1270 -1.1397  0.3108
 4018SOL     OW23515   3.432   2.074   4.887 -0.1885 -0.4468 -0.0030
 4018SOL    HW123516   3.476   2.007   4.939 -0.2644 -0.9694 -0.6234
 4018SOL    HW223517   3.372   2.018   4.840  2.0602 -1.2297 -1.9197
 4019SOL     OW23518   2.386   1.226   7.313 -0.2917  0.3667 -0.0695
 4019SOL    HW123519   2.358   1.298   7.257  0.9453  0.1257 -1.0047
 4019SOL    HW223520   2.390   1.157   7.247  0.5191 -0.1902  0.5697
 4020SOL     OW23521   1.953   0.995   4.088  0.4966 -0.1670  0.7047
 4020SOL    HW123522   1.942   0.986   3.994 -2.0237  0.7918  0.9131
 4020SOL    HW223523   1.977   0.907   4.116 -3.0644 -1.2530  0.3107
 4021SOL     OW23524   2.300   0.097  15.475  0.3344 -0.1432 -0.0525
 4021SOL    HW123525   2.335   0.184  15.452  0.0910 -0.4037 -1.4066
 4021SOL    HW223526   2.235   0.080  15.407 -1.5618 -0.6076  1.9029
 4022SOL     OW23527   3.915   2.502   8.309  0.2113 -0.0264 -0.2364
 4022SOL    HW123528   3.941   2.428   8.254 -1.8569  0.0473 -1.3288
 4022SOL    HW223529   3.997   2.551   8.318  1.1060 -1.4329 -0.7817
 4023SOL     OW23530   0.036   2.931   3.592 -0.5338  0.0428 -0.2756
 4023SOL    HW123531   0.129   2.909   3.589 -0.2128  1.4353 -0.8920
 4023SOL    HW223532   0.045   3.004   3.531  1.0093 -1.5180 -1.9121
 4024SOL     OW23533   3.525   2.836   8.582  0.2734 -0.7291 -0.0411
 4024SOL    HW123534   3.455   2.899   8.567  0.3013 -0.2177  1.9280
 4024SOL    HW223535   3.549   2.853   8.673  1.3800  0.2252 -0.5147
 4025SOL     OW23536   1.445   2.533   1.039 -0.3629  0.4082 -0.4816
 4025SOL    HW123537   1.414   2.607   1.092 -2.0025  0.1545 -1.1038
 4025SOL    HW223538   1.395   2.456   1.064 -1.2468  1.4558  0.9607
 4026SOL     OW23539   1.988   1.601   5.767  0.2354  0.0016  0.2422
 4026SOL    HW123540   1.919   1.582   5.704 -0.3812 -2.5623  1.7097
 4026SOL    HW223541   2.013   1.694   5.762  0.3206  0.0274  1.2266
 4027SOL     OW23542   4.693   0.332   5.836  0.0908 -0.2081  0.3841
 4027SOL    HW123543   0.053   0.364   5.799 -0.9510  1.3706 -0.5777
 4027SOL    HW223544   4.655   0.413   5.870  2.5291  1.2794 -0.5102
 4028SOL     OW23545   3.205   1.124  16.395  0.0391 -0.4391 -1.4053
 4028SOL    HW123546   3.132   1.151  16.450  1.0941  1.2828 -0.8547
 4028SOL    HW223547   3.231   1.203  16.347 -1.2147  0.9751  0.2345
 4029SOL     OW23548   3.769   1.635   8.175 -0.1243  0.3651 -0.0317
 4029SOL    HW123549   3.806   1.565   8.121  0.9329  0.2336  0.8599
 4029SOL    HW223550   3.686   1.592   8.195  0.6579 -0.7473  0.8586
 4030SOL     OW23551   2.128   3.814  14.361  0.1419 -0.0125  0.2290
 4030SOL    HW123552   2.188   3.805  14.287  1.3961 -0.8735  1.3513
 4030SOL    HW223553   2.187   3.790  14.433  0.7298 -0.6313 -0.4595
 4031SOL     OW23554   1.960   3.855   5.089  0.3477  0.3481  0.1502
 4031SOL    HW123555   1.962   3.950   5.073  1.6113  0.1183 -1.0295
 4031SOL    HW223556   1.865   3.841   5.095  0.2259  0.2305 -1.9493
 4032SOL     OW23557   3.565   4.450   3.824 -0.2924  0.5703 -0.1037
 4032SOL    HW123558   3.520   4.383   3.772  3.6336 -1.8207 -0.4125
 4032SOL    HW223559   3.619   4.388   3.872 -0.0765  0.6312 -0.2692
 4033SOL     OW23560   0.480   2.002   8.773  0.2956  0.1484  0.5477
 4033SOL    HW123561   0.493   2.096   8.758 -0.1179 -0.0215 -0.9294
 4033SOL    HW223562   0.528   1.982   8.853 -0.8155  0.9753  1.4378
 4034SOL     OW23563   0.937   4.506   3.057  0.4896  0.7119 -0.5169
 4034SOL    HW123564   0.941   4.601   3.070 -1.1494  1.0036 -2.0891
 4034SOL    HW223565   0.877   4.478   3.126  2.4600  0.7352  1.2188
 4035SOL     OW23566   3.739   4.359   5.623 -0.4628 -0.2432 -0.1837
 4035SOL    HW123567   3.832   4.379   5.638 -0.7516 -0.0031  1.3139
 4035SOL    HW223568   3.716   4.423   5.556 -1.5745 -0.1213  0.3118
 4036SOL     OW23569   2.528   3.065   5.938 -0.3115  0.8411  0.1987
 4036SOL    HW123570   2.489   3.079   6.024 -1.0732  0.1497 -0.0277
 4036SOL    HW223571   2.621   3.086   5.940  0.0363 -0.6678  0.1265
 4037SOL     OW23572   3.028   4.458   3.255 -0.0886  0.3445  0.2004
 4037SOL    HW123573   3.015   4.445   3.161 -0.5327 -0.7180  0.4164
 4037SOL    HW223574   3.112   4.415   3.271 -0.1510 -0.3086 -1.1928
 4038SOL     OW23575   0.432   3.238   8.506 -0.0819  0.2039 -0.3032
 4038SOL    HW123576   0.415   3.272   8.594 -0.1444  0.2226 -0.3228
 4038SOL    HW223577   0.522   3.206   8.517  0.1163  0.4327 -1.2223
 4039SOL     OW23578   1.221   4.319   4.908  0.3550  0.2996  0.4081
 4039SOL    HW123579   1.316   4.320   4.901  0.3925  0.4910  0.9738
 4039SOL    HW223580   1.207   4.227   4.930 -4.0689  1.0822  0.8117
 4040SOL     OW23581   4.590   0.745  13.180  0.0684 -0.1441 -0.6467
 4040SOL    HW123582   4.681   0.719  13.167 -0.2717 -1.9667  0.6644
 4040SOL    HW223583   4.595   0.755  13.275  0.0828 -1.7950 -0.4704
 4041SOL     OW23584   4.655   2.281   1.007 -0.5143  0.2787 -0.2910
 4041SOL    HW123585   4.630   2.191   0.987 -2.3322  0.7642 -0.1753
 4041SOL    HW223586   0.007   2.266   1.066 -0.4305 -0.8945 -0.6946
 4042SOL     OW23587   1.846   2.062   5.200 -0.2154  0.1927 -0.0134
 4042SOL    HW123588   1.760   2.052   5.159  0.4331 -1.1023 -1.0436
 4042SOL    HW223589   1.856   2.150   5.237 -1.4525  0.3659 -0.0955
 4043SOL     OW23590   4.717   2.479   3.050 -0.0619 -0.2513  0.4504
 4043SOL    HW123591   0.005   2.391   3.086  2.5430  0.2584  0.9964
 4043SOL    HW223592   0.074   2.528   3.073 -1.4421  2.4573 -0.6112
 4044SOL     OW23593   1.706   1.503   5.297 -0.2094  0.5668 -0.2780
 4044SOL    HW123594   1.727   1.576   5.239 -3.4480  2.7850  1.3299
 4044SOL    HW223595   1.641   1.546   5.353  2.3546  2.2696  1.3664
 4045SOL     OW23596   2.775   1.316   6.230  0.4569  0.5437 -0.3620
 4045SOL    HW123597   2.821   1.390   6.191 -0.3425  1.8302  1.1347
 4045SOL    HW223598   2.834   1.306   6.305  2.3703 -1.1588 -2.1043
 4046SOL     OW23599   3.603   2.825   4.687  0.1191 -0.2183 -0.3324
 4046SOL    HW123600   3.622   2.887   4.616  2.6944  0.2565  0.7809
 4046SOL    HW223601   3.526   2.868   4.725 -1.4486 -3.8398  0.5129
 4047SOL     OW23602   1.768   0.572   2.903 -0.4115 -0.1168  0.0591
 4047SOL    HW123603   1.861   0.593   2.902 -0.4737  0.1898  0.7987
 4047SOL    HW223604   1.733   0.607   2.821 -0.2782  1.2633  0.5881
 4048SOL     OW23605   0.909   3.875   3.597  0.3045  0.1821  0.4941
 4048SOL    HW123606   0.928   3.835   3.513 -2.3085 -0.7688  0.3436
 4048SOL    HW223607   0.838   3.937   3.578  1.3643  0.8947 -1.1765
 4049SOL     OW23608   1.160   1.766   7.908  0.1715  0.3332  0.4034
 4049SOL    HW123609   1.231   1.733   7.853  2.1659  1.7400  2.1123
 4049SOL    HW223610   1.204   1.833   7.961 -0.3663 -0.2052  1.5477
 4050SOL     OW23611   2.335   4.239   4.394  0.2557 -0.2827  0.6392
 4050SOL    HW123612   2.270   4.189   4.344 -0.4849  1.1347  0.1901
 4050SOL    HW223613   2.374   4.286   4.321 -1.2320  0.7910  0.5234
 4051SOL     OW23614   1.119   1.972   2.257  0.1647 -0.3269  0.3163
 4051SOL    HW123615   1.111   1.899   2.196 -0.8420  0.1917 -0.1672
 4051SOL    HW223616   1.154   1.929   2.335 -0.1846  0.1379  0.7279
 4052SOL     OW23617   1.558   2.313   7.218  0.1805  0.1544  0.1707
 4052SOL    HW123618   1.634   2.260   7.244 -0.6986 -2.2998 -2.3140
 4052SOL    HW223619   1.490   2.284   7.279 -0.2466  2.3369  0.7339
 4053SOL     OW23620   2.373   1.127   2.041  0.2138 -0.0296  0.1240
 4053SOL    HW123621   2.439   1.164   1.982  1.0996  0.5812  1.4835
 4053SOL    HW223622   2.392   1.176   2.121 -1.3555 -0.9712  1.0778
 4054SOL     OW23623   1.332   3.150  17.165  0.1299 -0.1186  0.0488
 4054SOL    HW123624   1.307   3.208  17.237  1.2032 -0.8929  1.0208
 4054SOL    HW223625   1.338   3.204  17.086 -0.0768 -0.1437  0.0162
 4055SOL     OW23626   0.399   1.813   3.232 -0.3488 -0.2391 -0.8241
 4055SOL    HW123627   0.311   1.822   3.269 -0.8290 -2.1481 -1.4376
 4055SOL    HW223628   0.455   1.796   3.307  1.8991  3.2519 -1.7266
 4056SOL     OW23629   2.552   3.713   8.718  0.4029 -0.2110  0.1235
 4056SOL    HW123630   2.477   3.771   8.729 -0.0842 -0.3371 -2.4396
 4056SOL    HW223631   2.569   3.720   8.624 -0.7459  2.4057  0.1152
 4057SOL     OW23632   0.900   1.602   0.046 -0.3868  0.0898 -0.5516
 4057SOL    HW123633   0.874   1.677   0.099  1.6966 -0.6821  1.5511
 4057SOL    HW223634   0.902   1.535   0.114 -1.7895 -0.1399 -0.7332
 4058SOL     OW23635   1.921   3.175  15.239  0.0574  0.4094  0.3235
 4058SOL    HW123636   1.996   3.117  15.227 -0.4626  0.4660 -3.1133
 4058SOL    HW223637   1.890   3.191  15.150 -0.2321 -1.8942  0.0041
 4059SOL     OW23638   1.406   0.529   3.101 -0.8235  0.5089 -0.3612
 4059SOL    HW123639   1.475   0.540   3.035 -1.3402  2.2507 -0.5860
 4059SOL    HW223640   1.444   0.486   3.178 -2.0865 -0.0201 -0.0403
 4060SOL     OW23641   1.751   3.142  16.788 -0.0004  0.1834 -0.2959
 4060SOL    HW123642   1.683   3.206  16.812  0.3140  0.2194  0.5077
 4060SOL    HW223643   1.698   3.077  16.742 -0.4982 -1.3713  2.4857
 4061SOL     OW23644   3.931   3.549  12.371 -0.0432 -0.0585  1.0967
 4061SOL    HW123645   3.882   3.610  12.427 -2.7130 -0.9395 -0.3021
 4061SOL    HW223646   3.862   3.526  12.310  0.8331  0.3788 -0.0616
 4062SOL     OW23647   3.759   0.098   9.380 -0.1624  0.3948 -0.2394
 4062SOL    HW123648   3.850   0.113   9.354  0.3279 -0.2411  1.1256
 4062SOL    HW223649   3.736   0.187   9.407  1.6182  0.9709 -0.6612
 4063SOL     OW23650   3.133   2.956   5.388 -0.0486  0.3246 -0.5129
 4063SOL    HW123651   3.152   2.992   5.301  0.2456 -0.9631 -0.9810
 4063SOL    HW223652   3.143   3.036   5.440 -1.2219 -0.4255  0.8645
 4064SOL     OW23653   0.793   3.458   8.658  0.2165 -0.1254 -0.0334
 4064SOL    HW123654   0.786   3.544   8.618  1.8852  0.3798  0.7669
 4064SOL    HW223655   0.817   3.476   8.749  0.8005 -4.3344  0.6577
 4065SOL     OW23656   3.969   2.343   4.229  0.4183 -0.3497  0.6182
 4065SOL    HW123657   4.042   2.292   4.193 -1.2171 -2.8045  0.8228
 4065SOL    HW223658   3.955   2.301   4.314  0.1520  0.4789  0.9863
 4066SOL     OW23659   1.520   3.118   6.973  0.2070  0.1049  0.0786
 4066SOL    HW123660   1.497   3.032   7.010  1.2268 -0.7686 -1.3305
 4066SOL    HW223661   1.529   3.085   6.884  0.9272 -2.0790  0.9397
 4067SOL     OW23662   2.572   3.685  16.445  0.0266 -0.1145 -0.0971
 4067SOL    HW123663   2.521   3.608  16.472 -0.1287  0.5840  1.6190
 4067SOL    HW223664   2.510   3.732  16.391 -0.6367 -2.0940 -1.0602
 4068SOL     OW23665   3.361   0.615   3.013 -0.8901  0.0855 -0.4628
 4068SOL    HW123666   3.366   0.710   2.999  2.2222  0.0115  0.0913
 4068SOL    HW223667   3.266   0.612   3.007 -0.9729 -0.0056  1.0958
 4069SOL     OW23668   1.920   3.530   2.906  0.1276  0.7988  0.3420
 4069SOL    HW123669   1.888   3.590   2.973 -1.1758 -1.0075  1.3422
 4069SOL    HW223670   1.866   3.557   2.831 -1.8451 -0.4357  1.3261
 4070SOL     OW23671   4.025   0.683  13.858 -0.5019  0.0652 -0.5231
 4070SOL    HW123672   4.062   0.771  13.861 -0.3491 -0.0271  0.2467
 4070SOL    HW223673   4.027   0.657  13.950  1.4892 -0.5328 -0.7244
 4071SOL     OW23674   3.172   4.678   6.233 -0.6953  0.3258 -0.0598
 4071SOL    HW123675   3.141   4.719   6.313 -1.1942  0.2980 -0.2377
 4071SOL    HW223676   3.176   4.583   6.241 -0.4562  0.1374 -2.3982
 4072SOL     OW23677   2.232   1.152  10.138  0.4992 -0.0692 -0.4185
 4072SOL    HW123678   2.317   1.130  10.176  0.7560  0.8796 -0.4308
 4072SOL    HW223679   2.183   1.077  10.172  1.4735  0.2974  1.7774
 4073SOL     OW23680   3.953   0.187  10.793 -0.1156 -0.2425 -0.2095
 4073SOL    HW123681   4.007   0.108  10.799  0.0639 -0.3218 -2.6734
 4073SOL    HW223682   4.018   0.255  10.811 -1.5281  1.0172  0.1487
 4074SOL     OW23683   1.000   4.392  10.932  0.8038 -0.0691 -0.1796
 4074SOL    HW123684   0.957   4.427  10.853  0.9444  0.7799  0.1183
 4074SOL    HW223685   0.953   4.311  10.949 -0.3648  0.6292 -0.0975
 4075SOL     OW23686   0.067   3.481   5.425  0.4696  0.0681  0.1599
 4075SOL    HW123687   4.707   3.510   5.466 -1.1883  0.0999 -3.1700
 4075SOL    HW223688   0.042   3.414   5.362 -0.8506 -0.3641  1.1384
 4076SOL     OW23689   0.661   3.150   4.265  0.3048 -0.1854 -0.5587
 4076SOL    HW123690   0.728   3.176   4.202  0.8195  1.9602  0.8630
 4076SOL    HW223691   0.696   3.102   4.341  1.8059  1.3906 -0.2663
 4077SOL     OW23692   2.615   2.573  12.825  0.3117 -0.3133  0.3360
 4077SOL    HW123693   2.543   2.515  12.852  0.7369  0.8970  4.0246
 4077SOL    HW223694   2.564   2.649  12.798  0.2265  0.4398  2.5717
 4078SOL     OW23695   1.766   3.970   4.606 -0.1868  0.0092  0.0000
 4078SOL    HW123696   1.688   3.921   4.578  0.8314 -0.3669 -2.1771
 4078SOL    HW223697   1.834   3.931   4.551 -0.3003 -0.6665  0.3333
 4079SOL     OW23698   4.212   1.119   2.910  0.5319  0.2778 -0.3548
 4079SOL    HW123699   4.258   1.102   2.993 -2.4697 -1.0602  1.0783
 4079SOL    HW223700   4.261   1.072   2.843 -0.1319 -0.6836 -0.1650
 4080SOL     OW23701   2.898   0.816   9.282 -0.0762 -0.1690 -0.5048
 4080SOL    HW123702   2.972   0.754   9.287 -0.9681 -1.2972 -1.3180
 4080SOL    HW223703   2.843   0.747   9.246 -2.1120  1.8129 -1.1423
 4081SOL     OW23704   1.198   2.821   9.679  0.1669 -0.6019 -0.3829
 4081SOL    HW123705   1.110   2.857   9.686  0.6739  0.0031  2.6015
 4081SOL    HW223706   1.248   2.878   9.737 -0.7540  0.3405 -0.5142
 4082SOL     OW23707   4.714   3.374   9.535  0.8165 -0.0393  0.1571
 4082SOL    HW123708   4.685   3.442   9.474 -0.2099 -0.0648  0.6177
 4082SOL    HW223709   0.083   3.395   9.556  1.0290 -2.2011  1.3805
 4083SOL     OW23710   0.688   2.733   7.559  0.1067  0.0295 -0.4204
 4083SOL    HW123711   0.738   2.796   7.610  1.9504 -0.9029 -1.1002
 4083SOL    HW223712   0.598   2.764   7.575  0.2466  0.2567 -0.0649
 4084SOL     OW23713   3.771   1.165   9.392  0.5277 -0.3932 -0.5111
 4084SOL    HW123714   3.763   1.242   9.335  1.4173  0.2861  0.2653
 4084SOL    HW223715   3.867   1.173   9.394  0.5311 -0.9945  3.1460
 4085SOL     OW23716   0.473   3.182   0.044  0.0713 -0.3271 -0.1930
 4085SOL    HW123717   0.387   3.142   0.036 -0.0235 -0.3544  0.9355
 4085SOL    HW223718   0.528   3.105   0.036  1.1221  0.3216  0.7817
 4086SOL     OW23719   3.238   4.036   9.292 -0.7916 -0.6765 -0.3434
 4086SOL    HW123720   3.192   4.003   9.369 -0.7858 -0.9370 -0.4492
 4086SOL    HW223721   3.213   4.127   9.305  0.6216 -0.1852 -1.1021
 4087SOL     OW23722   2.336   2.211   3.251  1.0245  0.0211 -0.4144
 4087SOL    HW123723   2.308   2.276   3.187  0.4475 -0.9553 -1.1607
 4087SOL    HW223724   2.265   2.150   3.231 -0.4466  1.3073  0.8431
 4088SOL     OW23725   0.929   2.393   4.573  0.3735 -0.3080  0.3818
 4088SOL    HW123726   0.907   2.309   4.613  0.6322 -1.4786 -1.8919
 4088SOL    HW223727   0.902   2.373   4.483  2.6940 -0.3580 -0.3059
 4089SOL     OW23728   2.418   4.306   3.386  0.2157 -0.0234 -0.1123
 4089SOL    HW123729   2.375   4.321   3.302  0.9486 -0.4957 -0.5723
 4089SOL    HW223730   2.376   4.229   3.424  1.7440  0.3409  2.3369
 4090SOL     OW23731   2.722   0.393  11.164 -0.1163  0.0883  0.0971
 4090SOL    HW123732   2.662   0.430  11.099  1.4132 -0.1487 -1.4560
 4090SOL    HW223733   2.774   0.471  11.183 -1.5592  0.8512  0.9403
 4091SOL     OW23734   1.509   1.922   7.135 -0.0369 -0.0179  0.3785
 4091SOL    HW123735   1.470   1.884   7.214  1.0614 -0.4134  0.7322
 4091SOL    HW223736   1.582   1.969   7.176  0.6117 -0.8709  0.1988
 4092SOL     OW23737   1.983   1.311   4.437 -0.6799  0.5406 -0.4222
 4092SOL    HW123738   2.048   1.377   4.411 -0.1723  0.3315  0.3277
 4092SOL    HW223739   2.022   1.241   4.385 -1.1342  0.4975 -0.7010
 4093SOL     OW23740   1.820   2.016   8.599 -0.5389 -0.0091  0.1762
 4093SOL    HW123741   1.760   1.961   8.548  0.4719 -1.5665  0.6998
 4093SOL    HW223742   1.895   1.957   8.607 -0.0984  0.4325 -0.6499
 4094SOL     OW23743   3.751   3.005   9.318  0.2204  0.3262 -0.2189
 4094SOL    HW123744   3.742   2.997   9.223 -2.1456  0.3845 -0.0019
 4094SOL    HW223745   3.822   2.941   9.330  0.6146  1.1394  1.7638
 4095SOL     OW23746   0.356   3.371   4.554  0.0773  0.2974  0.3506
 4095SOL    HW123747   0.413   3.296   4.536 -0.0845  0.6290 -1.5488
 4095SOL    HW223748   0.418   3.432   4.593  0.4314 -0.3551  0.7962
 4096SOL     OW23749   2.124   1.154   9.901 -0.4199  0.0943 -0.0569
 4096SOL    HW123750   2.029   1.149   9.907 -0.5487 -1.3271 -3.2673
 4096SOL    HW223751   2.154   1.171   9.990  2.8993 -3.2955 -0.5446
 4097SOL     OW23752   3.259   1.991   3.319  0.4818  0.1733 -0.0735
 4097SOL    HW123753   3.308   2.045   3.257 -1.4817  2.0697  0.0253
 4097SOL    HW223754   3.321   2.012   3.389  2.7644 -1.4704 -1.6220
 4098SOL     OW23755   3.516   4.309   7.453 -0.1592 -0.1293  0.6506
 4098SOL    HW123756   3.564   4.302   7.370  1.9607 -1.1447  1.9662
 4098SOL    HW223757   3.457   4.380   7.430 -2.2193 -1.5785  1.4700
 4099SOL     OW23758   2.050   0.064   4.192 -0.1648 -0.0932  0.0238
 4099SOL    HW123759   2.074   0.129   4.257 -2.1710  0.0275  0.6601
 4099SOL    HW223760   1.963   0.033   4.219 -0.8179 -0.5927 -2.6261
 4100SOL     OW23761   2.723   1.342   2.665 -0.0232 -0.1909  0.0043
 4100SOL    HW123762   2.687   1.370   2.581  0.0179 -0.7589 -0.2045
 4100SOL    HW223763   2.662   1.387   2.723 -0.2040  1.0299 -1.1630
 4101SOL     OW23764   2.240   4.000   4.995 -0.0167  0.6452  0.1021
 4101SOL    HW123765   2.201   4.087   4.985  0.8997  1.0202 -0.2581
 4101SOL    HW223766   2.334   4.018   4.997 -0.0376  1.1937 -2.5610
 4102SOL     OW23767   3.634   4.687   5.793  0.2342  0.5140  0.5373
 4102SOL    HW123768   3.725   4.688   5.762 -0.9352  1.3302 -2.8616
 4102SOL    HW223769   3.646   4.704   5.886  0.6951 -1.9390  0.9187
 4103SOL     OW23770   3.958   3.938   8.114 -0.2998 -0.0269 -0.0265
 4103SOL    HW123771   4.037   3.989   8.095  0.7733 -1.3509  0.9499
 4103SOL    HW223772   3.930   3.973   8.198  1.3086  1.8764 -0.2684
 4104SOL     OW23773   1.536   1.482   6.729 -0.4301  0.0504 -0.0835
 4104SOL    HW123774   1.584   1.402   6.708  0.0093  0.8876 -2.1954
 4104SOL    HW223775   1.604   1.529   6.776  0.9975 -1.4919 -0.5978
 4105SOL     OW23776   1.685   2.239   2.114  0.0891  0.3588 -0.1576
 4105SOL    HW123777   1.694   2.334   2.119 -0.3586  0.3196  1.5387
 4105SOL    HW223778   1.745   2.227   2.041  0.0431  0.9732 -0.2978
 4106SOL     OW23779   0.996   1.256  12.038  0.1633 -0.2962  0.0943
 4106SOL    HW123780   1.056   1.247  12.112 -0.5539  0.1245  0.7142
 4106SOL    HW223781   0.931   1.186  12.042 -0.0239 -0.0805  0.8037
 4107SOL     OW23782   0.502   2.794   8.698  0.2634 -0.0699  0.3416
 4107SOL    HW123783   0.427   2.852   8.690  2.1513  2.0976 -1.6752
 4107SOL    HW223784   0.562   2.848   8.646  0.0402 -0.9493 -0.8415
 4108SOL     OW23785   3.308   4.553  16.194  0.7364  0.3582 -0.3012
 4108SOL    HW123786   3.348   4.578  16.277  2.8698  0.5345 -1.3878
 4108SOL    HW223787   3.262   4.631  16.163 -1.0159 -0.8911 -0.8573
 4109SOL     OW23788   3.880   3.149   3.019  0.6328 -0.3262 -0.0195
 4109SOL    HW123789   3.972   3.149   3.046  1.1448  1.9172 -1.7924
 4109SOL    HW223790   3.858   3.061   3.050  0.6827 -0.6366 -0.8693
 4110SOL     OW23791   1.407   0.822   3.724  0.0792  0.4360  0.2781
 4110SOL    HW123792   1.495   0.855   3.739 -0.1410  2.0432 -1.9532
 4110SOL    HW223793   1.355   0.885   3.776  0.4880 -1.2776  2.7655
 4111SOL     OW23794   0.519   1.083   1.549 -0.2098  0.6143 -0.3215
 4111SOL    HW123795   0.489   1.012   1.493  0.6330 -1.2550  1.5835
 4111SOL    HW223796   0.461   1.067   1.624  1.4667 -1.9009  0.4580
 4112SOL     OW23797   4.378   0.455   5.234  0.8007 -0.3162  0.1252
 4112SOL    HW123798   4.342   0.541   5.258 -0.1375 -0.6126 -0.1973
 4112SOL    HW223799   4.404   0.475   5.144  0.0025  1.5285  0.2932
 4113SOL     OW23800   2.922   2.585   8.082  0.3649  0.2391  0.2465
 4113SOL    HW123801   2.909   2.627   8.167  1.1613 -0.0391  0.5068
 4113SOL    HW223802   2.839   2.540   8.068  1.9371 -3.0785  1.4398
 4114SOL     OW23803   1.842   1.057   3.290 -0.3835  0.0475  0.7204
 4114SOL    HW123804   1.901   0.986   3.313 -0.8268 -0.3111  0.7482
 4114SOL    HW223805   1.813   1.090   3.375 -2.0358 -0.0595  0.2188
 4115SOL     OW23806   4.491   2.330   8.062 -0.2163 -0.4260  0.2927
 4115SOL    HW123807   4.429   2.370   8.123 -0.6232  0.4025 -0.6634
 4115SOL    HW223808   4.439   2.294   7.990 -1.6983  0.9037  0.7123
 4116SOL     OW23809   0.154   4.697   5.075  0.0586  0.4673 -0.1686
 4116SOL    HW123810   0.149   4.604   5.053 -0.9838  0.5069 -0.1275
 4116SOL    HW223811   0.178   0.011   4.989 -0.9791 -0.6918 -0.9436
 4117SOL     OW23812   4.031   3.305  17.331  0.2695  0.1652  0.4737
 4117SOL    HW123813   4.079   3.239  17.281  0.6219 -0.6412  1.8546
 4117SOL    HW223814   4.064   3.279  17.417  0.8214  1.2949  0.5979
 4118SOL     OW23815   3.002   2.762   8.602  0.0564 -0.0925 -0.0543
 4118SOL    HW123816   3.038   2.842   8.642 -2.4843  1.9144 -1.8342
 4118SOL    HW223817   3.039   2.700   8.665 -0.6007 -0.3729  0.0504
 4119SOL     OW23818   1.590   2.341  17.308 -0.3147  0.2930 -0.0503
 4119SOL    HW123819   1.570   2.384  17.225  0.4927  2.2602  0.7633
 4119SOL    HW223820   1.505   2.350  17.351  0.1726  2.8049  0.4057
 4120SOL     OW23821   2.780   0.251   7.929  0.4029  0.1286  0.2737
 4120SOL    HW123822   2.810   0.177   7.982 -0.6172 -1.0523 -0.7852
 4120SOL    HW223823   2.794   0.227   7.837  0.5238 -1.6986  0.7623
 4121SOL     OW23824   2.428   4.118   5.598  0.4341 -0.2615 -0.1138
 4121SOL    HW123825   2.344   4.106   5.555  0.5578  0.5988 -0.5876
 4121SOL    HW223826   2.469   4.040   5.560 -0.5342 -0.7553 -0.1342
 4122SOL     OW23827   3.684   1.773  15.744  0.1357  0.1781 -0.3008
 4122SOL    HW123828   3.683   1.719  15.823 -1.2252  1.6763  0.7028
 4122SOL    HW223829   3.765   1.753  15.696  0.3449  0.5667 -0.1017
 4123SOL     OW23830   0.615   2.943   1.990  0.2400 -0.3261  0.4655
 4123SOL    HW123831   0.528   2.905   2.005 -0.7018  2.2307  1.4775
 4123SOL    HW223832   0.612   3.029   2.031 -0.9704 -0.0653 -0.1682
 4124SOL     OW23833   1.492   1.433  14.088 -0.0424  0.1145  0.6872
 4124SOL    HW123834   1.516   1.350  14.046  0.2062  0.8141 -0.5547
 4124SOL    HW223835   1.424   1.460  14.026 -1.2916 -1.5572  1.3343
 4125SOL     OW23836   3.800   0.119  14.605 -0.6280  0.4134 -0.2815
 4125SOL    HW123837   3.715   0.087  14.573 -0.3888 -0.1030 -0.3916
 4125SOL    HW223838   3.838   0.039  14.641  0.2380  1.6182  1.4871
 4126SOL     OW23839   1.304   4.339   3.862 -0.3961 -0.1574  0.0203
 4126SOL    HW123840   1.288   4.398   3.936 -2.4031  0.7144 -1.1288
 4126SOL    HW223841   1.317   4.254   3.904  0.8130  1.0528  2.1275
 4127SOL     OW23842   3.280   1.690  16.263  0.8938  0.2484 -0.4779
 4127SOL    HW123843   3.191   1.686  16.227  1.5142 -1.1892 -1.8570
 4127SOL    HW223844   3.333   1.653  16.193 -1.3430 -0.4566 -1.8153
 4128SOL     OW23845   2.044   1.528   2.663 -0.1563 -0.0154 -0.3602
 4128SOL    HW123846   2.116   1.467   2.646 -1.3877 -2.1448  2.0451
 4128SOL    HW223847   2.078   1.595   2.605 -0.7438  0.3057 -0.3251
 4129SOL     OW23848   0.247   2.614   2.932  1.0842 -1.0643 -0.4194
 4129SOL    HW123849   0.223   2.699   2.894 -2.0531 -1.4991  0.6017
 4129SOL    HW223850   0.281   2.579   2.850  3.7416 -1.1032  0.6981
 4130SOL     OW23851   0.509   4.709   6.453  0.4647  0.3902 -0.4154
 4130SOL    HW123852   0.498   4.664   6.537  1.4707 -0.9964 -1.0322
 4130SOL    HW223853   0.464   0.069   6.472  1.7753  0.6955  1.3692
 4131SOL     OW23854   3.827   2.399   5.215 -0.0728 -0.2809  0.4398
 4131SOL    HW123855   3.866   2.316   5.242  0.7864 -0.3434 -1.0074
 4131SOL    HW223856   3.737   2.384   5.244 -0.2186  0.7539  0.5106
 4132SOL     OW23857   3.172   2.424   8.877 -0.0235 -0.4483  0.4970
 4132SOL    HW123858   3.194   2.460   8.791  1.0662 -1.1975  0.4581
 4132SOL    HW223859   3.228   2.470   8.940 -0.9260  0.2644  0.7867
 4133SOL     OW23860   1.229   0.752   2.965 -0.1356 -0.5798  0.0121
 4133SOL    HW123861   1.319   0.738   2.995  0.5105  0.1511 -1.5952
 4133SOL    HW223862   1.188   0.773   3.049  1.2251 -0.4118  0.6384
 4134SOL     OW23863   4.122   1.455   1.411 -0.6794  0.3574 -0.1451
 4134SOL    HW123864   4.102   1.548   1.410  3.3048  1.1933 -0.1578
 4134SOL    HW223865   4.215   1.458   1.390 -0.7488 -0.1189 -0.5323
 4135SOL     OW23866   2.583   3.513   5.846 -0.1397  0.0253 -0.3716
 4135SOL    HW123867   2.519   3.551   5.905 -0.8585 -2.0096  0.1568
 4135SOL    HW223868   2.647   3.583   5.841 -0.6047  0.5921  1.6574
 4136SOL     OW23869   0.311   1.156   5.820 -0.3758 -0.4960 -0.0767
 4136SOL    HW123870   0.341   1.087   5.879 -1.4179 -2.1394 -1.4412
 4136SOL    HW223871   0.215   1.164   5.815 -0.4869 -0.7056  1.7024
 4137SOL     OW23872   2.837   3.366   6.771  0.2795 -0.1676  0.2883
 4137SOL    HW123873   2.796   3.451   6.756 -0.7099 -0.7384 -0.2132
 4137SOL    HW223874   2.813   3.351   6.862 -1.8008  0.2467 -0.2061
 4138SOL     OW23875   4.569   1.473   9.265 -0.3920  0.0069 -0.1593
 4138SOL    HW123876   4.514   1.414   9.318  0.3990  0.9330  1.6614
 4138SOL    HW223877   4.501   1.534   9.236 -0.2545  0.0333 -0.4289
 4139SOL     OW23878   4.402   3.300   6.643 -0.1929 -0.0160 -0.5395
 4139SOL    HW123879   4.381   3.352   6.566 -0.8238 -2.8107 -2.2279
 4139SOL    HW223880   4.345   3.225   6.629  0.1806 -0.2456 -0.8252
 4140SOL     OW23881   3.656   1.174   7.476  0.0526 -0.2806  0.4830
 4140SOL    HW123882   3.726   1.117   7.507  0.6817 -0.3973 -1.1488
 4140SOL    HW223883   3.626   1.213   7.558 -5.0841 -0.8035 -1.1429
 4141SOL     OW23884   3.480   4.113   3.201  0.4726  0.2873 -0.3213
 4141SOL    HW123885   3.466   4.126   3.108 -0.1063 -1.1178 -0.4325
 4141SOL    HW223886   3.575   4.103   3.206  0.4904  0.0723 -1.0883
 4142SOL     OW23887   0.963   1.352   5.999 -0.2514 -0.0445  0.0839
 4142SOL    HW123888   1.036   1.302   6.033 -1.0574 -1.7297 -0.6795
 4142SOL    HW223889   0.944   1.407   6.076 -2.1537 -2.2071  1.1838
 4143SOL     OW23890   1.519   4.138   5.675 -0.3469  0.1943  0.5258
 4143SOL    HW123891   1.590   4.141   5.740  0.0048 -1.2955  0.2087
 4143SOL    HW223892   1.492   4.046   5.682  0.0060  0.0692  0.2759
 4144SOL     OW23893   1.487   4.702   6.558  0.3203  0.0203 -0.0850
 4144SOL    HW123894   1.465   4.614   6.527 -0.1231 -0.4322  1.5675
 4144SOL    HW223895   1.524   0.020   6.479  0.7653  0.0342  0.1286
 4145SOL     OW23896   4.605   2.569   9.410 -0.0794 -0.5667 -0.1657
 4145SOL    HW123897   4.541   2.631   9.446 -0.1702  0.3900 -1.9747
 4145SOL    HW223898   4.655   2.627   9.353 -2.2070 -0.1048 -1.5896
 4146SOL     OW23899   3.612   0.307   5.633 -0.1563 -0.2276 -0.8027
 4146SOL    HW123900   3.586   0.351   5.714  0.5100 -1.2571 -0.0392
 4146SOL    HW223901   3.591   0.371   5.565 -1.3143  0.0998 -0.1268
 4147SOL     OW23902   3.171   2.793   8.201 -0.3184  0.0869  0.1371
 4147SOL    HW123903   3.084   2.781   8.238  0.1881  1.2730  1.6990
 4147SOL    HW223904   3.158   2.802   8.106  0.3629  1.2753  0.1553
 4148SOL     OW23905   1.107   1.984   5.027  0.0779 -0.3011 -0.4015
 4148SOL    HW123906   1.185   1.965   5.078 -0.0136 -1.4632 -0.6842
 4148SOL    HW223907   1.055   2.038   5.087  0.1195 -0.4873 -0.1986
 4149SOL     OW23908   3.629   2.227   0.126  0.7185  0.5978 -0.0665
 4149SOL    HW123909   3.702   2.167   0.110 -1.1388 -1.0141 -2.5917
 4149SOL    HW223910   3.669   2.258   0.207  2.2671 -0.4523 -0.4238
 4150SOL     OW23911   0.778   0.326  14.622  0.1334 -0.3911 -0.0886
 4150SOL    HW123912   0.788   0.417  14.651 -1.3280 -0.6519  1.2143
 4150SOL    HW223913   0.701   0.295  14.668  0.2219  0.5661  0.6942
 4151SOL     OW23914   1.799   0.797  11.674 -0.2483 -0.1920 -0.1564
 4151SOL    HW123915   1.729   0.742  11.639  0.3873 -0.5217 -0.9155
 4151SOL    HW223916   1.739   0.867  11.701  1.5450  1.4389 -0.3564
 4152SOL     OW23917   1.225   0.468  14.103  0.1074 -0.3911 -0.1047
 4152SOL    HW123918   1.166   0.432  14.169 -0.5079  0.0165 -0.4339
 4152SOL    HW223919   1.162   0.531  14.069  1.1964  2.3815  3.0787
 4153SOL     OW23920   4.123   2.032   2.579 -0.0194 -0.2428  0.2735
 4153SOL    HW123921   4.106   1.941   2.604  1.8584 -0.4066  0.9515
 4153SOL    HW223922   4.163   2.022   2.492  2.1496  4.1418  0.7875
 4154SOL     OW23923   0.919   2.653   2.165  0.2476 -0.2776  0.5122
 4154SOL    HW123924   0.895   2.636   2.074  2.8771  1.1995 -0.4659
 4154SOL    HW223925   0.902   2.571   2.211  0.3050 -0.2942  0.5039
 4155SOL     OW23926   4.683   0.773   5.994  0.1609  0.8677 -0.8184
 4155SOL    HW123927   4.675   0.868   6.001  0.3742  0.7702  0.7538
 4155SOL    HW223928   0.048   0.763   5.955  0.2344  0.8989 -0.6657
 4156SOL     OW23929   3.403   3.222   9.101  0.6329 -0.0487 -0.2144
 4156SOL    HW123930   3.419   3.167   9.178 -1.2030  0.7975  0.7563
 4156SOL    HW223931   3.418   3.312   9.130  2.0472 -1.1336  2.4273
 4157SOL     OW23932   2.648   1.383   7.004  0.0543 -0.4862 -0.2183
 4157SOL    HW123933   2.677   1.439   7.077 -1.0288  0.2847 -0.3848
 4157SOL    HW223934   2.690   1.300   7.028 -2.1310 -1.2571  0.9622
 4158SOL     OW23935   3.369   2.512   9.544 -0.3532  0.0663 -0.3970
 4158SOL    HW123936   3.335   2.422   9.545  0.8788 -0.3901  0.4284
 4158SOL    HW223937   3.452   2.490   9.586 -0.2553  2.7459  0.7557
 4159SOL     OW23938   3.550   3.145  13.048 -0.1370 -0.6333  0.3734
 4159SOL    HW123939   3.468   3.097  13.062 -0.5582  0.1526  0.6004
 4159SOL    HW223940   3.577   3.192  13.127  0.9192  2.2585 -1.7174
 4160SOL     OW23941   2.527   2.708   9.089 -0.2094  0.0476 -0.3290
 4160SOL    HW123942   2.580   2.782   9.058  0.8534 -0.7031 -0.3322
 4160SOL    HW223943   2.584   2.689   9.164 -0.1138  1.2139 -0.1046
 4161SOL     OW23944   1.582   3.383   1.041 -0.4894 -0.0438 -0.3611
 4161SOL    HW123945   1.515   3.449   1.056  0.8153  0.5781  2.9206
 4161SOL    HW223946   1.540   3.317   1.096 -3.7285  0.3932 -2.3442
 4162SOL     OW23947   2.985   4.465   2.135  0.2598  0.0683 -0.1409
 4162SOL    HW123948   2.902   4.470   2.087  0.6615 -1.3970 -0.9823
 4162SOL    HW223949   2.979   4.377   2.171 -1.7091 -0.8064 -2.6333
 4163SOL     OW23950   2.396   4.507   0.329  0.2144  0.0224  0.4101
 4163SOL    HW123951   2.433   4.540   0.411 -1.5822 -0.7830  1.5475
 4163SOL    HW223952   2.316   4.467   0.362  0.0794  0.6606  0.8532
 4164SOL     OW23953   1.764   4.715   3.339  0.0860 -0.7350 -0.0535
 4164SOL    HW123954   1.722   0.028   3.260  1.1114  0.7792  0.0755
 4164SOL    HW223955   1.843   4.696   3.289 -0.8387 -0.4481 -1.6316
 4165SOL     OW23956   0.293   3.984   5.577  0.1507  0.7139 -0.0321
 4165SOL    HW123957   0.247   3.908   5.612  1.6845 -0.9770 -1.6920
 4165SOL    HW223958   0.371   3.981   5.633  0.6120  2.6264 -0.5793
 4166SOL     OW23959   3.802   2.748   4.856 -0.2756 -0.1410  0.5549
 4166SOL    HW123960   3.741   2.767   4.927 -0.6368 -0.4816  0.3383
 4166SOL    HW223961   3.755   2.785   4.781 -0.6968  0.8160  1.2824
 4167SOL     OW23962   1.496   0.791  12.538  0.0316 -0.2065 -0.0948
 4167SOL    HW123963   1.421   0.756  12.489 -2.3024  0.4211  3.0295
 4167SOL    HW223964   1.497   0.881  12.507 -1.5318 -0.0033  0.4394
 4168SOL     OW23965   2.578   2.681   7.892 -0.3935 -0.7351 -0.8312
 4168SOL    HW123966   2.624   2.605   7.928  0.6481  0.9964  1.4190
 4168SOL    HW223967   2.646   2.746   7.877 -0.2027 -0.9185 -0.7526
 4169SOL     OW23968   1.761   2.760  13.191 -0.0737  0.2312  0.7369
 4169SOL    HW123969   1.818   2.695  13.149  0.8844  0.9865  0.8629
 4169SOL    HW223970   1.811   2.841  13.179 -0.1109  0.1865  0.2845
 4170SOL     OW23971   4.089   1.294   3.291 -0.6048  0.0409  0.4564
 4170SOL    HW123972   4.034   1.364   3.257 -0.8673  0.9616  2.7249
 4170SOL    HW223973   4.026   1.224   3.313 -0.5653  0.4992  2.0732
 4171SOL     OW23974   2.473   3.806   0.593  0.0409 -0.3103  0.0928
 4171SOL    HW123975   2.407   3.813   0.661  0.8203  0.8894  0.7300
 4171SOL    HW223976   2.454   3.880   0.535  0.1913  1.5433  2.4524
 4172SOL     OW23977   2.428   2.576   6.840  0.4549 -0.4756  0.0731
 4172SOL    HW123978   2.444   2.504   6.779  0.5664 -0.1975 -0.2279
 4172SOL    HW223979   2.478   2.549   6.917  1.4316  1.3545  0.0861
 4173SOL     OW23980   3.891   4.676   6.854  0.1656  0.1924 -0.6089
 4173SOL    HW123981   3.852   4.636   6.776  3.2793  0.1363 -2.1196
 4173SOL    HW223982   3.907   4.599   6.908  0.0993  0.9121  0.4325
 4174SOL     OW23983   0.989   3.475   4.681 -0.6918  0.2181  0.0658
 4174SOL    HW123984   0.956   3.388   4.702  1.4726 -0.9073 -1.1901
 4174SOL    HW223985   0.944   3.495   4.599  0.7699 -1.8478 -1.2517
 4175SOL     OW23986   3.994   0.935   6.331  0.3290  0.1518  0.1348
 4175SOL    HW123987   3.958   0.975   6.410 -1.4411  0.1099 -0.6365
 4175SOL    HW223988   4.018   1.015   6.285 -0.2975 -0.0118 -0.4838
 4176SOL     OW23989   1.619   3.939   3.134  0.1257  0.4817 -0.0291
 4176SOL    HW123990   1.525   3.945   3.149  0.2967  0.5031  1.0243
 4176SOL    HW223991   1.664   3.932   3.218 -0.2037  0.0298  0.1091
 4177SOL     OW23992   0.829   0.404   8.271 -0.1443 -0.3793  0.3304
 4177SOL    HW123993   0.810   0.318   8.234 -0.8120  0.5107 -1.3768
 4177SOL    HW223994   0.790   0.460   8.204 -1.6683 -0.6222  1.0359
 4178SOL     OW23995   1.209   2.254   8.623  0.3605 -0.0933 -0.3170
 4178SOL    HW123996   1.236   2.247   8.715  1.0481  0.0075 -0.5111
 4178SOL    HW223997   1.293   2.274   8.581  0.8413  0.2604  0.8158
 4179SOL     OW23998   4.105   3.005   7.460  0.6408 -0.1887 -0.3633
 4179SOL    HW123999   4.096   3.098   7.439  0.6518 -0.2038 -0.4342
 4179SOL    HW224000   4.108   3.015   7.555 -0.3350  0.4181 -0.4001
 4180SOL     OW24001   0.443   2.695   5.376  0.2693 -0.1864 -0.3722
 4180SOL    HW124002   0.439   2.766   5.311 -2.2158  0.8564  0.9347
 4180SOL    HW224003   0.429   2.624   5.313 -1.6653 -2.1245  2.2533
 4181SOL     OW24004   3.155   3.772  14.855 -0.6602 -0.1801 -0.0999
 4181SOL    HW124005   3.114   3.708  14.797 -1.1376  1.2262 -1.3220
 4181SOL    HW224006   3.203   3.715  14.916  2.8632  0.6937 -2.0395
 4182SOL     OW24007   1.910   4.358   7.048  0.0069 -0.0456 -0.3080
 4182SOL    HW124008   1.866   4.440   7.070  0.2965  0.5095 -1.7853
 4182SOL    HW224009   1.838   4.302   7.019  0.1187  0.5401 -1.6892
 4183SOL     OW24010   1.242   4.257  15.611  0.2117 -0.2278 -0.1031
 4183SOL    HW124011   1.281   4.334  15.569 -1.4039 -0.5958 -2.2779
 4183SOL    HW224012   1.173   4.229  15.552 -0.8370 -0.6097  1.2944
 4184SOL     OW24013   2.853   2.539   6.796 -0.0761  0.3371  0.1049
 4184SOL    HW124014   2.871   2.527   6.702  0.5549  0.8191  0.1628
 4184SOL    HW224015   2.791   2.611   6.783  1.8049  1.8282 -0.7007
 4185SOL     OW24016   2.439   2.695   7.655  0.3015  0.3196 -0.3630
 4185SOL    HW124017   2.358   2.745   7.650 -0.2280 -0.2360  2.2862
 4185SOL    HW224018   2.462   2.695   7.748  0.8610 -1.9035 -0.5104
 4186SOL     OW24019   3.865   1.936   4.792  0.3349 -0.7251 -0.3708
 4186SOL    HW124020   3.779   1.894   4.786 -0.4695  0.6157  1.8337
 4186SOL    HW224021   3.902   1.920   4.705  1.1244  0.6992 -0.3054
 4187SOL     OW24022   1.857   2.879   1.843  1.1559 -0.3786 -0.4209
 4187SOL    HW124023   1.938   2.895   1.794  2.0134  1.9539  1.7662
 4187SOL    HW224024   1.807   2.822   1.785  0.0568 -1.0064  1.1447
 4188SOL     OW24025   1.838   3.069  10.216 -0.0433 -0.0045  0.5653
 4188SOL    HW124026   1.812   2.981  10.190 -0.5641  0.4514 -0.4407
 4188SOL    HW224027   1.915   3.086  10.163 -0.0883 -1.0366  0.1689
 4189SOL     OW24028   0.166   0.223   8.657  0.0419  1.0279  0.2154
 4189SOL    HW124029   0.259   0.203   8.657 -0.1900 -0.0106  1.2926
 4189SOL    HW224030   0.176   0.311   8.695 -2.8918  0.5720  1.9873
 4190SOL     OW24031   1.674   3.851   2.437  0.1237  0.3895 -0.2054
 4190SOL    HW124032   1.765   3.874   2.420  0.3581 -1.5241 -1.4845
 4190SOL    HW224033   1.625   3.915   2.386 -0.6922 -0.0487  0.0334
 4191SOL     OW24034   1.017   0.250   8.937 -0.1666  0.7294 -0.3569
 4191SOL    HW124035   0.940   0.271   8.885 -1.4113 -2.4397  0.1960
 4191SOL    HW224036   0.982   0.204   9.013  0.2959  2.2241  0.7712
 4192SOL     OW24037   3.175   1.143   0.687 -0.1509  0.2852  0.3362
 4192SOL    HW124038   3.106   1.162   0.624  2.4837  1.2193 -2.2450
 4192SOL    HW224039   3.233   1.216   0.667  0.0283 -0.0376 -0.3291
 4193SOL     OW24040   4.396   4.398   3.115  0.0045 -0.3692 -0.1985
 4193SOL    HW124041   4.406   4.308   3.146  1.1628  0.0214  0.5395
 4193SOL    HW224042   4.402   4.381   3.021  1.2945 -0.9922  0.0009
 4194SOL     OW24043   1.235   1.859   2.461  0.0728 -0.4329 -0.0702
 4194SOL    HW124044   1.252   1.766   2.451  0.8743 -0.1899 -1.0032
 4194SOL    HW224045   1.312   1.882   2.512 -0.3871  3.3227 -1.0744
 4195SOL     OW24046   1.367   2.070   9.496 -0.2918 -0.2293 -0.1336
 4195SOL    HW124047   1.431   2.120   9.445  0.2270  0.4838  1.2188
 4195SOL    HW224048   1.426   2.019   9.552 -2.8382 -1.9959  0.9101
 4196SOL     OW24049   1.377   3.600   3.242  0.1534  0.1190 -0.1642
 4196SOL    HW124050   1.290   3.567   3.261  0.5634 -0.9865 -0.1887
 4196SOL    HW224051   1.357   3.679   3.192 -0.8916 -0.3064 -0.4221
 4197SOL     OW24052   2.817   3.891   2.405 -0.3973 -0.4839 -0.3382
 4197SOL    HW124053   2.823   3.978   2.443  1.0505 -1.5469  1.8333
 4197SOL    HW224054   2.761   3.844   2.468  1.1326 -0.2089  1.2142
 4198SOL     OW24055   3.785   3.984   3.593  0.5233 -0.4892  0.4825
 4198SOL    HW124056   3.878   3.988   3.615  0.9739 -0.5003 -1.4171
 4198SOL    HW224057   3.786   3.906   3.539 -0.9427  2.4516 -3.8138
 4199SOL     OW24058   0.659   0.902   6.242 -0.3700 -0.3003  0.2158
 4199SOL    HW124059   0.650   0.850   6.322 -0.4456 -1.0941 -0.3071
 4199SOL    HW224060   0.755   0.907   6.240 -0.5621  3.0091 -0.2745
 4200SOL     OW24061   3.200   3.088   4.532 -0.1994  0.3857 -0.0531
 4200SOL    HW124062   3.239   3.169   4.502 -0.0060  0.3968  0.2331
 4200SOL    HW224063   3.122   3.074   4.478 -0.5992  0.6727  0.4483
 4201SOL     OW24064   4.288   0.859   6.459 -0.3789  0.2641 -0.4302
 4201SOL    HW124065   4.262   0.788   6.400 -2.0695  1.5630 -1.2503
 4201SOL    HW224066   4.328   0.930   6.408  0.6047 -1.4502 -2.0275
 4202SOL     OW24067   2.861   2.354   7.659  0.3305 -0.3167  0.3987
 4202SOL    HW124068   2.915   2.323   7.585 -0.7532  1.4629 -1.1257
 4202SOL    HW224069   2.920   2.419   7.697  0.9031 -0.0133 -0.9965
 4203SOL     OW24070   1.855   4.194   7.464 -0.1196 -0.1856  0.1229
 4203SOL    HW124071   1.917   4.194   7.391 -0.6513 -2.1550 -0.3103
 4203SOL    HW224072   1.916   4.160   7.529 -1.0278  0.3410  1.2397
 4204SOL     OW24073   3.480   1.682  14.837 -0.4000  0.0437  0.8411
 4204SOL    HW124074   3.388   1.707  14.824 -1.3563 -2.2171  3.0766
 4204SOL    HW224075   3.475   1.592  14.805 -0.5663  0.7097 -0.9650
 4205SOL     OW24076   1.222   3.017   6.311 -0.1134 -0.1538  0.0345
 4205SOL    HW124077   1.209   3.104   6.351 -1.8975 -0.9366  1.1462
 4205SOL    HW224078   1.243   2.965   6.389  3.2242  0.7237 -0.2756
 4206SOL     OW24079   2.465   4.000   9.671 -0.6011  0.2139 -0.0492
 4206SOL    HW124080   2.439   3.976   9.760  0.4212  0.7916  0.3905
 4206SOL    HW224081   2.389   4.053   9.648 -0.6557  0.6789  1.2111
 4207SOL     OW24082   2.692   1.472   2.412  0.3824  0.2790 -0.1987
 4207SOL    HW124083   2.632   1.538   2.446 -2.3996 -2.3653  0.0437
 4207SOL    HW224084   2.694   1.492   2.319 -2.2191 -0.5899 -0.4578
 4208SOL     OW24085   2.650   2.080   8.696  0.0225  0.6831  0.1830
 4208SOL    HW124086   2.736   2.080   8.737  0.1079  0.0184  0.0044
 4208SOL    HW224087   2.602   2.157   8.726 -0.1411  0.0786  1.4937
 4209SOL     OW24088   3.870   2.073   0.416 -0.2078 -0.1597  0.4270
 4209SOL    HW124089   3.962   2.098   0.422  0.1983 -2.0862  1.9795
 4209SOL    HW224090   3.880   1.978   0.414 -0.4689 -0.1807  0.0222
 4210SOL     OW24091   1.830   3.288   3.460 -0.1302 -0.5459 -0.4255
 4210SOL    HW124092   1.782   3.281   3.378 -1.0962  0.2783  0.0666
 4210SOL    HW224093   1.883   3.366   3.444  0.0411 -0.5645  0.0473
 4211SOL     OW24094   4.285   4.368   8.302 -0.2839  0.1403  0.0574
 4211SOL    HW124095   4.216   4.407   8.356 -0.7931 -0.8718  0.1377
 4211SOL    HW224096   4.265   4.419   8.223 -0.4267 -0.7179 -0.4694
 4212SOL     OW24097   3.726   0.812   1.780  0.2285  0.4153 -0.3402
 4212SOL    HW124098   3.781   0.777   1.710  0.1839  2.3500 -1.3320
 4212SOL    HW224099   3.798   0.870   1.807  0.7322 -0.1950 -0.3494
 4213SOL     OW24100   2.703   0.042   4.208 -0.2131  0.2896  0.7484
 4213SOL    HW124101   2.681   0.016   4.298  1.0072  0.3955  1.0896
 4213SOL    HW224102   2.622   0.090   4.196  0.1908  1.1173  1.2821
 4214SOL     OW24103   3.860   2.278   7.546  0.0895  1.2285  0.3193
 4214SOL    HW124104   3.848   2.198   7.495  0.4177  0.1986  1.8294
 4214SOL    HW224105   3.770   2.287   7.576 -0.2783 -1.7638  0.1676
 4215SOL     OW24106   3.351   2.370   2.769 -0.2046  0.9384 -0.1891
 4215SOL    HW124107   3.371   2.438   2.834  1.3046  0.8243 -0.5413
 4215SOL    HW224108   3.255   2.361   2.773 -0.1828  1.7797  2.3702
 4216SOL     OW24109   4.233   2.284   8.641 -0.1853 -0.1572  0.5657
 4216SOL    HW124110   4.143   2.274   8.612 -0.7103  0.8299  1.8539
 4216SOL    HW224111   4.274   2.197   8.647 -0.3966 -0.2077  1.3683
 4217SOL     OW24112   2.866   1.080   4.290 -0.3637 -0.2552 -0.1630
 4217SOL    HW124113   2.832   0.997   4.256 -1.3185  0.2244 -0.3592
 4217SOL    HW224114   2.942   1.089   4.232 -0.7526  0.9521 -0.4776
 4218SOL     OW24115   1.845   4.675   4.709 -0.0911  0.2711  0.0045
 4218SOL    HW124116   1.863   0.000   4.627 -0.3346  0.4813  0.0695
 4218SOL    HW224117   1.750   4.681   4.718 -0.0407  1.0317  0.0553
 4219SOL     OW24118   4.397   0.126   5.908  0.2487  0.3377 -0.8852
 4219SOL    HW124119   4.338   0.056   5.882 -2.1500  1.8394  0.5922
 4219SOL    HW224120   4.365   0.209   5.872 -1.7125  0.7420  1.8431
 4220SOL     OW24121   1.725   2.311   5.149  0.1881 -0.1858 -0.3029
 4220SOL    HW124122   1.702   2.404   5.150  0.0118 -0.2269 -0.7828
 4220SOL    HW224123   1.780   2.303   5.071  1.4777  0.0432  0.5817
 4221SOL     OW24124   3.968   0.024   7.433 -0.1435  0.3229  0.2787
 4221SOL    HW124125   4.024   0.042   7.508  0.8589  1.6944 -0.7887
 4221SOL    HW224126   3.885   0.056   7.469 -0.5336 -0.9732  0.5201
 4222SOL     OW24127   4.526   2.664   5.857  0.2642 -0.2334  0.2859
 4222SOL    HW124128   4.466   2.636   5.788 -0.8371 -0.4766  1.3395
 4222SOL    HW224129   4.471   2.660   5.935 -0.8427 -0.8766 -0.5205
 4223SOL     OW24130   2.376   1.870  15.354  0.1123 -0.1438 -0.2791
 4223SOL    HW124131   2.437   1.943  15.366 -2.4032  1.3950  3.1463
 4223SOL    HW224132   2.415   1.811  15.418  0.3494  1.5119  1.1150
 4224SOL     OW24133   2.915   1.760  11.248  0.3874 -0.0954  0.7112
 4224SOL    HW124134   2.852   1.786  11.182  1.9198 -1.2894 -1.2373
 4224SOL    HW224135   2.856   1.703  11.297 -1.5364  2.5189  1.4055
 4225SOL     OW24136   1.303   1.550   4.449 -0.0014 -0.4775  0.3821
 4225SOL    HW124137   1.373   1.606   4.415 -1.9200  1.0028 -1.1759
 4225SOL    HW224138   1.239   1.615   4.480  0.1984  0.7861 -1.8805
 4226SOL     OW24139   0.311   0.052  14.692  0.4155  0.2860  0.7407
 4226SOL    HW124140   0.284   0.071  14.782 -0.2228  2.3163  0.1073
 4226SOL    HW224141   0.402   0.081  14.696  0.5316 -0.0495  0.5731
 4227SOL     OW24142   1.278   3.155   1.782 -0.0071  0.1492 -0.5424
 4227SOL    HW124143   1.337   3.184   1.713  0.0714  0.0310 -0.5251
 4227SOL    HW224144   1.297   3.061   1.783 -1.9458 -0.2537  0.2049
 4228SOL     OW24145   1.593   0.174   5.007  0.2267  0.2016 -0.1551
 4228SOL    HW124146   1.562   0.132   5.087  2.0329 -1.1195 -0.1408
 4228SOL    HW224147   1.511   0.200   4.967 -0.6671  1.5222  2.5192
 4229SOL     OW24148   3.060   2.542   5.748 -0.3190  0.1998 -0.5566
 4229SOL    HW124149   2.995   2.587   5.802  1.7731  2.9984 -0.3704
 4229SOL    HW224150   3.019   2.475   5.693  0.7241 -1.7843  1.1090
 4230SOL     OW24151   0.371   1.474   4.316  0.5367  0.5710 -0.2465
 4230SOL    HW124152   0.336   1.548   4.266  2.0050 -0.3904 -2.6759
 4230SOL    HW224153   0.375   1.410   4.245  1.1451 -0.9985  1.1856
 4231SOL     OW24154   4.202   3.564  13.613 -0.2777 -0.8977 -0.0627
 4231SOL    HW124155   4.145   3.633  13.578  0.4116 -0.2428  0.0866
 4231SOL    HW224156   4.289   3.604  13.623 -0.5514 -0.5888  1.1636
 4232SOL     OW24157   3.006   0.878   7.717  0.4684 -0.0657  0.2727
 4232SOL    HW124158   3.023   0.902   7.808 -1.3765  1.9159  0.0950
 4232SOL    HW224159   3.060   0.800   7.703 -1.0058 -0.9489 -0.4494
 4233SOL     OW24160   2.661   3.650   7.051 -0.6472  0.0678  0.0023
 4233SOL    HW124161   2.719   3.580   7.080  0.7840  1.3358  0.2002
 4233SOL    HW224162   2.584   3.631   7.105 -0.9963 -0.6319 -0.7430
 4234SOL     OW24163   3.864   1.874   6.637 -0.0382 -0.2055 -0.3374
 4234SOL    HW124164   3.936   1.928   6.670 -2.2891  2.4975  0.2368
 4234SOL    HW224165   3.789   1.887   6.696  1.1591 -1.1025  1.3792
 4235SOL     OW24166   2.764   1.600  12.164 -0.1617  0.5780 -0.4810
 4235SOL    HW124167   2.685   1.584  12.112  0.1237 -0.7666 -0.4867
 4235SOL    HW224168   2.816   1.522  12.146  1.6626  1.0997  2.4815
 4236SOL     OW24169   3.854   0.420  13.148  0.3170  0.0051  0.7322
 4236SOL    HW124170   3.802   0.479  13.202 -0.6432 -1.3701  1.3155
 4236SOL    HW224171   3.922   0.484  13.126  1.2434 -1.5816 -0.9997
 4237SOL     OW24172   1.624   2.570   3.355 -0.1664  0.2756 -0.0966
 4237SOL    HW124173   1.701   2.552   3.300 -2.4785 -2.5739 -2.4131
 4237SOL    HW224174   1.571   2.624   3.296 -1.1218  0.1857  0.6809
 4238SOL     OW24175   1.873   2.333  16.217  0.2052  0.3279  0.2444
 4238SOL    HW124176   1.906   2.256  16.169 -1.2738 -0.8483  1.1463
 4238SOL    HW224177   1.901   2.403  16.158  1.5046  1.0615  1.7090
 4239SOL     OW24178   2.988   1.961   1.577 -0.4844  0.0007  0.2094
 4239SOL    HW124179   2.905   1.957   1.625 -1.7925 -1.4815 -2.1664
 4239SOL    HW224180   2.980   2.042   1.527  2.5598 -0.2478 -0.6468
 4240SOL     OW24181   3.564   0.732  13.028 -0.2268 -0.5811 -0.1461
 4240SOL    HW124182   3.630   0.755  13.093  0.8212 -1.0100 -1.0610
 4240SOL    HW224183   3.569   0.806  12.969 -0.0323  0.6617  1.4288
 4241SOL     OW24184   2.988   3.474   6.158 -0.2067 -0.4456  0.2429
 4241SOL    HW124185   2.956   3.390   6.125 -1.3713  0.2561 -0.3910
 4241SOL    HW224186   2.902   3.514   6.169 -0.7447 -1.7184  0.6284
 4242SOL     OW24187   2.717   1.309   4.177 -0.7102 -0.0243 -0.3882
 4242SOL    HW124188   2.753   1.388   4.219 -2.2397  0.0360  0.7883
 4242SOL    HW224189   2.732   1.238   4.239 -1.3805  1.3516  1.3639
 4243SOL     OW24190   1.012   2.618   6.824  0.0526 -0.0781 -0.2129
 4243SOL    HW124191   1.026   2.527   6.850  0.7692  0.5793  1.6965
 4243SOL    HW224192   0.931   2.643   6.868 -0.8755 -3.2855 -0.0459
 4244SOL     OW24193   2.275   2.164   0.296 -0.7051  0.5794  0.0006
 4244SOL    HW124194   2.313   2.249   0.317 -0.6376 -0.1035  2.6128
 4244SOL    HW224195   2.191   2.185   0.256 -0.6600 -1.4236 -1.1660
 4245SOL     OW24196   1.106   1.625  11.484 -0.1777 -0.5162 -0.4489
 4245SOL    HW124197   1.096   1.536  11.449  0.7536  0.0213 -2.0610
 4245SOL    HW224198   1.012   1.646  11.484  0.3336  1.7303 -0.8795
 4246SOL     OW24199   1.081   4.388   0.249 -0.6335 -0.0102 -0.3176
 4246SOL    HW124200   1.103   4.479   0.225  0.6316 -0.7809 -2.1418
 4246SOL    HW224201   1.101   4.349   0.164  2.7678  0.4958  0.2206
 4247SOL     OW24202   2.791   1.279  14.910  0.0131  0.3478 -0.3217
 4247SOL    HW124203   2.801   1.314  14.822  2.1113 -0.1658 -0.2967
 4247SOL    HW224204   2.708   1.311  14.943 -0.4875 -0.6348 -0.6177
 4248SOL     OW24205   4.110   0.997   7.486 -0.2224 -0.1846  0.0398
 4248SOL    HW124206   4.106   0.921   7.429 -0.1801 -0.7995  0.8545
 4248SOL    HW224207   4.020   1.020   7.509  0.1204  1.4049 -0.1877
 4249SOL     OW24208   2.957   1.270   8.999 -0.1547  0.3858 -0.2387
 4249SOL    HW124209   2.904   1.228   9.067 -0.8138  0.6176 -0.6052
 4249SOL    HW224210   3.046   1.262   9.033 -0.5494 -3.3478 -0.0029
 4250SOL     OW24211   2.003   0.590   3.809 -0.1743 -0.3562 -0.4730
 4250SOL    HW124212   2.022   0.520   3.747 -1.3520 -0.7685 -0.3573
 4250SOL    HW224213   2.004   0.659   3.743  1.8236 -0.8798 -0.9918
 4251SOL     OW24214   3.252   3.015   7.962 -0.3982  0.0457  0.3352
 4251SOL    HW124215   3.193   2.940   7.965 -0.2939  0.0216  1.6535
 4251SOL    HW224216   3.224   3.079   8.027 -0.0678  0.2810  0.2464
 4252SOL     OW24217   2.364   0.356   9.898 -0.1073 -0.5062 -0.4852
 4252SOL    HW124218   2.320   0.283   9.854  0.5807 -0.3975 -1.3387
 4252SOL    HW224219   2.423   0.299   9.948 -0.7224  0.5787  1.4735
 4253SOL     OW24220   2.436   4.022   9.954  0.5529 -0.1141  0.5663
 4253SOL    HW124221   2.396   3.982  10.032 -0.3572  1.1922  0.7594
 4253SOL    HW224222   2.528   4.019   9.981  0.0657 -1.7418  2.1042
 4254SOL     OW24223   1.590   2.780   9.221 -0.0523 -0.1574  0.4348
 4254SOL    HW124224   1.592   2.686   9.240  2.0678  0.1405  1.6445
 4254SOL    HW224225   1.550   2.809   9.303  1.3445  0.3023  0.9535
 4255SOL     OW24226   4.223   2.931   0.494  0.5705  0.2645  0.2720
 4255SOL    HW124227   4.268   3.015   0.505 -0.2561  0.6447  0.7799
 4255SOL    HW224228   4.251   2.876   0.567 -2.3547 -0.8724  0.5682
 4256SOL     OW24229   4.515   0.572   8.700 -0.0905  0.4700  0.3873
 4256SOL    HW124230   4.525   0.663   8.671 -1.8264  0.2206 -0.9644
 4256SOL    HW224231   4.574   0.535   8.634 -1.1591  0.9285 -0.8440
 4257SOL     OW24232   1.127   3.909   5.819 -0.7388 -0.2812  0.0360
 4257SOL    HW124233   1.049   3.964   5.817 -0.2282  0.5312  2.2397
 4257SOL    HW224234   1.182   3.943   5.748  0.2905 -2.0516 -0.0118
 4258SOL     OW24235   4.649   0.182  12.818 -0.0113  0.4084  0.0745
 4258SOL    HW124236   4.639   0.124  12.742  0.6881  0.3140  0.0587
 4258SOL    HW224237   4.655   0.262  12.766  0.3429 -0.3391 -1.0516
 4259SOL     OW24238   1.589   2.365   1.290  0.1175 -0.1891 -0.2457
 4259SOL    HW124239   1.499   2.332   1.288  0.4654 -1.2007  0.3595
 4259SOL    HW224240   1.610   2.318   1.209  0.1651  0.2396 -0.4797
 4260SOL     OW24241   1.038   0.063   6.989  0.0795 -0.2453 -0.1903
 4260SOL    HW124242   0.993   0.057   7.074  0.5218  1.7087  0.1635
 4260SOL    HW224243   1.104   4.718   7.009  0.1911  0.1899  0.8922
 4261SOL     OW24244   2.653   4.719  14.787  0.4093  0.0734 -0.3167
 4261SOL    HW124245   2.683   4.685  14.703 -0.7309 -0.8008 -0.3839
 4261SOL    HW224246   2.577   4.662  14.802 -0.0110  1.3787  2.3618
 4262SOL     OW24247   3.303   2.139  11.688  1.0090  0.2989 -0.8313
 4262SOL    HW124248   3.371   2.164  11.626  0.8442  0.8497 -0.7942
 4262SOL    HW224249   3.347   2.108  11.767  0.5797  1.4279 -0.1586
 4263SOL     OW24250   2.642   0.064  11.842  0.1461 -1.0596 -0.1633
 4263SOL    HW124251   2.666   4.701  11.805  1.5305 -0.0672 -1.5875
 4263SOL    HW224252   2.685   0.120  11.777  0.1491 -0.3307  0.4683
 4264SOL     OW24253   1.404   2.539   2.375 -0.5754 -0.1401  0.3684
 4264SOL    HW124254   1.444   2.618   2.339 -1.4560  0.8268  1.5362
 4264SOL    HW224255   1.406   2.477   2.302 -1.0120 -1.1217  1.1840
 4265SOL     OW24256   2.142   0.071   2.466  0.3461  0.1730 -0.8214
 4265SOL    HW124257   2.094   0.005   2.416  0.2411 -0.9215  0.7023
 4265SOL    HW224258   2.199   0.106   2.398 -0.8627  1.8846 -0.9637
 4266SOL     OW24259   4.620   3.324   8.333 -0.1842  0.2757  0.2212
 4266SOL    HW124260   4.557   3.270   8.286  2.9209 -0.8755 -2.5817
 4266SOL    HW224261   4.572   3.372   8.401 -0.5955  1.0256 -0.6077
 4267SOL     OW24262   1.529   3.830   6.348 -0.2405 -0.0251 -0.3604
 4267SOL    HW124263   1.608   3.775   6.346  0.8297  1.4992 -0.0336
 4267SOL    HW224264   1.518   3.839   6.442 -0.9614  1.6194 -0.6074
 4268SOL     OW24265   3.517   4.166  10.493 -0.0900  0.5472  0.0438
 4268SOL    HW124266   3.512   4.163  10.398 -0.0212 -2.0870  0.1360
 4268SOL    HW224267   3.564   4.086  10.517  2.0158  0.9464 -2.7850
 4269SOL     OW24268   1.264   0.973   6.944 -0.8948 -0.3416 -0.4212
 4269SOL    HW124269   1.284   0.961   6.851  0.2812  2.4252 -0.5024
 4269SOL    HW224270   1.199   0.905   6.963  0.2911 -1.9818 -2.2075
 4270SOL     OW24271   0.976   2.069   1.728  0.3487  0.2186  0.5766
 4270SOL    HW124272   1.036   1.994   1.736  0.6790  0.3672 -0.5300
 4270SOL    HW224273   0.956   2.068   1.635 -0.2636  0.8269  0.7027
 4271SOL     OW24274   3.405   3.836   6.615  0.2859 -0.0653  0.1478
 4271SOL    HW124275   3.452   3.759   6.647  0.5521 -0.8004 -1.9547
 4271SOL    HW224276   3.314   3.811   6.629 -0.7960  3.5711 -0.5176
 4272SOL     OW24277   1.474   0.022   3.078  0.5002 -0.0847  0.2757
 4272SOL    HW124278   1.569   0.036   3.077  0.4336  0.3933  0.5974
 4272SOL    HW224279   1.468   4.652   3.107 -0.7578  0.2460  1.0373
 4273SOL     OW24280   1.144   0.588   6.216  0.0924  0.3688 -0.4475
 4273SOL    HW124281   1.192   0.534   6.153 -0.3648 -0.9681  0.3328
 4273SOL    HW224282   1.057   0.553   6.194  0.0994 -0.1691  0.3880
 4274SOL     OW24283   0.303   0.684   3.722  0.4857  0.1896  0.0354
 4274SOL    HW124284   0.213   0.666   3.695 -0.1271 -1.3192  3.0302
 4274SOL    HW224285   0.335   0.598   3.748  1.6626  0.5109 -0.3307
 4275SOL     OW24286   0.728   1.305  17.016  0.3963  0.2228 -0.2731
 4275SOL    HW124287   0.671   1.255  17.074 -0.4575  0.0879 -1.2325
 4275SOL    HW224288   0.680   1.323  16.935 -0.3145  3.3380  0.8063
 4276SOL     OW24289   1.017   2.108  13.916  0.4305 -0.3804  1.1138
 4276SOL    HW124290   1.010   2.033  13.976  0.3690  0.4607  2.1524
 4276SOL    HW224291   0.981   2.069  13.836  0.5318  1.4528  0.1954
 4277SOL     OW24292   4.330   1.817   7.825  0.4907 -0.2672  0.8189
 4277SOL    HW124293   4.245   1.774   7.833  0.8736 -0.7538  2.3189
 4277SOL    HW224294   4.318   1.841   7.733 -1.0507  2.5278  1.7335
 4278SOL     OW24295   4.040   1.675   9.244 -0.2526 -0.0217  0.1627
 4278SOL    HW124296   3.993   1.609   9.193 -0.2619  0.4369 -0.4299
 4278SOL    HW224297   4.104   1.615   9.283  3.0819  2.5394 -1.3968
 4279SOL     OW24298   4.229   2.503  13.395 -0.4235  0.2812 -0.5887
 4279SOL    HW124299   4.147   2.459  13.416  0.7152 -0.7969  1.6044
 4279SOL    HW224300   4.219   2.509  13.300  3.1974 -0.4674 -1.0309
 4280SOL     OW24301   3.856   2.482   3.400 -0.0835 -0.0775 -0.0392
 4280SOL    HW124302   3.883   2.431   3.323 -4.0933 -1.9238 -0.2347
 4280SOL    HW224303   3.761   2.473   3.399 -0.0184 -0.5661 -1.4110
 4281SOL     OW24304   1.207   1.592   0.638  0.2237  0.3703 -0.0413
 4281SOL    HW124305   1.214   1.499   0.616  0.1149  0.3008  0.2192
 4281SOL    HW224306   1.212   1.584   0.733 -1.5326  0.4074  0.0433
 4282SOL     OW24307   1.745   1.867   2.738 -0.4004 -0.0348 -0.1736
 4282SOL    HW124308   1.834   1.847   2.766  1.3896  2.9701 -3.8455
 4282SOL    HW224309   1.707   1.779   2.733  1.8054 -1.0539  1.2686
 4283SOL     OW24310   3.992   0.289   3.233  0.2407  0.2349  0.4344
 4283SOL    HW124311   4.059   0.234   3.194 -1.3023 -0.9788 -0.5007
 4283SOL    HW224312   3.966   0.350   3.164 -1.9117 -0.0846  0.9683
 4284SOL     OW24313   4.164   2.744   3.131  0.3901  0.2048  0.2378
 4284SOL    HW124314   4.096   2.687   3.094 -2.3021  1.8813  2.6023
 4284SOL    HW224315   4.201   2.687   3.199 -0.8499 -1.5891 -0.5896
 4285SOL     OW24316   0.798   3.243  17.419  0.0228  0.2222 -0.5386
 4285SOL    HW124317   0.872   3.277  17.470 -1.7968  1.0240  1.5547
 4285SOL    HW224318   0.732   3.264  17.485  0.6058  3.6368 -1.0479
 4286SOL     OW24319   3.881   1.743   2.943  0.3778 -0.2145  0.3891
 4286SOL    HW124320   3.844   1.802   2.877  0.4611 -2.9647 -2.1223
 4286SOL    HW224321   3.926   1.673   2.896  0.0294  0.9719 -1.6943
 4287SOL     OW24322   1.307   0.273   8.862  0.6920 -0.2838  0.0327
 4287SOL    HW124323   1.247   0.222   8.808 -0.4361  0.5427  0.4860
 4287SOL    HW224324   1.272   0.363   8.864 -2.0169 -1.3374  0.7709
 4288SOL     OW24325   3.478   4.133  14.068  0.0940  0.6769 -0.7157
 4288SOL    HW124326   3.529   4.059  14.035 -0.7926  0.0074 -0.5770
 4288SOL    HW224327   3.401   4.132  14.011  0.0706 -0.1362 -0.6750
 4289SOL     OW24328   2.964   3.677   6.825  0.4015  0.0116  0.2202
 4289SOL    HW124329   2.871   3.655   6.819  0.1445  1.5190 -1.0977
 4289SOL    HW224330   2.992   3.622   6.899  1.1877  1.4069  0.9604
 4290SOL     OW24331   4.141   4.682   2.680 -0.1478 -0.3410  0.1469
 4290SOL    HW124332   4.052   4.716   2.678  0.1170  0.4167  1.0422
 4290SOL    HW224333   4.192   0.034   2.646 -0.4884  0.5378  1.5336
 4291SOL     OW24334   3.476   0.975  14.617 -0.0579 -0.5369 -0.2852
 4291SOL    HW124335   3.565   0.945  14.636  0.4598  0.2046 -1.5279
 4291SOL    HW224336   3.485   1.043  14.551 -0.6445 -0.0286  0.1556
 4292SOL     OW24337   0.280   0.954   0.928 -0.2961  0.0140 -0.5552
 4292SOL    HW124338   0.311   0.896   0.859  0.2137  0.3730 -0.6274
 4292SOL    HW224339   0.357   0.944   0.984 -1.1878  2.0916  1.0413
 4293SOL     OW24340   3.876   4.419   5.275 -0.2969  0.0104 -0.4693
 4293SOL    HW124341   3.904   4.328   5.279 -1.6916 -0.3403  0.9311
 4293SOL    HW224342   3.790   4.412   5.233 -0.4500  1.2303 -0.3646
 4294SOL     OW24343   3.777   0.413   5.284 -0.5245 -0.2874  0.1652
 4294SOL    HW124344   3.792   0.436   5.192 -1.1802 -0.2547  0.0638
 4294SOL    HW224345   3.708   0.349   5.264 -0.9034  0.0506  0.4013
 4295SOL     OW24346   4.598   0.753   2.590  0.1180  0.2687  0.1103
 4295SOL    HW124347   4.517   0.709   2.565  2.2473 -3.1033 -0.9351
 4295SOL    HW224348   4.575   0.844   2.573 -0.7490  0.1570  0.6725
 4296SOL     OW24349   3.579   1.213  14.493 -0.2315  0.3054 -0.1399
 4296SOL    HW124350   3.595   1.201  14.587  0.8105 -0.2299 -0.3912
 4296SOL    HW224351   3.650   1.269  14.462 -1.7045  1.9670 -0.5294
 4297SOL     OW24352   3.272   3.207   3.330  0.7513  0.0935  0.0902
 4297SOL    HW124353   3.224   3.265   3.388 -2.0736 -1.0470 -1.1254
 4297SOL    HW224354   3.230   3.234   3.248  2.8958  3.2760  0.0222
 4298SOL     OW24355   3.914   4.490  12.697  0.6594 -1.1144 -0.2632
 4298SOL    HW124356   3.835   4.527  12.735  0.3880 -0.2064 -1.7059
 4298SOL    HW224357   3.926   4.535  12.613  0.9836 -0.5248  0.0951
 4299SOL     OW24358   3.758   3.710  16.489  0.2827 -0.1902  0.2420
 4299SOL    HW124359   3.717   3.650  16.427  1.0151  1.5052 -1.8483
 4299SOL    HW224360   3.852   3.705  16.476  0.2899 -0.5589  0.4118
 4300SOL     OW24361   4.669   3.401   6.703  0.1592  0.1431  0.3250
 4300SOL    HW124362   4.717   3.420   6.622  0.5171  1.3690  0.8299
 4300SOL    HW224363   4.598   3.349   6.666  0.1910 -0.9740  1.8179
 4301SOL     OW24364   2.405   4.274   0.662 -0.1239 -0.3646  0.6396
 4301SOL    HW124365   2.413   4.215   0.587  0.4471 -0.7921  1.0269
 4301SOL    HW224366   2.377   4.213   0.731  2.7080 -2.4032  0.0035
 4302SOL     OW24367   1.375   1.736  11.849  0.4974 -0.4056 -0.8341
 4302SOL    HW124368   1.448   1.743  11.787  1.1031  0.8020  0.0152
 4302SOL    HW224369   1.371   1.825  11.883  0.3837 -0.1935 -1.4116
 4303SOL     OW24370   0.308   3.138   2.010  0.6404  0.1476  0.0019
 4303SOL    HW124371   0.382   3.185   1.973  0.8267  0.7713  1.1697
 4303SOL    HW224372   0.232   3.171   1.961  1.1019 -0.0556 -0.8535
 4304SOL     OW24373   1.146   1.392  11.332  0.3571  0.3039  0.5061
 4304SOL    HW124374   1.110   1.391  11.244  0.4678  2.1773  0.4456
 4304SOL    HW224375   1.150   1.299  11.354  0.2968  0.2965  0.4857
 4305SOL     OW24376   2.627   4.189   1.869 -0.0440 -0.4386 -0.3817
 4305SOL    HW124377   2.571   4.228   1.936 -0.1649 -0.0723 -0.6954
 4305SOL    HW224378   2.582   4.216   1.789  0.1888 -0.0049 -0.3632
 4306SOL     OW24379   3.738   4.122   8.203  0.0148  0.1990 -0.2251
 4306SOL    HW124380   3.657   4.173   8.202  1.6316  2.7985  0.8937
 4306SOL    HW224381   3.798   4.196   8.201  0.8699 -0.4910 -0.2871
 4307SOL     OW24382   1.254   3.868  16.939  0.1005  0.2282 -0.7020
 4307SOL    HW124383   1.222   3.798  16.997  3.6399  0.2616  1.2954
 4307SOL    HW224384   1.205   3.845  16.860 -2.4924 -0.1373  1.0388
 4308SOL     OW24385   3.957   2.236   3.808  0.4667 -0.1119  0.1967
 4308SOL    HW124386   3.882   2.182   3.781  0.4213  0.9471 -1.8104
 4308SOL    HW224387   3.916   2.322   3.805 -0.3637 -0.4963  0.6111
 4309SOL     OW24388   3.593   1.250  11.061 -0.3847  0.0680  0.1779
 4309SOL    HW124389   3.575   1.157  11.047 -0.6092  0.0570  0.5483
 4309SOL    HW224390   3.501   1.277  11.065 -0.9577 -2.1605  1.8021
 4310SOL     OW24391   4.057   2.625  14.958  0.4389 -0.2444 -0.0536
 4310SOL    HW124392   4.061   2.585  14.871 -0.9472  1.2401 -0.7842
 4310SOL    HW224393   4.145   2.601  14.989  0.7479 -0.4231 -1.0665
 4311SOL     OW24394   2.621   0.982   1.633  0.4944  0.2821 -0.4346
 4311SOL    HW124395   2.542   0.934   1.607  0.9909 -1.9868  2.3616
 4311SOL    HW224396   2.578   1.048   1.687  0.2588  0.3548 -0.7126
 4312SOL     OW24397   3.767   0.715   4.678  0.3513 -0.1212  0.1217
 4312SOL    HW124398   3.806   0.716   4.765  1.6534  3.8488 -0.4920
 4312SOL    HW224399   3.715   0.637   4.693  2.4699 -1.5126  0.2115
 4313SOL     OW24400   4.475   3.842  12.528  0.5032  0.0503 -0.1777
 4313SOL    HW124401   4.481   3.915  12.589 -0.3541  0.3472 -0.4399
 4313SOL    HW224402   4.438   3.884  12.450 -0.2898 -1.1342 -0.4398
 4314SOL     OW24403   1.863   3.447  10.691 -0.1750 -0.5750  0.1594
 4314SOL    HW124404   1.840   3.538  10.670  1.8194  0.0692  0.7644
 4314SOL    HW224405   1.791   3.401  10.648 -1.6292  0.5403  1.4243
 4315SOL     OW24406   4.410   2.800  15.202  0.4651  0.0898  0.3255
 4315SOL    HW124407   4.489   2.842  15.170 -0.0002 -0.5232 -1.6093
 4315SOL    HW224408   4.399   2.835  15.291 -2.7701  1.9853 -0.8065
 4316SOL     OW24409   3.541   4.497   8.784 -0.0726  0.5712  0.2312
 4316SOL    HW124410   3.465   4.506   8.725  1.5301 -1.0642 -2.0598
 4316SOL    HW224411   3.519   4.571   8.841  1.2103 -0.0465  1.5089
 4317SOL     OW24412   4.387   4.370  17.379 -0.1044 -0.3620 -0.0849
 4317SOL    HW124413   4.309   4.327  17.412 -0.4522  0.9151  0.7221
 4317SOL    HW224414   4.457   4.330  17.431 -0.6869 -0.0500  0.9386
 4318SOL     OW24415   1.111   4.185   4.485  0.1152  0.0345  0.0260
 4318SOL    HW124416   1.156   4.146   4.560  0.6511  1.2621  0.3403
 4318SOL    HW224417   1.106   4.274   4.519 -1.5162  1.1648 -3.1508
 4319SOL     OW24418   2.180   0.305   8.221 -0.0221  0.1291 -0.2338
 4319SOL    HW124419   2.097   0.310   8.268  0.8248 -0.2621  1.2937
 4319SOL    HW224420   2.146   0.308   8.131  0.7523  1.8682 -0.4824
 4320SOL     OW24421   2.534   3.716  14.381 -0.2520  0.3041 -0.0393
 4320SOL    HW124422   2.545   3.641  14.323 -0.9349 -0.5124  0.8803
 4320SOL    HW224423   2.495   3.680  14.461  0.4200 -2.6013 -1.0293
 4321SOL     OW24424   4.690   2.818   6.965  0.0880 -0.0108  0.3447
 4321SOL    HW124425   4.648   2.781   6.888 -1.3568  0.4922  0.8882
 4321SOL    HW224426   4.719   2.738   7.008 -1.2848 -0.4477  0.4373
 4322SOL     OW24427   3.473   2.421   9.029 -0.0302  0.3861  0.2835
 4322SOL    HW124428   3.527   2.482   8.978  1.4519 -0.9225  0.2536
 4322SOL    HW224429   3.500   2.457   9.113  1.0459 -0.0634  0.1337
 4323SOL     OW24430   1.638   0.934   4.059  0.5758  0.4744 -0.2568
 4323SOL    HW124431   1.686   0.905   3.981  0.8692 -1.0004  0.4731
 4323SOL    HW224432   1.658   0.859   4.116  2.1451 -1.4257 -3.3196
 4324SOL     OW24433   2.383   1.878  17.543 -1.1096 -0.1050 -0.1958
 4324SOL    HW124434   2.457   1.819  17.543  0.4095  1.8077  0.8579
 4324SOL    HW224435   2.423   1.965  17.537  0.9927 -1.0516  0.3416
 4325SOL     OW24436   4.033   0.412   5.057 -0.0675  0.5001  0.1563
 4325SOL    HW124437   4.112   0.437   5.009  0.2821 -1.1240 -0.0992
 4325SOL    HW224438   4.078   0.340   5.100 -0.5626  1.1584  1.7996
 4326SOL     OW24439   1.084   3.202   3.992  0.2989  0.1358 -0.0256
 4326SOL    HW124440   1.131   3.126   3.957 -1.4069 -1.0341  0.2441
 4326SOL    HW224441   1.092   3.263   3.919 -3.4485 -0.8476 -1.2281
 4327SOL     OW24442   0.533   0.642   5.634  0.1044  0.2563  0.2450
 4327SOL    HW124443   0.543   0.602   5.720 -0.8596  0.8884  0.6463
 4327SOL    HW224444   0.475   0.713   5.659 -0.8666  0.1248 -1.5935
 4328SOL     OW24445   2.829   3.379   2.964  0.5392 -0.0797 -0.2642
 4328SOL    HW124446   2.903   3.407   3.018  0.4228 -0.4898  0.1178
 4328SOL    HW224447   2.805   3.466   2.933 -1.1800 -0.3983  0.1211
 4329SOL     OW24448   3.180   0.891   8.912  0.0689 -0.0192 -0.2058
 4329SOL    HW124449   3.095   0.852   8.931 -0.5335  1.2798 -0.2110
 4329SOL    HW224450   3.153   0.959   8.850 -3.4971 -1.5683 -0.3394
 4330SOL     OW24451   2.331   1.908   2.673  0.1246 -0.3136 -0.2598
 4330SOL    HW124452   2.397   1.933   2.609  1.0016  0.4955  0.9561
 4330SOL    HW224453   2.245   1.919   2.633  0.0300 -0.9536 -0.2372
 4331SOL     OW24454   4.442   4.334   5.475  0.1697  0.3334 -0.4760
 4331SOL    HW124455   4.439   4.282   5.555 -1.8995  1.7620  0.3882
 4331SOL    HW224456   4.528   4.374   5.479  0.5610 -0.2992 -2.6065
 4332SOL     OW24457   3.390   0.379   7.218 -0.3179 -0.4777 -0.2496
 4332SOL    HW124458   3.379   0.355   7.126  1.6704  0.1572 -0.6485
 4332SOL    HW224459   3.453   0.315   7.252  0.8077  1.2407  0.9262
 4333SOL     OW24460   2.732   2.331  16.143  0.1184  0.5802  0.1802
 4333SOL    HW124461   2.749   2.346  16.236 -0.8657  0.3378  0.4008
 4333SOL    HW224462   2.697   2.242  16.138  1.0600  0.1325  1.5963
 4334SOL     OW24463   2.716   2.222   5.227 -0.1531 -0.2478  0.0595
 4334SOL    HW124464   2.803   2.231   5.189  0.0363  0.9229  0.7879
 4334SOL    HW224465   2.735   2.135   5.263 -1.1284 -0.2719  0.5192
 4335SOL     OW24466   3.053   2.098   3.481  0.3730  0.0356 -0.1320
 4335SOL    HW124467   3.093   2.043   3.549 -0.6668 -1.7509 -0.9568
 4335SOL    HW224468   3.098   2.062   3.405 -1.9642 -1.4315 -0.8256
 4336SOL     OW24469   0.958   2.333   1.825  0.7086 -0.1499 -0.1286
 4336SOL    HW124470   1.013   2.334   1.903 -1.8509  1.4978  1.6401
 4336SOL    HW224471   0.972   2.241   1.803  3.4158 -0.0006  0.9844
 4337SOL     OW24472   0.115   3.857   4.827  0.4542 -1.0968  0.3028
 4337SOL    HW124473   0.052   3.789   4.852 -1.6353  0.4820 -0.6631
 4337SOL    HW224474   0.126   3.895   4.914  0.1619 -1.0080  0.3018
 4338SOL     OW24475   3.335   2.488   3.849  0.1147  0.2771  0.2720
 4338SOL    HW124476   3.413   2.488   3.794 -1.3449  0.0574 -1.8088
 4338SOL    HW224477   3.390   2.516   3.922  2.6765  0.6607 -1.8290
 4339SOL     OW24478   0.115   4.593   5.496  0.5935 -0.6743  0.3594
 4339SOL    HW124479   0.068   4.650   5.434  1.6773 -1.0068 -0.7677
 4339SOL    HW224480   0.201   4.633   5.489 -0.1888  1.0704  0.5817
 4340SOL     OW24481   4.175   0.501  14.768 -0.0600 -0.5732  0.4594
 4340SOL    HW124482   4.124   0.550  14.831 -0.2930  1.2153 -1.1110
 4340SOL    HW224483   4.235   0.444  14.817  0.7234 -0.8195 -0.7698
 4341SOL     OW24484   4.200   3.626   6.922  0.5289 -0.0420 -0.1446
 4341SOL    HW124485   4.175   3.637   6.830 -1.4384 -1.1806  0.2616
 4341SOL    HW224486   4.275   3.567   6.914  0.8000 -0.2611  4.2915
 4342SOL     OW24487   2.724   4.455   8.571 -0.0894  0.3831 -0.2042
 4342SOL    HW124488   2.775   4.403   8.509 -1.1432  0.4286 -1.1091
 4342SOL    HW224489   2.777   4.424   8.644  1.1740 -0.4817 -1.4968
 4343SOL     OW24490   0.001   2.677   3.686 -0.3764  0.1663  0.5681
 4343SOL    HW124491   4.714   2.771   3.668 -1.4068  0.1756  1.1398
 4343SOL    HW224492   4.638   2.642   3.658 -0.0526  0.4151 -0.7511
 4344SOL     OW24493   2.641   0.361   1.555 -0.0343 -0.1461  0.1645
 4344SOL    HW124494   2.687   0.362   1.471  0.3989  1.2614  0.4155
 4344SOL    HW224495   2.709   0.312   1.602  0.1101  1.4233  1.6048
 4345SOL     OW24496   1.349   2.349   7.847  0.2228 -0.3155  0.2476
 4345SOL    HW124497   1.378   2.345   7.938  0.8426 -0.6449  0.0356
 4345SOL    HW224498   1.270   2.404   7.845  0.6598  0.3417  0.9745
 4346SOL     OW24499   1.253   1.885   5.225 -0.0193 -0.4069  0.4421
 4346SOL    HW124500   1.314   1.859   5.294 -4.0135 -0.4859  4.0166
 4346SOL    HW224501   1.181   1.921   5.277  0.4447 -1.0704  1.5347
 4347SOL     OW24502   2.384   3.769   1.002 -0.1305  0.2776 -0.2824
 4347SOL    HW124503   2.353   3.778   0.912 -1.4553  0.2466  0.1774
 4347SOL    HW224504   2.358   3.856   1.034 -1.0340 -0.1616  0.1776
 4348SOL     OW24505   0.946   4.026   6.132 -0.0901 -0.1487  0.1154
 4348SOL    HW124506   0.935   3.975   6.213  0.2670 -1.4406 -0.6619
 4348SOL    HW224507   0.886   3.978   6.076 -0.1032 -2.3048  1.9368
 4349SOL     OW24508   2.851   2.105  16.380  0.2511  0.1838  0.0735
 4349SOL    HW124509   2.849   2.009  16.378  1.0448  0.1963 -2.0375
 4349SOL    HW224510   2.758   2.127  16.380  0.6517  1.8709 -1.2160
 4350SOL     OW24511   0.816   3.495  12.725 -0.0209  0.5254  0.2301
 4350SOL    HW124512   0.878   3.471  12.793  1.4037  1.2569 -0.7939
 4350SOL    HW224513   0.817   3.413  12.674 -0.2287  1.0107 -0.5599
 4351SOL     OW24514   1.921   0.763   3.592  0.1507  0.5465  0.2768
 4351SOL    HW124515   1.840   0.718   3.568  0.4471  0.3318 -0.3207
 4351SOL    HW224516   1.986   0.709   3.548 -0.2787 -0.1010  0.4430
 4352SOL     OW24517   0.704   4.039   7.638  0.0511  0.3643  0.5500
 4352SOL    HW124518   0.757   4.116   7.658  1.1358  0.0264 -1.0174
 4352SOL    HW224519   0.668   4.064   7.553  0.0884 -0.2968  0.3384
 4353SOL     OW24520   1.712   1.760  15.684  0.3402  0.4052 -0.9550
 4353SOL    HW124521   1.656   1.747  15.761  1.0734 -0.3862 -0.5575
 4353SOL    HW224522   1.648   1.791  15.621  0.0309  1.5143 -0.0942
 4354SOL     OW24523   1.334   2.404   9.219 -0.1092  0.5471  0.4506
 4354SOL    HW124524   1.253   2.371   9.180  0.2462 -0.2178  0.3684
 4354SOL    HW224525   1.374   2.459   9.152  0.5003 -0.8398 -0.3112
 4355SOL     OW24526   2.634   2.426   5.898 -0.0525 -0.0244  0.2825
 4355SOL    HW124527   2.622   2.479   5.818 -0.4676  1.3175  1.2323
 4355SOL    HW224528   2.711   2.464   5.940 -0.5428 -1.4687  2.4842
 4356SOL     OW24529   3.704   4.551   8.403  0.5669 -0.8999  0.5447
 4356SOL    HW124530   3.618   4.576   8.369  2.0110  1.9013 -1.0487
 4356SOL    HW224531   3.723   4.622   8.464  0.4219  0.8854 -1.4590
 4357SOL     OW24532   0.253   4.600   7.334 -0.3217 -0.2435 -0.5714
 4357SOL    HW124533   0.325   4.545   7.304 -1.3884 -3.1539  2.1264
 4357SOL    HW224534   0.292   4.686   7.324  1.4688 -1.1472 -1.4496
 4358SOL     OW24535   0.462   3.275   1.453 -0.4608  0.6941  0.1051
 4358SOL    HW124536   0.380   3.247   1.493 -0.7160 -0.8278 -1.5162
 4358SOL    HW224537   0.490   3.341   1.517 -0.8707  1.3234 -0.3620
 4359SOL     OW24538   0.975   0.837   4.487 -0.0522  0.0125  0.5465
 4359SOL    HW124539   0.887   0.853   4.521  0.0398 -2.5920  2.0127
 4359SOL    HW224540   1.009   0.925   4.500 -1.5469  0.5259  0.9506
 4360SOL     OW24541   3.256   2.841   6.618  0.2987 -0.0279  0.3801
 4360SOL    HW124542   3.253   2.882   6.704 -0.3931  0.3900  0.1597
 4360SOL    HW224543   3.266   2.749   6.643 -1.6056  0.6097  3.4530
 4361SOL     OW24544   0.167   4.380   6.171 -0.7104 -0.5488 -0.5262
 4361SOL    HW124545   0.126   4.377   6.258  0.7503  0.7956  0.2299
 4361SOL    HW224546   0.210   4.466   6.176 -1.6318 -0.1586  0.7783
 4362SOL     OW24547   2.474   1.378   8.285  0.1416  0.4356 -0.5306
 4362SOL    HW124548   2.420   1.407   8.211  0.7988 -0.4153 -1.3463
 4362SOL    HW224549   2.416   1.409   8.354 -0.2116  0.6511 -0.9201
 4363SOL     OW24550   1.143   2.045  15.969 -0.2117  0.2349 -0.1765
 4363SOL    HW124551   1.119   2.048  16.062  2.3586 -1.0739  0.5333
 4363SOL    HW224552   1.213   2.110  15.972  2.2521 -2.3366 -2.3864
 4364SOL     OW24553   4.601   4.225   3.806 -0.6986  0.1828 -0.1018
 4364SOL    HW124554   4.526   4.178   3.771  1.2450 -1.1273 -2.5755
 4364SOL    HW224555   4.666   4.162   3.836 -0.6348  0.2771 -0.0398
 4365SOL     OW24556   2.125   2.744  10.128 -0.0739 -0.1135 -0.1443
 4365SOL    HW124557   2.078   2.692  10.063 -0.6660  0.3971 -0.1219
 4365SOL    HW224558   2.083   2.716  10.210 -0.4970 -1.2747 -0.7517
 4366SOL     OW24559   0.248   4.091   8.463  0.5085  0.4359 -0.7316
 4366SOL    HW124560   0.239   4.031   8.537  1.8406  0.1363 -0.8096
 4366SOL    HW224561   0.167   4.085   8.413 -1.1671  0.9941  1.9599
 4367SOL     OW24562   3.717   2.945   7.802 -0.0313 -0.3131 -0.6414
 4367SOL    HW124563   3.623   2.960   7.796 -0.0671 -0.1675  0.3563
 4367SOL    HW224564   3.719   2.868   7.744 -0.3210 -0.0847 -0.9552
 4368SOL     OW24565   1.891   0.536  10.100 -0.0426 -0.3979  0.0458
 4368SOL    HW124566   1.976   0.528  10.058  0.7707  0.5017  1.5407
 4368SOL    HW224567   1.874   0.443  10.116 -0.1419 -0.3080  0.4622
 4369SOL     OW24568   0.452   2.171   5.338 -0.2636  0.4256  0.7542
 4369SOL    HW124569   0.497   2.151   5.419  1.5289  0.6312 -0.2034
 4369SOL    HW224570   0.522   2.170   5.273  0.1921  1.4854  1.2380
 4370SOL     OW24571   4.648   4.717   2.039 -0.2524 -0.9438  0.1894
 4370SOL    HW124572   4.562   4.675   2.034  0.1568 -1.5610 -1.8505
 4370SOL    HW224573   4.626   0.077   2.085  1.2267 -0.8768  0.7749
 4371SOL     OW24574   3.828   2.332   4.843 -0.1329 -0.3968 -0.2490
 4371SOL    HW124575   3.733   2.318   4.841 -0.3968  1.4307 -0.0739
 4371SOL    HW224576   3.855   2.334   4.751 -1.3440  1.5834 -0.5588
 4372SOL     OW24577   4.076   2.476   6.296  0.4093 -0.3692  0.2484
 4372SOL    HW124578   4.112   2.445   6.378  1.4364 -1.8059 -0.7505
 4372SOL    HW224579   4.088   2.571   6.295 -0.1710 -0.2975  0.0295
 4373SOL     OW24580   1.773   4.426   7.583  0.2118 -1.1655 -0.1330
 4373SOL    HW124581   1.809   4.345   7.546  0.4845 -1.7184  1.3417
 4373SOL    HW224582   1.850   4.480   7.598 -0.8441  0.9422 -2.3664
 4374SOL     OW24583   3.300   2.776  11.198 -0.4484  0.6656  0.5416
 4374SOL    HW124584   3.361   2.720  11.150 -1.6820 -0.2253  0.0278
 4374SOL    HW224585   3.276   2.841  11.132  1.8221 -0.1344 -1.0834
 4375SOL     OW24586   3.781   2.535   4.105 -0.6182  0.1066  0.1209
 4375SOL    HW124587   3.830   2.475   4.161 -0.8971  0.7644  1.0643
 4375SOL    HW224588   3.835   2.522   4.027  0.4209  3.5163  0.2720
 4376SOL     OW24589   4.691   1.452   6.329 -0.3647 -0.0991  0.1834
 4376SOL    HW124590   0.021   1.392   6.276  0.8836  1.0440  0.0975
 4376SOL    HW224591   4.608   1.439   6.284  0.3075 -0.9081 -0.8340
 4377SOL     OW24592   1.504   0.408   7.480 -0.4344  0.6227  0.2155
 4377SOL    HW124593   1.570   0.424   7.547  2.3144 -1.3874 -2.0170
 4377SOL    HW224594   1.538   0.324   7.451 -0.0116  0.5509  0.9445
 4378SOL     OW24595   0.622   1.490   2.846 -0.2261  0.1782  0.1901
 4378SOL    HW124596   0.587   1.514   2.761 -3.3429 -0.9297  1.1628
 4378SOL    HW224597   0.544   1.520   2.894 -1.0250  2.8844 -2.8474
 4379SOL     OW24598   2.879   0.437  13.523  0.0601  0.2574 -0.7000
 4379SOL    HW124599   2.923   0.443  13.438 -0.9848  0.3763 -1.2262
 4379SOL    HW224600   2.819   0.365  13.505 -0.4424  1.1581 -2.5371
 4380SOL     OW24601   3.873   1.894  17.019 -0.3539  0.1740 -0.0861
 4380SOL    HW124602   3.830   1.881  16.934  0.9638  0.2436 -0.7748
 4380SOL    HW224603   3.855   1.987  17.014 -1.2436  0.1291  2.4923
 4381SOL     OW24604   2.940   3.003   0.183 -0.4736 -0.1794  0.0121
 4381SOL    HW124605   2.865   3.008   0.242  0.5920  1.0454  1.2518
 4381SOL    HW224606   2.977   3.092   0.186  1.9468 -1.2230  1.3671
 4382SOL     OW24607   0.631   1.227   5.481  0.0620  0.8540 -0.3875
 4382SOL    HW124608   0.643   1.317   5.449  0.9509  1.0372  0.4772
 4382SOL    HW224609   0.612   1.235   5.574 -0.8788 -2.2426 -0.3261
 4383SOL     OW24610   1.776   0.340   8.457  0.3070 -0.0687 -0.2472
 4383SOL    HW124611   1.746   0.344   8.548 -0.7638 -2.8582 -0.4928
 4383SOL    HW224612   1.727   0.411   8.417 -0.1974  0.2903  0.9977
 4384SOL     OW24613   3.332   2.848   4.475  0.0749  0.0393  0.1792
 4384SOL    HW124614   3.276   2.925   4.485  1.0398  0.7398  0.2852
 4384SOL    HW224615   3.416   2.894   4.474  0.7947 -1.2463  2.0820
 4385SOL     OW24616   2.418   1.857   2.141 -0.3899 -0.0801 -0.8665
 4385SOL    HW124617   2.467   1.910   2.078  2.6615 -0.3377  1.2862
 4385SOL    HW224618   2.376   1.934   2.179 -0.4338 -1.5299  2.0583
 4386SOL     OW24619   2.315   0.717   9.661  0.0188 -0.2414  0.0445
 4386SOL    HW124620   2.254   0.780   9.698 -0.8576 -2.1718  1.8314
 4386SOL    HW224621   2.251   0.652   9.633 -0.7931  0.4949  0.2007
 4387SOL     OW24622   3.531   0.967  12.886  0.7999 -0.2815 -0.1697
 4387SOL    HW124623   3.535   0.951  12.792 -2.5884 -1.3356 -0.1395
 4387SOL    HW224624   3.491   1.054  12.880  0.5768 -0.3689  0.0664
 4388SOL     OW24625   0.083   3.606   3.891  0.3061  0.0397 -0.1139
 4388SOL    HW124626   0.130   3.524   3.905 -1.3271 -0.7702  0.5787
 4388SOL    HW224627   0.094   3.609   3.796  0.0509 -1.3037 -0.1933
 4389SOL     OW24628   3.817   1.416   7.410 -0.4763  0.3468 -0.2385
 4389SOL    HW124629   3.895   1.432   7.462 -0.8680  0.1120  0.4244
 4389SOL    HW224630   3.807   1.321   7.406 -0.5256  0.4377 -2.5052
 4390SOL     OW24631   0.042   1.763   7.488  0.0789 -0.2888  0.1075
 4390SOL    HW124632   4.675   1.776   7.455 -0.0589 -1.3513  0.0824
 4390SOL    HW224633   0.056   1.848   7.531  0.9778 -0.6997  0.6190
 4391SOL     OW24634   4.612   3.754  12.798  0.3335  0.1761  0.2525
 4391SOL    HW124635   4.611   3.728  12.706 -0.5308 -0.8660  0.5510
 4391SOL    HW224636   4.681   3.820  12.800  0.1282  0.3633  1.5300
 4392SOL     OW24637   1.779   2.454   3.984  0.1906 -0.0281  0.1046
 4392SOL    HW124638   1.795   2.381   3.924  0.4291 -0.0184  0.1575
 4392SOL    HW224639   1.849   2.513   3.957 -0.1397 -0.2258 -1.1675
 4393SOL     OW24640   1.296   2.126   7.246  0.2689 -0.9474  0.3403
 4393SOL    HW124641   1.337   2.081   7.172  0.2455  1.6598 -1.2614
 4393SOL    HW224642   1.357   2.113   7.318  1.4732  1.5494 -0.2253
 4394SOL     OW24643   1.727   1.982   8.027  0.2125 -0.4126 -0.1306
 4394SOL    HW124644   1.760   1.964   8.115  0.7221 -2.0202 -0.6625
 4394SOL    HW224645   1.659   1.914   8.028  0.4088 -0.6045  0.4640
 4395SOL     OW24646   1.881   2.866   6.296 -0.4292  0.8808 -0.0180
 4395SOL    HW124647   1.830   2.789   6.322  1.1296 -1.2984 -3.3593
 4395SOL    HW224648   1.894   2.909   6.380 -2.6772  2.6950 -0.5898
 4396SOL     OW24649   3.488   3.779  15.032 -0.0874  0.3647  0.1051
 4396SOL    HW124650   3.453   3.818  15.112  0.2296  0.3735  0.2397
 4396SOL    HW224651   3.403   3.747  15.003 -0.9370  2.4897  0.2456
 4397SOL     OW24652   2.262   4.355   3.172  0.2059 -0.4295 -0.3862
 4397SOL    HW124653   2.172   4.388   3.172 -0.6415 -2.7525 -0.9470
 4397SOL    HW224654   2.245   4.263   3.157  1.0987 -0.0746 -3.5812
 4398SOL     OW24655   2.168   0.239   3.916  0.4066 -0.4071  0.1564
 4398SOL    HW124656   2.208   0.175   3.974  1.4327  0.3189  0.2549
 4398SOL    HW224657   2.089   0.194   3.885 -0.5817  2.6118 -1.8057
 4399SOL     OW24658   3.716   3.701   9.648  0.1116 -1.1754 -0.1434
 4399SOL    HW124659   3.684   3.647   9.575 -0.4375  0.4027 -1.0666
 4399SOL    HW224660   3.719   3.636   9.718 -0.1939 -2.5853 -1.4216
 4400SOL     OW24661   1.827   2.830  14.021 -0.2682  0.7886 -0.2332
 4400SOL    HW124662   1.891   2.899  14.007  1.6404 -1.0892 -0.6894
 4400SOL    HW224663   1.801   2.815  13.930  1.2274 -1.6982 -0.2557
 4401SOL     OW24664   0.526   3.087  10.960  0.2276 -0.0978  0.4835
 4401SOL    HW124665   0.562   3.173  10.938  0.9709 -0.4886  0.1760
 4401SOL    HW224666   0.601   3.049  11.005  0.2873  0.6147  0.9779
 4402SOL     OW24667   4.643   3.102  17.153 -0.0304  0.0210 -0.4328
 4402SOL    HW124668   4.709   3.138  17.093 -0.1084  0.2776 -0.3645
 4402SOL    HW224669   4.688   3.025  17.186 -2.1701 -0.0428  2.3195
 4403SOL     OW24670   1.533   4.465   9.760  0.3114 -0.2246 -0.4321
 4403SOL    HW124671   1.541   4.560   9.770  0.9801 -0.5155  1.8239
 4403SOL    HW224672   1.608   4.432   9.810 -0.3256 -1.3016 -0.1877
 4404SOL     OW24673   3.202   4.364  12.101  0.2808  0.5563  0.0947
 4404SOL    HW124674   3.252   4.405  12.031  0.3577 -0.1817 -0.2868
 4404SOL    HW224675   3.262   4.363  12.176 -0.1053 -0.6033  0.3953
 4405SOL     OW24676   4.109   2.714  10.956  0.4869 -0.0973 -0.2768
 4405SOL    HW124677   4.121   2.631  10.910 -3.2986 -0.6513 -0.2414
 4405SOL    HW224678   4.020   2.693  10.982  0.1554  2.4988  0.6876
 4406SOL     OW24679   2.385   1.779  16.706 -0.5660  0.0984 -0.2610
 4406SOL    HW124680   2.330   1.725  16.649 -1.5644  0.8117  0.0175
 4406SOL    HW224681   2.316   1.816  16.761  0.2906 -0.2503  1.0325
 4407SOL     OW24682   4.670   2.792  17.686 -0.1823  0.2051  0.2703
 4407SOL    HW124683   0.022   2.818   0.051 -0.0561  1.7724 -0.6553
 4407SOL    HW224684   4.626   2.727   0.052  0.7163 -0.0883  0.6285
 4408SOL     OW24685   3.324   2.571   7.924 -0.2144 -0.1752  0.2051
 4408SOL    HW124686   3.382   2.498   7.944  3.5635  2.3104 -1.6083
 4408SOL    HW224687   3.255   2.555   7.988 -0.8123  1.2430 -0.0756
 4409SOL     OW24688   0.672   1.005   2.828 -0.2544 -0.1487  0.4757
 4409SOL    HW124689   0.700   1.083   2.875 -2.3575  1.8878 -1.6734
 4409SOL    HW224690   0.748   0.982   2.775 -0.6702 -1.0491  0.2528
 4410SOL     OW24691   2.094   1.353  12.865  0.1600  0.0142 -0.1468
 4410SOL    HW124692   2.165   1.332  12.804  0.6897 -0.7249  0.7172
 4410SOL    HW224693   2.028   1.392  12.807  0.5310  0.1809 -0.4586
 4411SOL     OW24694   2.413   1.061  11.633 -0.5924  0.1570 -0.2496
 4411SOL    HW124695   2.424   1.020  11.719  0.2364 -0.2222 -0.5403
 4411SOL    HW224696   2.464   1.142  11.630 -2.7987  1.6133  1.4593
 4412SOL     OW24697   2.111   3.533   6.129 -0.6319 -0.2463 -0.2975
 4412SOL    HW124698   2.179   3.531   6.061  0.7199 -2.8720  1.1342
 4412SOL    HW224699   2.035   3.493   6.088 -1.2614  1.4659 -0.8299
 4413SOL     OW24700   3.532   3.709   2.865 -0.0044 -0.1249  0.3272
 4413SOL    HW124701   3.586   3.723   2.787 -2.0135  1.1080 -0.8361
 4413SOL    HW224702   3.464   3.660   2.820  0.5421  0.3527 -1.0317
 4414SOL     OW24703   2.701   1.854   4.687  0.3117  0.1439  0.6774
 4414SOL    HW124704   2.771   1.855   4.622  0.4716  1.3932  0.8568
 4414SOL    HW224705   2.755   1.880   4.762  1.2588 -0.5702  0.2297
 4415SOL     OW24706   0.672   1.238   8.059 -0.4365  0.0490  0.1272
 4415SOL    HW124707   0.622   1.292   7.997 -0.7730  3.0236  3.0090
 4415SOL    HW224708   0.612   1.233   8.133  0.6108  2.4392  1.1553
 4416SOL     OW24709   1.846   3.932   1.933  0.5953 -0.3042  0.2217
 4416SOL    HW124710   1.859   3.939   1.839  2.0190 -0.1641  0.4284
 4416SOL    HW224711   1.888   3.847   1.947  0.4337 -0.5717 -0.9181
 4417SOL     OW24712   0.207   1.630   0.633  0.3840 -0.3225 -0.0515
 4417SOL    HW124713   0.134   1.689   0.652 -1.1095 -2.5347  1.1278
 4417SOL    HW224714   0.279   1.688   0.655  1.0549 -1.1067 -0.1817
 4418SOL     OW24715   4.154   2.141   3.026 -0.0738 -0.4751 -0.1468
 4418SOL    HW124716   4.087   2.123   2.960 -0.0225 -4.7033  0.9303
 4418SOL    HW224717   4.156   2.052   3.063 -1.1822  0.2760  1.7255
 4419SOL     OW24718   3.891   0.607   6.976 -0.1398  0.4804  0.0254
 4419SOL    HW124719   3.970   0.660   6.965  0.3736 -0.4354 -0.7586
 4419SOL    HW224720   3.832   0.662   7.026  0.5480 -0.2372  1.6465
 4420SOL     OW24721   0.518   2.305   6.652 -0.4771  0.4569  0.3367
 4420SOL    HW124722   0.533   2.376   6.590 -1.6838 -0.7228 -1.2942
 4420SOL    HW224723   0.543   2.350   6.733  0.0614  0.5853  0.0954
 4421SOL     OW24724   2.311   3.581   5.124  0.0723 -0.7717  0.0761
 4421SOL    HW124725   2.329   3.551   5.213  0.6858  2.2795  0.9772
 4421SOL    HW224726   2.354   3.667   5.125 -3.6208  1.1056 -1.3613
 4422SOL     OW24727   0.413   2.483  16.245 -0.2675  0.4198  0.0011
 4422SOL    HW124728   0.418   2.571  16.208  1.6410  1.2344  2.1997
 4422SOL    HW224729   0.431   2.424  16.171  1.7836  0.2180  0.6578
 4423SOL     OW24730   4.097   3.714   3.612 -0.2518  0.1444  0.3962
 4423SOL    HW124731   4.182   3.736   3.574 -0.3136  0.8735  0.6856
 4423SOL    HW224732   4.055   3.799   3.622  2.3922  1.3589  1.2231
 4424SOL     OW24733   1.728   1.731   7.358 -0.1400 -0.3976 -0.5076
 4424SOL    HW124734   1.762   1.796   7.298 -0.5108  0.2763  0.0008
 4424SOL    HW224735   1.632   1.735   7.357 -0.1543  0.2744  2.3010
 4425SOL     OW24736   0.094   2.077  11.714 -0.6836 -0.3870  0.0267
 4425SOL    HW124737   0.064   2.083  11.804  0.6323  0.3446  0.4190
 4425SOL    HW224738   0.085   1.986  11.687  0.5667 -0.1405 -1.2344
 4426SOL     OW24739   0.717   3.481   4.469  0.0646  0.5212  0.0714
 4426SOL    HW124740   0.684   3.450   4.554  1.7096  2.2616  1.3580
 4426SOL    HW224741   0.637   3.504   4.422 -0.7007  0.9281  1.5670
 4427SOL     OW24742   4.399   0.148   8.777  0.0524 -0.1643  0.1132
 4427SOL    HW124743   4.424   0.230   8.820  2.5301  0.0534 -1.7791
 4427SOL    HW224744   4.306   0.157   8.758  0.1303  1.2460  0.4076
 4428SOL     OW24745   4.359   3.861   4.760  0.6207 -0.1582 -0.4319
 4428SOL    HW124746   4.272   3.848   4.722  0.5064 -1.9112  0.4284
 4428SOL    HW224747   4.413   3.808   4.701 -0.1077 -0.9252 -0.4031
 4429SOL     OW24748   1.535   4.516   5.032  0.4684 -0.6749 -0.2906
 4429SOL    HW124749   1.492   4.437   5.064 -0.3527 -0.0666  0.1059
 4429SOL    HW224750   1.563   4.561   5.111  0.2768 -1.6276  0.3127
 4430SOL     OW24751   2.241   2.080   8.340  0.1649  0.0112 -0.3204
 4430SOL    HW124752   2.208   1.992   8.321  1.8706 -1.2688  2.6325
 4430SOL    HW224753   2.257   2.065   8.433 -0.5086  0.0826 -0.1926
 4431SOL     OW24754   1.024   2.436  14.177 -0.1373  0.7843 -0.2124
 4431SOL    HW124755   0.979   2.394  14.250  0.6379  0.5220  0.1177
 4431SOL    HW224756   0.958   2.495  14.141  1.6893  3.0238  0.1076
 4432SOL     OW24757   4.657   2.687   4.357 -0.0037 -0.7596  0.0456
 4432SOL    HW124758   4.571   2.693   4.398 -0.4715 -0.3351 -1.0074
 4432SOL    HW224759   4.706   2.757   4.401 -1.5870 -0.7664  1.7965
 4433SOL     OW24760   0.228   1.433   9.622  0.0242  0.0346  0.8996
 4433SOL    HW124761   0.169   1.358   9.622  0.0031  0.0487 -1.8951
 4433SOL    HW224762   0.321   1.411   9.633  0.0283  0.1702  1.1396
 4434SOL     OW24763   0.086   2.935  12.812  0.3219  0.1743  0.0185
 4434SOL    HW124764   0.047   2.888  12.885  0.8572 -0.1931  0.0690
 4434SOL    HW224765   0.166   2.966  12.854 -1.5603  3.9016  0.8358
 4435SOL     OW24766   1.454   3.853   4.815 -0.7263  0.3037  0.4483
 4435SOL    HW124767   1.453   3.773   4.868 -1.2375  0.7593  1.1175
 4435SOL    HW224768   1.491   3.815   4.735 -2.1831  0.2078 -0.1779
 4436SOL     OW24769   3.781   0.060  12.668 -0.0717  0.3912 -0.0924
 4436SOL    HW124770   3.873   0.048  12.692  0.3487  2.3699 -0.7637
 4436SOL    HW224771   3.786   0.122  12.595 -0.6921 -1.0157 -1.3307
 4437SOL     OW24772   3.159   0.703   5.459 -0.0558  0.3665 -0.1130
 4437SOL    HW124773   3.138   0.778   5.402 -2.5836 -0.9930 -0.9460
 4437SOL    HW224774   3.150   0.633   5.394 -0.3511 -1.5319  1.9693
 4438SOL     OW24775   1.127   3.290   8.750 -0.4164 -0.3049 -0.4008
 4438SOL    HW124776   1.146   3.369   8.800 -1.5696 -1.0554  1.2160
 4438SOL    HW224777   1.216   3.270   8.720  0.3968 -0.7183  2.2520
 4439SOL     OW24778   3.738   1.659   4.194  0.0385  0.0200 -0.4072
 4439SOL    HW124779   3.692   1.592   4.144 -3.7142  0.8817  1.8997
 4439SOL    HW224780   3.735   1.724   4.124 -0.8869 -0.3637 -0.7200
 4440SOL     OW24781   1.609   0.242   5.632  0.0818  0.3159  0.2709
 4440SOL    HW124782   1.536   0.201   5.586 -0.0766  0.6948  0.1844
 4440SOL    HW224783   1.563   0.321   5.662 -2.5667 -0.9448 -0.5286
 4441SOL     OW24784   0.864   0.739   7.928 -0.1083 -0.5639  0.2933
 4441SOL    HW124785   0.957   0.759   7.930 -0.6277  1.8457 -0.1727
 4441SOL    HW224786   0.831   0.827   7.945 -1.3534 -0.8015 -0.8709
 4442SOL     OW24787   1.237   2.454  13.017 -0.3387  0.5684  0.1255
 4442SOL    HW124788   1.260   2.401  12.940  0.6989 -0.8863  1.4280
 4442SOL    HW224789   1.262   2.393  13.087  0.9369  1.3987  0.3803
 4443SOL     OW24790   2.756   2.014   1.213  0.1452 -0.1402  0.2252
 4443SOL    HW124791   2.802   2.095   1.189 -1.8439  1.9491  3.3693
 4443SOL    HW224792   2.749   2.032   1.307  0.2041 -0.7388  0.3438
 4444SOL     OW24793   1.388   3.608   4.907 -0.0978 -0.0803 -0.1124
 4444SOL    HW124794   1.384   3.531   4.851 -1.3991 -0.4392  0.4773
 4444SOL    HW224795   1.295   3.628   4.916  0.6948  3.3009  0.8651
 4445SOL     OW24796   3.550   3.144   8.037  0.0668  0.1237 -0.2529
 4445SOL    HW124797   3.476   3.169   8.091 -0.0457 -1.3934  0.2938
 4445SOL    HW224798   3.579   3.065   8.083  0.7703  0.4192 -0.1900
 4446SOL     OW24799   1.451   3.451  17.134 -0.1980  0.0503 -0.0043
 4446SOL    HW124800   1.496   3.505  17.069 -3.8152 -0.2757 -2.7938
 4446SOL    HW224801   1.484   3.369  17.098  1.5744  0.3384  0.9576
 4447SOL     OW24802   2.616   1.983  10.742 -0.3641 -0.0766  0.7147
 4447SOL    HW124803   2.665   2.040  10.682 -1.9421  1.2215  0.6616
 4447SOL    HW224804   2.575   1.922  10.681 -2.1235 -0.2858  2.1150
 4448SOL     OW24805   1.543   4.172  17.077  0.3232 -0.2633  0.3025
 4448SOL    HW124806   1.524   4.255  17.122 -0.8319 -0.5799  0.3846
 4448SOL    HW224807   1.614   4.207  17.022 -1.6200  0.3317 -1.8332
 4449SOL     OW24808   2.324   4.719   6.829  0.3860 -0.4642 -0.0360
 4449SOL    HW124809   2.334   0.075   6.774  3.2977 -1.4161 -0.8514
 4449SOL    HW224810   2.392   0.014   6.896  2.1634 -1.5985 -1.5720
 4450SOL     OW24811   2.389   3.865  16.283  0.6654 -0.0301  0.3630
 4450SOL    HW124812   2.383   3.850  16.188 -1.7022  2.0823  0.1766
 4450SOL    HW224813   2.297   3.884  16.301  0.7042  1.4804 -0.9837
 4451SOL     OW24814   0.969   2.474   2.721 -0.4337  0.0044 -0.6401
 4451SOL    HW124815   0.889   2.474   2.668 -0.1467  0.9151 -1.0556
 4451SOL    HW224816   1.029   2.469   2.647  0.5622 -1.5465  0.2728
 4452SOL     OW24817   2.888   0.403   6.564  0.2697 -0.0756  0.3927
 4452SOL    HW124818   2.867   0.492   6.590  0.2859  0.0761 -0.1107
 4452SOL    HW224819   2.983   0.413   6.555  0.0869  1.1536 -0.1499
 4453SOL     OW24820   3.424   1.214   6.520 -0.4428  0.8183  0.3619
 4453SOL    HW124821   3.518   1.225   6.505 -0.5849  0.7400 -0.6304
 4453SOL    HW224822   3.396   1.303   6.500  0.4048  1.1553  0.6937
 4454SOL     OW24823   3.080   0.991   7.948  0.0630 -0.1358  0.0692
 4454SOL    HW124824   3.147   0.986   8.017  0.0236  1.1584  0.2059
 4454SOL    HW224825   3.006   1.009   8.006  0.1287  1.5066 -0.3666
 4455SOL     OW24826   1.347   3.875  17.210 -0.2420  0.3519  0.1678
 4455SOL    HW124827   1.292   3.952  17.222  2.5152  2.0684  1.6448
 4455SOL    HW224828   1.291   3.803  17.179 -0.0775 -0.6461  2.1862
 4456SOL     OW24829   0.090   0.647   1.480  0.7110  0.1479 -1.2056
 4456SOL    HW124830   4.719   0.662   1.461  0.5887 -1.2338 -1.6820
 4456SOL    HW224831   0.132   0.688   1.404  1.1948  0.8939 -0.5414
 4457SOL     OW24832   0.889   0.943   6.623 -0.1609  0.0140 -0.3854
 4457SOL    HW124833   0.831   0.912   6.692  0.2892 -3.0565 -1.3888
 4457SOL    HW224834   0.906   1.034   6.646 -0.0934  0.4297 -2.0319
 4458SOL     OW24835   0.252   4.397   7.701 -0.3840 -0.0048  0.3272
 4458SOL    HW124836   0.257   4.493   7.705 -0.6844 -0.0127  0.8034
 4458SOL    HW224837   0.182   4.388   7.636 -0.5417  0.1650  0.4722
 4459SOL     OW24838   2.442   4.037   3.166 -0.0834 -0.0356 -0.4472
 4459SOL    HW124839   2.490   3.955   3.154 -0.2409 -0.1847 -0.0751
 4459SOL    HW224840   2.500   4.096   3.118 -0.8058  1.8459  0.9566
 4460SOL     OW24841   1.571   2.318   2.711  0.4971  0.8110  0.1160
 4460SOL    HW124842   1.578   2.405   2.671 -2.1724 -0.1333 -2.3987
 4460SOL    HW224843   1.626   2.275   2.645 -0.9946  1.6398 -1.6688
 4461SOL     OW24844   0.246   3.894   7.850 -0.3413 -0.3374 -0.5210
 4461SOL    HW124845   0.322   3.949   7.833 -0.1455 -0.0503  1.3323
 4461SOL    HW224846   0.267   3.819   7.794  0.0543 -1.9721  1.8115
 4462SOL     OW24847   0.491   0.659  10.174 -0.1619 -0.3133  0.1295
 4462SOL    HW124848   0.476   0.752  10.193  0.6053  0.0351 -0.9214
 4462SOL    HW224849   0.476   0.664  10.079 -1.5660 -0.2435  0.3521
 4463SOL     OW24850   2.951   0.078  14.227  0.0788 -0.0286 -0.9833
 4463SOL    HW124851   2.895   0.004  14.206 -2.2516  1.0226  1.4659
 4463SOL    HW224852   3.035   0.041  14.253 -0.4883  0.0534  0.9307
 4464SOL     OW24853   0.556   0.259   0.739 -0.0990  0.4221 -0.2469
 4464SOL    HW124854   0.559   0.179   0.686 -0.4332  0.9893 -1.1261
 4464SOL    HW224855   0.564   0.335   0.682 -1.8985  0.2372 -0.7413
 4465SOL     OW24856   2.075   0.033   7.254 -0.0748  0.4540  0.3146
 4465SOL    HW124857   2.085   4.690   7.184  0.6389  0.5666  0.3168
 4465SOL    HW224858   2.009   0.079   7.203  0.0578 -0.7005 -0.9149
 4466SOL     OW24859   2.168   2.355   6.530  0.0176  0.5839 -0.4981
 4466SOL    HW124860   2.205   2.267   6.523 -1.3056 -0.0097 -0.0401
 4466SOL    HW224861   2.252   2.396   6.510  0.8108  0.3508  2.3449
 4467SOL     OW24862   2.619   0.435  14.729 -0.2754 -0.4816 -0.0796
 4467SOL    HW124863   2.668   0.445  14.648 -0.1012 -2.0203 -0.1779
 4467SOL    HW224864   2.575   0.350  14.720 -0.2418 -0.5386  0.2784
 4468SOL     OW24865   3.814   3.784   5.119 -0.3557  0.3582  0.4335
 4468SOL    HW124866   3.817   3.690   5.099  3.6220  0.5294  0.2119
 4468SOL    HW224867   3.828   3.814   5.029 -2.6909  1.7573  0.5485
 4469SOL     OW24868   3.940   4.053  13.504  0.0781 -0.2656  0.1199
 4469SOL    HW124869   4.006   4.100  13.555  0.5419  0.9310 -1.6007
 4469SOL    HW224870   3.990   4.043  13.423 -0.5507  1.9862 -0.5346
 4470SOL     OW24871   2.097   1.284  16.859  0.0525  0.7423  0.0920
 4470SOL    HW124872   2.064   1.371  16.879 -0.4820  0.2558  1.2972
 4470SOL    HW224873   2.190   1.299  16.877 -0.3317  2.1544  0.8628
 4471SOL     OW24874   4.123   1.203  12.682 -0.1570 -0.5146 -0.1790
 4471SOL    HW124875   4.182   1.221  12.610  0.1078 -0.9478 -0.0663
 4471SOL    HW224876   4.108   1.288  12.723  0.0850 -0.2016 -0.7541
 4472SOL     OW24877   1.461   3.527  15.537 -0.1194  0.3488  0.4711
 4472SOL    HW124878   1.389   3.520  15.599  0.0960  0.1569  0.6995
 4472SOL    HW224879   1.407   3.572  15.472  0.0285 -0.4165 -0.1819
 4473SOL     OW24880   2.603   0.201   6.299 -0.2316  1.3192  0.0561
 4473SOL    HW124881   2.570   0.168   6.215 -0.4417 -0.1110  0.7006
 4473SOL    HW224882   2.657   0.132   6.336 -2.8774 -0.4142  0.6956
 4474SOL     OW24883   4.353   1.493   2.619  0.1684 -0.3789 -0.6636
 4474SOL    HW124884   4.398   1.434   2.681  0.2373  1.4057  0.9885
 4474SOL    HW224885   4.261   1.484   2.644  0.5220 -0.4310  0.6564
 4475SOL     OW24886   1.837   3.120   1.396 -0.9613  0.2738 -0.0458
 4475SOL    HW124887   1.815   3.161   1.312 -0.7581  1.7960  0.6483
 4475SOL    HW224888   1.929   3.099   1.383 -0.7418  2.0094 -1.3035
 4476SOL     OW24889   3.287   0.770   4.566  0.2679 -0.5184 -0.0220
 4476SOL    HW124890   3.350   0.750   4.497  0.2559  1.5501 -0.6440
 4476SOL    HW224891   3.240   0.841   4.523  1.2360 -0.0814 -0.3522
 4477SOL     OW24892   3.714   2.695  14.938  0.0036  0.2524  0.3068
 4477SOL    HW124893   3.800   2.729  14.960  1.1531 -1.1765 -1.9210
 4477SOL    HW224894   3.653   2.766  14.957  0.0050  1.0194 -2.4941
 4478SOL     OW24895   3.881   3.794   2.624 -0.6933 -0.1733  0.4197
 4478SOL    HW124896   3.834   3.744   2.557  1.7401 -2.1650  0.2035
 4478SOL    HW224897   3.957   3.736   2.629  0.1168  0.8170 -0.3270
 4479SOL     OW24898   1.208   2.044   4.763  0.1147 -0.4745  0.6716
 4479SOL    HW124899   1.158   2.049   4.844  0.6697  1.1803  0.9168
 4479SOL    HW224900   1.136   2.052   4.700  0.3961 -1.3484  0.2317
 4480SOL     OW24901   1.044   2.737  14.155  1.0424  0.3238 -0.3674
 4480SOL    HW124902   1.135   2.708  14.141  0.5556 -0.2713 -2.2452
 4480SOL    HW224903   1.006   2.746  14.068 -1.7516 -0.5537  0.7638
 4481SOL     OW24904   3.082   0.383   1.402 -0.3059  0.2830  0.2711
 4481SOL    HW124905   2.990   0.368   1.383 -0.4979  0.5671  0.9676
 4481SOL    HW224906   3.078   0.450   1.470  1.0779  0.3835  0.2624
 4482SOL     OW24907   1.479   4.349   4.830  0.6601  0.1230 -0.2415
 4482SOL    HW124908   1.532   4.307   4.761  1.3636 -1.3172  1.1737
 4482SOL    HW224909   1.524   4.425   4.865 -0.0994  0.4594 -0.0035
 4483SOL     OW24910   2.977   3.972  10.185  1.0625 -0.1426  0.0132
 4483SOL    HW124911   2.967   4.047  10.126 -0.2520  0.2534  0.7468
 4483SOL    HW224912   2.992   4.016  10.268 -1.6147 -1.9333  1.4455
 4484SOL     OW24913   3.884   4.147   7.371  0.1869 -0.2848  0.7878
 4484SOL    HW124914   3.910   4.122   7.460 -0.3660 -2.7868  0.2299
 4484SOL    HW224915   3.923   4.234   7.382 -0.9605  0.2466  0.6753
 4485SOL     OW24916   4.558   2.302   4.770 -0.3612  0.6498 -0.3783
 4485SOL    HW124917   4.545   2.354   4.850  1.3103 -0.2264  0.4571
 4485SOL    HW224918   4.542   2.355   4.692 -0.8686  0.8048 -0.1712
 4486SOL     OW24919   4.225   4.008   6.208  0.5811 -0.1876 -0.1195
 4486SOL    HW124920   4.243   4.037   6.119  1.6219 -1.2254 -0.2454
 4486SOL    HW224921   4.301   3.951   6.222  1.9221  1.0987 -2.1427
 4487SOL     OW24922   0.423   3.533  14.507  0.3796 -0.4306 -0.3269
 4487SOL    HW124923   0.352   3.469  14.497  0.6130 -1.0239  1.8134
 4487SOL    HW224924   0.476   3.505  14.582  1.9953  0.0405 -1.3028
 4488SOL     OW24925   0.624   1.963   2.610 -0.0537 -0.5664  0.4263
 4488SOL    HW124926   0.688   1.997   2.673 -0.2879 -0.3089  0.5251
 4488SOL    HW224927   0.560   1.916   2.663  1.2605 -1.3173  1.3667
 4489SOL     OW24928   3.041   2.166  10.556  0.0870  0.1039 -0.2029
 4489SOL    HW124929   3.008   2.116  10.482 -0.3933 -0.7184  0.5563
 4489SOL    HW224930   3.122   2.199  10.518 -0.1779  0.1200 -0.7531
 4490SOL     OW24931   0.340   1.607   7.704  0.2353 -0.2705 -0.0410
 4490SOL    HW124932   0.276   1.560   7.650 -2.2989  0.8066  2.0217
 4490SOL    HW224933   0.369   1.680   7.648 -1.5826 -0.4852 -1.2577
 4491SOL     OW24934   0.211   3.739   8.992  0.1001 -0.0763 -0.1108
 4491SOL    HW124935   0.274   3.729   9.063  1.1413 -1.7484 -1.2465
 4491SOL    HW224936   0.223   3.830   8.966  1.1556 -0.2705 -0.3138
 4492SOL     OW24937   3.401   0.432   2.764 -0.5706 -0.5034 -0.4650
 4492SOL    HW124938   3.377   0.341   2.746  1.5555 -1.1372 -0.1421
 4492SOL    HW224939   3.319   0.469   2.796  0.5619  0.8426  0.9504
 4493SOL     OW24940   0.445   4.567  14.942  0.3989  0.6776  0.2131
 4493SOL    HW124941   0.362   4.568  14.990  1.2639  0.6065  1.7351
 4493SOL    HW224942   0.437   4.477  14.911  1.8955  0.4695  0.4100
 4494SOL     OW24943   1.930   3.842  14.603 -0.6287 -0.6744  0.1943
 4494SOL    HW124944   1.990   3.897  14.552 -0.1295 -1.1628  0.2629
 4494SOL    HW224945   1.920   3.900  14.679 -1.2394  0.9873 -1.1419
 4495SOL     OW24946   2.455   1.069   1.355 -0.3362  0.1012 -0.0952
 4495SOL    HW124947   2.454   1.005   1.426  0.2205  1.0283  0.7442
 4495SOL    HW224948   2.366   1.049   1.327 -0.7908  1.0222  0.7316
 4496SOL     OW24949   0.129   1.779   2.963 -0.3073  0.1445 -0.2149
 4496SOL    HW124950   0.066   1.774   2.892 -0.2771  5.3553 -0.5616
 4496SOL    HW224951   0.080   1.751   3.041  0.7691 -1.1864  0.0014
 4497SOL     OW24952   0.828   3.748  17.070  0.1395  0.5532  0.0273
 4497SOL    HW124953   0.739   3.764  17.100 -0.8423  2.4329 -3.8193
 4497SOL    HW224954   0.811   3.730  16.977  1.7986 -1.0379  0.0213
 4498SOL     OW24955   1.553   4.595  16.854  0.0273  0.0233 -0.0870
 4498SOL    HW124956   1.558   4.617  16.947 -0.2463  0.5030 -0.1875
 4498SOL    HW224957   1.497   4.665  16.820 -0.6904  0.5715  2.2543
 4499SOL     OW24958   2.093   3.349  10.525 -0.0123 -0.4826  0.1162
 4499SOL    HW124959   2.136   3.266  10.503  2.4517  1.2694 -1.6222
 4499SOL    HW224960   2.116   3.359  10.618  0.1934  3.8285 -0.4021
 4500SOL     OW24961   1.425   1.022   4.169  0.0889 -0.3462  0.2211
 4500SOL    HW124962   1.501   0.981   4.128 -0.5175  1.1247 -2.4409
 4500SOL    HW224963   1.463   1.040   4.254  0.2553 -0.8675  0.2554
 4501SOL     OW24964   3.919   4.717   5.750  0.0317  0.5615 -0.2863
 4501SOL    HW124965   3.907   0.073   5.695  1.3180 -0.6871 -2.3207
 4501SOL    HW224966   3.931   4.650   5.683 -1.1930  1.4687 -1.4164
 4502SOL     OW24967   3.370   1.637   5.902  0.0302 -0.1151 -0.3472
 4502SOL    HW124968   3.301   1.630   5.836 -0.1971 -0.4774 -0.0691
 4502SOL    HW224969   3.409   1.722   5.880  0.3756 -0.2849 -0.3885
 4503SOL     OW24970   2.761   0.904   1.390 -0.4108 -0.0289 -0.7196
 4503SOL    HW124971   2.711   0.944   1.461  0.4610  0.1574 -0.2119
 4503SOL    HW224972   2.787   0.979   1.337 -0.7092  0.7168  0.1955
 4504SOL     OW24973   3.672   3.290   5.464  0.1487 -0.1732 -0.2636
 4504SOL    HW124974   3.751   3.254   5.425  0.2893 -1.3363  1.0672
 4504SOL    HW224975   3.659   3.362   5.403  0.0007  0.3243  0.3579
 4505SOL     OW24976   4.248   3.371   2.896  0.2666  0.2245  0.5127
 4505SOL    HW124977   4.212   3.357   2.809  0.6121  0.2697  0.3622
 4505SOL    HW224978   4.284   3.286   2.920  1.4167  0.8279  0.9637
 4506SOL     OW24979   1.431   0.562   1.432  0.7137  0.1942 -0.2004
 4506SOL    HW124980   1.501   0.498   1.423  1.1890  0.6441  0.3298
 4506SOL    HW224981   1.423   0.586   1.524 -1.4502 -0.2746 -0.2632
 4507SOL     OW24982   4.243   2.067  10.466  0.0597 -0.3564 -0.2324
 4507SOL    HW124983   4.253   2.078  10.371 -0.4179 -1.3447 -0.3938
 4507SOL    HW224984   4.334   2.078  10.494  0.7016 -0.9287 -2.0598
 4508SOL     OW24985   3.780   1.880   7.629 -0.3705 -0.2783  0.2825
 4508SOL    HW124986   3.822   1.943   7.570 -0.8704  0.0962  0.3271
 4508SOL    HW224987   3.722   1.834   7.568 -0.1870  0.5132 -0.4841
 4509SOL     OW24988   4.001   4.682   9.576  0.0443 -0.1107 -0.3763
 4509SOL    HW124989   4.013   4.721   9.663 -1.4526 -0.2746 -0.0923
 4509SOL    HW224990   4.004   0.043   9.529  0.4459 -1.1348 -2.1625
 4510SOL     OW24991   4.300   3.339   1.687  0.3784  0.1541  0.2741
 4510SOL    HW124992   4.230   3.296   1.737  1.6906 -0.8611  1.2151
 4510SOL    HW224993   4.244   3.383   1.623 -1.0181  0.8650  1.9580
 4511SOL     OW24994   4.634   2.317   1.718 -0.1979  0.5206  0.1284
 4511SOL    HW124995   4.585   2.399   1.722 -1.5386 -0.2897  0.1453
 4511SOL    HW224996   4.563   2.256   1.705 -0.2610  0.5383  0.3864
 4512SOL     OW24997   3.430   1.380  15.157 -0.1668  0.6611 -0.1469
 4512SOL    HW124998   3.417   1.297  15.113  0.9287 -0.9898  2.6572
 4512SOL    HW224999   3.342   1.412  15.178 -0.2540 -0.7366  1.5826
 4513SOL     OW25000   0.103   2.080  17.648  0.1740  0.1491 -0.2382
 4513SOL    HW125001   0.177   2.117  17.599  0.1730  0.3038 -0.1229
 4513SOL    HW225002   0.104   2.146   0.028  4.4451 -0.3711  0.1706
 4514SOL     OW25003   0.923   0.993   1.823  0.1855 -0.2598 -0.3163
 4514SOL    HW125004   0.901   0.944   1.903 -0.4367 -0.9388 -0.9026
 4514SOL    HW225005   0.934   0.918   1.764  0.9403 -0.1458 -0.3242
 4515SOL     OW25006   0.707   4.071  11.000  0.3476  0.0864 -0.2288
 4515SOL    HW125007   0.695   4.141  10.936  1.0984 -1.6173 -2.2147
 4515SOL    HW225008   0.645   4.001  10.979  0.9303 -0.8114  1.0745
 4516SOL     OW25009   0.658   3.106   2.843  0.1525  0.1054  0.7514
 4516SOL    HW125010   0.604   3.030   2.824  1.0635 -0.5535  0.8043
 4516SOL    HW225011   0.707   3.119   2.762  1.8379 -0.1665  1.7218
 4517SOL     OW25012   2.882   3.628   7.485  0.1245 -0.1140  0.0693
 4517SOL    HW125013   2.914   3.596   7.570 -1.4984  1.5049  1.2863
 4517SOL    HW225014   2.788   3.626   7.507  0.3946 -1.8230  1.0566
 4518SOL     OW25015   1.385   2.132  16.485 -0.1489  0.5662 -0.5922
 4518SOL    HW125016   1.469   2.164  16.518  0.1987 -0.2212 -0.7214
 4518SOL    HW225017   1.348   2.096  16.565 -1.5503 -2.2427 -2.5026
 4519SOL     OW25018   2.904   0.607  15.415 -0.6583  0.6984 -0.6100
 4519SOL    HW125019   2.820   0.579  15.379 -1.2499 -0.5535  1.7158
 4519SOL    HW225020   2.971   0.564  15.361 -0.6237  2.3354 -1.8591
 4520SOL     OW25021   0.267   3.435   9.529  0.3334  0.1903  0.1694
 4520SOL    HW125022   0.297   3.362   9.475  0.6400 -0.1718  0.8215
 4520SOL    HW225023   0.316   3.426   9.611 -0.3397  2.3219  0.7984
 4521SOL     OW25024   0.713   0.762  16.464 -0.6877 -0.2325 -0.5840
 4521SOL    HW125025   0.772   0.695  16.428  0.0771 -0.3846  0.9633
 4521SOL    HW225026   0.774   0.828  16.498 -0.4121 -0.2974 -0.9548
 4522SOL     OW25027   1.365   1.373  11.078 -0.4327  0.0250  0.1305
 4522SOL    HW125028   1.383   1.282  11.100 -0.0568  0.3923  1.3237
 4522SOL    HW225029   1.274   1.363  11.049 -0.2510 -1.3681  0.0478
 4523SOL     OW25030   2.783   2.159   5.570 -0.8317  0.3201  0.0437
 4523SOL    HW125031   2.740   2.073   5.569  0.8544 -0.5352 -1.8887
 4523SOL    HW225032   2.767   2.179   5.662  0.6522 -0.0808  0.3885
 4524SOL     OW25033   3.224   2.893   2.876  0.3346  0.5045 -0.0921
 4524SOL    HW125034   3.163   2.952   2.921 -0.6871  0.7379 -1.7847
 4524SOL    HW225035   3.278   2.962   2.838 -0.2986  0.4029 -1.1567
 4525SOL     OW25036   3.728   0.292  11.254  0.2905  0.0067 -0.3536
 4525SOL    HW125037   3.707   0.370  11.202  2.5583  1.0918  0.3894
 4525SOL    HW225038   3.744   0.229  11.183 -0.1164  1.0114 -1.3380
 4526SOL     OW25039   4.335   4.261   6.193  0.2354  0.2702 -0.3083
 4526SOL    HW125040   4.300   4.186   6.242  1.0483 -1.3795 -2.2650
 4526SOL    HW225041   4.409   4.224   6.145  0.4542 -1.2407  1.1681
 4527SOL     OW25042   0.407   2.772   2.002 -0.3588  0.4042  0.4011
 4527SOL    HW125043   0.323   2.756   2.045 -0.4843  0.0225  0.0186
 4527SOL    HW225044   0.389   2.762   1.908 -2.7692 -1.3571  1.0560
 4528SOL     OW25045   2.213   0.499  12.106 -0.6011  0.0336 -0.0635
 4528SOL    HW125046   2.263   0.507  12.187  0.1395 -0.3903 -0.4807
 4528SOL    HW225047   2.121   0.486  12.129 -1.5056  1.8687 -2.6480
 4529SOL     OW25048   2.840   0.183   7.664 -0.0204  0.3538 -0.1047
 4529SOL    HW125049   2.929   0.161   7.692  0.1954  0.4288 -0.7105
 4529SOL    HW225050   2.815   0.115   7.601  2.9896 -0.6815 -0.2156
 4530SOL     OW25051   1.075   0.535   8.263 -0.1597  0.2784 -0.1210
 4530SOL    HW125052   0.992   0.487   8.264  1.5042 -2.6123 -0.2642
 4530SOL    HW225053   1.139   0.472   8.230  0.1018  1.0659 -1.0828
 4531SOL     OW25054   1.503   1.185  13.681 -0.0228  0.0395 -0.9267
 4531SOL    HW125055   1.475   1.274  13.660  1.2681  0.7991  0.5690
 4531SOL    HW225056   1.491   1.185  13.776 -0.7016 -1.7068 -1.0042
 4532SOL     OW25057   3.571   2.303   5.245  0.3763  0.2265 -0.2174
 4532SOL    HW125058   3.521   2.359   5.185 -0.4756  0.9551  1.1639
 4532SOL    HW225059   3.501   2.259   5.294  0.9140  0.6200  0.8891
 4533SOL     OW25060   4.120   0.578  13.020  0.2559  0.0198  0.2280
 4533SOL    HW125061   4.203   0.612  13.053  0.7437 -1.0448  0.0996
 4533SOL    HW225062   4.073   0.654  12.985 -0.4962  0.9897  3.3119
 4534SOL     OW25063   4.444   1.803   5.283  0.2912 -0.3873 -0.1006
 4534SOL    HW125064   4.531   1.838   5.298  0.1253  0.5404 -1.3531
 4534SOL    HW225065   4.444   1.802   5.187 -0.0786  0.7523 -0.1126
 4535SOL     OW25066   4.435   2.035  12.802 -0.3073 -0.3607 -0.2963
 4535SOL    HW125067   4.404   2.113  12.757  0.7800  2.0800  3.1711
 4535SOL    HW225068   4.490   2.064  12.875 -0.9482 -1.0755  0.4685
 4536SOL     OW25069   3.195   0.297   0.826  0.5282 -0.2257  0.0091
 4536SOL    HW125070   3.130   0.320   0.892  0.7592  2.9757 -0.8681
 4536SOL    HW225071   3.258   0.246   0.877  0.9290 -0.1433 -0.4004
 4537SOL     OW25072   3.478   1.829   2.977  0.0856 -0.3569 -0.0076
 4537SOL    HW125073   3.486   1.888   2.902  1.1166  0.8119  1.0143
 4537SOL    HW225074   3.543   1.860   3.040  1.0316  0.7579 -1.5350
 4538SOL     OW25075   1.938   2.746   5.210  0.4555 -0.0817  0.1117
 4538SOL    HW125076   1.902   2.657   5.214  1.0727 -0.3378  0.0254
 4538SOL    HW225077   2.032   2.726   5.215  0.8000  0.7602 -2.8009
 4539SOL     OW25078   3.508   2.379   3.667  0.3933 -0.0757 -0.7373
 4539SOL    HW125079   3.494   2.405   3.576  0.5602 -0.5006 -0.8828
 4539SOL    HW225080   3.443   2.311   3.681  0.0004  0.2131 -1.1744
 4540SOL     OW25081   2.592   0.058   2.371  0.4946 -0.5893  0.1515
 4540SOL    HW125082   2.621   0.071   2.461  1.6015 -0.6251 -0.1984
 4540SOL    HW225083   2.586   0.149   2.342 -1.4583 -0.4381  1.0125
 4541SOL     OW25084   4.221   4.624   9.415  0.0841 -1.0433 -0.6184
 4541SOL    HW125085   4.213   4.719   9.412  1.4507 -0.9359 -1.0323
 4541SOL    HW225086   4.147   4.611   9.474 -0.6761  0.1863 -1.3036
 4542SOL     OW25087   2.904   0.465  14.665 -0.1725  0.1118 -0.5607
 4542SOL    HW125088   2.856   0.442  14.585  0.7496  0.7763 -1.3197
 4542SOL    HW225089   2.862   0.401  14.722  0.5847  0.6115  0.5526
 4543SOL     OW25090   0.430   3.668   8.681 -0.2921  0.2195 -0.6130
 4543SOL    HW125091   0.486   3.665   8.604  1.7511  2.0218  0.7855
 4543SOL    HW225092   0.468   3.748   8.717 -0.0920 -0.4907  0.7726
 4544SOL     OW25093   4.337   2.737   6.744  0.4266 -0.3317 -0.1241
 4544SOL    HW125094   4.411   2.793   6.722  1.3493 -0.4508  2.6661
 4544SOL    HW225095   4.359   2.660   6.691  0.9489  0.4638 -1.0625
 4545SOL     OW25096   4.005   4.157   7.133 -0.4754  0.2212 -0.0404
 4545SOL    HW125097   3.969   4.136   7.220 -1.5857 -2.8747 -1.2595
 4545SOL    HW225098   4.096   4.158   7.164 -0.3080 -2.0786 -0.4690
 4546SOL     OW25099   1.773   1.078   1.083 -0.0717  0.0084 -0.1111
 4546SOL    HW125100   1.729   1.105   1.003  0.3330  1.4640  0.1721
 4546SOL    HW225101   1.705   1.021   1.119 -1.7340  1.4782 -0.9139
 4547SOL     OW25102   2.931   2.696   8.337 -0.3465  0.0915 -0.2124
 4547SOL    HW125103   2.957   2.728   8.423 -1.1106 -0.9847  0.4253
 4547SOL    HW225104   2.845   2.658   8.358  0.3790 -0.1979  2.1986
 4548SOL     OW25105   1.606   3.190   5.437 -0.3400 -0.0869 -0.0491
 4548SOL    HW125106   1.701   3.195   5.443 -0.3386 -0.9025  0.5993
 4548SOL    HW225107   1.590   3.104   5.476  0.3964 -0.0564  0.3193
 4549SOL     OW25108   0.784   2.058   2.814 -0.6719  0.7237 -0.3769
 4549SOL    HW125109   0.858   2.092   2.763  0.4596 -1.0724  0.0390
 4549SOL    HW225110   0.826   2.041   2.899 -0.2098  0.2811 -0.6859
 4550SOL     OW25111   1.474   3.142  13.722 -0.0158 -0.7901  0.8911
 4550SOL    HW125112   1.383   3.113  13.718 -0.0656 -0.3296 -1.5481
 4550SOL    HW225113   1.499   3.130  13.814 -1.8425  1.1589  1.6278
 4551SOL     OW25114   4.254   4.027   6.864 -0.0918 -0.0061 -0.1489
 4551SOL    HW125115   4.327   4.047   6.806  0.3848  1.3064  0.8928
 4551SOL    HW225116   4.176   4.021   6.809  0.3132  1.2766 -0.8746
 4552SOL     OW25117   1.034   4.426   9.884  0.1070  0.0086 -0.2673
 4552SOL    HW125118   1.114   4.374   9.881 -0.4230 -0.7067 -2.6089
 4552SOL    HW225119   0.964   4.364   9.862  0.4838 -0.1886 -0.9319
 4553SOL     OW25120   1.664   0.448   1.488  0.1782 -0.0936 -0.0880
 4553SOL    HW125121   1.721   0.507   1.438  0.5210  0.9211  1.4811
 4553SOL    HW225122   1.678   0.483   1.576  0.7655  0.9493 -0.5883
 4554SOL     OW25123   2.197   2.079   6.843 -0.0141 -0.1538 -0.6466
 4554SOL    HW125124   2.123   2.132   6.813  0.6536 -0.6397 -3.1290
 4554SOL    HW225125   2.226   2.028   6.768 -1.4996 -1.5965 -0.2363
 4555SOL     OW25126   1.632   1.690   7.051 -0.3331  0.2716  0.0611
 4555SOL    HW125127   1.591   1.772   7.081  2.3480  1.5734  0.1465
 4555SOL    HW225128   1.670   1.717   6.967  1.8958 -0.1586  0.9410
 4556SOL     OW25129   0.985   2.767   6.334 -0.0731  0.3577 -0.0539
 4556SOL    HW125130   1.044   2.835   6.367  1.0449  0.0432 -1.4389
 4556SOL    HW225131   0.899   2.809   6.333  1.6578  3.9959  2.8818
 4557SOL     OW25132   0.294   0.830  13.622  0.1671 -0.3572  0.2185
 4557SOL    HW125133   0.308   0.919  13.655 -1.6591  0.3081 -0.8237
 4557SOL    HW225134   0.277   0.855  13.532  0.3743  2.0275  0.8427
 4558SOL     OW25135   4.420   4.283   2.286  0.7656  0.2528  0.2875
 4558SOL    HW125136   4.497   4.333   2.314 -0.2318  1.4074  0.9934
 4558SOL    HW225137   4.391   4.350   2.224 -0.7253  2.2902  3.1997
 4559SOL     OW25138   2.486   4.505  15.701  0.4205 -0.5323 -0.1031
 4559SOL    HW125139   2.576   4.485  15.727  0.5981 -1.3538 -1.3874
 4559SOL    HW225140   2.444   4.419  15.703 -0.2575 -0.1679  1.5529
 4560SOL     OW25141   2.206   2.992   8.309  0.4518 -0.1227 -0.8186
 4560SOL    HW125142   2.272   3.005   8.377 -0.0286  1.0061 -0.5657
 4560SOL    HW225143   2.137   2.946   8.355  0.6008  0.2640 -0.2018
 4561SOL     OW25144   0.640   0.248  11.546  0.2917 -0.3762 -0.2744
 4561SOL    HW125145   0.676   0.304  11.478  2.3792 -0.5038  0.7201
 4561SOL    HW225146   0.557   0.229  11.503 -0.6185 -1.0479  1.7707
 4562SOL     OW25147   2.431   0.214   8.321 -0.4491 -0.2806  0.1704
 4562SOL    HW125148   2.431   0.135   8.267  0.1012 -0.2353  0.1008
 4562SOL    HW225149   2.365   0.271   8.282 -0.4722  0.4052  1.1988
 4563SOL     OW25150   2.056   2.544   7.812 -0.4136  0.0275  0.2304
 4563SOL    HW125151   2.086   2.499   7.892  0.1503 -2.5789 -1.4273
 4563SOL    HW225152   2.126   2.604   7.788  1.7753 -2.4124  0.4679
 4564SOL     OW25153   3.787   1.689   5.939 -0.1256 -0.1504 -0.2592
 4564SOL    HW125154   3.801   1.663   5.847 -1.2552 -1.0879 -0.1711
 4564SOL    HW225155   3.836   1.617   5.980 -0.0095  1.4203  2.3211
 4565SOL     OW25156   2.795   2.563  14.725  0.7728 -0.0364 -0.1644
 4565SOL    HW125157   2.760   2.590  14.810 -1.3318 -0.6522 -0.8182
 4565SOL    HW225158   2.725   2.500  14.706  2.0366 -1.1602 -1.1180
 4566SOL     OW25159   2.155   1.832   8.310  0.1714  0.0316  0.2702
 4566SOL    HW125160   2.125   1.762   8.252 -0.4031  1.4935 -1.2007
 4566SOL    HW225161   2.243   1.797   8.324 -0.4680 -1.4503  0.5370
 4567SOL     OW25162   3.955   2.525  15.634  0.1441  0.0182  0.1504
 4567SOL    HW125163   3.973   2.512  15.541 -0.5590 -1.1011  0.1765
 4567SOL    HW225164   4.000   2.451  15.675  1.8794  1.0381  0.0627
 4568SOL     OW25165   0.736   3.521   0.091 -0.5267  0.3321  0.5988
 4568SOL    HW125166   0.724   3.479   0.005 -1.1561  1.0257  0.3468
 4568SOL    HW225167   0.725   3.443   0.144  0.3740 -0.2099 -0.0122
 4569SOL     OW25168   2.302   4.137   7.656 -0.3532 -0.0206 -0.1511
 4569SOL    HW125169   2.259   4.195   7.593 -1.3453  0.2951  0.8141
 4569SOL    HW225170   2.222   4.101   7.694 -1.5955  1.8399 -1.0084
 4570SOL     OW25171   3.098   3.144   2.390  0.0449  0.2926  0.5733
 4570SOL    HW125172   3.009   3.110   2.397  0.7941 -1.0984  3.2791
 4570SOL    HW225173   3.152   3.065   2.381 -1.6072 -0.7441 -0.2104
 4571SOL     OW25174   1.558   4.203  13.904  0.4701  0.4108  0.1394
 4571SOL    HW125175   1.476   4.252  13.914  0.1954  0.5018 -2.4369
 4571SOL    HW225176   1.563   4.162  13.990  0.0305  1.9583  0.9178
 4572SOL     OW25177   2.948   4.665   9.956  0.2461  0.1800  0.0125
 4572SOL    HW125178   2.966   0.036   9.973  2.5922 -0.5252  1.2347
 4572SOL    HW225179   3.025   4.620   9.988 -1.0409 -1.9481  0.0936
 4573SOL     OW25180   2.850   1.206   5.428  0.0604  0.0982  0.0413
 4573SOL    HW125181   2.887   1.152   5.498  0.9366  0.1630 -0.3620
 4573SOL    HW225182   2.756   1.195   5.440  0.3738 -3.2236 -0.5460
 4574SOL     OW25183   1.870   0.494   6.030 -0.3500  0.2532  0.1010
 4574SOL    HW125184   1.932   0.450   6.088 -1.3666 -0.4260  0.6683
 4574SOL    HW225185   1.883   0.438   5.954  2.9978 -0.3907  1.1241
 4575SOL     OW25186   2.785   0.739  14.955  0.6789  0.1242  0.3421
 4575SOL    HW125187   2.770   0.821  15.001 -3.6357 -0.5357  0.0860
 4575SOL    HW225188   2.865   0.768  14.910 -0.8640  1.9560 -1.2528
 4576SOL     OW25189   0.552   4.712   4.423 -0.2649  0.1929 -0.4419
 4576SOL    HW125190   0.575   0.043   4.346  1.1992  2.4966  1.6108
 4576SOL    HW225191   0.579   4.626   4.390 -1.7221 -0.4277 -0.0127
 4577SOL     OW25192   4.434   2.477   5.356  0.5161  0.6071  0.8098
 4577SOL    HW125193   4.356   2.466   5.410 -0.1681  1.5250  0.0122
 4577SOL    HW225194   4.401   2.461   5.268 -1.1280 -1.2641  1.7577
 4578SOL     OW25195   1.452   2.973   8.210  0.8180 -0.0908 -0.0427
 4578SOL    HW125196   1.460   3.061   8.173  0.9081  0.2063  0.6855
 4578SOL    HW225197   1.485   2.986   8.299  1.3969  1.4059 -0.4736
 4579SOL     OW25198   4.634   2.032   5.038 -0.3033 -0.2194  0.0790
 4579SOL    HW125199   4.681   1.962   5.082 -1.5451 -1.2022 -0.1258
 4579SOL    HW225200   4.697   2.058   4.971  1.0018 -0.8991  1.0642
 4580SOL     OW25201   2.488   3.860   5.582 -0.6742 -0.3624  0.5564
 4580SOL    HW125202   2.555   3.867   5.650 -1.3221  1.1296  1.0270
 4580SOL    HW225203   2.422   3.811   5.631 -1.0387 -0.3045  0.1270
 4581SOL     OW25204   1.628   2.118   9.126  0.0766 -0.0238  0.4495
 4581SOL    HW125205   1.570   2.044   9.109  1.1416 -0.4465 -1.2784
 4581SOL    HW225206   1.578   2.191   9.091  0.0004 -0.2825  0.0257
 4582SOL     OW25207   2.841   4.258   2.301  0.3811 -0.3637 -0.4848
 4582SOL    HW125208   2.822   4.348   2.328 -0.7229 -0.5330 -0.6738
 4582SOL    HW225209   2.830   4.210   2.383 -1.4063  1.8659  0.6021
 4583SOL     OW25210   4.545   2.439   2.642  0.6286 -0.1361  0.0921
 4583SOL    HW125211   4.515   2.429   2.552  1.6204 -0.1210 -0.2431
 4583SOL    HW225212   4.627   2.392   2.630  0.0719 -0.7997 -1.0571
 4584SOL     OW25213   4.019   3.245   7.346 -0.0334 -0.1488  0.6663
 4584SOL    HW125214   4.111   3.255   7.323 -0.3969 -0.1078 -0.8081
 4584SOL    HW225215   3.990   3.336   7.355  1.2439  0.3338 -0.1499
 4585SOL     OW25216   1.917   3.022   6.059  0.2025 -0.4804 -0.0026
 4585SOL    HW125217   1.836   3.071   6.044  0.8076  0.4969 -0.1288
 4585SOL    HW225218   1.880   2.967   6.128  0.2365 -0.1876  0.2523
 4586SOL     OW25219   1.791   2.386  13.836 -0.0152  0.4717  0.4964
 4586SOL    HW125220   1.713   2.424  13.795  0.0241 -0.8279 -0.7705
 4586SOL    HW225221   1.804   2.442  13.912 -0.5869  1.2175  0.0508
 4587SOL     OW25222   3.783   4.555   9.465 -0.6399  0.4538 -0.1142
 4587SOL    HW125223   3.843   4.570   9.538 -0.6016 -3.1928  0.5810
 4587SOL    HW225224   3.786   4.636   9.413  1.1741  0.1243 -0.5393
 4588SOL     OW25225   1.040   4.263   2.431  0.3488  0.3236  0.3473
 4588SOL    HW125226   1.115   4.307   2.471 -0.0380  1.5350 -0.2644
 4588SOL    HW225227   1.063   4.170   2.437 -0.1533  0.0799 -1.3974
 4589SOL     OW25228   3.989   1.239   2.071 -0.1577  0.0399  0.2034
 4589SOL    HW125229   3.960   1.322   2.034 -1.7795 -1.2872 -1.5428
 4589SOL    HW225230   3.909   1.198   2.104  0.1627 -1.5719 -0.9807
 4590SOL     OW25231   1.484   1.592   8.283  0.5950 -0.1183 -0.3264
 4590SOL    HW125232   1.457   1.603   8.374 -0.0343 -1.8080 -0.3039
 4590SOL    HW225233   1.519   1.503   8.291  1.8268  0.1019 -3.4068
 4591SOL     OW25234   2.051   0.160   3.326  0.5967 -0.2130 -0.2501
 4591SOL    HW125235   2.145   0.157   3.307  0.8685  0.8956  0.9221
 4591SOL    HW225236   2.021   0.085   3.274 -3.1498  1.6605 -0.8087
 4592SOL     OW25237   2.738   3.736   0.453 -0.5268  0.4732  0.2749
 4592SOL    HW125238   2.648   3.712   0.473 -1.0031  2.6009  0.7123
 4592SOL    HW225239   2.775   3.654   0.486 -1.7033 -0.7453 -1.4612
 4593SOL     OW25240   2.569   1.154   5.501 -0.0284 -0.1544  0.2939
 4593SOL    HW125241   2.512   1.201   5.440 -1.7695 -1.8154  0.6252
 4593SOL    HW225242   2.511   1.143   5.577  1.3135  1.7219  1.5639
 4594SOL     OW25243   0.651   0.863   1.907  0.1195  0.0754  0.0130
 4594SOL    HW125244   0.609   0.892   1.827  0.8948 -0.9910 -0.7726
 4594SOL    HW225245   0.599   0.784   1.921  0.7460 -0.4034 -0.3595
 4595SOL     OW25246   0.535   4.176   5.135 -0.1237  0.4611 -0.0124
 4595SOL    HW125247   0.622   4.146   5.109  0.2188  0.4237  1.1507
 4595SOL    HW225248   0.514   4.127   5.215  2.0454 -0.4925 -0.0469
 4596SOL     OW25249   2.280   3.218   4.755 -0.0053 -0.0911 -0.0496
 4596SOL    HW125250   2.283   3.156   4.828 -0.6729  1.3233  1.1870
 4596SOL    HW225251   2.282   3.153   4.686 -2.1298 -0.5644  0.3502
 4597SOL     OW25252   3.046   0.917   1.085  0.0366 -0.3056  0.0274
 4597SOL    HW125253   3.005   0.907   1.000  1.7109  0.0647 -0.8174
 4597SOL    HW225254   3.139   0.893   1.075  0.6377  1.6589  0.8714
 4598SOL     OW25255   3.474   4.603   4.380  0.3940  0.0272 -0.8182
 4598SOL    HW125256   3.466   4.606   4.284  0.0048 -1.6842 -0.8256
 4598SOL    HW225257   3.550   4.548   4.391  1.0869  1.0803 -0.3320
 4599SOL     OW25258   2.496   3.595   4.259  0.2934  0.4006 -0.2774
 4599SOL    HW125259   2.402   3.582   4.269  0.4361  1.6777  2.5564
 4599SOL    HW225260   2.531   3.587   4.348  0.5605 -1.6068 -0.5559
 4600SOL     OW25261   2.647   3.734   4.033  0.5941 -0.5068 -0.1172
 4600SOL    HW125262   2.742   3.726   4.040  0.5447  1.5025  2.5928
 4600SOL    HW225263   2.620   3.711   4.121  1.4020 -1.7330 -0.1942
 4601SOL     OW25264   1.273   0.317   5.604  0.1240 -0.0819 -0.3573
 4601SOL    HW125265   1.194   0.369   5.598 -0.6201 -1.1936 -0.2309
 4601SOL    HW225266   1.223   0.236   5.617 -3.2440  2.1885  0.6315
 4602SOL     OW25267   1.202   1.254  14.977  0.0756 -0.2814  0.4468
 4602SOL    HW125268   1.270   1.192  15.001  1.8595  1.9279  1.0585
 4602SOL    HW225269   1.243   1.317  14.917  0.5969 -2.0655 -1.0647
 4603SOL     OW25270   1.795   4.228   8.034  0.2604  0.2572 -0.4210
 4603SOL    HW125271   1.833   4.265   8.113  0.6493 -1.3685  0.1457
 4603SOL    HW225272   1.702   4.243   8.048  0.1495 -1.2352  0.5046
 4604SOL     OW25273   1.274   0.839  12.376  0.0657  0.0827  0.1253
 4604SOL    HW125274   1.240   0.850  12.287 -1.4455 -0.6214  0.6146
 4604SOL    HW225275   1.207   0.895  12.416 -1.4611 -0.3016 -1.8814
 4605SOL     OW25276   0.053   3.478  16.460 -0.2605 -0.1427  0.3702
 4605SOL    HW125277   0.116   3.547  16.480  0.8739 -0.9734 -0.2821
 4605SOL    HW225278   0.114   3.409  16.432 -0.9518 -1.4306  2.0344
 4606SOL     OW25279   1.060   1.321   7.160 -0.2732  0.1968 -0.1584
 4606SOL    HW125280   1.144   1.284   7.132  0.4070  2.1070 -0.6833
 4606SOL    HW225281   1.064   1.321   7.255 -0.8460 -0.9190 -0.1377
 4607SOL     OW25282   3.270   3.488   7.196 -0.2969  0.3053  0.3002
 4607SOL    HW125283   3.278   3.580   7.221 -0.3247  0.0621  1.2096
 4607SOL    HW225284   3.309   3.444   7.271  3.0188  1.9110 -0.4592
 4608SOL     OW25285   3.139   2.863  13.005  0.1115 -0.4941  0.1197
 4608SOL    HW125286   3.067   2.916  13.039  2.0264  0.7035  2.3507
 4608SOL    HW225287   3.107   2.812  12.931 -1.2598 -2.3163  1.9559
 4609SOL     OW25288   3.786   0.914  16.893  0.4358 -0.1544  0.5211
 4609SOL    HW125289   3.836   0.836  16.918 -0.2890 -0.4838  0.9617
 4609SOL    HW225290   3.839   0.990  16.916 -1.7576  1.2003  1.1834
 4610SOL     OW25291   3.277   2.453   3.356 -0.4876 -0.0172  0.2404
 4610SOL    HW125292   3.266   2.540   3.317 -0.7132  0.2150  0.8198
 4610SOL    HW225293   3.187   2.420   3.357 -0.3305 -0.4679 -0.4635
 4611SOL     OW25294   3.321   1.527   0.965 -0.3224 -0.1395 -0.0154
 4611SOL    HW125295   3.255   1.524   0.896 -2.1801  2.5801  1.6066
 4611SOL    HW225296   3.264   1.490   1.033  0.1466  0.0759  0.4913
 4612SOL     OW25297   3.096   4.583   2.806  0.4312 -0.4948 -0.4705
 4612SOL    HW125298   3.047   4.631   2.740  0.5205 -0.8106 -0.7647
 4612SOL    HW225299   3.082   4.645   2.877  0.8422 -2.3151  1.2175
 4613SOL     OW25300   4.192   2.474   5.470 -0.8091 -0.4515 -0.1439
 4613SOL    HW125301   4.165   2.382   5.462  0.3235 -0.5993 -2.2248
 4613SOL    HW225302   4.120   2.515   5.422 -1.6367 -0.1105  1.3890
 4614SOL     OW25303   4.628   0.429   1.014  0.4530 -0.3597 -0.3596
 4614SOL    HW125304   4.606   0.434   0.921  0.5318 -0.9165 -0.4084
 4614SOL    HW225305   0.001   0.440   1.005  0.1711  1.7810 -0.6704
 4615SOL     OW25306   3.059   1.765   3.985 -0.0037 -0.7457  0.0718
 4615SOL    HW125307   3.032   1.787   4.075  1.3135  0.5579  0.1372
 4615SOL    HW225308   3.152   1.776   4.001 -0.5923  1.6780  1.8664
 4616SOL     OW25309   2.884   2.398   5.589  0.3559 -0.2164 -0.1407
 4616SOL    HW125310   2.818   2.467   5.582 -1.2060 -1.6549  0.7581
 4616SOL    HW225311   2.826   2.335   5.546  0.8747 -0.4584 -0.4939
 4617SOL     OW25312   3.813   3.516  12.871  0.1013  0.2920 -0.3417
 4617SOL    HW125313   3.855   3.486  12.790 -2.5002 -2.7436 -0.5606
 4617SOL    HW225314   3.765   3.585  12.826  1.1056  2.6811  2.2555
 4618SOL     OW25315   0.504   0.224   2.587 -0.3514 -0.4621 -0.1394
 4618SOL    HW125316   0.522   0.135   2.618  0.8829  0.2250  1.1228
 4618SOL    HW225317   0.514   0.268   2.672  3.4404 -0.2734 -0.6959
 4619SOL     OW25318   3.846   0.364   7.550  0.6847  0.2033  0.0559
 4619SOL    HW125319   3.860   0.443   7.497  0.5383  1.1065  1.3473
 4619SOL    HW225320   3.810   0.403   7.630  0.0688  2.2091 -1.1965
 4620SOL     OW25321   1.275   3.548   5.276  0.7205 -0.4971  0.0617
 4620SOL    HW125322   1.242   3.492   5.205 -1.0651  0.0213  0.4892
 4620SOL    HW225323   1.324   3.479   5.320  0.4789 -0.7066  0.0007
 4621SOL     OW25324   4.523   4.706   7.057  0.5848  0.1402  0.0123
 4621SOL    HW125325   4.512   0.025   7.143  1.1563  0.2810  0.0192
 4621SOL    HW225326   4.606   4.659   7.061 -0.2771 -1.4498 -0.8222
 4622SOL     OW25327   0.017   1.164   1.631 -0.2736 -0.4035 -0.6236
 4622SOL    HW125328   4.664   1.106   1.643  1.5899 -2.6832 -0.0264
 4622SOL    HW225329   0.011   1.204   1.718 -1.2066 -1.6652 -0.1106
 4623SOL     OW25330   0.232   2.822   8.908  0.2985  0.4695 -0.2433
 4623SOL    HW125331   0.293   2.858   8.973  0.4186  2.1188 -1.2509
 4623SOL    HW225332   0.277   2.848   8.828  0.8511 -0.4524 -0.2284
 4624SOL     OW25333   4.230   4.716   7.855 -0.6216 -0.0041  0.4099
 4624SOL    HW125334   4.315   0.008   7.896 -0.1961  1.9929 -1.1182
 4624SOL    HW225335   4.221   0.076   7.807 -0.4971  0.5450  1.3189
 4625SOL     OW25336   1.404   0.772   8.492  0.0153  0.3437 -0.7259
 4625SOL    HW125337   1.351   0.761   8.414 -0.3111 -0.8634 -0.3426
 4625SOL    HW225338   1.353   0.830   8.548 -0.3222 -0.1865 -0.4838
 4626SOL     OW25339   4.267   2.869  11.671 -0.5262  0.6325 -0.3826
 4626SOL    HW125340   4.215   2.791  11.694 -0.6714  0.5775 -0.9017
 4626SOL    HW225341   4.213   2.942  11.700 -1.0730  0.1813 -0.2575
 4627SOL     OW25342   0.446   1.648   9.790 -0.3229  0.2089  0.1297
 4627SOL    HW125343   0.470   1.561   9.759 -1.6557  0.0151 -0.3634
 4627SOL    HW225344   0.536   1.678   9.800  0.1459 -1.7432  1.7110
 4628SOL     OW25345   4.680   1.008   9.517 -0.3766  0.0350 -0.3817
 4628SOL    HW125346   4.629   0.934   9.546 -0.6964 -0.3712 -1.9617
 4628SOL    HW225347   4.666   1.017   9.422  0.6361 -3.3814 -0.8322
 4629SOL     OW25348   2.933   3.472   3.900  0.1198  0.7232 -0.4169
 4629SOL    HW125349   2.996   3.542   3.881  1.2881 -0.6613 -1.6709
 4629SOL    HW225350   2.873   3.457   3.827 -1.0735  1.6655  0.3950
 4630SOL     OW25351   1.567   0.018   8.535 -0.1700  0.4567 -0.2324
 4630SOL    HW125352   1.625   0.057   8.600 -0.5947 -0.7648  0.8903
 4630SOL    HW225353   1.495   0.080   8.538 -0.4641  0.0952  0.2968
 4631SOL     OW25354   3.804   2.310   6.256 -0.1138 -0.3292  0.5099
 4631SOL    HW125355   3.897   2.329   6.261 -0.3850  0.7889  1.1985
 4631SOL    HW225356   3.783   2.283   6.346 -0.9427  0.6322  0.6055
 4632SOL     OW25357   3.775   2.906   2.709  0.4607  0.2935 -0.3820
 4632SOL    HW125358   3.871   2.903   2.711  0.4863  1.8828  0.5887
 4632SOL    HW225359   3.763   2.831   2.650 -0.0632  0.2301 -0.1913
 4633SOL     OW25360   1.602   4.095   4.927  0.0871  0.6657 -0.1202
 4633SOL    HW125361   1.553   4.014   4.915  1.3635 -0.4509  2.0688
 4633SOL    HW225362   1.555   4.170   4.890  0.2298  1.8150  2.0048
 4634SOL     OW25363   4.169   3.850   9.080  0.2683  1.0086  0.5945
 4634SOL    HW125364   4.162   3.755   9.069 -2.1875  1.0621  1.6896
 4634SOL    HW225365   4.077   3.871   9.061  0.2745 -0.5401 -1.1025
 4635SOL     OW25366   1.531   1.415  16.954  0.0663  0.4168  0.0996
 4635SOL    HW125367   1.487   1.489  16.996  1.7751  1.2060  0.5012
 4635SOL    HW225368   1.608   1.413  17.011  1.3574 -1.7248 -1.7109
 4636SOL     OW25369   2.802   1.177   0.685 -0.7629 -0.2260  0.2148
 4636SOL    HW125370   2.754   1.215   0.611  0.1496 -1.0296 -0.8009
 4636SOL    HW225371   2.839   1.105   0.635  0.3510  0.8912 -0.5814
 4637SOL     OW25372   1.511   2.301   6.792  0.5106 -0.1352 -0.1991
 4637SOL    HW125373   1.462   2.298   6.874  0.9618  1.9506  0.1515
 4637SOL    HW225374   1.600   2.297   6.826  0.7917  0.5795 -0.8333
 4638SOL     OW25375   2.968   3.860   3.072 -0.4142  0.5434  0.2764
 4638SOL    HW125376   2.960   3.955   3.074 -0.7665  0.5013  0.8023
 4638SOL    HW225377   3.056   3.855   3.035 -1.2464  1.4053 -1.8421
 4639SOL     OW25378   0.502   0.924  16.076  0.1548 -0.3778  0.4140
 4639SOL    HW125379   0.462   1.010  16.090  1.8808  0.5066 -0.1054
 4639SOL    HW225380   0.512   0.894  16.166  0.8462 -0.5981  0.2636
 4640SOL     OW25381   1.667   2.573   7.251 -0.7375 -0.8765  0.1405
 4640SOL    HW125382   1.619   2.493   7.229 -1.3565 -0.1178 -1.2552
 4640SOL    HW225383   1.736   2.536   7.306  1.0909  0.8463 -1.0000
 4641SOL     OW25384   2.599   1.032  13.936  0.1610 -0.3951  0.2862
 4641SOL    HW125385   2.546   0.965  13.978 -2.3580  1.5822  0.2197
 4641SOL    HW225386   2.667   1.031  14.003  0.3804  1.0123  0.0785
 4642SOL     OW25387   0.721   2.399  13.431  0.1288  0.1536 -0.2278
 4642SOL    HW125388   0.780   2.383  13.357 -0.3956 -0.0734 -0.5998
 4642SOL    HW225389   0.774   2.450  13.491 -0.2589  0.5934 -0.2617
 4643SOL     OW25390   1.697   0.176   0.242  0.2402 -0.5028 -0.0313
 4643SOL    HW125391   1.770   0.115   0.237 -0.1622 -1.0955  1.3218
 4643SOL    HW225392   1.637   0.134   0.181  0.0839 -2.0314  1.1813
 4644SOL     OW25393   2.983   0.854   3.117  0.1453 -0.3890 -0.4305
 4644SOL    HW125394   2.964   0.761   3.102 -0.3006 -0.2797 -0.5255
 4644SOL    HW225395   2.928   0.900   3.053  0.6021  1.4282  0.4805
 4645SOL     OW25396   2.434   1.895   3.448 -0.1418 -1.1820 -0.3530
 4645SOL    HW125397   2.368   1.905   3.517 -0.1734  1.2949 -0.7363
 4645SOL    HW225398   2.517   1.870   3.490 -0.4233 -1.0353  0.2964
 4646SOL     OW25399   1.173   4.085   3.475  0.0162  0.1862  0.3820
 4646SOL    HW125400   1.248   4.043   3.516 -0.3560 -0.4856  0.3691
 4646SOL    HW225401   1.126   4.125   3.548 -4.3150  0.2352 -2.4095
 4647SOL     OW25402   2.670   0.501  10.041  0.2139 -0.0131  1.0214
 4647SOL    HW125403   2.703   0.553  10.114  1.7073  1.0934 -0.4398
 4647SOL    HW225404   2.633   0.564   9.979 -0.3983 -1.9957 -0.6451
 4648SOL     OW25405   2.752   3.019   7.428 -0.0736  0.3931  0.0834
 4648SOL    HW125406   2.839   3.007   7.465  0.7850  0.3789 -1.9078
 4648SOL    HW225407   2.707   2.944   7.468 -0.4516  0.3516 -0.4062
 4649SOL     OW25408   3.377   3.332   6.247  0.2559  0.9934  0.7695
 4649SOL    HW125409   3.315   3.392   6.206  0.2067  0.0997 -0.4948
 4649SOL    HW225410   3.418   3.296   6.168 -1.6679 -0.7447  0.5694
 4650SOL     OW25411   3.841   3.841   4.435 -0.5802  0.4710  0.1546
 4650SOL    HW125412   3.906   3.781   4.399 -0.0634  1.0998  0.0393
 4650SOL    HW225413   3.894   3.916   4.460  2.3187 -0.8890 -1.9379
 4651SOL     OW25414   0.941   2.781   2.491 -0.4278  0.6040  0.5971
 4651SOL    HW125415   0.888   2.703   2.474  1.1100 -0.3072 -0.0642
 4651SOL    HW225416   1.032   2.756   2.472 -1.2460 -1.3416 -0.7226
 4652SOL     OW25417   4.710   0.806  13.411  0.2794  0.2610  0.0063
 4652SOL    HW125418   0.027   0.727  13.448  0.5301 -0.2111 -1.2666
 4652SOL    HW225419   4.627   0.818  13.458  0.4045  0.9257  0.0536
 4653SOL     OW25420   1.890   1.256   2.927  0.7254 -0.3371  0.2759
 4653SOL    HW125421   1.874   1.325   2.862  0.7493 -1.1070 -0.5546
 4653SOL    HW225422   1.801   1.244   2.959  0.7267  2.1917  1.2152
 4654SOL     OW25423   4.468   3.561   1.536  0.2677  0.2603  0.0759
 4654SOL    HW125424   4.420   3.512   1.602 -1.1589  0.7664 -0.5986
 4654SOL    HW225425   4.556   3.565   1.575  0.4722  0.9724 -0.4506
 4655SOL     OW25426   2.195   0.616   4.212 -0.1093  0.2169  0.0363
 4655SOL    HW125427   2.178   0.700   4.171  0.5387 -0.0245 -0.7079
 4655SOL    HW225428   2.240   0.574   4.139 -1.9124 -1.3633 -0.1569
 4656SOL     OW25429   3.287   4.238   3.924 -0.1067  0.2326 -0.2777
 4656SOL    HW125430   3.255   4.158   3.882 -0.0328  0.1271 -0.1332
 4656SOL    HW225431   3.226   4.299   3.883  1.5690  1.2442 -1.2530
 4657SOL     OW25432   0.070   1.529  10.287  0.0716 -0.1819  0.1418
 4657SOL    HW125433   0.053   1.435  10.288  1.4935 -0.4589 -2.2051
 4657SOL    HW225434   4.713   1.555  10.335  1.2107  1.1774  1.3029
 4658SOL     OW25435   2.972   2.797   2.467 -0.0524  0.1177 -0.3340
 4658SOL    HW125436   3.023   2.723   2.435 -1.0578 -1.1293  0.9454
 4658SOL    HW225437   2.901   2.811   2.404  0.8697  2.5373 -0.8076
 4659SOL     OW25438   3.782   1.277  12.939 -0.2236  0.1977 -0.7874
 4659SOL    HW125439   3.688   1.271  12.955 -0.2576 -0.3442 -1.2008
 4659SOL    HW225440   3.787   1.227  12.857 -0.2714 -0.5021 -0.3569
 4660SOL     OW25441   3.357   3.761  11.457 -0.0664 -0.0268 -0.6539
 4660SOL    HW125442   3.402   3.727  11.380 -1.8935 -3.1344 -0.3415
 4660SOL    HW225443   3.274   3.714  11.457 -0.3409  0.4604 -2.7589
 4661SOL     OW25444   0.454   3.810   0.265 -0.2445 -0.7938  0.2192
 4661SOL    HW125445   0.490   3.885   0.219 -1.9643  1.0013  1.8047
 4661SOL    HW225446   0.459   3.744   0.196  0.2733 -2.1166  1.5204
 4662SOL     OW25447   1.966   1.746   2.508 -0.1833  0.4934 -0.2857
 4662SOL    HW125448   2.022   1.818   2.538 -0.0184  0.4331 -0.4525
 4662SOL    HW225449   1.912   1.803   2.453 -2.6040 -1.3297  0.1562
 4663SOL     OW25450   4.537   2.852   7.996 -0.4293  0.6207 -0.3232
 4663SOL    HW125451   4.543   2.860   8.091  2.1948 -1.3325 -0.3187
 4663SOL    HW225452   4.620   2.807   7.978 -0.1619  0.2336  1.9566
 4664SOL     OW25453   4.142   0.845   6.104 -0.4462 -0.4110  0.2676
 4664SOL    HW125454   4.070   0.849   6.041  0.6215  0.3044 -0.9120
 4664SOL    HW225455   4.096   0.871   6.184  1.0167 -0.3310  1.0719
 4665SOL     OW25456   4.215   4.451   7.514 -0.1624  0.0449 -0.1068
 4665SOL    HW125457   4.236   4.474   7.423  0.9679 -0.5663  0.0058
 4665SOL    HW225458   4.215   4.355   7.511  1.6203  0.0416  0.0699
 4666SOL     OW25459   2.543   1.033   7.810  0.3632 -0.1256 -0.3268
 4666SOL    HW125460   2.478   0.964   7.797  0.7084 -1.0568  2.9042
 4666SOL    HW225461   2.600   0.992   7.875  1.1326  0.5162 -0.5982
 4667SOL     OW25462   4.054   3.271  14.078 -0.4516  0.0921  0.1214
 4667SOL    HW125463   4.079   3.250  14.168 -0.4403  1.0935  0.3596
 4667SOL    HW225464   4.126   3.330  14.052  1.2018 -1.3163  1.5417
 4668SOL     OW25465   4.395   1.852   5.008  0.3643  0.2351  0.1557
 4668SOL    HW125466   4.319   1.900   4.978  1.0186  2.6908  2.4395
 4668SOL    HW225467   4.462   1.920   5.013  0.2088  0.3316  0.9842
 4669SOL     OW25468   2.038   0.858   7.150  0.2692  0.0865 -0.3426
 4669SOL    HW125469   2.059   0.829   7.062  3.3748 -0.4049  0.5693
 4669SOL    HW225470   1.944   0.840   7.149  0.4572 -1.0289  1.9714
 4670SOL     OW25471   1.373   1.313   9.871  1.1675 -0.3579  0.4698
 4670SOL    HW125472   1.464   1.282   9.868  1.6318  1.1856 -0.9103
 4670SOL    HW225473   1.375   1.355   9.957  1.9306  0.1005  0.2267
 4671SOL     OW25474   4.449   4.301  15.855 -0.1957  0.3187  0.0128
 4671SOL    HW125475   4.377   4.284  15.793  0.2339 -0.2404 -0.3342
 4671SOL    HW225476   4.483   4.379  15.812 -1.9533  0.1221 -1.7435
 4672SOL     OW25477   4.204   3.486   4.632 -0.2556  0.0762  0.1086
 4672SOL    HW125478   4.259   3.445   4.564 -2.7236 -1.3724 -0.9888
 4672SOL    HW225479   4.246   3.455   4.712 -0.9786 -2.8479 -0.6669
 4673SOL     OW25480   2.894   3.287  13.349  0.4068  0.2627 -0.4205
 4673SOL    HW125481   2.965   3.299  13.411 -1.5917  3.4453  1.2539
 4673SOL    HW225482   2.828   3.346  13.387  0.2419 -0.1459 -0.0749
 4674SOL     OW25483   1.266   3.014   3.843  0.1148  0.1231  0.1341
 4674SOL    HW125484   1.261   2.963   3.762 -3.3604 -2.4143  1.9064
 4674SOL    HW225485   1.227   2.950   3.903  1.5865  1.0678  2.0715
 4675SOL     OW25486   3.314   4.275   2.172 -0.2436 -0.0609 -0.1493
 4675SOL    HW125487   3.244   4.280   2.236  0.6159  0.9288  0.7132
 4675SOL    HW225488   3.280   4.321   2.095  0.4378  1.4906  0.4777
 4676SOL     OW25489   0.198   3.998   3.495  0.0944  0.3393  0.2314
 4676SOL    HW125490   0.271   3.942   3.521  0.2522  0.2735 -0.3353
 4676SOL    HW225491   0.225   4.024   3.407 -0.3968 -1.1062 -0.3616
 4677SOL     OW25492   4.610   0.844   1.368  0.3257  0.0561 -0.2164
 4677SOL    HW125493   4.593   0.751   1.357 -2.5998  0.5723  0.0220
 4677SOL    HW225494   4.640   0.867   1.280  1.2037 -0.8938 -0.1562
 4678SOL     OW25495   2.822   4.424   8.836 -0.4529 -0.4494  0.1609
 4678SOL    HW125496   2.804   4.512   8.869  0.6279 -0.0300 -0.3761
 4678SOL    HW225497   2.917   4.421   8.847 -0.3278 -0.1565 -0.8207
 4679SOL     OW25498   0.891   1.841   3.870 -0.4629 -0.6724 -0.1001
 4679SOL    HW125499   0.915   1.862   3.780 -1.4318 -0.2849 -0.2650
 4679SOL    HW225500   0.816   1.900   3.878 -1.9244 -2.9255  2.7637
 4680SOL     OW25501   3.941   0.197   7.127  0.3273 -0.4770  0.0627
 4680SOL    HW125502   3.935   0.139   7.203  0.2028 -0.8605 -0.2344
 4680SOL    HW225503   4.035   0.213   7.127  0.1706  0.4393 -1.2202
 4681SOL     OW25504   1.432   1.674   5.082 -0.0647 -0.6836 -0.1163
 4681SOL    HW125505   1.425   1.590   5.129  0.2597  0.2828  1.6522
 4681SOL    HW225506   1.353   1.718   5.110  1.4450  0.4944  2.2766
 4682SOL     OW25507   3.792   1.131   6.074 -0.4906  0.2212 -0.0095
 4682SOL    HW125508   3.794   1.193   6.001  1.4123 -0.8808 -0.8946
 4682SOL    HW225509   3.745   1.057   6.035  0.7188 -0.5233 -0.0453
 4683SOL     OW25510   4.158   4.674   1.416  0.4092 -0.6270  0.0233
 4683SOL    HW125511   4.129   4.601   1.470  0.2216 -0.8355 -0.3645
 4683SOL    HW225512   4.175   4.626   1.335 -0.1525  0.4627 -0.7401
 4684SOL     OW25513   2.687   2.069   4.396  0.3137 -0.0072  0.3493
 4684SOL    HW125514   2.611   2.127   4.391  0.1104 -0.2329  0.8182
 4684SOL    HW225515   2.740   2.096   4.471 -1.1526  0.6608  1.1542
 4685SOL     OW25516   3.124   2.392   3.040 -0.0548 -0.4852  0.1153
 4685SOL    HW125517   3.134   2.438   3.123  1.0125 -1.3746  0.4760
 4685SOL    HW225518   3.129   2.465   2.978  3.1198  0.7148  1.7814
 4686SOL     OW25519   0.748   0.661   4.818 -0.1110  0.1762 -0.1214
 4686SOL    HW125520   0.692   0.613   4.757  0.0959 -0.0309 -0.1472
 4686SOL    HW225521   0.714   0.751   4.816  0.1711  0.2402 -2.3476
 4687SOL     OW25522   1.452   1.842   5.380  1.0907 -0.1156 -0.3833
 4687SOL    HW125523   1.460   1.749   5.396 -1.5545 -0.3823 -0.5006
 4687SOL    HW225524   1.529   1.866   5.431  0.6245 -2.1399  1.2741
 4688SOL     OW25525   3.829   2.299   0.768 -0.5359 -0.3322  0.1589
 4688SOL    HW125526   3.885   2.369   0.800  1.7732 -2.0354 -0.1394
 4688SOL    HW225527   3.890   2.225   0.766  0.2863  0.3838 -0.7698
 4689SOL     OW25528   0.716   1.907   2.357 -0.0539 -0.5261  0.0652
 4689SOL    HW125529   0.644   1.962   2.326  0.5747  0.8019  0.9287
 4689SOL    HW225530   0.709   1.916   2.452 -0.9988 -0.0685 -0.0542
 4690SOL     OW25531   3.249   0.662   7.755 -0.5140  0.0148 -0.2116
 4690SOL    HW125532   3.247   0.576   7.797  3.1216 -0.7206 -1.5744
 4690SOL    HW225533   3.316   0.714   7.798  0.6230 -1.1648 -0.5784
 4691SOL     OW25534   1.168   4.166   5.386  0.2049 -0.2056  0.0681
 4691SOL    HW125535   1.194   4.079   5.416 -1.6031 -1.1922 -1.2556
 4691SOL    HW225536   1.075   4.149   5.396 -0.2798  1.2768 -1.7334
 4692SOL     OW25537   1.196   3.496   4.203 -0.3410  0.7432  0.3874
 4692SOL    HW125538   1.196   3.454   4.117  0.1980 -1.1954  1.3335
 4692SOL    HW225539   1.239   3.580   4.186  0.1746 -0.0430 -2.2100
 4693SOL     OW25540   0.662   2.329   1.764  0.3391 -0.3626  0.4955
 4693SOL    HW125541   0.726   2.393   1.795 -1.0857  0.4910  1.7010
 4693SOL    HW225542   0.703   2.251   1.801  0.0086  0.1038  1.8171
 4694SOL     OW25543   4.005   0.061   8.458 -0.1795  0.2584 -0.2340
 4694SOL    HW125544   3.968   0.092   8.375  0.6688  3.3558  0.5282
 4694SOL    HW225545   4.091   0.023   8.440 -0.8210 -1.0061 -0.6247
 4695SOL     OW25546   0.844   0.011   7.576  0.2180  0.4117  0.7749
 4695SOL    HW125547   0.829   4.716   7.483 -1.1686  2.3320  0.6642
 4695SOL    HW225548   0.786   0.085   7.594 -1.3340 -0.9793  1.4872
 4696SOL     OW25549   1.183   1.889   3.526  0.3014 -0.0112  0.4145
 4696SOL    HW125550   1.260   1.904   3.472 -0.0480 -1.0051 -0.3594
 4696SOL    HW225551   1.212   1.818   3.583 -1.5133 -1.3320 -0.3088
 4697SOL     OW25552   2.127   0.892  14.514 -0.0315  0.2845  0.4865
 4697SOL    HW125553   2.195   0.928  14.456 -0.5016  2.2212  1.1461
 4697SOL    HW225554   2.066   0.965  14.521 -0.9585 -0.1268 -3.0651
 4698SOL     OW25555   0.964   4.305  14.889  0.0424  0.0575  0.4816
 4698SOL    HW125556   0.956   4.380  14.948  1.0883  1.6061 -1.3463
 4698SOL    HW225557   1.050   4.320  14.849  0.3183 -0.8218  0.7399
 4699SOL     OW25558   4.528   2.275   6.791  0.8927 -0.5103  0.2629
 4699SOL    HW125559   4.534   2.367   6.766  2.0803 -0.9581 -1.0805
 4699SOL    HW225560   4.572   2.231   6.718 -0.6494 -2.1231  0.2878
 4700SOL     OW25561   4.209   1.373   6.338 -0.1952 -0.0227  0.0965
 4700SOL    HW125562   4.140   1.352   6.401  1.0934  0.1604  1.5913
 4700SOL    HW225563   4.166   1.312   6.279 -1.7762  0.4807  0.7247
 4701SOL     OW25564   1.869   2.730   6.658  1.0935  0.7163 -0.1258
 4701SOL    HW125565   1.777   2.752   6.645  0.7795 -0.9104 -0.6329
 4701SOL    HW225566   1.863   2.677   6.737  0.2891 -1.5226 -1.7049
 4702SOL     OW25567   2.322   1.876   0.328  0.0216  0.0872 -0.2011
 4702SOL    HW125568   2.368   1.863   0.411 -0.4068 -2.0995 -0.3012
 4702SOL    HW225569   2.329   1.969   0.310 -0.3701 -0.1381 -1.5335
 4703SOL     OW25570   4.007   1.175   9.234 -1.1478 -0.6768 -0.1758
 4703SOL    HW125571   4.010   1.137   9.146 -2.6877 -0.9804 -0.0884
 4703SOL    HW225572   3.944   1.244   9.214 -0.4497 -0.1576 -0.5988
 4704SOL     OW25573   0.495   0.919  16.378 -0.3692 -0.1009  0.5024
 4704SOL    HW125574   0.581   0.878  16.393  0.0820  0.4715 -0.4707
 4704SOL    HW225575   0.453   0.899  16.461 -1.6013  0.4374 -0.0021
 4705SOL     OW25576   4.695   3.655   9.097 -0.1068 -0.0559  0.3533
 4705SOL    HW125577   0.036   3.706   9.045  0.5179 -1.0481  0.1343
 4705SOL    HW225578   4.619   3.670   9.042  3.1072 -0.6077 -4.2068
 4706SOL     OW25579   4.267   3.889  12.071 -0.1064  0.1258  0.0226
 4706SOL    HW125580   4.194   3.857  12.125  1.7900 -1.7617  1.4641
 4706SOL    HW225581   4.234   3.962  12.018  1.4751  0.8825  0.0950
 4707SOL     OW25582   1.823   1.596   5.552 -0.0591 -0.1733  0.3659
 4707SOL    HW125583   1.896   1.564   5.498  1.1765  0.2437  1.7824
 4707SOL    HW225584   1.745   1.596   5.496  0.6904 -1.1392 -0.6936
 4708SOL     OW25585   2.843   4.086  17.422 -0.3075 -0.3378  0.2333
 4708SOL    HW125586   2.870   4.175  17.447 -2.0673  0.2893 -0.1133
 4708SOL    HW225587   2.917   4.031  17.449  2.3285  2.5705 -1.0042
 4709SOL     OW25588   3.168   2.756   5.184  0.0408 -0.1475 -0.1206
 4709SOL    HW125589   3.146   2.845   5.211 -1.2459 -0.1462 -1.2044
 4709SOL    HW225590   3.213   2.720   5.260 -1.3490 -3.6565 -0.9710
 4710SOL     OW25591   2.766   4.717   8.110 -0.5815 -0.3470  0.1945
 4710SOL    HW125592   2.786   4.650   8.044 -1.3087 -0.2860 -0.0852
 4710SOL    HW225593   2.833   4.706   8.177 -0.2915  0.3737  0.0186
 4711SOL     OW25594   1.585   2.711  10.226 -0.2330  0.0511 -0.6186
 4711SOL    HW125595   1.604   2.641  10.288 -0.6639  2.0761  1.8342
 4711SOL    HW225596   1.519   2.667  10.173 -1.8001 -0.3167  1.6317
 4712SOL     OW25597   0.111   0.989   8.007  0.0443  0.0943 -0.4039
 4712SOL    HW125598   0.045   0.982   7.939  0.9124 -2.0893 -1.0332
 4712SOL    HW225599   0.067   1.043   8.073  0.5662 -1.0931  0.9248
 4713SOL     OW25600   4.218   1.279   7.453  0.4045  0.9244 -0.5558
 4713SOL    HW125601   4.190   1.189   7.469 -0.0283  1.2614  0.5727
 4713SOL    HW225602   4.297   1.286   7.508 -0.3661 -1.8419  0.9268
 4714SOL     OW25603   0.802   3.322   7.472  0.1146  0.0770 -0.0566
 4714SOL    HW125604   0.797   3.405   7.519 -0.1881  1.2398 -2.1406
 4714SOL    HW225605   0.886   3.290   7.506 -0.0133 -1.0340 -0.7818
 4715SOL     OW25606   0.898   3.944   2.145  0.4622 -0.5391  0.4883
 4715SOL    HW125607   0.856   3.967   2.061  0.3451 -2.5724 -0.0090
 4715SOL    HW225608   0.896   4.025   2.196  2.8011  0.2300 -0.6451
 4716SOL     OW25609   0.735   3.818   5.558 -0.3022 -0.3773 -0.1263
 4716SOL    HW125610   0.704   3.877   5.628 -0.0873  0.0315 -0.3753
 4716SOL    HW225611   0.658   3.761   5.556 -1.8810  1.7422  0.2005
 4717SOL     OW25612   4.502   3.099  17.381 -0.1071  0.3182  0.1147
 4717SOL    HW125613   4.547   3.095  17.296 -1.0924  0.1297 -0.3890
 4717SOL    HW225614   4.501   3.005  17.399  1.2458  0.4360  0.8649
 4718SOL     OW25615   4.135   0.571   2.108 -0.0640  0.1170  0.4818
 4718SOL    HW125616   4.125   0.491   2.159  0.8585  0.2176  0.8210
 4718SOL    HW225617   4.219   0.542   2.074 -0.2060  0.3907 -0.1061
 4719SOL     OW25618   1.161   3.327   5.115 -0.1747 -0.0283 -0.8330
 4719SOL    HW125619   1.233   3.272   5.084 -0.0682  0.5142 -1.5428
 4719SOL    HW225620   1.105   3.252   5.135  1.3034 -0.6376  1.0964
 4720SOL     OW25621   0.975   3.568   8.166 -0.3149  0.7304  0.3514
 4720SOL    HW125622   0.975   3.646   8.223  2.3198  2.4454 -1.9688
 4720SOL    HW225623   0.961   3.602   8.077  0.4335  1.6146  0.5619
 4721SOL     OW25624   0.936   3.383   2.739  0.3849 -0.0903  0.8232
 4721SOL    HW125625   0.906   3.453   2.680  1.3965 -0.9222 -0.6829
 4721SOL    HW225626   1.030   3.400   2.737  0.4745 -0.6536  0.2174
 4722SOL     OW25627   0.156   1.438   0.341  0.4537  0.3442  0.3082
 4722SOL    HW125628   0.107   1.445   0.259 -1.9124  1.1590  1.8124
 4722SOL    HW225629   0.101   1.372   0.384 -1.4813  2.0692  0.4258
 4723SOL     OW25630   0.308   4.265  10.690 -0.0288 -0.2834 -0.0725
 4723SOL    HW125631   0.374   4.230  10.750 -2.7304  1.4167  3.8991
 4723SOL    HW225632   0.289   4.347  10.735  0.1100 -0.9258  1.1631
 4724SOL     OW25633   3.919   1.888   9.362 -0.6062 -0.3630  0.0791
 4724SOL    HW125634   3.976   1.827   9.316 -0.4029 -0.4908  0.4994
 4724SOL    HW225635   3.844   1.885   9.303 -0.8388  0.8473  0.3119
 4725SOL     OW25636   3.940   2.894  15.443 -0.7751 -0.1805  0.6827
 4725SOL    HW125637   3.876   2.884  15.513  1.7019 -1.5552  2.7608
 4725SOL    HW225638   4.017   2.853  15.482  0.3561  2.3753  1.0732
 4726SOL     OW25639   3.649   4.515   1.087 -0.1391  0.1916 -0.2480
 4726SOL    HW125640   3.672   4.469   1.167  1.7847  2.4498  0.4839
 4726SOL    HW225641   3.708   4.487   1.017 -1.0590  2.1864 -1.8206
 4727SOL     OW25642   1.038   1.281   1.279 -0.6217 -0.1267  0.0369
 4727SOL    HW125643   1.098   1.225   1.230  1.0023  2.1455 -0.6089
 4727SOL    HW225644   1.033   1.231   1.360  2.0122  1.1445  0.9900
 4728SOL     OW25645   2.549   2.289   6.575 -0.5336 -1.0545  0.1413
 4728SOL    HW125646   2.468   2.333   6.548  0.2519 -0.6233 -1.4671
 4728SOL    HW225647   2.604   2.315   6.502 -0.3079  0.4158  0.8144
 4729SOL     OW25648   0.108   3.472  12.337  0.3897  0.0624  0.3647
 4729SOL    HW125649   0.060   3.437  12.412 -1.9760  1.1869 -0.6344
 4729SOL    HW225650   0.056   3.552  12.330  0.9215  0.3702 -0.1086
 4730SOL     OW25651   2.688   2.766   5.067  0.1128 -0.0083 -0.4718
 4730SOL    HW125652   2.699   2.729   5.155 -0.3106  1.6158  0.2783
 4730SOL    HW225653   2.748   2.841   5.073 -0.8582  0.8439 -1.3599
 4731SOL     OW25654   1.544   1.855   2.088  0.2645 -0.4902 -0.1371
 4731SOL    HW125655   1.606   1.846   2.015 -0.0974 -0.6484 -0.4235
 4731SOL    HW225656   1.517   1.946   2.098 -2.0346 -1.0800 -0.9000
 4732SOL     OW25657   0.872   0.945   3.195 -0.0520  0.0390  0.1680
 4732SOL    HW125658   0.802   1.000   3.159 -0.6292 -1.2009 -0.6262
 4732SOL    HW225659   0.855   0.858   3.157 -1.2515  0.0936  0.5660
 4733SOL     OW25660   3.775   2.198  15.006 -0.3915 -0.2578  0.0224
 4733SOL    HW125661   3.724   2.179  14.928 -0.8160  0.6370  0.0738
 4733SOL    HW225662   3.741   2.286  15.024 -1.2144 -0.9035  1.6675
 4734SOL     OW25663   3.588   2.779  13.383 -0.3731 -0.2214 -0.0398
 4734SOL    HW125664   3.521   2.803  13.447  1.2917  0.0139  1.5948
 4734SOL    HW225665   3.544   2.774  13.298 -0.9816 -3.1932  0.4514
 4735SOL     OW25666   3.701   0.973   6.771 -0.6941  0.3773 -0.0085
 4735SOL    HW125667   3.713   0.878   6.773  1.9991  0.7526  0.5279
 4735SOL    HW225668   3.776   0.997   6.824  0.0827 -0.5111 -0.7017
 4736SOL     OW25669   1.300   0.709   6.745 -0.3855 -0.4488  0.0053
 4736SOL    HW125670   1.211   0.704   6.709 -1.4567  1.1029  2.4864
 4736SOL    HW225671   1.336   0.621   6.729 -0.0172 -0.3102  0.0626
 4737SOL     OW25672   0.137   2.166   6.602 -0.1762  0.6568  0.0487
 4737SOL    HW125673   0.134   2.128   6.690 -2.8986 -1.2641 -0.8442
 4737SOL    HW225674   0.049   2.203   6.589 -0.6495 -0.8424 -1.0052
 4738SOL     OW25675   3.975   2.032  15.180 -0.0583 -0.3895  0.0017
 4738SOL    HW125676   3.941   2.115  15.148  0.2355  0.2862  1.4498
 4738SOL    HW225677   4.068   2.039  15.158  0.0230 -2.6680 -0.3561
 4739SOL     OW25678   1.769   0.946   7.268 -0.2488 -0.6345 -0.3715
 4739SOL    HW125679   1.755   0.872   7.208  1.1357 -0.7057 -0.6098
 4739SOL    HW225680   1.783   0.887   7.342 -3.0993 -0.6677  0.1638
 4740SOL     OW25681   1.366   2.735  10.776 -0.3400 -0.1732 -0.5807
 4740SOL    HW125682   1.388   2.707  10.865  1.9923 -0.2521 -1.1739
 4740SOL    HW225683   1.454   2.733  10.737 -0.8520 -0.7505 -1.7168
 4741SOL     OW25684   1.881   1.764  12.749 -0.1422  0.1021  0.2215
 4741SOL    HW125685   1.795   1.734  12.722 -0.0323  1.0734 -1.2242
 4741SOL    HW225686   1.939   1.697  12.713  0.5750  0.2909  1.0267
 4742SOL     OW25687   3.059   2.656   7.630 -0.4316 -0.2505 -0.1362
 4742SOL    HW125688   3.140   2.645   7.580 -0.1587  2.0866 -0.1887
 4742SOL    HW225689   3.055   2.750   7.648 -0.8291 -0.6754  1.9778
 4743SOL     OW25690   3.298   3.694   4.262  0.1690  0.3241  0.2992
 4743SOL    HW125691   3.389   3.663   4.257  0.7141  1.6209  2.3787
 4743SOL    HW225692   3.307   3.772   4.207  1.4275 -0.0184  0.0120
 4744SOL     OW25693   3.761   1.531  16.558 -0.3543 -0.0991  0.0355
 4744SOL    HW125694   3.823   1.464  16.529  0.9227  1.5449 -1.0302
 4744SOL    HW225695   3.690   1.514  16.496 -0.1198  1.5120 -0.6700
 4745SOL     OW25696   1.281   0.169   7.115 -0.4357 -0.3926 -0.1937
 4745SOL    HW125697   1.220   0.130   7.053  0.7776  1.3663 -2.5417
 4745SOL    HW225698   1.280   0.106   7.187 -0.9379  1.3509  1.3281
 4746SOL     OW25699   4.615   3.530   1.241  0.1758 -0.7164  0.0718
 4746SOL    HW125700   4.568   3.450   1.220  0.4789 -0.9134  0.1482
 4746SOL    HW225701   4.705   3.499   1.254  0.1287 -1.1460 -0.6276
 4747SOL     OW25702   2.930   0.561   3.125  0.0256 -0.5405  0.0380
 4747SOL    HW125703   2.861   0.591   3.183  1.0438  2.2235 -0.1924
 4747SOL    HW225704   2.990   0.522   3.189  2.5244  2.1741 -0.6519
 4748SOL     OW25705   0.429   2.923  17.634  0.1983  0.6202 -0.5454
 4748SOL    HW125706   0.487   2.852  17.662 -1.5016 -0.6436 -0.2317
 4748SOL    HW225707   0.385   2.887  17.557  1.6915  2.2881 -2.1653
 4749SOL     OW25708   2.784   4.315   9.092 -0.1669 -0.0012 -0.7266
 4749SOL    HW125709   2.758   4.325   9.001 -3.0840  1.2287  0.2647
 4749SOL    HW225710   2.708   4.291   9.145 -0.5212 -1.7295 -2.0054
 4750SOL     OW25711   2.636   0.350   5.912  0.5869 -0.2136 -0.1584
 4750SOL    HW125712   2.682   0.346   5.829 -2.3567 -1.7049 -1.7466
 4750SOL    HW225713   2.693   0.405   5.965 -1.9976  0.2431  2.1360
 4751SOL     OW25714   3.762   1.350   5.895 -0.2100 -0.1370 -0.3854
 4751SOL    HW125715   3.691   1.400   5.936 -0.4588 -0.8099  0.0092
 4751SOL    HW225716   3.839   1.371   5.947  0.1900 -4.2384  0.6696
 4752SOL     OW25717   2.478   2.164   5.399 -0.3152  0.2251 -0.3246
 4752SOL    HW125718   2.538   2.232   5.367  0.9096 -0.1188  1.2419
 4752SOL    HW225719   2.490   2.097   5.332  1.9457  0.0636  0.2539
 4753SOL     OW25720   0.805   1.244   3.672  0.8043 -0.5346 -0.2207
 4753SOL    HW125721   0.815   1.268   3.580 -3.3108  1.0355 -0.2305
 4753SOL    HW225722   0.876   1.299   3.706 -0.3062 -0.5520  2.1143
 4754SOL     OW25723   1.056   1.429  12.890 -0.1043 -0.4581  0.7079
 4754SOL    HW125724   1.084   1.489  12.821  0.3661  0.7177  1.9111
 4754SOL    HW225725   0.995   1.369  12.847  0.0469  0.8366 -1.2897
 4755SOL     OW25726   3.300   4.037   7.294 -0.3015 -0.3881 -0.1217
 4755SOL    HW125727   3.373   4.062   7.237  0.4697  0.2172  1.1193
 4755SOL    HW225728   3.252   4.113   7.327  0.1328  0.0301 -0.4419
 4756SOL     OW25729   1.450   2.750   5.487 -0.0852  0.5762 -0.0651
 4756SOL    HW125730   1.529   2.722   5.534 -0.4542 -0.8182 -0.2638
 4756SOL    HW225731   1.468   2.842   5.470  2.1685 -0.3577 -2.7602
 4757SOL     OW25732   4.271   1.522   5.983  0.7258 -0.6459  0.0168
 4757SOL    HW125733   4.320   1.493   5.905 -1.6592  0.7971 -2.0327
 4757SOL    HW225734   4.333   1.501   6.053  2.0699 -1.0541 -1.2861
 4758SOL     OW25735   1.903   0.097   6.547 -0.1024 -0.2635 -0.0643
 4758SOL    HW125736   1.926   0.030   6.482  1.2294  0.3198 -0.2007
 4758SOL    HW225737   1.988   0.117   6.587  0.3633  2.9888 -2.6784
 4759SOL     OW25738   0.155   0.468   0.619 -0.3289 -0.6147 -0.0332
 4759SOL    HW125739   0.207   0.537   0.578  0.0584 -0.5189  0.6139
 4759SOL    HW225740   0.069   0.472   0.578  0.3740 -0.9184 -1.5488
 4760SOL     OW25741   3.933   3.327  13.204  0.4881  0.1486  0.0631
 4760SOL    HW125742   3.989   3.255  13.233 -0.8109 -1.3380 -1.0740
 4760SOL    HW225743   3.905   3.305  13.115  0.1698  1.8578 -0.2479
 4761SOL     OW25744   4.194   3.312   5.163  0.0712  0.5777  0.0947
 4761SOL    HW125745   4.248   3.391   5.172  0.8905  0.1841 -1.4238
 4761SOL    HW225746   4.246   3.252   5.110  0.0931  0.0550  0.7066
 4762SOL     OW25747   0.092   2.125   2.227 -0.2541 -0.2164  0.0941
 4762SOL    HW125748   0.031   2.131   2.300 -1.3494 -1.6737 -0.6898
 4762SOL    HW225749   0.032   2.086   2.163  0.0158 -1.3917  0.5665
 4763SOL     OW25750   1.990   3.897   4.126  0.0658  0.3681  0.1062
 4763SOL    HW125751   1.962   3.806   4.135 -2.1368  1.0405 -0.0154
 4763SOL    HW225752   1.933   3.949   4.181 -0.3282 -1.7982  1.7525
 4764SOL     OW25753   1.925   3.959   2.429  0.2212 -0.0987 -0.0011
 4764SOL    HW125754   2.017   3.944   2.449  0.4376  0.1605 -0.7834
 4764SOL    HW225755   1.909   4.043   2.471 -0.1237 -0.2976  0.2643
 4765SOL     OW25756   0.536   3.750   6.956  0.0362 -0.3662  0.3973
 4765SOL    HW125757   0.538   3.844   6.937  0.8552 -0.5752 -0.5123
 4765SOL    HW225758   0.473   3.723   6.889  0.3807 -1.0508  0.3512
 4766SOL     OW25759   2.012   0.941   5.792 -0.3142 -0.0748  0.5706
 4766SOL    HW125760   2.005   0.854   5.830  0.7549  0.0853  1.1574
 4766SOL    HW225761   2.082   0.936   5.726  1.8264  0.1745  2.8046
 4767SOL     OW25762   1.095   2.270   0.347 -0.0007  0.1508  0.0570
 4767SOL    HW125763   1.158   2.199   0.359 -1.7679 -1.2105  1.3241
 4767SOL    HW225764   1.147   2.349   0.330  0.1421  0.2931  1.1629
 4768SOL     OW25765   0.599   1.489   2.519 -0.7400 -0.0653  0.7964
 4768SOL    HW125766   0.508   1.520   2.527 -0.9326 -0.4364  0.0334
 4768SOL    HW225767   0.636   1.538   2.445 -2.0571 -1.8318 -1.0440
 4769SOL     OW25768   4.211   0.936  15.027 -0.0952  0.1142 -0.3070
 4769SOL    HW125769   4.161   0.980  14.958  0.5467 -0.4024 -1.1013
 4769SOL    HW225770   4.203   1.005  15.093  0.5621 -0.7152  0.6363
 4770SOL     OW25771   2.380   3.413  11.441  0.4984  0.3407  0.3218
 4770SOL    HW125772   2.339   3.366  11.513 -0.2699 -0.6918 -0.7946
 4770SOL    HW225773   2.313   3.479  11.422  0.9130  1.2160  1.9581
 4771SOL     OW25774   0.493   4.320   8.215 -0.1006  0.1292 -0.5024
 4771SOL    HW125775   0.407   4.303   8.177 -0.9001 -0.4066  1.5535
 4771SOL    HW225776   0.553   4.281   8.152 -0.2592 -1.0861  0.1115
 4772SOL     OW25777   2.542   1.888   3.778  0.5685 -0.3727  0.3879
 4772SOL    HW125778   2.507   1.800   3.793  1.8249 -0.8724  0.3757
 4772SOL    HW225779   2.606   1.861   3.713  0.9488  1.8912 -0.1685
 4773SOL     OW25780   2.391   2.784   6.574  0.1363  0.0268  0.4679
 4773SOL    HW125781   2.341   2.852   6.528 -0.3026 -3.0451 -3.5672
 4773SOL    HW225782   2.321   2.722   6.594  0.6618  0.1995  2.7564
 4774SOL     OW25783   4.692   1.619   4.433 -0.5750  0.1274  0.1092
 4774SOL    HW125784   0.032   1.684   4.465  0.6204  0.3317 -2.5649
 4774SOL    HW225785   4.718   1.554   4.498 -1.9092 -0.0201  0.4984
 4775SOL     OW25786   1.020   1.351   2.612 -0.3047  0.7438 -0.2533
 4775SOL    HW125787   0.974   1.421   2.566 -1.0551  0.7226  0.4563
 4775SOL    HW225788   0.975   1.340   2.696  2.7257  3.1255  1.6875
 4776SOL     OW25789   1.929   0.416  10.398 -1.0489 -0.6342  0.2948
 4776SOL    HW125790   1.935   0.352  10.327 -1.8446 -1.0394  0.5844
 4776SOL    HW225791   1.844   0.390  10.434 -1.0357  2.3540  2.4837
 4777SOL     OW25792   4.485   2.275   0.796 -0.2528 -0.1863  0.0535
 4777SOL    HW125793   4.538   2.259   0.874 -1.0337 -0.0337  0.6145
 4777SOL    HW225794   4.454   2.362   0.821 -0.3408 -0.2437  0.1453
 4778SOL     OW25795   2.985   4.015  12.232  0.1172  0.0973 -0.6987
 4778SOL    HW125796   2.927   3.944  12.260  1.1101 -1.2672 -2.0920
 4778SOL    HW225797   3.064   3.965  12.211  1.4979  2.9910 -2.3355
 4779SOL     OW25798   2.079   4.419  10.274 -0.0472  0.1225 -0.5730
 4779SOL    HW125799   2.169   4.401  10.248 -0.1846 -1.9069  0.3709
 4779SOL    HW225800   2.080   4.429  10.369  0.5458 -0.1129 -0.5560
 4780SOL     OW25801   4.600   1.486   8.788 -0.3036  0.2157  0.1956
 4780SOL    HW125802   4.691   1.504   8.766 -0.9152  0.3780 -2.1408
 4780SOL    HW225803   4.602   1.422   8.859  0.3257  0.8607  0.7550
 4781SOL     OW25804   3.051   4.192   4.868 -0.0953  0.1605 -0.1026
 4781SOL    HW125805   3.102   4.258   4.821  0.4885 -0.7812 -0.7865
 4781SOL    HW225806   3.014   4.139   4.798 -0.8869 -0.6132  0.9050
 4782SOL     OW25807   2.260   2.669   1.376  0.3784 -0.4653 -0.4660
 4782SOL    HW125808   2.331   2.707   1.429 -1.2785  0.0448  1.3725
 4782SOL    HW225809   2.259   2.733   1.305 -0.3092 -0.3639 -0.3562
 4783SOL     OW25810   0.072   4.343   6.804 -0.0642 -0.2863 -0.2976
 4783SOL    HW125811   0.087   4.265   6.856 -0.1333  0.1785  0.4171
 4783SOL    HW225812   0.127   4.411   6.841 -0.2785 -0.1823 -0.1681
 4784SOL     OW25813   4.099   0.154  16.594 -0.1126  0.4588  0.0544
 4784SOL    HW125814   4.075   0.117  16.679 -0.4220 -0.8731 -0.6020
 4784SOL    HW225815   4.055   0.084  16.545  0.0571  0.0563  0.4816
 4785SOL     OW25816   0.860   4.678   5.679 -0.8801 -0.2526  0.8943
 4785SOL    HW125817   0.873   0.045   5.715  1.8137 -0.2022 -0.1817
 4785SOL    HW225818   0.769   4.678   5.649 -0.5608 -1.1081 -0.0834
 4786SOL     OW25819   1.956   4.568   6.453 -0.3534 -0.2008  0.2953
 4786SOL    HW125820   1.927   4.514   6.527 -1.7084  0.8064  0.4885
 4786SOL    HW225821   1.982   4.500   6.391  1.8560 -0.5532  1.5636
 4787SOL     OW25822   2.602   4.043  16.299  0.0447  0.2875  0.3433
 4787SOL    HW125823   2.513   4.008  16.293 -0.1898  1.1600 -1.2540
 4787SOL    HW225824   2.644   3.970  16.344 -0.7244 -0.6540 -0.4808
 4788SOL     OW25825   2.738   3.783   1.073  0.1576 -0.2341 -0.2623
 4788SOL    HW125826   2.831   3.803   1.081  0.4116 -0.8838 -1.6806
 4788SOL    HW225827   2.728   3.731   0.994  0.2678  0.6892 -0.8857
 4789SOL     OW25828   4.534   3.851  14.749 -0.3152  0.6824 -0.3635
 4789SOL    HW125829   4.510   3.871  14.840  4.3679  0.2083  0.9505
 4789SOL    HW225830   4.584   3.929  14.727 -1.0888  1.9704  2.4361
 4790SOL     OW25831   1.563   3.273  14.130  0.2591  0.5881 -0.2758
 4790SOL    HW125832   1.554   3.180  14.110  1.2237  0.8260 -1.8490
 4790SOL    HW225833   1.652   3.285  14.096  0.9351 -1.2600  0.8687
 4791SOL     OW25834   3.553   2.493  15.474 -0.2558  0.6437 -0.0730
 4791SOL    HW125835   3.622   2.504  15.538  1.6468 -1.0447 -1.8265
 4791SOL    HW225836   3.481   2.540  15.516  0.2589  1.2435  0.1307
 4792SOL     OW25837   1.747   3.397  13.762 -0.1027 -0.4714 -0.0036
 4792SOL    HW125838   1.756   3.480  13.808 -2.0223  0.3495 -1.0790
 4792SOL    HW225839   1.765   3.342  13.838  2.6966  0.0320 -0.3133
 4793SOL     OW25840   3.620   1.859   4.634 -0.1554  0.0194 -0.8782
 4793SOL    HW125841   3.548   1.819   4.682  0.3248 -0.4592 -0.5521
 4793SOL    HW225842   3.578   1.925   4.579 -1.9574 -0.5112 -0.1129
 4794SOL     OW25843   3.663   1.613   6.900  0.2453  0.1471  0.3048
 4794SOL    HW125844   3.642   1.523   6.874  0.9594 -0.5102  1.9942
 4794SOL    HW225845   3.605   1.613   6.977  2.6632  1.8805  2.1461
 4795SOL     OW25846   2.024   3.288   4.286  0.2406  0.1684  0.5705
 4795SOL    HW125847   2.049   3.196   4.283 -1.0234 -0.1638  0.3830
 4795SOL    HW225848   1.942   3.286   4.334 -0.6776 -1.1330 -1.0541
 4796SOL     OW25849   0.882   3.835   7.599  0.0092 -0.0316  1.2725
 4796SOL    HW125850   0.837   3.916   7.623 -0.5222 -0.1889  0.7983
 4796SOL    HW225851   0.971   3.859   7.626  0.6652  1.6667 -2.3646
 4797SOL     OW25852   3.434   0.056   6.809  0.1851 -0.3350  0.9861
 4797SOL    HW125853   3.447   0.095   6.722 -2.2701 -2.7631 -0.4861
 4797SOL    HW225854   3.428   4.684   6.787 -1.0009 -0.0041 -0.1125
 4798SOL     OW25855   0.659   0.768  13.437 -0.0798  0.5110  0.4450
 4798SOL    HW125856   0.570   0.734  13.438  0.1747 -0.1653 -0.6319
 4798SOL    HW225857   0.634   0.844  13.490  1.6974  0.4169  1.4271
 4799SOL     OW25858   0.805   1.396   8.276 -0.1507 -0.2456  0.4100
 4799SOL    HW125859   0.761   1.419   8.194  2.2274  3.8666  0.2945
 4799SOL    HW225860   0.827   1.484   8.305 -0.4541  0.8597 -2.7171
 4800SOL     OW25861   0.576   4.201  10.792 -0.7661  0.3624  0.2155
 4800SOL    HW125862   0.629   4.277  10.772  1.1962 -1.5182 -1.6692
 4800SOL    HW225863   0.584   4.149  10.712 -1.3534 -1.9181  1.6493
 4801SOL     OW25864   2.010   2.914   7.691 -0.0502  0.3127 -0.7156
 4801SOL    HW125865   1.917   2.897   7.702 -0.1367  1.5968  0.6348
 4801SOL    HW225866   2.006   2.927   7.597  0.3137 -0.1984 -0.8030
 4802SOL     OW25867   0.810   1.963   7.451  0.2775 -0.0824 -0.1339
 4802SOL    HW125868   0.886   2.007   7.413 -0.7707  1.5398 -0.3495
 4802SOL    HW225869   0.752   1.975   7.375 -0.5277 -0.6514  0.3959
 4803SOL     OW25870   0.328   4.256   7.426 -0.3459 -0.1166 -0.1617
 4803SOL    HW125871   0.388   4.303   7.369 -0.3730 -0.1934 -0.2529
 4803SOL    HW225872   0.382   4.257   7.505 -0.7504  1.0701  0.1009
 4804SOL     OW25873   2.783   3.695   6.173  0.5337  0.2869  0.5131
 4804SOL    HW125874   2.713   3.720   6.234 -0.0271  0.8743 -0.3743
 4804SOL    HW225875   2.859   3.741   6.210  1.2945 -0.4411 -0.1451
 4805SOL     OW25876   2.263   1.153   1.137  0.5494  0.4525  0.3484
 4805SOL    HW125877   2.220   1.068   1.142 -1.6729  1.6205  1.2757
 4805SOL    HW225878   2.189   1.212   1.122 -0.9273 -1.4587  0.1069
 4806SOL     OW25879   4.656   4.649   7.724 -0.4810 -0.6291 -0.1662
 4806SOL    HW125880   4.590   4.706   7.763  0.8926  1.3597 -0.8012
 4806SOL    HW225881   4.705   4.602   7.791 -0.1348  0.1608  0.1298
 4807SOL     OW25882   3.942   0.515  15.859  0.0453 -0.2735  0.3593
 4807SOL    HW125883   4.027   0.502  15.816 -1.2133 -0.8245 -1.9689
 4807SOL    HW225884   3.920   0.604  15.830  0.4189 -0.1472  0.4609
 4808SOL     OW25885   1.126   1.355  10.683  0.6678 -0.2616 -0.1243
 4808SOL    HW125886   1.057   1.366  10.617  0.3852  0.0030  0.2130
 4808SOL    HW225887   1.100   1.425  10.744 -0.0331 -0.5095 -0.1322
 4809SOL     OW25888   4.661   3.364   7.138 -0.1360 -0.5466  0.4384
 4809SOL    HW125889   4.720   3.379   7.064  2.0378  1.0396  2.5072
 4809SOL    HW225890   4.647   3.269   7.127 -0.7321 -0.4288  0.1929
 4810SOL     OW25891   1.733   0.825   5.777 -0.1614 -0.2485  0.0726
 4810SOL    HW125892   1.767   0.914   5.782  0.8583 -0.5859 -0.9078
 4810SOL    HW225893   1.814   0.775   5.776  0.2122  0.3533  0.6242
 4811SOL     OW25894   0.594   4.392   2.996 -0.2307  0.1693 -0.1380
 4811SOL    HW125895   0.526   4.456   3.017  1.7865  1.4382  2.5523
 4811SOL    HW225896   0.651   4.442   2.937 -1.8795  2.2835  0.0758
 4812SOL     OW25897   0.764   2.967   6.089  0.0670  0.0912  0.3646
 4812SOL    HW125898   0.857   2.944   6.095 -0.0603 -0.3536  0.6703
 4812SOL    HW225899   0.759   2.970   5.993 -1.6979  0.5125  0.4719
 4813SOL     OW25900   0.902   2.019  13.303  0.1367  1.0867 -0.9672
 4813SOL    HW125901   0.966   2.057  13.242 -0.6217 -0.5027 -2.7775
 4813SOL    HW225902   0.930   1.929  13.319 -0.1131  1.2446  0.2905
 4814SOL     OW25903   1.439   0.951   5.379  0.5243 -0.2752 -0.1687
 4814SOL    HW125904   1.384   0.873   5.368  0.9509 -0.8839  1.9730
 4814SOL    HW225905   1.490   0.918   5.453  1.4267 -1.6811 -1.4146
 4815SOL     OW25906   1.679   3.109  12.020  0.0408  0.3095 -0.2047
 4815SOL    HW125907   1.701   3.017  12.009  0.0546  0.1412  1.2720
 4815SOL    HW225908   1.587   3.104  11.997  0.4613  0.4124 -1.9187
 4816SOL     OW25909   3.859   2.846  16.996 -0.3423 -0.0043  0.8722
 4816SOL    HW125910   3.850   2.941  17.005  0.4886  0.0824  0.7077
 4816SOL    HW225911   3.813   2.820  17.076 -0.2489 -2.1097  0.2362
 4817SOL     OW25912   1.816   0.111   7.855  0.0368 -0.1177  0.4309
 4817SOL    HW125913   1.844   0.191   7.809 -2.4004  1.4007  1.6054
 4817SOL    HW225914   1.789   0.138   7.942  0.3500  1.5297  0.0227
 4818SOL     OW25915   2.018   2.987   3.862  0.4559 -0.1240  0.1975
 4818SOL    HW125916   1.976   2.979   3.777 -0.5279 -0.0659  0.6749
 4818SOL    HW225917   1.942   2.987   3.921 -1.2206  2.0371 -1.9844
 4819SOL     OW25918   1.311   2.304   7.566  0.3833 -0.9621  1.0760
 4819SOL    HW125919   1.399   2.327   7.536 -0.7486  1.2735 -0.5847
 4819SOL    HW225920   1.317   2.308   7.662 -0.5687  0.8842  1.0737
 4820SOL     OW25921   0.099   1.375  12.420  0.3984 -0.2007  0.3927
 4820SOL    HW125922   0.033   1.374  12.489  0.1211  0.8440  0.1330
 4820SOL    HW225923   0.058   1.442  12.367  0.6621  0.2995  0.8202
 4821SOL     OW25924   0.309   3.529   5.384 -0.0678  0.2397  0.9227
 4821SOL    HW125925   0.214   3.533   5.394  0.1037 -0.1481  2.6320
 4821SOL    HW225926   0.327   3.439   5.409  0.2785  0.4867  1.5486
 4822SOL     OW25927   0.637   1.006  10.145  0.6268 -0.7222  0.9924
 4822SOL    HW125928   0.556   0.965  10.176  1.1177 -1.2918  1.5346
 4822SOL    HW225929   0.702   0.943  10.176  0.2840  0.1460  3.4761
 4823SOL     OW25930   1.971   1.289   3.340  0.2251 -0.0553 -0.1722
 4823SOL    HW125931   1.911   1.226   3.300  0.2553  3.5825 -6.0588
 4823SOL    HW225932   1.938   1.277   3.429  1.9165  3.2865  0.9221
 4824SOL     OW25933   3.713   2.205   3.626  0.2783  0.1536 -0.3325
 4824SOL    HW125934   3.710   2.236   3.536  3.2456 -0.9054 -0.7855
 4824SOL    HW225935   3.664   2.276   3.668  1.4643 -0.0225  1.3756
 4825SOL     OW25936   0.414   0.627  13.413  0.1036  0.1842 -0.1328
 4825SOL    HW125937   0.411   0.564  13.341  0.1878  1.6387 -1.4007
 4825SOL    HW225938   0.365   0.705  13.389 -1.5195 -0.4953  0.9691
 4826SOL     OW25939   2.391   4.602   4.005 -0.3926 -0.2212 -0.1498
 4826SOL    HW125940   2.298   4.616   3.989 -0.0605  1.6532 -0.4098
 4826SOL    HW225941   2.403   4.668   4.073 -0.3029  1.3122 -1.6722
 4827SOL     OW25942   3.350   2.335   2.483  0.1198  0.4949  0.5176
 4827SOL    HW125943   3.320   2.344   2.574 -1.3678  0.5554  0.0311
 4827SOL    HW225944   3.277   2.363   2.428 -0.6875 -1.0262  0.8080
 4828SOL     OW25945   2.697   4.246   7.987  0.2901 -0.4457  0.1659
 4828SOL    HW125946   2.674   4.199   7.907 -1.5237 -0.9732  0.9896
 4828SOL    HW225947   2.674   4.181   8.054 -1.3330  0.2591  0.3076
 4829SOL     OW25948   3.536   0.190   4.110 -0.3775  0.3808 -0.0258
 4829SOL    HW125949   3.618   0.181   4.160  0.8976 -0.2824 -2.2310
 4829SOL    HW225950   3.550   0.142   4.028 -0.7874 -0.2498  0.2650
 4830SOL     OW25951   3.929   0.640   3.788 -0.3045 -0.1480 -0.9475
 4830SOL    HW125952   3.948   0.547   3.799  0.7816  0.3434  1.1792
 4830SOL    HW225953   3.873   0.646   3.710 -0.4808  0.2986 -0.7850
 4831SOL     OW25954   1.535   3.002   6.342 -0.1178 -0.5432 -0.5501
 4831SOL    HW125955   1.447   2.967   6.333 -0.7052  0.4952  1.1337
 4831SOL    HW225956   1.576   2.988   6.257  1.7540 -1.2581  0.4694
 4832SOL     OW25957   3.259   4.167   4.197 -0.4184 -0.3759 -0.0881
 4832SOL    HW125958   3.310   4.189   4.276 -2.4494  0.5546  0.9550
 4832SOL    HW225959   3.296   4.226   4.132 -0.1108  0.6842  1.0361
 4833SOL     OW25960   1.505   4.202   6.975 -0.9491 -0.2335  0.0937
 4833SOL    HW125961   1.471   4.113   6.982 -1.1280 -0.1079  0.7859
 4833SOL    HW225962   1.596   4.184   6.951 -1.1431  0.5874 -1.2909
 4834SOL     OW25963   3.713   0.841   8.566 -0.6598  0.0781 -0.5556
 4834SOL    HW125964   3.778   0.807   8.627 -1.7617 -2.1068 -0.5989
 4834SOL    HW225965   3.733   0.787   8.490  0.0509 -0.2877 -0.1017
 4835SOL     OW25966   1.618   1.798   0.317  0.0249  0.0576  0.4059
 4835SOL    HW125967   1.678   1.736   0.276  0.1690  0.4259  0.0541
 4835SOL    HW225968   1.622   1.857   0.242 -2.2453 -0.3130 -0.0126
 4836SOL     OW25969   0.080   3.361   1.382  0.3277  0.3333 -0.2858
 4836SOL    HW125970   0.143   3.305   1.427 -2.9468 -1.2343  2.3547
 4836SOL    HW225971   0.072   3.432   1.445 -1.6932 -0.7286  0.6603
 4837SOL     OW25972   1.714   4.194   3.155 -0.2011  0.4185  0.4404
 4837SOL    HW125973   1.646   4.237   3.206 -1.2108 -0.8175  0.1398
 4837SOL    HW225974   1.677   4.109   3.130  2.3871 -0.9108  1.0607
 4838SOL     OW25975   4.424   1.535   8.537  0.2102  0.1486  0.1673
 4838SOL    HW125976   4.444   1.535   8.631 -0.9846 -1.3348  0.4132
 4838SOL    HW225977   4.469   1.615   8.510  0.3432  0.2885  0.7999
 4839SOL     OW25978   0.993   4.126   2.953 -0.1219 -0.1715 -0.2668
 4839SOL    HW125979   1.064   4.170   3.000 -0.8249 -1.7430  2.2645
 4839SOL    HW225980   1.043   4.089   2.880 -0.6821 -1.7699  0.1623
 4840SOL     OW25981   3.099   0.301   2.853  0.1734  0.0374 -0.0227
 4840SOL    HW125982   3.093   0.244   2.930  0.2083 -0.5103 -0.4203
 4840SOL    HW225983   3.140   0.237   2.794 -1.2334  1.3764 -2.4175
 4841SOL     OW25984   0.412   0.732  13.090  0.5939 -0.1722 -0.2219
 4841SOL    HW125985   0.494   0.722  13.138  0.7941 -2.1435 -0.9367
 4841SOL    HW225986   0.432   0.730  12.996  4.2724 -0.6807  0.5448
 4842SOL     OW25987   1.341   2.647   8.990  0.0461  0.3783 -0.0557
 4842SOL    HW125988   1.300   2.726   8.953  0.4513  0.8788  0.5629
 4842SOL    HW225989   1.342   2.682   9.079 -2.5978  0.1979  0.0425
 4843SOL     OW25990   4.163   4.469   7.801 -0.5132 -0.3266  0.1233
 4843SOL    HW125991   4.161   4.564   7.815 -0.6233 -0.1400 -1.1295
 4843SOL    HW225992   4.205   4.455   7.716 -0.8459 -0.0348 -0.0925
 4844SOL     OW25993   3.647   0.728   4.407 -0.4548  0.0191  0.0609
 4844SOL    HW125994   3.591   0.789   4.456 -1.5860 -0.2255 -0.9295
 4844SOL    HW225995   3.698   0.691   4.479 -1.0117  2.3498  1.6718
 4845SOL     OW25996   2.281   4.191   9.321  0.1209  0.4602  0.2055
 4845SOL    HW125997   2.230   4.121   9.361 -3.6188  2.3717 -1.1646
 4845SOL    HW225998   2.324   4.226   9.399  1.6186  0.8314 -0.7882
 4846SOL     OW25999   1.924   3.961   6.982 -0.0552 -0.4975 -0.4535
 4846SOL    HW126000   1.848   3.904   6.972 -1.3502  1.4045 -1.4797
 4846SOL    HW226001   1.952   3.918   7.063 -0.2870 -0.7315 -0.4975
 4847SOL     OW26002   0.252   1.439   7.055 -0.4736 -0.1695  0.3621
 4847SOL    HW126003   0.269   1.361   7.108  0.7544 -0.0010  0.2045
 4847SOL    HW226004   0.342   1.450   7.024 -0.8621  1.2355 -0.2406
 4848SOL     OW26005   0.958   0.008  12.519  0.4235  0.2894 -0.0628
 4848SOL    HW126006   1.010   0.080  12.484  0.8121 -0.4774 -1.0378
 4848SOL    HW226007   0.926   0.058  12.594  1.1309  3.6347 -1.9776
 4849SOL     OW26008   2.681   0.594  10.297 -0.4488 -0.2411  0.3414
 4849SOL    HW126009   2.714   0.509  10.268  0.1857  0.7050 -1.7520
 4849SOL    HW226010   2.679   0.578  10.391 -0.8006 -0.1268  0.3520
 4850SOL     OW26011   0.074   4.331   7.507  0.7994 -0.2789  0.3251
 4850SOL    HW126012   0.146   4.348   7.445  1.1225  0.2454  0.8365
 4850SOL    HW226013   0.030   4.416   7.503 -0.1715 -0.9125 -2.1256
 4851SOL     OW26014   3.017   3.594  10.697 -0.2627 -1.1522  0.2734
 4851SOL    HW126015   2.933   3.639  10.691  1.3107  2.0727  2.4904
 4851SOL    HW226016   2.983   3.506  10.682 -1.5210 -0.5918 -0.1477
 4852SOL     OW26017   4.397   2.958   8.765 -0.0616  0.0169  0.2164
 4852SOL    HW126018   4.452   3.019   8.717  1.7584 -1.0639  0.8993
 4852SOL    HW226019   4.410   2.883   8.707  1.2082 -0.6498  1.3450
 4853SOL     OW26020   4.521   0.925  17.365  0.8590 -0.3222  0.5529
 4853SOL    HW126021   4.608   0.904  17.333  0.4367 -0.5110 -0.4686
 4853SOL    HW226022   4.500   1.009  17.322  0.4736  0.1225  1.6167
 4854SOL     OW26023   0.376   1.108   1.212 -0.0538  0.9105 -0.5258
 4854SOL    HW126024   0.317   1.143   1.279 -1.5994  1.3947 -2.1656
 4854SOL    HW226025   0.462   1.092   1.253 -0.3433  1.6332  0.3731
 4855SOL     OW26026   3.973   2.402   2.672  0.0579 -0.8851  0.1076
 4855SOL    HW126027   4.062   2.427   2.696  0.0392 -0.6564 -0.0661
 4855SOL    HW226028   3.939   2.488   2.650  1.5105  0.2387  2.2781
 4856SOL     OW26029   1.261   4.052   4.950 -0.0578 -0.8494  0.0621
 4856SOL    HW126030   1.262   3.976   5.008 -0.9393 -0.0646  1.0821
 4856SOL    HW226031   1.315   4.018   4.878  0.6424 -0.5495  0.4438
 4857SOL     OW26032   3.199   3.618  10.487  0.2919 -0.5948  0.3488
 4857SOL    HW126033   3.133   3.619  10.556  0.8886  1.9593  0.8829
 4857SOL    HW226034   3.158   3.672  10.419  4.2816  0.7366 -1.0294
 4858SOL     OW26035   0.654   2.044   7.656 -0.3732 -0.5160 -0.4707
 4858SOL    HW126036   0.717   2.022   7.588 -0.3779 -2.2544  0.0937
 4858SOL    HW226037   0.591   2.097   7.608  0.9079 -0.3418 -1.9460
 4859SOL     OW26038   2.459   3.954   2.399  0.4437  0.2886 -0.2494
 4859SOL    HW126039   2.539   3.917   2.437  2.0145  1.2725 -2.6609
 4859SOL    HW226040   2.507   3.990   2.325 -0.4150 -0.7748 -1.3294
 4860SOL     OW26041   3.883   3.055  17.328 -0.3144  0.3104  0.2576
 4860SOL    HW126042   3.916   3.141  17.302 -1.3699  0.6673  0.0865
 4860SOL    HW226043   3.887   3.066  17.424  0.0552  2.8136 -0.0358
 4861SOL     OW26044   4.561   3.175   9.145  0.3683  0.0054 -0.0664
 4861SOL    HW126045   4.576   3.115   9.218 -1.1471 -1.2344 -0.7736
 4861SOL    HW226046   4.534   3.254   9.191  3.4258  0.6365  0.6596
 4862SOL     OW26047   0.641   1.851   6.321  0.3143 -0.1953 -0.2118
 4862SOL    HW126048   0.595   1.780   6.276 -3.0329  0.6254  1.9539
 4862SOL    HW226049   0.713   1.863   6.259  0.2322 -0.5154 -0.3688
 4863SOL     OW26050   4.193   0.978   4.909  0.1056 -0.4408 -0.8009
 4863SOL    HW126051   4.252   1.049   4.932 -0.3069 -0.8745  1.6493
 4863SOL    HW226052   4.250   0.910   4.872 -0.7727 -2.1535  0.9495
 4864SOL     OW26053   4.159   3.687   5.573 -0.0091 -0.6699 -0.2075
 4864SOL    HW126054   4.090   3.688   5.507 -1.0300  2.6901  0.8813
 4864SOL    HW226055   4.213   3.761   5.544 -0.2778  0.1963  1.4605
 4865SOL     OW26056   1.293   2.550   4.263  0.3233 -0.5793 -0.0401
 4865SOL    HW126057   1.277   2.472   4.316  1.1162 -1.4595 -1.0910
 4865SOL    HW226058   1.379   2.527   4.226  0.8691 -2.1932  2.1712
 4866SOL     OW26059   2.665   3.617   1.311  0.7858 -0.1962 -0.1519
 4866SOL    HW126060   2.703   3.684   1.255  1.5340 -0.6720 -0.2057
 4866SOL    HW226061   2.733   3.578   1.367  0.9754 -0.8788 -0.8557
 4867SOL     OW26062   3.816   0.228  10.555 -0.2616  0.1878  0.3065
 4867SOL    HW126063   3.863   0.224  10.638  0.4716  0.1701 -0.1079
 4867SOL    HW226064   3.887   0.244  10.492  0.4659  0.5842  1.2251
 4868SOL     OW26065   0.812   0.283   7.688 -0.0272  0.3994  0.3521
 4868SOL    HW126066   0.863   0.285   7.768  1.6392 -1.4667 -0.6593
 4868SOL    HW226067   0.782   0.374   7.681 -2.1987 -0.3642 -0.2555
 4869SOL     OW26068   1.163   0.506   9.786  0.2515  0.3160 -0.2075
 4869SOL    HW126069   1.112   0.428   9.807 -0.2750  0.9051  0.6935
 4869SOL    HW226070   1.107   0.571   9.828  0.0441 -0.4242  0.6696
 4870SOL     OW26071   3.997   0.872   7.767 -0.2508 -0.2577  0.4572
 4870SOL    HW126072   3.984   0.799   7.827  0.7100 -0.8536 -0.0629
 4870SOL    HW226073   4.035   0.944   7.816 -1.6255  2.0976 -1.9067
 4871SOL     OW26074   2.699   0.656   7.991 -0.2202  0.1382  0.0495
 4871SOL    HW126075   2.703   0.751   7.989  1.3598  0.1059  2.1786
 4871SOL    HW226076   2.760   0.637   7.920  0.8139  1.0587  0.7016
 4872SOL     OW26077   0.545   0.383   4.815 -0.0216  0.5841 -0.3264
 4872SOL    HW126078   0.569   0.359   4.726  0.0582  2.1732 -0.7154
 4872SOL    HW226079   0.618   0.344   4.863  0.3320  0.2463 -1.1436
 4873SOL     OW26080   0.320   3.668   4.774  0.1474  0.1840 -0.4728
 4873SOL    HW126081   0.258   3.741   4.769 -0.2947 -0.0798  1.5574
 4873SOL    HW226082   0.294   3.626   4.856 -2.3251  0.2656 -1.1952
 4874SOL     OW26083   4.020   2.565   5.990  0.3309 -0.1263  0.1147
 4874SOL    HW126084   3.934   2.522   5.993  0.7211 -0.8882  0.2270
 4874SOL    HW226085   4.072   2.513   5.929  0.3442 -0.1130  0.1149
 4875SOL     OW26086   2.827   1.514   4.308  0.2803  0.3302  0.3817
 4875SOL    HW126087   2.887   1.520   4.382  1.1612  2.1192 -0.4677
 4875SOL    HW226088   2.765   1.579   4.338  0.5598  1.1763 -0.8752
 4876SOL     OW26089   2.759   4.063   0.701  0.1656  0.7964 -0.1789
 4876SOL    HW126090   2.832   4.004   0.719  0.0363  0.5432 -0.4887
 4876SOL    HW226091   2.742   4.046   0.608 -0.2348 -0.4996  0.1243
 4877SOL     OW26092   3.133   0.987   8.591  0.1806  0.1808  0.3535
 4877SOL    HW126093   3.081   0.992   8.511  0.7978 -1.7596 -0.1495
 4877SOL    HW226094   3.088   1.041   8.656  1.2106  0.5249  0.7757
 4878SOL     OW26095   3.611   2.401  11.888  0.0767  0.2311 -0.8188
 4878SOL    HW126096   3.517   2.389  11.900 -0.0229  1.8111 -0.1412
 4878SOL    HW226097   3.650   2.329  11.939 -1.7979 -0.7237 -0.7340
 4879SOL     OW26098   4.221   0.385   2.913 -0.1946 -0.0375 -0.4275
 4879SOL    HW126099   4.242   0.467   2.958 -0.0682 -0.9104  1.0924
 4879SOL    HW226100   4.153   0.419   2.855  0.4184  3.3664  0.7984
 4880SOL     OW26101   2.848   1.494   8.889  0.2940 -0.2188 -0.2861
 4880SOL    HW126102   2.765   1.487   8.937 -0.2902 -1.2187 -1.4600
 4880SOL    HW226103   2.878   1.404   8.895 -2.7466 -1.0937  1.7655
 4881SOL     OW26104   4.237   4.328   5.947 -0.3201  0.4409 -0.6744
 4881SOL    HW126105   4.156   4.276   5.943 -0.5991  0.6477  1.9949
 4881SOL    HW226106   4.271   4.305   6.033 -2.0516  1.6777  0.3607
 4882SOL     OW26107   1.701   2.199   2.525  0.5166  0.1726 -0.3382
 4882SOL    HW126108   1.794   2.190   2.549  0.0743  0.0560  1.2916
 4882SOL    HW226109   1.700   2.182   2.430 -0.0356  0.5307 -0.3929
 4883SOL     OW26110   1.981   0.196   8.374 -0.3688 -0.3876  0.5223
 4883SOL    HW126111   1.905   0.244   8.408  1.5846  2.6401  0.6713
 4883SOL    HW226112   1.992   0.115   8.425 -0.8197 -0.5012  0.4312
 4884SOL     OW26113   2.771   1.559   8.280  0.0286  0.0624  0.1470
 4884SOL    HW126114   2.754   1.594   8.192 -0.0855  3.4760  1.5362
 4884SOL    HW226115   2.773   1.642   8.328  1.6507  0.5131 -0.6821
 4885SOL     OW26116   4.610   4.241   6.154  0.4188  0.2456 -0.4225
 4885SOL    HW126117   4.598   4.333   6.129 -1.2963 -0.3207 -1.6451
 4885SOL    HW226118   4.698   4.231   6.117 -0.3439 -0.6078 -1.9901
 4886SOL     OW26119   3.506   2.807  11.884 -0.0360  0.0608  0.0440
 4886SOL    HW126120   3.524   2.883  11.828  0.0576  0.2975  0.3973
 4886SOL    HW226121   3.421   2.799  11.840  0.3966 -0.9307 -0.6143
 4887SOL     OW26122   0.224   2.018   0.798 -0.0615  0.1424 -0.2793
 4887SOL    HW126123   0.131   2.011   0.776  0.3555 -0.3931 -1.8699
 4887SOL    HW226124   0.223   2.039   0.891  0.3031 -1.6255  0.1116
 4888SOL     OW26125   0.969   3.842   6.322 -0.6317  0.0656  0.1022
 4888SOL    HW126126   0.926   3.779   6.264  0.6766  1.1685 -2.0870
 4888SOL    HW226127   1.060   3.815   6.313 -0.6866 -0.6851  1.8116
 4889SOL     OW26128   0.205   1.744  11.976 -0.0274 -0.6670  0.1610
 4889SOL    HW126129   0.125   1.775  11.934  2.0437  0.9176 -2.6004
 4889SOL    HW226130   0.195   1.758  12.070 -1.4886 -0.3751 -0.0478
 4890SOL     OW26131   2.703   3.930   5.338  0.0401 -0.4580 -0.2774
 4890SOL    HW126132   2.687   3.836   5.331 -1.4955 -0.1612 -0.8055
 4890SOL    HW226133   2.617   3.960   5.307 -1.0592 -2.1539  1.1281
 4891SOL     OW26134   1.647   4.058  10.779 -0.0579  0.2149 -0.2384
 4891SOL    HW126135   1.608   4.124  10.836 -0.5293  0.7818 -1.2040
 4891SOL    HW226136   1.631   3.982  10.834  1.9828 -0.7584 -0.9785
 4892SOL     OW26137   2.717   0.069   0.559  0.1508  0.2881 -0.6061
 4892SOL    HW126138   2.630   0.106   0.545 -1.3003 -2.9633  0.0082
 4892SOL    HW226139   2.762   0.098   0.479  2.7179 -2.7368 -0.2368
 4893SOL     OW26140   2.550   1.777   8.881 -0.0503  0.5338 -0.1017
 4893SOL    HW126141   2.539   1.833   8.804  1.5317  0.2864 -0.5073
 4893SOL    HW226142   2.629   1.735   8.848  0.1380  1.1262 -0.4103
 4894SOL     OW26143   0.923   1.352   4.231 -0.3241  0.1117  0.1093
 4894SOL    HW126144   0.973   1.430   4.255  0.1756  0.1333 -1.0017
 4894SOL    HW226145   0.864   1.388   4.165 -0.5692  0.7404  0.6707
 4895SOL     OW26146   2.105   3.314  10.206  0.2735  0.3509  0.6536
 4895SOL    HW126147   2.139   3.312  10.295  0.1672  2.0164  0.7213
 4895SOL    HW226148   2.114   3.222  10.180 -2.6999 -0.8873  3.9958
 4896SOL     OW26149   1.751   2.894   7.645  0.3597  0.0104  0.4094
 4896SOL    HW126150   1.722   2.893   7.737 -0.1779  1.7305  0.2535
 4896SOL    HW226151   1.670   2.912   7.597  0.9022  0.6230 -0.2618
 4897SOL     OW26152   0.102   1.218   6.870  0.1305  0.9156 -0.2774
 4897SOL    HW126153   0.165   1.277   6.910  0.9317 -0.1720  0.0724
 4897SOL    HW226154   0.148   1.134   6.879  0.1500  0.6835 -2.5239
 4898SOL     OW26155   3.749   4.560  14.424 -0.1303  0.1193  0.0536
 4898SOL    HW126156   3.837   4.555  14.387 -0.4221  1.7446 -0.8627
 4898SOL    HW226157   3.758   4.537  14.517  1.9832 -0.1132 -0.2075
 4899SOL     OW26158   3.061   1.397   5.813 -0.1227 -0.0113  0.4978
 4899SOL    HW126159   2.991   1.332   5.823  1.5999 -2.0447 -0.4698
 4899SOL    HW226160   3.008   1.475   5.805  0.8119  0.7192  1.4026
 4900SOL     OW26161   2.592   4.174   7.750 -0.2451  0.1788  0.3445
 4900SOL    HW126162   2.513   4.170   7.696 -0.9247 -2.8918  1.6244
 4900SOL    HW226163   2.598   4.269   7.759 -3.0720  0.4483 -0.6969
 4901SOL     OW26164   3.008   1.920   7.660 -0.0051  0.2649  0.1737
 4901SOL    HW126165   2.986   1.901   7.751 -0.2971  1.6240  0.3840
 4901SOL    HW226166   2.930   1.969   7.635  0.2124 -0.1821 -1.3891
 4902SOL     OW26167   4.303   3.568   2.109  0.0795 -0.2617 -0.4406
 4902SOL    HW126168   4.240   3.613   2.164 -1.5473 -0.7635 -1.8960
 4902SOL    HW226169   4.382   3.589   2.159 -1.6690  4.4846  0.3173
 4903SOL     OW26170   2.628   2.084   6.697 -0.0526 -0.6017 -0.0296
 4903SOL    HW126171   2.704   2.065   6.642 -1.8272 -0.8792 -2.3472
 4903SOL    HW226172   2.589   2.159   6.652  0.6013  0.7556  1.6455
 4904SOL     OW26173   0.683   1.947  11.060  0.1289  0.3897  0.0612
 4904SOL    HW126174   0.677   1.989  10.974 -1.9258 -1.1900 -0.5726
 4904SOL    HW226175   0.636   2.014  11.109 -1.2039 -0.3355 -0.1993
 4905SOL     OW26176   1.764   4.284   8.743 -0.1178  0.3889  0.3706
 4905SOL    HW126177   1.697   4.343   8.708 -1.9666 -2.7704 -1.3277
 4905SOL    HW226178   1.744   4.280   8.837 -0.7662 -0.2216  0.1996
 4906SOL     OW26179   3.058   2.741  12.576  0.0949  0.2325  0.3525
 4906SOL    HW126180   3.074   2.731  12.670 -1.2553  0.1228  0.5685
 4906SOL    HW226181   3.042   2.835  12.568  1.9343  0.6655  1.5887
 4907SOL     OW26182   4.620   0.252  11.506  0.0950  0.4198  0.1600
 4907SOL    HW126183   4.690   0.298  11.459  0.8270 -1.0701 -0.1870
 4907SOL    HW226184   4.672   0.176  11.534  0.1506  0.7699  1.0109
 4908SOL     OW26185   0.443   4.211   1.842  0.3833 -0.0891  0.0981
 4908SOL    HW126186   0.499   4.275   1.797 -0.6238  0.3826 -0.4776
 4908SOL    HW226187   0.361   4.220   1.793  0.5251 -0.6540 -0.2540
 4909SOL     OW26188   1.279   1.283   2.579  0.2608 -0.1052  0.4096
 4909SOL    HW126189   1.189   1.314   2.581 -0.3248 -1.7804  0.0148
 4909SOL    HW226190   1.285   1.259   2.672 -0.3519 -2.4323 -0.1380
 4910SOL     OW26191   4.514   1.433   5.093 -0.3262 -0.4999 -0.3083
 4910SOL    HW126192   4.454   1.387   5.035 -2.0817 -1.2438  2.0742
 4910SOL    HW226193   4.514   1.387   5.177 -2.7435  2.5887  1.3726
 4911SOL     OW26194   2.419   2.680   0.299 -0.7006  0.2375 -0.3872
 4911SOL    HW126195   2.473   2.676   0.220 -0.6635  0.0386 -0.3515
 4911SOL    HW226196   2.367   2.759   0.281 -0.8890  0.2969  0.4414
 4912SOL     OW26197   3.270   2.572   6.666 -0.5483 -0.2073  0.3175
 4912SOL    HW126198   3.274   2.498   6.605  0.2346  0.8301 -0.9025
 4912SOL    HW226199   3.264   2.520   6.746 -2.6510 -0.6011 -0.0925
 4913SOL     OW26200   3.765   0.025   6.039 -0.2949 -0.2048 -0.0859
 4913SOL    HW126201   3.847   0.047   5.996  0.8761 -2.3272  1.0184
 4913SOL    HW226202   3.756   0.093   6.106 -1.8934 -1.3198  0.8563
 4914SOL     OW26203   1.204   2.964   0.097  0.5073 -0.2214  0.3605
 4914SOL    HW126204   1.115   2.950   0.129 -0.2345  2.5247 -0.5101
 4914SOL    HW226205   1.239   3.007   0.175 -0.2325 -1.9521  1.6482
 4915SOL     OW26206   1.151   0.158  15.323 -0.0182  0.2094 -0.3047
 4915SOL    HW126207   1.079   0.219  15.333 -0.1977  0.1423 -1.1449
 4915SOL    HW226208   1.182   0.155  15.414 -0.9934 -1.5674 -0.0404
 4916SOL     OW26209   2.640   0.975   7.449  0.7640 -0.3156 -0.4919
 4916SOL    HW126210   2.675   1.064   7.459  0.2316  0.0968 -2.3938
 4916SOL    HW226211   2.660   0.935   7.534 -0.6939 -1.7198 -0.8131
 4917SOL     OW26212   0.438   1.936   2.999  0.0821 -0.0300 -0.0032
 4917SOL    HW126213   0.494   2.012   3.015  0.8925 -0.9617  1.5264
 4917SOL    HW226214   0.426   1.895   3.084  0.0708  2.2822  1.0917
 4918SOL     OW26215   3.612   0.780   5.119  0.6518  0.6712 -0.0476
 4918SOL    HW126216   3.543   0.737   5.169  0.2573  1.1363 -0.1943
 4918SOL    HW226217   3.618   0.858   5.174 -1.8587 -0.4429  1.8345
 4919SOL     OW26218   2.227   2.715   2.369 -0.2527  0.3729 -0.5388
 4919SOL    HW126219   2.283   2.707   2.292 -0.9939  1.2749 -1.1682
 4919SOL    HW226220   2.187   2.628   2.365  0.2933  0.1005 -0.1933
 4920SOL     OW26221   4.210   0.646   6.284  0.7820  0.5330 -0.4915
 4920SOL    HW126222   4.155   0.680   6.213  0.6253 -0.1411 -0.6935
 4920SOL    HW226223   4.196   0.556   6.252 -1.6601  0.9955 -0.6941
 4921SOL     OW26224   4.333   4.521   7.262 -0.4931  0.6736 -0.3213
 4921SOL    HW126225   4.311   4.577   7.188 -1.1608  0.0505 -0.5895
 4921SOL    HW226226   4.362   4.447   7.209  0.9355 -0.0823  1.5376
 4922SOL     OW26227   0.033   3.056   8.745 -0.1211  0.8566 -0.5079
 4922SOL    HW126228   0.032   3.147   8.718 -2.3967  0.5506 -1.4674
 4922SOL    HW226229   0.062   3.072   8.834  0.3544 -0.2527 -0.4611
 4923SOL     OW26230   2.296   2.906   3.854  0.3742 -0.4672  0.1883
 4923SOL    HW126231   2.205   2.929   3.874 -0.0375 -1.6191 -0.4067
 4923SOL    HW226232   2.318   2.899   3.947  1.1054  0.1686  0.0640
 4924SOL     OW26233   2.057   4.198   5.291 -0.6758 -0.4190 -0.1694
 4924SOL    HW126234   2.142   4.241   5.283 -0.8384  0.1537  1.1818
 4924SOL    HW226235   2.012   4.240   5.218 -0.4512 -2.0080 -1.2302
 4925SOL     OW26236   4.700   1.460  14.401 -0.3131 -0.0181  0.3269
 4925SOL    HW126237   0.029   1.456  14.320 -1.3930  0.3495 -0.3768
 4925SOL    HW226238   4.633   1.526  14.381 -1.8653 -1.7155 -0.0324
 4926SOL     OW26239   1.052   3.328  17.490 -0.3518 -0.4673  0.0505
 4926SOL    HW126240   1.024   3.383  17.417 -0.7753  1.4387  1.6795
 4926SOL    HW226241   1.146   3.317  17.477 -0.5874 -1.2373 -1.0306
 4927SOL     OW26242   1.880   2.110   9.018 -0.0640  0.0519  0.3067
 4927SOL    HW126243   1.835   2.118   8.934 -2.2788  2.0345  1.6841
 4927SOL    HW226244   1.809   2.109   9.082 -0.8519 -1.1250 -0.5922
 4928SOL     OW26245   4.078   3.695   3.269  0.3372  0.2651 -0.4429
 4928SOL    HW126246   4.131   3.653   3.336 -0.9526 -1.0039 -0.2126
 4928SOL    HW226247   4.147   3.739   3.219  1.1919 -1.1390 -0.4826
 4929SOL     OW26248   2.120   4.107   6.632 -0.7434  0.0511  0.3976
 4929SOL    HW126249   2.190   4.067   6.682 -1.7907 -0.6480  1.3094
 4929SOL    HW226250   2.155   4.151   6.555 -1.9078 -0.4366 -0.4170
 4930SOL     OW26251   2.193   1.391   1.897  0.3575 -0.0046  0.8389
 4930SOL    HW126252   2.220   1.315   1.845  1.8826  0.5934  0.7469
 4930SOL    HW226253   2.272   1.430   1.935  0.1031  0.7918  0.5504
 4931SOL     OW26254   4.139   3.381   8.337  0.5473  0.3268 -0.4245
 4931SOL    HW126255   4.185   3.297   8.347 -1.2251 -0.4957  0.7341
 4931SOL    HW226256   4.089   3.361   8.258  0.1951  0.1880 -0.1669
 4932SOL     OW26257   3.467   3.688   5.102 -0.0146 -0.0692  0.0606
 4932SOL    HW126258   3.413   3.711   5.178 -0.3499  0.9285 -0.4821
 4932SOL    HW226259   3.423   3.620   5.051  0.6673 -0.8819  0.5446
 4933SOL     OW26260   3.570   3.665   4.544 -0.3542 -0.0995 -0.6065
 4933SOL    HW126261   3.551   3.758   4.535  1.1094  0.2148 -0.4921
 4933SOL    HW226262   3.614   3.655   4.460 -0.7837 -0.4628 -0.7872
 4934SOL     OW26263   2.696   3.589   6.803 -0.6979 -0.1768  0.3571
 4934SOL    HW126264   2.693   3.621   6.894  1.1968  0.1593  0.3060
 4934SOL    HW226265   2.606   3.608   6.776  0.2868  3.1854 -0.6102
 4935SOL     OW26266   3.462   0.494   7.466  0.6591 -0.6624  0.9126
 4935SOL    HW126267   3.442   0.474   7.375  2.5128  0.6085  0.2132
 4935SOL    HW226268   3.555   0.515   7.455  0.0707  0.9804 -0.8036
 4936SOL     OW26269   4.652   2.197   3.372 -0.0375 -0.3190 -0.2294
 4936SOL    HW126270   4.602   2.122   3.404  2.9546 -2.7225 -1.1999
 4936SOL    HW226271   0.022   2.169   3.373 -0.4653 -1.7655 -1.3386
 4937SOL     OW26272   2.647   4.015  10.886  0.1332 -0.3957 -0.4766
 4937SOL    HW126273   2.674   4.103  10.858  2.5823 -0.8051  0.5986
 4937SOL    HW226274   2.660   4.048  10.975  1.1195 -1.6482 -0.1668
 4938SOL     OW26275   1.077   1.172   4.867 -0.1311  0.0132  0.3448
 4938SOL    HW126276   1.165   1.195   4.898  0.5857 -0.7767 -1.1128
 4938SOL    HW226277   1.031   1.147   4.947  0.9614  2.9181  1.9079
 4939SOL     OW26278   1.086   0.328   5.321 -0.4413  0.0342  0.3798
 4939SOL    HW126279   1.010   0.372   5.281  0.6121  1.5357  0.0114
 4939SOL    HW226280   1.092   0.362   5.411  0.1249 -0.0771  0.3805
 4940SOL     OW26281   4.565   3.061  14.906 -0.2492 -0.2610 -0.3803
 4940SOL    HW126282   4.546   3.134  14.846  0.7809 -0.3258 -0.7900
 4940SOL    HW226283   4.547   3.097  14.992  2.0424  0.5711 -0.2347
 4941SOL     OW26284   3.398   0.396   4.227  0.3448 -0.0288 -0.5459
 4941SOL    HW126285   3.359   0.329   4.283  0.4042  2.9855  3.1501
 4941SOL    HW226286   3.448   0.341   4.167  1.7357  0.3395  0.2777
 4942SOL     OW26287   1.301   0.116   0.836  0.0478  1.0316  0.0389
 4942SOL    HW126288   1.363   0.103   0.765  2.7120  1.2365  2.3134
 4942SOL    HW226289   1.218   0.099   0.792  0.5755  1.0172 -0.9485
 4943SOL     OW26290   2.563   1.387  15.018 -0.6358 -0.9480 -0.4225
 4943SOL    HW126291   2.541   1.334  15.095  0.0689  0.8967  1.0613
 4943SOL    HW226292   2.602   1.460  15.066 -0.4006  0.7293 -3.1620
 4944SOL     OW26293   1.102   2.534   9.675 -0.0773 -0.7630  0.3264
 4944SOL    HW126294   1.115   2.629   9.666  1.9722 -1.2185 -1.4104
 4944SOL    HW226295   1.171   2.494   9.622 -0.2319  2.1248 -2.0409
 4945SOL     OW26296   4.161   4.222  17.446 -0.2574 -0.3674 -0.3806
 4945SOL    HW126297   4.077   4.232  17.491 -1.1973  0.1215 -2.2539
 4945SOL    HW226298   4.124   4.154  17.390  0.0805 -0.7631 -0.1221
 4946SOL     OW26299   0.858   1.660   7.791  0.0394  0.2584  0.0778
 4946SOL    HW126300   0.793   1.628   7.854 -2.3720  1.8481 -1.5767
 4946SOL    HW226301   0.882   1.744   7.831 -2.0214 -0.0624  1.9768
 4947SOL     OW26302   4.685   4.303   8.972  0.1083  0.0795 -0.0611
 4947SOL    HW126303   0.012   4.317   9.054  1.1526 -0.1758 -0.6339
 4947SOL    HW226304   4.714   4.381   8.925 -0.5320  0.4403  0.1514
 4948SOL     OW26305   1.792   0.131   5.761  0.3865 -0.0866 -0.0498
 4948SOL    HW126306   1.832   0.090   5.685 -0.8753  0.7165 -1.1530
 4948SOL    HW226307   1.710   0.163   5.723 -0.2249 -1.1107  0.4058
 4949SOL     OW26308   0.568   0.204   3.043  0.3596  0.3442  0.3892
 4949SOL    HW126309   0.492   0.262   3.050  1.4121  1.7596  0.1553
 4949SOL    HW226310   0.620   0.259   2.984  1.3973  1.0865  1.9868
 4950SOL     OW26311   0.653   4.707   3.193 -0.2599 -0.2472 -0.3423
 4950SOL    HW126312   0.662   0.070   3.150 -1.5095  0.5784  1.0249
 4950SOL    HW226313   0.632   0.014   3.282  0.5397 -0.8849  0.0545
 4951SOL     OW26314   1.697   3.087   1.151 -0.0771  0.4018  0.1125
 4951SOL    HW126315   1.625   3.069   1.091  0.3755 -0.1432 -0.2601
 4951SOL    HW226316   1.672   3.015   1.210  0.9843 -1.0782 -1.2368
 4952SOL     OW26317   3.620   3.709  12.794 -0.2181  0.0251 -1.0782
 4952SOL    HW126318   3.545   3.711  12.853 -0.0171 -0.2705 -0.8123
 4952SOL    HW226319   3.657   3.796  12.808  0.0953 -0.1779 -0.6281
 4953SOL     OW26320   0.931   2.687   9.264  0.1945  0.0589 -0.2058
 4953SOL    HW126321   0.841   2.705   9.291  0.2160 -1.5341  0.9321
 4953SOL    HW226322   0.948   2.595   9.281  0.9003  0.3617  0.7605
 4954SOL     OW26323   1.231   4.712   5.205  0.4265  0.3486 -0.5731
 4954SOL    HW126324   1.180   4.642   5.164  0.8935  0.3333 -1.1332
 4954SOL    HW226325   1.163   0.037   5.254  0.0089  0.3366 -1.1479
 4955SOL     OW26326   3.339   0.113   6.086  0.2884  0.0742  0.3169
 4955SOL    HW126327   3.415   0.132   6.142  0.2070  2.2489 -0.3201
 4955SOL    HW226328   3.286   0.056   6.142 -1.1843 -0.0152 -1.1739
 4956SOL     OW26329   2.904   2.502   4.307  0.2187  0.3570 -0.4248
 4956SOL    HW126330   2.857   2.445   4.369  0.1742 -0.8755 -1.5706
 4956SOL    HW226331   2.877   2.470   4.221 -4.0258  0.8586  0.7062
 4957SOL     OW26332   1.501   0.544  14.101  0.0248  0.1715 -0.2697
 4957SOL    HW126333   1.418   0.531  14.147 -0.1310 -1.1551 -0.9177
 4957SOL    HW226334   1.498   0.469  14.041 -0.1235 -0.7892  0.9479
 4958SOL     OW26335   3.849   4.715   3.442  0.0733  0.3182  0.2432
 4958SOL    HW126336   3.894   0.069   3.479  1.4264 -0.0342 -0.6646
 4958SOL    HW226337   3.859   4.649   3.512 -1.3131  0.2882  0.4090
 4959SOL     OW26338   3.317   3.159  13.428 -0.7537  0.2817 -0.0140
 4959SOL    HW126339   3.313   3.248  13.394  0.5623  0.7975  1.1949
 4959SOL    HW226340   3.239   3.131  13.380  0.5621 -1.0198 -1.4006
 4960SOL     OW26341   1.045   0.824   0.442  0.4569 -0.1164 -0.2023
 4960SOL    HW126342   1.062   0.896   0.381  3.0700  0.8664  1.7146
 4960SOL    HW226343   1.132   0.800   0.475  0.7837  1.0593 -0.2128
 4961SOL     OW26344   4.354   2.609  11.240  0.3745  0.2869 -0.0524
 4961SOL    HW126345   4.370   2.669  11.312  1.2112  0.8659 -0.7206
 4961SOL    HW226346   4.421   2.626  11.173 -1.3471  1.7915 -1.3706
 4962SOL     OW26347   3.001   0.850  15.468 -1.1630  0.5986  0.3520
 4962SOL    HW126348   3.046   0.850  15.383 -0.1664  0.7348  0.8845
 4962SOL    HW226349   2.960   0.763  15.472  0.5334 -0.2829 -1.2930
 4963SOL     OW26350   1.665   0.380   3.485 -0.3458 -0.0741  0.4354
 4963SOL    HW126351   1.748   0.363   3.440  0.2210 -0.9720  1.8174
 4963SOL    HW226352   1.677   0.346   3.574 -3.1330 -2.6877 -0.1571
 4964SOL     OW26353   1.133   0.966  14.866 -0.2372  0.1457 -0.7283
 4964SOL    HW126354   1.216   1.008  14.841 -0.3560 -0.0583 -1.4602
 4964SOL    HW226355   1.112   1.005  14.951  0.4466  1.7162 -1.2837
 4965SOL     OW26356   3.956   0.859   5.864  0.2180 -0.2683  0.1711
 4965SOL    HW126357   3.925   0.788   5.808  1.3869  1.1016 -2.2054
 4965SOL    HW226358   3.875   0.909   5.876  0.2435 -0.3968  0.9071
 4966SOL     OW26359   2.673   2.972   8.009 -0.6675 -0.2225 -0.3896
 4966SOL    HW126360   2.634   2.905   8.065  1.1654  1.3799  2.7908
 4966SOL    HW226361   2.603   3.038   8.020  2.2184  3.2832 -2.9171
 4967SOL     OW26362   0.487   2.351   9.619  0.3105 -0.2528 -0.0482
 4967SOL    HW126363   0.503   2.282   9.684  0.3010 -0.0398  0.1791
 4967SOL    HW226364   0.572   2.395   9.613 -1.1200  2.1559 -2.8729
 4968SOL     OW26365   4.357   1.361  10.540 -0.3312  0.1696 -0.1189
 4968SOL    HW126366   4.326   1.299  10.474 -0.3057  2.7424 -2.5467
 4968SOL    HW226367   4.294   1.430  10.517 -0.2921  0.8741  1.8562
 4969SOL     OW26368   2.547   4.462   3.846  0.0091  0.4420  0.0663
 4969SOL    HW126369   2.480   4.523   3.876 -1.4899 -1.3563  0.4082
 4969SOL    HW226370   2.495   4.406   3.789 -0.5200  1.9403 -0.9059
 4970SOL     OW26371   1.085   1.707   6.874 -0.6125 -0.3235  0.5070
 4970SOL    HW126372   1.026   1.680   6.944  0.8120 -1.1009  1.3748
 4970SOL    HW226373   1.045   1.655   6.804 -0.6039  1.2549 -0.6713
 4971SOL     OW26374   0.839   2.381   4.307 -0.2245  0.4788  0.3881
 4971SOL    HW126375   0.806   2.302   4.264  0.4451 -0.2805  1.2859
 4971SOL    HW226376   0.784   2.453   4.274  0.3099  0.7525  0.1027
 4972SOL     OW26377   1.257   4.251  16.189 -0.0651  0.2346  0.4405
 4972SOL    HW126378   1.344   4.247  16.151 -0.2232 -1.9780  0.3250
 4972SOL    HW226379   1.236   4.335  16.147  1.5851  0.9024  0.9703
 4973SOL     OW26380   0.177   1.256   3.885 -0.0705  0.0283  0.2946
 4973SOL    HW126381   0.095   1.305   3.878 -1.1038 -1.3631  2.6614
 4973SOL    HW226382   0.161   1.177   3.833  2.5553  0.6995 -1.5075
 4974SOL     OW26383   0.475   0.339  16.431  0.1769 -0.5782  0.0654
 4974SOL    HW126384   0.474   0.380  16.344  0.7676  0.3082  0.4682
 4974SOL    HW226385   0.521   0.413  16.470 -2.1704 -0.1757  2.0460
 4975SOL     OW26386   4.573   3.770   5.393 -0.3456 -0.5148 -0.0475
 4975SOL    HW126387   4.597   3.859   5.419  1.7607 -0.5487 -1.8826
 4975SOL    HW226388   4.485   3.793   5.363  1.0458 -0.5589 -4.1444
 4976SOL     OW26389   1.656   1.049   7.008  0.5031 -0.4056 -0.1985
 4976SOL    HW126390   1.586   1.004   7.056  1.0078  1.3524  2.1633
 4976SOL    HW226391   1.720   1.057   7.079  1.4147  3.2566 -1.4567
 4977SOL     OW26392   1.918   2.262  16.465 -0.1848 -0.1096 -0.3354
 4977SOL    HW126393   1.893   2.295  16.378 -0.4560 -0.7504 -0.5027
 4977SOL    HW226394   1.920   2.345  16.512 -2.2668  0.5231 -1.3602
 4978SOL     OW26395   3.983   0.203  14.404  0.1993  0.0623 -0.4047
 4978SOL    HW126396   3.937   0.176  14.325 -0.3217  0.3096 -0.1881
 4978SOL    HW226397   3.905   0.220  14.458 -0.7761  0.1247 -1.8493
 4979SOL     OW26398   0.206   3.967   2.637  0.3395 -0.0253 -0.0785
 4979SOL    HW126399   0.229   4.020   2.713  1.4182 -0.9665  0.2607
 4979SOL    HW226400   0.183   4.039   2.577  1.0492  0.3941  0.1456
 4980SOL     OW26401   0.863   0.926   7.608  0.3413  0.0615  0.0607
 4980SOL    HW126402   0.894   0.966   7.527 -1.4176  0.4490 -0.4278
 4980SOL    HW226403   0.768   0.929   7.598  0.0851 -3.4594  1.3899
 4981SOL     OW26404   0.440   0.943   2.420 -0.4580 -0.0857 -0.0577
 4981SOL    HW126405   0.526   0.912   2.389  0.3538 -0.1087  2.2535
 4981SOL    HW226406   0.414   0.864   2.469 -0.1133  0.8150  1.5704
 4982SOL     OW26407   0.833   1.764  11.429 -0.8186 -0.7087 -0.4826
 4982SOL    HW126408   0.830   1.841  11.372 -0.6300  0.6524  1.3407
 4982SOL    HW226409   0.755   1.796  11.473 -1.6891 -1.8372 -1.2108
 4983SOL     OW26410   0.295   1.993   7.439  0.3837  0.3139  0.2211
 4983SOL    HW126411   0.348   2.072   7.439  1.5219 -0.4419 -0.1869
 4983SOL    HW226412   0.347   1.934   7.494 -0.6143  0.9032  1.8123
 4984SOL     OW26413   2.368   0.632  11.144 -0.1140 -0.5186  0.3245
 4984SOL    HW126414   2.356   0.549  11.190 -2.0231 -0.5542 -0.2428
 4984SOL    HW226415   2.456   0.611  11.112 -0.8775 -2.3036 -0.5619
 4985SOL     OW26416   2.207   0.276   9.351 -0.0167 -0.6633 -0.4714
 4985SOL    HW126417   2.185   0.199   9.299  0.1291 -0.8915 -0.1929
 4985SOL    HW226418   2.300   0.262   9.367 -0.5755 -0.7734  2.5642
 4986SOL     OW26419   1.745   0.761   7.003 -0.3544 -0.2217 -0.0723
 4986SOL    HW126420   1.773   0.792   6.918 -1.0498 -0.7966 -0.5099
 4986SOL    HW226421   1.652   0.754   6.984 -0.4976 -0.1344  0.5700
 4987SOL     OW26422   1.530   2.961   0.736 -0.0736 -0.0405  0.1767
 4987SOL    HW126423   1.529   2.931   0.645  0.8033  3.9707 -1.1447
 4987SOL    HW226424   1.618   2.943   0.770  0.2250  0.0757 -0.5483
 4988SOL     OW26425   0.319   2.155   3.685  0.0187  0.6262 -0.1112
 4988SOL    HW126426   0.391   2.145   3.623  1.0002 -3.1420  1.6404
 4988SOL    HW226427   0.350   2.240   3.717  0.4542  0.2805  0.3747
 4989SOL     OW26428   0.815   4.714   6.001 -1.0636  0.4128 -0.0122
 4989SOL    HW126429   0.811   0.004   6.096  1.5733  0.8217  0.0376
 4989SOL    HW226430   0.777   0.072   5.966 -2.3224  0.2830  1.0419
 4990SOL     OW26431   4.125   4.412   2.927 -0.4052 -0.1335  0.0218
 4990SOL    HW126432   4.091   4.433   3.014 -1.4564  0.2825 -0.4878
 4990SOL    HW226433   4.160   4.324   2.943 -1.8127 -0.5925  0.5894
 4991SOL     OW26434   2.672   0.204   2.595  0.1639  0.2294  0.0363
 4991SOL    HW126435   2.725   0.246   2.663  2.1638 -0.1449 -1.2890
 4991SOL    HW226436   2.602   0.269   2.598  0.6902  0.8765 -1.3282
 4992SOL     OW26437   3.270   2.308  16.085  0.8104 -0.0003  0.0221
 4992SOL    HW126438   3.208   2.236  16.069 -0.7016  0.7037  2.7425
 4992SOL    HW226439   3.355   2.272  16.060  0.2827 -0.8431 -0.5584
 4993SOL     OW26440   3.468   3.968   4.845 -0.1493  0.0709 -0.0171
 4993SOL    HW126441   3.418   4.017   4.780 -0.3431 -0.7998 -0.5372
 4993SOL    HW226442   3.430   3.880   4.843 -1.2827  0.5923 -1.1420
 4994SOL     OW26443   1.883   3.207   7.618  0.8923 -0.6088 -0.3126
 4994SOL    HW126444   1.896   3.122   7.660  2.2705 -0.8419 -1.2373
 4994SOL    HW226445   1.864   3.179   7.528  1.1210 -0.5876 -0.3672
 4995SOL     OW26446   3.435   2.337   5.995  0.2310 -0.1196  0.2396
 4995SOL    HW126447   3.451   2.379   5.910 -0.9756  0.7376  0.4301
 4995SOL    HW226448   3.425   2.245   5.972  0.1191 -0.8270  3.1507
 4996SOL     OW26449   0.819   2.057   6.049 -0.0501  0.2965 -0.1167
 4996SOL    HW126450   0.800   2.022   5.962  0.2650  0.9054 -0.4318
 4996SOL    HW226451   0.866   1.981   6.083 -1.3148 -1.4691 -2.3174
 4997SOL     OW26452   3.847   3.759  13.006 -0.4197 -0.0370  0.0181
 4997SOL    HW126453   3.873   3.689  12.946 -0.9086  0.0617 -0.3031
 4997SOL    HW226454   3.917   3.743  13.070 -0.3058 -1.6127 -0.5065
 4998SOL     OW26455   4.582   3.068   5.185 -0.2217 -0.1922 -0.0065
 4998SOL    HW126456   4.596   3.159   5.159  1.3306 -0.9072 -1.7434
 4998SOL    HW226457   4.487   3.063   5.176 -0.3062 -1.5069  1.6573
 4999SOL     OW26458   1.990   2.860   8.631  0.3945  0.3748 -0.3099
 4999SOL    HW126459   2.063   2.900   8.678 -0.1957  3.6566 -2.1416
 4999SOL    HW226460   2.042   2.787   8.597  1.9933  1.8691 -1.0797
 5000SOL     OW26461   1.190   4.406  17.103 -0.2022  0.5124  0.5781
 5000SOL    HW126462   1.217   4.408  17.011  2.0382  0.7363  1.2423
 5000SOL    HW226463   1.098   4.380  17.100 -0.1028  0.2229  0.0014
 5001SOL     OW26464   1.522   1.110   3.434 -0.5329 -0.6936  0.4610
 5001SOL    HW126465   1.536   1.123   3.528 -2.9380 -0.0497  0.7307
 5001SOL    HW226466   1.439   1.063   3.443  0.3113 -2.2973  0.0144
 5002SOL     OW26467   2.324   1.997   7.680 -0.7193  0.3462  0.0509
 5002SOL    HW126468   2.269   1.920   7.668 -1.7079  1.2705 -1.3943
 5002SOL    HW226469   2.411   1.958   7.682 -0.5452  0.6539 -1.2869
 5003SOL     OW26470   0.331   0.674   2.512 -0.2641 -0.1934  0.4137
 5003SOL    HW126471   0.275   0.654   2.587 -1.5565 -1.1389 -0.8112
 5003SOL    HW226472   0.353   0.586   2.482 -0.7510  0.4463 -1.8148
 5004SOL     OW26473   2.803   4.129   2.554 -0.0398  0.2868  0.8151
 5004SOL    HW126474   2.847   4.208   2.586 -0.7786  0.4843  1.3495
 5004SOL    HW226475   2.731   4.149   2.614  0.1361 -2.4353  1.9340
 5005SOL     OW26476   4.448   3.436   3.522  0.0277  0.5121 -0.5324
 5005SOL    HW126477   4.409   3.353   3.548  0.0462  0.4679 -0.6471
 5005SOL    HW226478   4.391   3.487   3.581  0.8878 -0.0782  0.8200
 5006SOL     OW26479   2.803   4.402  13.117  0.9797  0.0426 -0.0111
 5006SOL    HW126480   2.860   4.478  13.104 -0.3129  1.5943  3.2852
 5006SOL    HW226481   2.731   4.426  13.059  1.0730  2.1235  0.7402
 5007SOL     OW26482   3.150   2.477   8.100 -0.1036 -0.0056 -0.2404
 5007SOL    HW126483   3.116   2.417   8.034 -1.7544 -0.4805  1.0685
 5007SOL    HW226484   3.075   2.537   8.105 -0.3348  0.0962 -4.7313
 5008SOL     OW26485   1.236   0.630   3.849  0.2165  0.3265  0.5464
 5008SOL    HW126486   1.292   0.687   3.796 -1.5611  0.3734 -1.2587
 5008SOL    HW226487   1.153   0.677   3.856  0.5910  1.2342 -1.2317
 5009SOL     OW26488   2.628   3.743   7.594  0.7600  0.2512 -0.4800
 5009SOL    HW126489   2.548   3.737   7.542  1.7432 -3.1524 -1.6130
 5009SOL    HW226490   2.578   3.744   7.676  1.6402  0.6678  0.0540
 5010SOL     OW26491   2.808   3.920   4.356 -0.2548 -0.4566  0.0039
 5010SOL    HW126492   2.753   3.924   4.434  0.6485  1.3711  0.5290
 5010SOL    HW226493   2.819   4.014   4.345  2.0949 -0.5656  1.4134
 5011SOL     OW26494   4.591   1.657   4.980  0.1102  0.2062  0.3634
 5011SOL    HW126495   4.543   1.577   5.002  0.6481 -0.2485 -0.1380
 5011SOL    HW226496   4.516   1.714   4.997  2.1200  2.7030  0.8755
 5012SOL     OW26497   0.785   0.933  10.887  0.0043  0.1945 -0.1832
 5012SOL    HW126498   0.738   0.953  10.806 -0.4156  0.2645  0.0760
 5012SOL    HW226499   0.713   0.962  10.944  0.6597  3.7176 -1.0990
 5013SOL     OW26500   0.339   2.812   9.176  0.1772  0.0385  0.5408
 5013SOL    HW126501   0.322   2.835   9.268 -2.0034  0.3828  0.0378
 5013SOL    HW226502   0.371   2.896   9.144  1.0630 -0.4881  0.0304
 5014SOL     OW26503   0.836   3.762   8.835  0.2355 -0.2215 -0.0862
 5014SOL    HW126504   0.821   3.800   8.748 -1.8472 -0.1985  0.2953
 5014SOL    HW226505   0.878   3.842   8.865 -0.4411  0.2317 -0.3405
 5015SOL     OW26506   1.693   3.025  15.902  0.0088 -0.1291  0.3713
 5015SOL    HW126507   1.714   2.971  15.826  2.0561  1.8997 -0.4912
 5015SOL    HW226508   1.648   3.092  15.851  0.9518 -0.2262 -0.5804
 5016SOL     OW26509   3.764   3.162   6.120  0.2813  0.0345  0.0349
 5016SOL    HW126510   3.721   3.077   6.132 -2.7334  1.6272  0.5545
 5016SOL    HW226511   3.705   3.229   6.154 -0.2479 -1.2378  1.6219
 5017SOL     OW26512   1.148   1.030   2.917  0.8153  0.4769 -0.3668
 5017SOL    HW126513   1.205   1.036   2.840  0.8530 -0.3670 -0.4068
 5017SOL    HW226514   1.204   0.982   2.979 -0.4928 -1.7031 -0.8931
 5018SOL     OW26515   0.060   0.132   3.894  0.3988 -0.1148 -0.4573
 5018SOL    HW126516   0.097   0.082   3.967 -0.2236  0.4389  0.2392
 5018SOL    HW226517   0.113   0.106   3.819  0.6492  1.7809 -0.9380
 5019SOL     OW26518   3.778   2.828   8.433  0.0452 -0.1062 -0.7100
 5019SOL    HW126519   3.762   2.758   8.496 -0.9910  0.5740 -0.2151
 5019SOL    HW226520   3.694   2.875   8.437 -0.4333 -1.0025 -0.3617
 5020SOL     OW26521   0.010   1.586   4.731 -0.3309  0.2428 -0.3980
 5020SOL    HW126522   4.659   1.624   4.780 -0.8724 -0.7881 -0.4039
 5020SOL    HW226523   0.080   1.627   4.782 -1.1598  2.0794 -0.7374
 5021SOL     OW26524   4.053   0.247   7.981 -0.5018  0.3818 -0.3984
 5021SOL    HW126525   4.126   0.193   8.012 -2.8807 -1.3829  2.1916
 5021SOL    HW226526   3.996   0.178   7.944  0.4827 -0.3931 -0.4777
 5022SOL     OW26527   3.265   3.306   4.341  0.3077 -0.1709 -0.1718
 5022SOL    HW126528   3.286   3.399   4.354 -0.3926 -0.0530  0.1174
 5022SOL    HW226529   3.255   3.310   4.246  0.9445 -0.0294 -0.2348
 5023SOL     OW26530   4.452   1.528   1.103 -0.7612  0.1557  0.5711
 5023SOL    HW126531   4.376   1.529   1.045 -0.2691 -0.9219 -0.0933
 5023SOL    HW226532   4.422   1.486   1.183  2.3066  2.0144  2.7134
 5024SOL     OW26533   3.387   3.814   8.683  0.4259  0.3112 -0.3286
 5024SOL    HW126534   3.298   3.779   8.691  0.2643 -0.4305 -5.1811
 5024SOL    HW226535   3.435   3.740   8.720 -1.1286 -0.0969  0.8841
 5025SOL     OW26536   1.955   4.206   9.562 -0.2797  0.2052  0.5695
 5025SOL    HW126537   1.875   4.166   9.598  0.3796 -1.6220  0.0293
 5025SOL    HW226538   1.935   4.297   9.581 -0.9585  0.3436 -0.8229
 5026SOL     OW26539   1.783   3.727   6.347 -0.6928  0.1356 -0.4490
 5026SOL    HW126540   1.830   3.683   6.418  0.5188  0.5209 -1.0105
 5026SOL    HW226541   1.855   3.755   6.290  0.0432 -2.3069 -0.7044
 5027SOL     OW26542   1.655   1.576   4.053  0.3369  0.0157 -0.4444
 5027SOL    HW126543   1.750   1.561   4.046 -0.0031 -1.9419 -0.8758
 5027SOL    HW226544   1.627   1.488   4.078  0.1540  0.1092 -0.3244
 5028SOL     OW26545   1.022   2.615   0.454 -0.1836 -0.1337 -0.0706
 5028SOL    HW126546   0.932   2.595   0.427 -0.4535  0.2133  0.5687
 5028SOL    HW226547   1.019   2.615   0.549 -1.1783  0.7989 -0.1017
 5029SOL     OW26548   1.689   4.115   5.198 -0.6422 -0.0194  0.0888
 5029SOL    HW126549   1.693   4.100   5.104  3.1074 -0.4679  0.3180
 5029SOL    HW226550   1.604   4.084   5.229 -0.9819  2.1652  1.3620
 5030SOL     OW26551   3.454   2.112   8.701 -0.4333 -0.1272  0.8806
 5030SOL    HW126552   3.394   2.158   8.642  1.6455  0.5020 -0.7381
 5030SOL    HW226553   3.420   2.148   8.783 -0.0707  1.0117  0.5319
 5031SOL     OW26554   2.218   1.126   3.380  0.2660 -0.0219  0.6750
 5031SOL    HW126555   2.140   1.163   3.340  0.5719 -1.6159 -1.3864
 5031SOL    HW226556   2.248   1.060   3.319 -2.8597  0.7516 -1.6681
 5032SOL     OW26557   0.258   1.925   9.283  0.4659 -0.1478 -0.4036
 5032SOL    HW126558   0.246   1.904   9.376  1.1338  0.7517 -0.1173
 5032SOL    HW226559   0.345   1.892   9.264  0.7843  0.2916  0.2626
 5033SOL     OW26560   0.726   1.565  11.255  0.3561  0.3041 -0.0320
 5033SOL    HW126561   0.762   1.635  11.310 -2.0136 -0.1597  2.0855
 5033SOL    HW226562   0.742   1.486  11.306 -0.8957 -0.0566 -0.2072
 5034SOL     OW26563   4.448   0.593   3.139 -0.3681 -0.1771  0.0177
 5034SOL    HW126564   4.477   0.506   3.167  0.8847  0.1372 -0.3083
 5034SOL    HW226565   4.354   0.586   3.154 -0.2396  0.9129  1.4034
 5035SOL     OW26566   3.152   1.636  10.549  0.2347  0.2265 -0.0503
 5035SOL    HW126567   3.162   1.653  10.455  3.5297  1.8713  0.5877
 5035SOL    HW226568   3.112   1.549  10.544 -1.2337  0.8881  0.3505
 5036SOL     OW26569   0.055   2.349   6.181  0.3077  0.4620  0.1607
 5036SOL    HW126570   0.034   2.434   6.142 -0.9039  0.4662  0.7958
 5036SOL    HW226571   4.693   2.309   6.157 -1.0520  2.0738  2.1991
 5037SOL     OW26572   0.993   1.619   4.586  0.2147 -0.2224 -0.3238
 5037SOL    HW126573   0.984   1.540   4.640  1.3206 -0.4247 -0.4303
 5037SOL    HW226574   0.997   1.584   4.497 -1.2640 -2.0142  0.3103
 5038SOL     OW26575   2.360   0.668   6.819  0.2311  0.9233 -0.7392
 5038SOL    HW126576   2.279   0.713   6.796 -1.1928 -0.1700  2.1774
 5038SOL    HW226577   2.351   0.644   6.911 -0.8162  0.0509 -1.0677
 5039SOL     OW26578   3.915   2.761   6.608  0.0774 -0.2502 -0.1178
 5039SOL    HW126579   3.891   2.837   6.662  0.0584 -0.4522  0.1559
 5039SOL    HW226580   3.976   2.719   6.669 -0.5442 -1.0916 -0.0842
 5040SOL     OW26581   4.555   0.039   1.223  0.0129 -0.3237 -0.0795
 5040SOL    HW126582   4.531   0.103   1.156  0.8410 -0.2806 -0.3382
 5040SOL    HW226583   4.596   4.693   1.170  0.3520 -1.1556  1.2542
 5041SOL     OW26584   3.514   2.619   4.340 -0.0611 -0.7272 -0.1548
 5041SOL    HW126585   3.605   2.636   4.363  0.0995 -0.9683 -0.6289
 5041SOL    HW226586   3.487   2.710   4.347  2.4652 -0.0286  0.4770
 5042SOL     OW26587   4.140   2.660   2.015  0.2714 -0.4088  0.5192
 5042SOL    HW126588   4.076   2.606   1.969  0.8004 -0.4321 -0.1942
 5042SOL    HW226589   4.224   2.636   1.975  0.5354  4.0161 -1.6149
 5043SOL     OW26590   0.650   0.906   9.602  0.1291  0.3551  0.5602
 5043SOL    HW126591   0.723   0.871   9.552  0.5143  0.9268  0.7303
 5043SOL    HW226592   0.593   0.831   9.581 -1.4249  1.7007 -0.0246
 5044SOL     OW26593   4.596   2.914  14.145  0.0227  0.4058 -0.1774
 5044SOL    HW126594   4.583   2.905  14.051 -4.1066  1.5782  0.2637
 5044SOL    HW226595   4.527   2.973  14.177 -0.2073  0.2119 -0.3178
 5045SOL     OW26596   0.621   0.484  15.872  0.3571 -0.1018  0.0823
 5045SOL    HW126597   0.593   0.572  15.847  0.1142  0.3692  1.9572
 5045SOL    HW226598   0.656   0.446  15.792 -0.2125 -1.2212  0.3552
 5046SOL     OW26599   3.397   0.186   6.539 -0.0388 -0.6516  0.6000
 5046SOL    HW126600   3.444   0.253   6.490 -0.3673 -1.1134 -0.3310
 5046SOL    HW226601   3.308   0.208   6.515  0.9574  0.4156 -2.0624
 5047SOL     OW26602   0.554   3.582   2.576 -0.1369  0.0906  0.3992
 5047SOL    HW126603   0.486   3.556   2.513  0.3156 -1.9860  0.7446
 5047SOL    HW226604   0.505   3.548   2.651  1.7071  0.3631  1.7199
 5048SOL     OW26605   3.432   1.960   2.708 -0.5609 -0.2659 -0.2408
 5048SOL    HW126606   3.413   1.938   2.616 -1.1669  2.2326 -0.7168
 5048SOL    HW226607   3.343   1.949   2.740 -0.9266  1.2866 -0.7076
 5049SOL     OW26608   0.780   2.560   7.070 -0.3570 -0.2732  0.3276
 5049SOL    HW126609   0.757   2.632   7.128 -1.0767 -0.5780  0.4279
 5049SOL    HW226610   0.869   2.536   7.096  0.0493 -0.1457 -0.9544
 5050SOL     OW26611   3.720   4.438   9.827  0.2080  0.3103  0.3460
 5050SOL    HW126612   3.770   4.359   9.846 -0.5464  0.2132  1.9363
 5050SOL    HW226613   3.705   4.472   9.915 -1.8318  1.3898 -0.4030
 5051SOL     OW26614   3.927   3.042   5.916  0.2781  0.1014 -0.7142
 5051SOL    HW126615   3.968   2.968   5.961 -0.7777  0.3654  0.7002
 5051SOL    HW226616   3.892   3.093   5.990  1.5090  0.6496 -0.5161
 5052SOL     OW26617   2.727   3.129   6.132  0.2296  0.2922 -0.0744
 5052SOL    HW126618   2.777   3.155   6.209 -1.1291  1.8894  0.2545
 5052SOL    HW226619   2.689   3.044   6.155  0.5347  0.1102 -0.2371
 5053SOL     OW26620   3.190   3.822  13.972 -0.2287 -0.0461  0.1672
 5053SOL    HW126621   3.143   3.765  13.911 -1.2119  2.0123 -0.9775
 5053SOL    HW226622   3.279   3.788  13.963 -0.6133 -0.9183 -0.4184
 5054SOL     OW26623   3.755   1.894  16.797  0.3304 -0.5133  0.7894
 5054SOL    HW126624   3.833   1.912  16.745 -0.8268  1.3659 -0.2850
 5054SOL    HW226625   3.704   1.825  16.754 -1.7202  0.0659  2.2693
 5055SOL     OW26626   3.972   1.974   3.290 -0.4324 -0.0105 -0.3284
 5055SOL    HW126627   4.017   1.947   3.370 -3.0180 -1.1973  0.7325
 5055SOL    HW226628   4.033   1.947   3.221 -0.9591 -0.0376 -0.7866
 5056SOL     OW26629   3.834   0.359   4.051  0.1857 -0.4982 -0.6878
 5056SOL    HW126630   3.826   0.269   4.083 -2.6680 -0.2049 -0.6143
 5056SOL    HW226631   3.815   0.353   3.958 -0.7530 -1.8424 -0.4099
 5057SOL     OW26632   3.318   2.555   7.521 -0.0245  0.0324 -0.2446
 5057SOL    HW126633   3.357   2.639   7.495 -0.5280  0.6780  1.0922
 5057SOL    HW226634   3.357   2.532   7.605 -1.7233 -1.1882  0.2103
 5058SOL     OW26635   2.941   0.577  10.102 -0.2177  0.1343  0.2039
 5058SOL    HW126636   2.972   0.524  10.176 -0.2361  0.1411  0.2164
 5058SOL    HW226637   2.944   0.504  10.040 -0.7421  0.8650 -0.6867
 5059SOL     OW26638   0.700   2.827  17.655  0.8553  0.2342  0.2754
 5059SOL    HW126639   0.791   2.804  17.675  1.1733  2.0170  0.8898
 5059SOL    HW226640   0.713   2.853  17.564 -2.0548  1.1266  0.1276
 5060SOL     OW26641   1.173   4.392   3.084 -0.0060 -0.9116 -0.1273
 5060SOL    HW126642   1.169   4.449   3.161  1.9990  0.1248 -0.8004
 5060SOL    HW226643   1.087   4.410   3.046 -0.6345 -2.4743  0.5717
 5061SOL     OW26644   3.819   1.561   5.706 -0.4903 -0.3211  0.0398
 5061SOL    HW126645   3.801   1.469   5.728 -0.4271  0.3278  2.7026
 5061SOL    HW226646   3.882   1.558   5.633  0.8293 -0.6295  1.1987
 5062SOL     OW26647   1.525   0.206  11.384  0.4840  0.4821 -0.0800
 5062SOL    HW126648   1.502   0.229  11.475 -0.9855  0.4952 -0.4482
 5062SOL    HW226649   1.484   0.278  11.336  2.3769 -0.8929 -3.7018
 5063SOL     OW26650   0.278   0.879  13.361  0.3965  0.5037  0.4481
 5063SOL    HW126651   0.195   0.903  13.320  1.2625  0.2821 -1.4403
 5063SOL    HW226652   0.334   0.943  13.317  1.8652 -2.1518 -1.5418
 5064SOL     OW26653   1.811   1.777   3.074 -0.5682  0.7696  0.1333
 5064SOL    HW126654   1.847   1.691   3.098  0.8241  0.9507 -1.3696
 5064SOL    HW226655   1.832   1.787   2.982 -1.0668  2.1912  0.1846
 5065SOL     OW26656   2.255   2.457   6.184 -0.4889  0.4453  0.5180
 5065SOL    HW126657   2.202   2.501   6.251  0.4513  2.2838  0.0547
 5065SOL    HW226658   2.198   2.470   6.109 -2.0166 -0.4809  1.5145
 5066SOL     OW26659   1.636   1.870   8.435  0.0550 -0.2714 -0.4932
 5066SOL    HW126660   1.599   1.940   8.381  0.6179 -1.4829 -2.4598
 5066SOL    HW226661   1.551   1.838   8.465  0.5097  0.5648  1.6786
 5067SOL     OW26662   0.523   0.819   7.830  0.8692  0.2048  0.1849
 5067SOL    HW126663   0.451   0.858   7.879  0.3693 -1.8492  1.0801
 5067SOL    HW226664   0.595   0.856   7.882  0.2301  1.0789  0.4432
 5068SOL     OW26665   2.495   2.030   6.089  0.0231 -0.2771 -0.0243
 5068SOL    HW126666   2.478   2.018   6.182 -1.0620 -0.9993 -0.3100
 5068SOL    HW226667   2.478   2.124   6.081  3.5192  0.2883 -0.4593
 5069SOL     OW26668   0.887   1.939  10.071  0.7426 -0.4320 -0.6956
 5069SOL    HW126669   0.897   1.866  10.132  2.7089 -0.0097 -0.4934
 5069SOL    HW226670   0.854   2.011  10.124  0.2125 -0.1786 -1.3710
 5070SOL     OW26671   0.844   4.109   8.304 -0.2741  0.2423 -0.3007
 5070SOL    HW126672   0.812   4.028   8.263 -0.7664  0.2549  0.0599
 5070SOL    HW226673   0.884   4.066   8.379 -0.3594  1.4094  0.4160
 5071SOL     OW26674   3.488   4.052   5.623 -0.5318 -0.2438  0.0488
 5071SOL    HW126675   3.536   3.973   5.646  1.6199  0.6692 -1.3410
 5071SOL    HW226676   3.443   4.069   5.705 -1.1362  0.8673 -0.5081
 5072SOL     OW26677   0.352   1.136   4.638 -0.4727 -0.2005  0.2582
 5072SOL    HW126678   0.336   1.225   4.607 -0.7305  0.1583  1.4646
 5072SOL    HW226679   0.446   1.140   4.658 -0.5747 -1.8815  1.1116
 5073SOL     OW26680   2.853   3.725   8.188 -0.0192 -0.3107 -0.0656
 5073SOL    HW126681   2.890   3.787   8.124  0.3757  0.1526  0.6167
 5073SOL    HW226682   2.774   3.703   8.139 -0.1171 -0.8664  0.3528
 5074SOL     OW26683   3.615   3.522   5.316  0.1062 -0.4112 -0.4237
 5074SOL    HW126684   3.681   3.580   5.354  0.6781 -1.0788 -0.4212
 5074SOL    HW226685   3.594   3.567   5.234  1.6827  0.1061 -0.5339
 5075SOL     OW26686   0.052   2.138   4.816  0.6749 -0.1994  0.0712
 5075SOL    HW126687   0.006   2.220   4.831  1.2262  0.3246 -1.1143
 5075SOL    HW226688   4.702   2.092   4.772 -0.0968  2.3154 -1.2980
 5076SOL     OW26689   3.559   2.419  16.977  0.6357 -0.2647  0.1699
 5076SOL    HW126690   3.519   2.436  16.892  1.5576  2.1741  0.2308
 5076SOL    HW226691   3.576   2.507  17.010 -0.6782 -1.0879  3.0492
 5077SOL     OW26692   0.194   1.910   3.654  0.3791 -0.4966 -0.2817
 5077SOL    HW126693   0.101   1.930   3.665  0.5527  0.4559 -0.4696
 5077SOL    HW226694   0.238   1.995   3.656  2.0905 -1.3331 -2.3295
 5078SOL     OW26695   1.488   3.027  16.800 -0.2784 -0.1822  0.2883
 5078SOL    HW126696   1.421   3.026  16.731 -0.9301  1.0469  0.9067
 5078SOL    HW226697   1.521   2.937  16.801  1.0200  0.2533 -2.4709
 5079SOL     OW26698   1.260   2.330   4.920 -0.2745  0.6679  0.0438
 5079SOL    HW126699   1.321   2.349   4.849  0.3223  0.3818  0.4680
 5079SOL    HW226700   1.325   2.292   4.980 -1.7509 -1.8558  0.0529
 5080SOL     OW26701   0.315   3.303   6.048 -0.2764 -0.0112  0.0009
 5080SOL    HW126702   0.318   3.210   6.025 -2.0742  0.0307 -0.3829
 5080SOL    HW226703   0.260   3.304   6.126 -0.6966 -1.3867 -0.2641
 5081SOL     OW26704   0.201   1.335  14.519 -0.6759 -0.2823  0.7982
 5081SOL    HW126705   0.227   1.249  14.486 -0.8244  0.9788 -2.6795
 5081SOL    HW226706   0.108   1.343  14.494 -0.3878 -2.5019 -0.9962
 5082SOL     OW26707   2.288   1.448   2.837  0.4338  0.6136 -0.0995
 5082SOL    HW126708   2.253   1.383   2.775  2.0081 -0.6001  0.2821
 5082SOL    HW226709   2.236   1.425   2.914 -1.4528  0.7026 -1.3358
 5083SOL     OW26710   4.456   3.687   8.560  0.0628  0.4138 -0.3418
 5083SOL    HW126711   4.541   3.725   8.582  0.3561  0.2470 -1.1779
 5083SOL    HW226712   4.398   3.754   8.523  0.6664  0.2010 -1.6971
 5084SOL     OW26713   4.120   0.731   5.256 -0.9711 -0.3015  0.1714
 5084SOL    HW126714   4.056   0.783   5.207  2.4719  1.9118 -1.9412
 5084SOL    HW226715   4.185   0.730   5.186  1.2983  0.4226  2.3008
 5085SOL     OW26716   0.676   3.855   8.023 -0.6498  0.3629  0.2373
 5085SOL    HW126717   0.707   3.822   8.108 -2.7993 -1.3503  0.3536
 5085SOL    HW226718   0.592   3.811   8.039 -0.7255 -0.1592 -1.6486
 5086SOL     OW26719   3.823   0.147  10.110 -0.9985  0.5018  0.5379
 5086SOL    HW126720   3.916   0.168  10.106 -0.3930 -2.1096  0.8964
 5086SOL    HW226721   3.783   0.217  10.058  4.1336  1.6314 -1.8122
 5087SOL     OW26722   3.125   0.223   3.135  0.3155  0.0079 -0.5844
 5087SOL    HW126723   3.147   0.210   3.227 -0.4543  0.3949 -0.3415
 5087SOL    HW226724   3.212   0.237   3.098 -0.6847  3.5849 -1.6368
 5088SOL     OW26725   3.551   0.219   5.273 -0.2440  1.0575 -0.3638
 5088SOL    HW126726   3.466   0.250   5.242 -1.2666 -1.9079 -0.5042
 5088SOL    HW226727   3.533   0.166   5.350  0.2063  0.6667 -0.5270
 5089SOL     OW26728   0.641   0.252   5.217  0.2755 -0.0834  0.2811
 5089SOL    HW126729   0.564   0.293   5.177  1.5635  3.0917  1.0830
 5089SOL    HW226730   0.686   0.326   5.257  0.2812 -0.4553  0.9667
 5090SOL     OW26731   2.110   0.158   9.609  0.1786 -0.3956  0.0054
 5090SOL    HW126732   2.022   0.121   9.617 -0.5880  2.0914  2.9004
 5090SOL    HW226733   2.106   0.185   9.518 -1.2085 -0.3301  0.0781
 5091SOL     OW26734   0.418   0.713  10.944  0.0482 -0.2730 -0.1940
 5091SOL    HW126735   0.334   0.668  10.935  0.4323 -1.2616  1.2213
 5091SOL    HW226736   0.445   0.722  10.852 -0.3329 -1.6402 -0.4501
 5092SOL     OW26737   0.590   2.252   2.847  0.3402  0.0502 -0.0238
 5092SOL    HW126738   0.670   2.287   2.885 -0.3001  1.9418 -0.4080
 5092SOL    HW226739   0.607   2.157   2.845 -1.0889 -0.2807  3.3140
 5093SOL     OW26740   1.237   1.987   3.183  0.2655  0.5906 -0.0606
 5093SOL    HW126741   1.271   1.964   3.097  3.5302 -0.6691  1.5371
 5093SOL    HW226742   1.299   1.942   3.240  0.6363  1.2330  0.0450
 5094SOL     OW26743   3.743   0.975  14.612  0.6760 -0.9497  0.5130
 5094SOL    HW126744   3.737   1.043  14.679  1.5645 -1.8449  1.5006
 5094SOL    HW226745   3.834   0.985  14.585  0.0546  0.1777 -1.1732
 5095SOL     OW26746   3.948   3.449   4.555  0.5578  0.4424 -0.2657
 5095SOL    HW126747   3.904   3.503   4.621 -0.5438  0.0996 -0.7067
 5095SOL    HW226748   4.032   3.484   4.581  0.8371  1.0999 -2.0506
 5096SOL     OW26749   3.270   1.437   6.638 -0.5446 -0.4890  0.3377
 5096SOL    HW126750   3.185   1.434   6.595  0.2535  2.1085 -1.3436
 5096SOL    HW226751   3.252   1.422   6.731 -0.2969 -0.4189  0.3969
 5097SOL     OW26752   3.904   3.050  10.860  0.4705  0.0772  0.8435
 5097SOL    HW126753   3.889   3.132  10.813 -2.6978 -1.2809 -0.5334
 5097SOL    HW226754   3.973   3.005  10.810 -0.4151  0.9854 -1.1898
 5098SOL     OW26755   3.557   2.245  10.225  0.4379 -0.8332 -0.4383
 5098SOL    HW126756   3.649   2.254  10.250  0.9103 -0.3103 -2.4391
 5098SOL    HW226757   3.551   2.150  10.236 -1.2133 -0.6809 -0.0148
 5099SOL     OW26758   4.099   1.043  14.738  0.5989  0.4203 -0.2428
 5099SOL    HW126759   4.139   1.067  14.654  0.5703 -0.4087 -0.4879
 5099SOL    HW226760   4.131   1.114  14.794 -0.7662 -0.1211  1.2204
 5100SOL     OW26761   2.041   1.982   6.313 -0.1293 -0.1814  0.1463
 5100SOL    HW126762   1.955   1.945   6.332  0.2710 -1.0483  0.3053
 5100SOL    HW226763   2.052   1.945   6.225 -0.1145 -0.6749  0.3536
 5101SOL     OW26764   2.894   2.745   3.658  0.0731  0.4599  0.2217
 5101SOL    HW126765   2.883   2.832   3.621 -2.6957  1.1049  2.5586
 5101SOL    HW226766   2.881   2.763   3.751  0.6818  1.6570  0.0687
 5102SOL     OW26767   3.941   2.227   2.465 -0.0294 -0.0993  0.0166
 5102SOL    HW126768   3.935   2.271   2.550 -0.0298  0.4128 -0.2463
 5102SOL    HW226769   3.915   2.140   2.493 -0.1828  0.1596  0.6911
 5103SOL     OW26770   3.681   3.029  13.413 -0.4866  0.3045  0.1910
 5103SOL    HW126771   3.594   3.067  13.420 -1.2164 -1.3128 -0.0952
 5103SOL    HW226772   3.653   2.938  13.398  0.4208 -0.0135  0.4264
 5104SOL     OW26773   1.542   2.211   1.832 -0.2766  0.0156  0.5177
 5104SOL    HW126774   1.590   2.162   1.899 -0.2270  1.7225  1.7502
 5104SOL    HW226775   1.601   2.255   1.771  1.0523 -0.9100  1.1375
 5105SOL     OW26776   3.330   2.153   8.418  0.4392 -0.0795  0.0296
 5105SOL    HW126777   3.320   2.247   8.402 -0.5029 -0.0447  0.8333
 5105SOL    HW226778   3.361   2.135   8.329 -1.2304 -0.4419 -0.4830
 5106SOL     OW26779   2.176   4.052   9.562 -0.2148 -0.4098 -0.3696
 5106SOL    HW126780   2.146   3.981   9.619  1.4677  0.2554  1.3702
 5106SOL    HW226781   2.110   4.122   9.570 -0.3899 -0.5519 -0.5976
 5107SOL     OW26782   2.832   0.253   3.538  0.6257 -0.0056 -0.2152
 5107SOL    HW126783   2.863   0.166   3.560  1.8210  0.8538  1.5447
 5107SOL    HW226784   2.913   0.304   3.541  3.2877 -4.2647  0.4282
 5108SOL     OW26785   2.232   1.716   1.922  0.7720 -0.6031  0.5266
 5108SOL    HW126786   2.291   1.644   1.943  0.9778 -0.7517 -0.5682
 5108SOL    HW226787   2.256   1.770   1.998 -0.6346 -2.6122  2.4087
 5109SOL     OW26788   0.263   0.796   8.803 -0.2588  0.0946  0.4280
 5109SOL    HW126789   0.300   0.876   8.838 -0.4679  0.4022 -0.0540
 5109SOL    HW226790   0.318   0.781   8.727 -0.0291  0.1727  0.5793
 5110SOL     OW26791   2.401   4.579  15.450  0.4630  0.3769 -0.5284
 5110SOL    HW126792   2.342   4.654  15.458  0.8673  0.3213  3.0116
 5110SOL    HW226793   2.424   4.572  15.543  2.7445  0.2926 -1.1108
 5111SOL     OW26794   3.174   0.196   0.559 -0.1520 -0.2719 -0.2075
 5111SOL    HW126795   3.251   0.217   0.507  0.4747 -0.9819  0.4363
 5111SOL    HW226796   3.201   0.214   0.649  0.8694  0.1535 -0.5997
 5112SOL     OW26797   3.295   3.764   7.191 -0.6102  0.2113  0.4322
 5112SOL    HW126798   3.301   3.764   7.095 -0.3111 -2.3408  0.4293
 5112SOL    HW226799   3.294   3.858   7.209  3.9836  0.0352  1.7617
 5113SOL     OW26800   0.509   3.140   7.014 -0.2008 -0.1027 -0.8763
 5113SOL    HW126801   0.532   3.232   7.025 -0.0822 -0.4414  1.5697
 5113SOL    HW226802   0.444   3.128   7.082 -0.3685  0.6991 -0.8990
 5114SOL     OW26803   3.472   1.862   5.070  0.1463  0.1805 -0.6555
 5114SOL    HW126804   3.417   1.803   5.123  1.0341 -1.5541 -1.6566
 5114SOL    HW226805   3.563   1.847   5.095 -0.6112 -0.9501  1.4530
 5115SOL     OW26806   2.650   1.279   6.550 -0.1039 -0.0935 -0.0224
 5115SOL    HW126807   2.619   1.221   6.482  2.0746 -2.5219  1.0721
 5115SOL    HW226808   2.728   1.316   6.509  0.6552 -1.6918 -0.0215
 5116SOL     OW26809   3.510   3.683  11.674 -0.5010  0.2743  0.2226
 5116SOL    HW126810   3.543   3.598  11.646  1.4925  0.9220  0.6131
 5116SOL    HW226811   3.462   3.725  11.602 -1.5752  1.9172  1.9015
 5117SOL     OW26812   4.110   0.905   3.227  0.0458 -0.1437 -0.8882
 5117SOL    HW126813   4.077   0.815   3.221 -0.8260  0.0915  0.3260
 5117SOL    HW226814   4.037   0.962   3.204  1.3118  2.9262  2.5990
 5118SOL     OW26815   4.678   3.351  14.368  0.5228  0.5207 -0.1081
 5118SOL    HW126816   0.022   3.362  14.437  1.0548  1.1064 -0.7070
 5118SOL    HW226817   4.635   3.436  14.373 -1.8218 -0.7496  1.0971
 5119SOL     OW26818   4.718   2.011  13.789  0.4024 -0.3806 -0.5923
 5119SOL    HW126819   4.665   1.955  13.845  0.1292 -0.9253 -1.3982
 5119SOL    HW226820   0.056   1.951  13.746 -1.1651 -0.9421 -2.0091
 5120SOL     OW26821   0.102   1.174   2.336 -0.0875  0.0670  0.1028
 5120SOL    HW126822   0.059   1.240   2.390 -1.1730 -1.7532  1.4710
 5120SOL    HW226823   0.186   1.171   2.382  0.2228  0.2649 -0.4407
 5121SOL     OW26824   2.834   2.021   6.528  0.4808 -0.3242 -0.0729
 5121SOL    HW126825   2.844   1.959   6.457 -1.2577  1.1262 -1.5755
 5121SOL    HW226826   2.912   2.004   6.582  1.3189 -1.6910 -1.7301
 5122SOL     OW26827   2.882   4.112  14.414  0.3231 -0.3584  0.8047
 5122SOL    HW126828   2.883   4.200  14.375  0.4343 -0.5998  0.2627
 5122SOL    HW226829   2.857   4.068  14.333 -2.2216  2.7199 -0.0948
 5123SOL     OW26830   1.838   0.894   2.708 -0.0264  0.1931 -0.3140
 5123SOL    HW126831   1.773   0.828   2.732  0.4748  1.0825  3.4542
 5123SOL    HW226832   1.814   0.912   2.617  0.6349 -1.8367 -0.8786
 5124SOL     OW26833   3.780   2.351  10.516  0.2872 -0.2688  0.0947
 5124SOL    HW126834   3.696   2.319  10.550 -1.3966  3.8976 -0.1376
 5124SOL    HW226835   3.768   2.445  10.524  2.7215 -0.0231  0.9241
 5125SOL     OW26836   1.928   2.283   8.487  0.1979  0.1785  0.1743
 5125SOL    HW126837   1.940   2.258   8.395  0.3153  2.0058 -0.3174
 5125SOL    HW226838   1.891   2.205   8.527  2.9033 -1.0309  0.3462
 5126SOL     OW26839   4.198   2.867   7.942  0.0675 -0.1488 -0.4793
 5126SOL    HW126840   4.115   2.825   7.964 -0.4746  0.2158 -1.8127
 5126SOL    HW226841   4.190   2.950   7.989 -0.5930 -0.3684 -0.2061
 5127SOL     OW26842   3.068   3.344   0.881  0.0305 -0.0126  0.5696
 5127SOL    HW126843   3.032   3.341   0.970 -0.8244 -0.0561  0.2204
 5127SOL    HW226844   3.060   3.253   0.853  0.2146  0.5217 -1.1957
 5128SOL     OW26845   0.966   2.642   4.888  0.1984  0.1086 -0.0438
 5128SOL    HW126846   0.937   2.574   4.948 -0.2033 -0.1949 -0.5735
 5128SOL    HW226847   0.949   2.720   4.940  1.0123 -0.5923  1.2636
 5129SOL     OW26848   1.245   1.529   1.117  0.0405 -0.1711 -0.2132
 5129SOL    HW126849   1.150   1.514   1.116 -0.0044  0.1936 -1.8310
 5129SOL    HW226850   1.269   1.533   1.024 -3.7729 -0.9484 -1.2501
 5130SOL     OW26851   1.983   0.652   7.527 -0.3643  0.3611 -0.4664
 5130SOL    HW126852   1.951   0.565   7.503 -1.8959  1.0357 -0.8413
 5130SOL    HW226853   1.912   0.704   7.490 -0.1405  0.5466 -0.6340
 5131SOL     OW26854   4.106   1.994   6.717  0.5276  0.1713  0.1513
 5131SOL    HW126855   4.165   1.927   6.682  1.6677  1.0795  0.3543
 5131SOL    HW226856   4.158   2.020   6.793  0.4840 -0.3292  0.3494
 5132SOL     OW26857   0.503   4.331   6.339 -0.2086  0.1066 -0.1366
 5132SOL    HW126858   0.559   4.386   6.285 -2.8318  1.8704 -1.0886
 5132SOL    HW226859   0.425   4.384   6.322 -1.3201 -1.1571  1.0015
 5133SOL     OW26860   0.121   4.611   2.948  0.0979 -0.5511 -0.2368
 5133SOL    HW126861   0.103   4.565   2.866  0.5098 -1.1816  0.0266
 5133SOL    HW226862   0.059   4.559   2.999  1.5051  0.0980  2.1443
 5134SOL     OW26863   0.871   2.624   9.870  0.4835  0.0197  0.1776
 5134SOL    HW126864   0.943   2.682   9.894  0.6041 -0.1618  0.2593
 5134SOL    HW226865   0.847   2.664   9.786  0.8404  1.0556  0.5653
 5135SOL     OW26866   3.555   1.964  10.256  0.2779 -0.2089 -0.5752
 5135SOL    HW126867   3.634   1.912  10.272  0.7806  0.9185  0.7070
 5135SOL    HW226868   3.491   1.910  10.302 -0.0681  0.7950  0.1228
 5136SOL     OW26869   2.414   0.834   8.018  0.1108 -0.1549  0.2586
 5136SOL    HW126870   2.348   0.882   7.967 -0.7937 -0.4558  1.1493
 5136SOL    HW226871   2.376   0.746   8.009  1.6918 -0.9459  1.2843
 5137SOL     OW26872   1.660   2.082  11.947  0.2630  0.4806 -0.4256
 5137SOL    HW126873   1.580   2.091  11.896 -0.8460  0.6579  1.3511
 5137SOL    HW226874   1.684   1.990  11.934  1.0538  0.3889  1.6038
 5138SOL     OW26875   4.623   3.257   1.574  0.1173  0.0228  0.1177
 5138SOL    HW126876   4.560   3.239   1.505  1.2699 -2.3966 -0.3041
 5138SOL    HW226877   4.684   3.312   1.525  0.5121  0.6629  1.3408
 5139SOL     OW26878   0.907   3.208   8.327 -0.3357 -0.4543 -0.4616
 5139SOL    HW126879   0.983   3.153   8.308  0.1014 -0.6932  1.9921
 5139SOL    HW226880   0.948   3.280   8.376 -3.1029  0.6973  0.1186
 5140SOL     OW26881   0.870   2.871  13.417  0.2789  0.4295  0.1972
 5140SOL    HW126882   0.841   2.804  13.480  0.8534  0.1566  0.1689
 5140SOL    HW226883   0.823   2.858  13.334  0.2802  0.1830  0.2347
 5141SOL     OW26884   1.913   1.864  16.130  0.9971 -0.3952 -0.1173
 5141SOL    HW126885   1.917   1.821  16.044 -0.3477  3.2977 -2.0418
 5141SOL    HW226886   1.960   1.944  16.105 -1.2610  1.4002  1.3493
 5142SOL     OW26887   0.660   2.078   3.136 -0.3251  0.2201  0.4981
 5142SOL    HW126888   0.689   2.109   3.222  0.7645 -0.4217  0.3532
 5142SOL    HW226889   0.740   2.040   3.102 -0.9130 -1.2447  0.7260
 5143SOL     OW26890   2.153   0.863  17.350 -0.4567 -0.3248 -0.2147
 5143SOL    HW126891   2.103   0.784  17.373  0.0335 -0.0904  1.6450
 5143SOL    HW226892   2.178   0.888  17.439 -1.1357 -0.6227  0.0610
 5144SOL     OW26893   2.108   3.503  10.023  0.0742  0.2439  0.8960
 5144SOL    HW126894   2.173   3.459   9.968  1.0076  2.0784  0.5199
 5144SOL    HW226895   2.097   3.429  10.082  0.9681 -2.2473 -2.0419
 5145SOL     OW26896   1.231   2.380  16.332  1.0584 -0.0412  0.4369
 5145SOL    HW126897   1.215   2.474  16.324  0.2300 -0.1862  0.3488
 5145SOL    HW226898   1.276   2.365  16.415  0.1417  1.3998  1.1929
 5146SOL     OW26899   3.606   2.668  17.039 -0.2950  0.3239 -0.2539
 5146SOL    HW126900   3.616   2.749  16.989 -0.3314  0.3266 -0.2569
 5146SOL    HW226901   3.605   2.694  17.131 -1.4885  1.0859 -0.4937
 5147SOL     OW26902   2.863   0.114  14.497 -1.0419 -0.0045 -0.7912
 5147SOL    HW126903   2.860   0.206  14.521 -0.7557 -0.0577 -0.5574
 5147SOL    HW226904   2.905   0.114  14.411  1.4571 -1.6888  0.4291
 5148SOL     OW26905   4.018   4.271   4.431 -0.3855 -0.1901  0.0868
 5148SOL    HW126906   4.010   4.192   4.485 -2.7353 -0.0954 -0.1499
 5148SOL    HW226907   4.015   4.349   4.485  0.8122  0.5769 -0.9434
 5149SOL     OW26908   4.097   2.467   7.128  0.0719 -0.0506 -0.0457
 5149SOL    HW126909   4.062   2.389   7.170  3.1559 -1.5507 -0.2781
 5149SOL    HW226910   4.157   2.495   7.198  0.1039  0.5162 -0.2963
 5150SOL     OW26911   2.944   1.867   4.601 -0.1958  0.2870 -0.2190
 5150SOL    HW126912   2.960   1.960   4.614 -0.8772  0.4321 -0.4133
 5150SOL    HW226913   2.944   1.860   4.506 -0.6913  0.3470 -0.2234
 5151SOL     OW26914   1.951   3.941  10.726 -0.2509  0.1307  0.0406
 5151SOL    HW126915   1.909   4.007  10.780  0.6933 -0.5539  1.6063
 5151SOL    HW226916   1.929   3.977  10.640  0.3147 -0.4982 -0.3738
 5152SOL     OW26917   2.304   4.612  15.112 -0.1666 -0.2715  0.2707
 5152SOL    HW126918   2.229   4.637  15.166  0.1838  0.2647  0.5065
 5152SOL    HW226919   2.366   4.674  15.150 -0.5732 -2.0453  3.8030
 5153SOL     OW26920   3.383   4.660  11.438 -0.2937 -0.3561  0.2555
 5153SOL    HW126921   3.314   4.607  11.400 -0.2622 -0.0444 -0.2397
 5153SOL    HW226922   3.351   0.023  11.407 -0.3094  0.7380  3.2092
 5154SOL     OW26923   3.121   3.381   3.485  0.4189 -0.1905 -0.3033
 5154SOL    HW126924   3.155   3.391   3.573 -0.1435  1.8541 -0.3328
 5154SOL    HW226925   3.073   3.463   3.490  1.3230  0.3689 -0.8133
 5155SOL     OW26926   0.190   1.848  15.407  0.7303 -0.3242  0.3893
 5155SOL    HW126927   0.115   1.867  15.464  2.1431  0.1999  2.0765
 5155SOL    HW226928   0.205   1.755  15.426  0.0606 -0.4334  0.3887
 5156SOL     OW26929   0.238   3.653   7.086 -0.3180 -0.1436  0.4263
 5156SOL    HW126930   0.167   3.644   7.022  0.7336  1.1915 -0.9234
 5156SOL    HW226931   0.194   3.624   7.166  0.6389 -1.2079  0.5697
 5157SOL     OW26932   0.759   0.046  13.308 -0.1616 -0.7756  0.0794
 5157SOL    HW126933   0.665   0.038  13.292 -0.3007  1.6018 -0.2726
 5157SOL    HW226934   0.792   0.025  13.220  0.1242  1.3556 -0.3153
 5158SOL     OW26935   2.418   0.103  16.830  0.3074 -0.2692 -0.2916
 5158SOL    HW126936   2.380   0.157  16.761 -0.4803  0.1081  0.4364
 5158SOL    HW226937   2.512   0.111  16.815  0.3644  0.8430  0.7210
 5159SOL     OW26938   4.606   3.932  17.217  0.0751 -0.3012  0.9754
 5159SOL    HW126939   4.557   4.010  17.189  0.5625  0.1239  1.2959
 5159SOL    HW226940   4.537   3.892  17.270  0.8300 -0.9286  1.4718
 5160SOL     OW26941   1.351   2.045   6.920 -0.1666 -0.0934  0.1529
 5160SOL    HW126942   1.357   2.018   6.828  0.9307  0.1978  0.1276
 5160SOL    HW226943   1.434   2.005   6.947 -0.0863 -1.6178 -2.2905
 5161SOL     OW26944   4.302   0.987   4.611 -0.5343 -0.0879  0.4172
 5161SOL    HW126945   4.248   1.067   4.609 -3.4635 -2.0467  0.7304
 5161SOL    HW226946   4.339   0.996   4.524 -0.7766 -1.5472  0.1712
 5162SOL     OW26947   3.645   1.746   1.418 -0.4438  0.2926  0.0623
 5162SOL    HW126948   3.615   1.660   1.389 -0.2924  0.5606 -0.9019
 5162SOL    HW226949   3.741   1.739   1.412 -0.5645 -2.7180  1.9186
 5163SOL     OW26950   2.577   3.334   6.303  0.5103  0.1153 -0.2224
 5163SOL    HW126951   2.548   3.423   6.326 -1.9439 -0.3017 -1.7115
 5163SOL    HW226952   2.641   3.345   6.232 -0.3487 -2.0941 -1.3147
 5164SOL     OW26953   3.911   2.870   3.088 -0.0901 -0.4253 -0.5735
 5164SOL    HW126954   4.006   2.877   3.081 -0.1618 -0.5854 -1.6530
 5164SOL    HW226955   3.905   2.833   3.176 -3.0419  1.1481 -0.1242
 5165SOL     OW26956   2.698   1.816   2.960 -0.2265 -0.0515  0.0772
 5165SOL    HW126957   2.690   1.834   2.866  1.8243  0.2345 -0.0520
 5165SOL    HW226958   2.627   1.753   2.966 -1.1288  1.1548  2.0522
 5166SOL     OW26959   2.405   2.470   2.967  0.0593 -0.3933 -0.0908
 5166SOL    HW126960   2.407   2.521   2.886  0.0171  0.7549  0.6426
 5166SOL    HW226961   2.449   2.390   2.937 -0.8991 -0.6321 -0.8571
 5167SOL     OW26962   3.077   3.139   4.898 -0.6076  0.2645  0.3380
 5167SOL    HW126963   3.134   3.122   4.823 -0.1801 -0.8860  0.9166
 5167SOL    HW226964   3.018   3.205   4.861  0.8686  1.3523 -0.1027
 5168SOL     OW26965   3.819   0.662  13.662 -0.2107  0.7457  0.0924
 5168SOL    HW126966   3.748   0.609  13.697  0.6227 -0.3390  0.1203
 5168SOL    HW226967   3.865   0.684  13.743 -0.6382  0.5753  0.3803
 5169SOL     OW26968   2.874   2.993   5.018  0.0417  0.0608 -0.4340
 5169SOL    HW126969   2.953   3.036   4.986  0.5056  0.6188  1.4722
 5169SOL    HW226970   2.855   3.058   5.085 -0.1663 -0.1380 -0.2970
 5170SOL     OW26971   1.524   1.478  14.833 -0.6470 -0.1196 -0.5504
 5170SOL    HW126972   1.568   1.514  14.756 -0.1244 -0.9685 -0.6519
 5170SOL    HW226973   1.436   1.469  14.796 -0.3688  0.2591 -1.3078
 5171SOL     OW26974   1.420   3.307   9.141  0.2885 -0.3271  0.2379
 5171SOL    HW126975   1.387   3.221   9.114  1.6349 -0.3226 -1.3966
 5171SOL    HW226976   1.513   3.295   9.122  0.4199 -0.0150  0.6834
 5172SOL     OW26977   1.493   3.160   2.866  0.7511 -0.0099 -0.1184
 5172SOL    HW126978   1.438   3.168   2.788 -0.7901  0.1989  0.9735
 5172SOL    HW226979   1.423   3.146   2.931 -1.1250 -1.4829 -2.4512
 5173SOL     OW26980   0.410   1.830   5.131  0.0882  0.5101 -0.2772
 5173SOL    HW126981   0.496   1.828   5.089 -0.6301  0.9089 -1.7648
 5173SOL    HW226982   0.362   1.896   5.081 -2.2249 -0.7874  0.2230
 5174SOL     OW26983   0.040   2.373   7.294 -0.6284 -0.6640 -0.5435
 5174SOL    HW126984   0.052   2.279   7.276  1.1329 -0.6483  0.4678
 5174SOL    HW226985   0.129   2.387   7.327  0.7086 -1.4589 -3.8749
 5175SOL     OW26986   3.783   4.560   6.631  0.1400  0.9833  0.7374
 5175SOL    HW126987   3.708   4.571   6.572  0.0697  0.8587  0.8028
 5175SOL    HW226988   3.851   4.537   6.568 -1.6169 -0.8170 -0.5151
 5176SOL     OW26989   0.342   0.026   5.435 -0.2102 -0.1625 -0.2056
 5176SOL    HW126990   0.385   4.680   5.382 -0.1218  0.3315 -0.7654
 5176SOL    HW226991   0.400   0.100   5.422  1.5560 -1.5454 -0.2445
 5177SOL     OW26992   1.177   1.859   1.285 -0.3406 -0.1938 -0.0883
 5177SOL    HW126993   1.161   1.872   1.192  0.3106 -1.1952 -0.3356
 5177SOL    HW226994   1.260   1.812   1.286 -0.3189 -0.1797 -1.8878
 5178SOL     OW26995   2.599   1.901   6.917 -0.4998 -0.2699  0.6329
 5178SOL    HW126996   2.637   1.955   6.848 -0.9195 -0.1398  0.5065
 5178SOL    HW226997   2.654   1.823   6.907  0.6682  0.4474  1.3275
 5179SOL     OW26998   3.979   1.840   3.794  0.1413  0.2041 -0.4497
 5179SOL    HW126999   3.921   1.879   3.728  0.9889  0.4088 -1.0718
 5179SOL    HW227000   4.049   1.903   3.808 -0.1161  0.4617 -0.3159
 5180SOL     OW27001   2.425   1.883   4.712 -0.6476  0.0551 -0.2952
 5180SOL    HW127002   2.383   1.813   4.662 -1.0814  0.1822 -0.1074
 5180SOL    HW227003   2.517   1.859   4.701 -0.3141  0.5209  1.4153
 5181SOL     OW27004   4.575   4.392   9.581 -0.1444  0.0136 -0.5520
 5181SOL    HW127005   4.524   4.312   9.572 -1.3812  0.8920 -1.2805
 5181SOL    HW227006   4.556   4.423   9.493 -1.4201 -1.2707 -0.7390
 5182SOL     OW27007   3.119   4.445   3.876 -0.5450  0.6330 -0.0708
 5182SOL    HW127008   3.142   4.491   3.795 -1.6781  1.5343  0.1245
 5182SOL    HW227009   3.099   4.527   3.921 -0.8788 -0.4039  1.6919
 5183SOL     OW27010   4.288   0.026   6.221  0.1948 -0.2399 -0.0060
 5183SOL    HW127011   4.338   0.104   6.197  1.5108 -1.4290 -1.0505
 5183SOL    HW227012   4.197   0.056   6.231  0.0378 -1.2622  1.6179
 5184SOL     OW27013   4.561   2.756  12.474  0.4649 -0.4748 -0.3439
 5184SOL    HW127014   4.646   2.746  12.517  0.5138 -2.0982 -0.8013
 5184SOL    HW227015   4.542   2.844  12.507  2.2732 -0.4875  0.7412
 5185SOL     OW27016   0.828   3.482   6.380 -0.1554 -0.2771 -0.1823
 5185SOL    HW127017   0.916   3.517   6.395 -1.1303  0.9377  2.8300
 5185SOL    HW227018   0.825   3.449   6.290  0.9540 -0.8383 -0.0055
 5186SOL     OW27019   2.451   1.705   0.154  0.2368  0.4232 -0.3192
 5186SOL    HW127020   2.444   1.755   0.073  1.6371 -0.7231 -1.1323
 5186SOL    HW227021   2.403   1.762   0.215  0.7487  0.2169  0.2742
 5187SOL     OW27022   3.566   0.998   5.328  0.0328  0.2358 -0.0734
 5187SOL    HW127023   3.632   1.065   5.345 -0.2374  0.7052 -0.8728
 5187SOL    HW227024   3.495   1.053   5.295  1.0560  1.6982  0.1728
 5188SOL     OW27025   2.735   0.954  11.832  0.1195 -0.4787 -0.3961
 5188SOL    HW127026   2.640   0.962  11.820 -0.2181 -2.2402  1.0523
 5188SOL    HW227027   2.752   0.927  11.922  0.6855  4.1706  0.8793
 5189SOL     OW27028   4.075   0.118  14.821 -0.0112 -0.0208 -0.5341
 5189SOL    HW127029   4.002   0.170  14.785 -2.3456 -1.4488  2.1702
 5189SOL    HW227030   4.120   0.089  14.742 -1.8266 -0.4383 -1.4211
 5190SOL     OW27031   0.213   2.730   2.198  0.3528  0.1757  0.0126
 5190SOL    HW127032   0.187   2.804   2.254  0.1591 -0.1555  0.3590
 5190SOL    HW227033   0.148   2.667   2.228  0.6187 -0.6298 -1.1128
 5191SOL     OW27034   0.891   4.583   6.884 -0.1710 -0.1805 -0.3096
 5191SOL    HW127035   0.968   4.554   6.835  0.5934  4.9335 -2.1785
 5191SOL    HW227036   0.913   4.673   6.910 -0.5482  0.2057 -1.3095
 5192SOL     OW27037   0.102   3.882  15.905 -0.0263  0.4135 -0.5171
 5192SOL    HW127038   0.184   3.930  15.897 -0.9791  2.3113  0.9518
 5192SOL    HW227039   0.063   3.938  15.973 -1.3899 -3.7148  2.1072
 5193SOL     OW27040   2.382   2.588   2.188  0.8779  0.0902  0.2966
 5193SOL    HW127041   2.434   2.573   2.109  2.8833 -1.7707  1.9358
 5193SOL    HW227042   2.435   2.555   2.261  0.2869 -0.1145  0.6299
 5194SOL     OW27043   3.350   1.126   5.754  0.5669  0.0947 -0.1813
 5194SOL    HW127044   3.437   1.157   5.729 -0.1005  2.0970 -0.0367
 5194SOL    HW227045   3.299   1.148   5.676  0.9441  0.7208 -0.2538
 5195SOL     OW27046   4.381   1.914   5.930 -0.6958 -0.3397  0.5107
 5195SOL    HW127047   4.346   1.980   5.870  0.8506 -0.4077 -0.4815
 5195SOL    HW227048   4.457   1.892   5.875 -1.4472 -0.9532 -0.2895
 5196SOL     OW27049   4.588   1.647   4.171  0.6134 -0.4062 -0.3763
 5196SOL    HW127050   4.621   1.644   4.261 -0.7115  2.5823  0.1998
 5196SOL    HW227051   4.522   1.578   4.170  1.0308 -0.7954 -0.9158
 5197SOL     OW27052   3.039   1.126  17.353  0.6945 -0.3372 -0.3339
 5197SOL    HW127053   3.012   1.214  17.327  0.7435  0.4670  2.2717
 5197SOL    HW227054   3.050   1.088  17.266 -0.4765  0.5006 -0.8436
 5198SOL     OW27055   2.490   1.807  10.579 -0.1027 -0.3210 -0.8152
 5198SOL    HW127056   2.401   1.820  10.612  0.9559  2.3647  0.9964
 5198SOL    HW227057   2.469   1.817  10.486 -0.0894  0.7352 -0.7057
 5199SOL     OW27058   1.869   2.092   5.787  0.2721  0.3758  0.1288
 5199SOL    HW127059   1.901   2.152   5.719 -1.2438  3.4196  2.0990
 5199SOL    HW227060   1.942   2.087   5.849 -1.1112 -0.5085  1.6556
 5200SOL     OW27061   3.121   0.404   8.416 -0.1042 -0.6123  0.3933
 5200SOL    HW127062   3.053   0.405   8.349  0.3569  2.2693 -0.0117
 5200SOL    HW227063   3.100   0.476   8.475  0.7996 -0.3828  0.4402
 5201SOL     OW27064   4.442   2.008   6.177  0.0740  0.2285  0.0495
 5201SOL    HW127065   4.363   1.970   6.215 -2.5238  3.2214 -2.3357
 5201SOL    HW227066   4.431   1.977   6.087  0.0615 -2.4706  0.9869
 5202SOL     OW27067   1.613   2.980   6.011 -0.0276 -0.2943  0.4379
 5202SOL    HW127068   1.589   2.896   5.971  0.1909  0.2189 -0.7530
 5202SOL    HW227069   1.555   3.044   5.970 -0.2254 -0.1376  0.9645
 5203SOL     OW27070   3.643   2.697   3.686 -0.5367  0.0047 -0.2672
 5203SOL    HW127071   3.707   2.765   3.708  1.6059 -1.6983 -1.2173
 5203SOL    HW227072   3.632   2.717   3.593  1.7998  2.4281 -0.0036
 5204SOL     OW27073   4.044   2.334   0.255 -0.1746 -0.0238 -0.0879
 5204SOL    HW127074   4.071   2.354   0.345 -1.3237  3.2236 -0.4638
 5204SOL    HW227075   4.091   2.254   0.230  0.4101  0.1785  0.3598
 5205SOL     OW27076   2.169   0.799   5.591 -0.4892 -0.3048  0.0879
 5205SOL    HW127077   2.232   0.758   5.650 -0.3823  0.3422  0.4329
 5205SOL    HW227078   2.123   0.719   5.569  0.9184 -0.6246 -1.7369
 5206SOL     OW27079   1.752   1.281   6.131 -0.1352  0.0649 -0.3934
 5206SOL    HW127080   1.826   1.341   6.128 -1.5906  1.8170 -1.0770
 5206SOL    HW227081   1.794   1.196   6.142 -2.4036 -0.7436  1.8780
 5207SOL     OW27082   3.991   1.795  15.309 -0.0145  0.2406 -0.0599
 5207SOL    HW127083   3.977   1.881  15.271  0.5834  0.5864  0.5111
 5207SOL    HW227084   3.997   1.761  15.220  1.3050  0.5993 -0.1015
 5208SOL     OW27085   4.290   1.219  16.594 -0.3814 -0.1208  0.0139
 5208SOL    HW127086   4.224   1.192  16.530 -1.1730  0.9441  0.3707
 5208SOL    HW227087   4.293   1.314  16.580  2.4586 -0.5597 -2.3179
 5209SOL     OW27088   3.844   2.893   7.026  0.4048 -0.1101 -0.3753
 5209SOL    HW127089   3.856   2.956   7.097  0.3181  0.8341 -1.2029
 5209SOL    HW227090   3.874   2.813   7.068  0.1803  0.5228  0.9865
 5210SOL     OW27091   1.561   1.903  16.670 -0.1035 -0.1144 -0.4589
 5210SOL    HW127092   1.611   1.974  16.631 -0.9776  0.8561  0.1901
 5210SOL    HW227093   1.610   1.829  16.634  0.4180  0.4587 -0.9211
 5211SOL     OW27094   3.537   2.164   2.840  0.5132 -0.6338 -0.6306
 5211SOL    HW127095   3.487   2.096   2.796 -0.1559 -1.2288  1.0536
 5211SOL    HW227096   3.479   2.240   2.831  2.3472  1.2245  2.8672
 5212SOL     OW27097   1.649   2.535   9.504 -0.2034 -0.6297 -0.3024
 5212SOL    HW127098   1.661   2.528   9.409  0.8526 -1.0992 -0.1322
 5212SOL    HW227099   1.737   2.540   9.541 -1.2786 -1.5705  2.3371
 5213SOL     OW27100   1.593   3.596   5.107 -0.2371 -0.1962 -0.1172
 5213SOL    HW127101   1.675   3.562   5.071 -0.6479  0.0391 -1.2893
 5213SOL    HW227102   1.534   3.585   5.032 -1.2512  0.1148  0.6189
 5214SOL     OW27103   2.797   0.598   9.149  0.2758  0.0165  0.2050
 5214SOL    HW127104   2.725   0.595   9.211 -0.2230 -0.9247 -0.4200
 5214SOL    HW227105   2.792   0.508   9.118 -0.1895  0.6070 -1.4201
 5215SOL     OW27106   2.417   3.662  17.044  0.6109  0.1741  0.2097
 5215SOL    HW127107   2.501   3.660  16.997 -0.2622  0.2636 -1.3522
 5215SOL    HW227108   2.387   3.749  17.018 -0.1333  0.4604  2.0703
 5216SOL     OW27109   3.564   3.232   3.592 -0.0233  0.1898  0.3943
 5216SOL    HW127110   3.529   3.276   3.515 -0.8053  1.3558  1.4095
 5216SOL    HW227111   3.555   3.145   3.555 -0.4154  0.4216 -0.0465
 5217SOL     OW27112   3.956   3.509   7.341 -0.2002  0.4709 -0.7360
 5217SOL    HW127113   3.943   3.602   7.323 -0.6372  1.4436  4.3457
 5217SOL    HW227114   3.890   3.480   7.279 -0.7895 -1.6416  0.8705
 5218SOL     OW27115   3.619   3.069   5.121  0.0481  0.2039 -0.0830
 5218SOL    HW127116   3.650   3.045   5.208  0.7796 -1.1984 -0.7188
 5218SOL    HW227117   3.553   3.135   5.142 -1.8232 -0.6139 -3.2542
 5219SOL     OW27118   1.336   2.798  14.404 -0.4225  0.1577 -0.3411
 5219SOL    HW127119   1.310   2.811  14.495 -1.0841  0.1115 -0.5293
 5219SOL    HW227120   1.329   2.890  14.376  1.9784  0.1216 -1.1204
 5220SOL     OW27121   1.781   2.566   6.872  0.2115  0.4569  0.2566
 5220SOL    HW127122   1.688   2.586   6.882 -0.0706 -0.6056 -0.2514
 5220SOL    HW227123   1.782   2.472   6.889 -2.3796 -0.0140 -2.1796
 5221SOL     OW27124   2.083   1.011   2.376  0.0472  0.2586 -0.0752
 5221SOL    HW127125   1.992   0.991   2.350  0.5193 -1.0664 -0.7147
 5221SOL    HW227126   2.076   1.097   2.418  0.1686  0.9774 -1.5346
 5222SOL     OW27127   1.131   0.943  12.650  0.0580  0.4458 -0.4810
 5222SOL    HW127128   1.082   0.943  12.567  1.4936  0.2626 -1.3365
 5222SOL    HW227129   1.145   0.850  12.671  1.1527  0.6065 -0.4829
 5223SOL     OW27130   1.525   0.777   4.782  0.5164 -0.5573  1.2038
 5223SOL    HW127131   1.486   0.707   4.731 -1.9218  0.7578  1.2541
 5223SOL    HW227132   1.461   0.848   4.774  1.4736  0.3408  1.4304
 5224SOL     OW27133   4.617   3.921   1.648 -0.3329 -0.2193 -0.0004
 5224SOL    HW127134   4.634   3.867   1.571 -0.9213  0.7186 -0.7812
 5224SOL    HW227135   4.592   4.010   1.623 -1.3765 -0.4036  0.3930
 5225SOL     OW27136   1.518   2.531   4.465 -0.0855 -0.0764 -0.5872
 5225SOL    HW127137   1.533   2.511   4.373 -0.2367  1.5579 -0.9491
 5225SOL    HW227138   1.596   2.585   4.477  1.4408 -2.0616 -1.5633
 5226SOL     OW27139   2.836   4.008   7.313 -0.0819  0.1066  0.3239
 5226SOL    HW127140   2.819   3.916   7.332  1.5819 -0.0557  1.0009
 5226SOL    HW227141   2.763   4.019   7.252  0.2351 -2.0400 -0.4426
 5227SOL     OW27142   4.531   3.507  12.617  0.0073  0.9331 -0.1798
 5227SOL    HW127143   4.563   3.566  12.548  1.1982  0.3393 -0.1214
 5227SOL    HW227144   4.584   3.431  12.594  0.4199  0.8896  0.9249
 5228SOL     OW27145   2.505   0.154  15.214 -0.0514 -0.4246 -0.5543
 5228SOL    HW127146   2.515   0.238  15.169 -1.0461  0.0991  0.1963
 5228SOL    HW227147   2.592   0.116  15.222  0.8775  1.8139  0.1180
 5229SOL     OW27148   1.714   3.636  13.892 -0.7040  0.7038  0.3752
 5229SOL    HW127149   1.696   3.730  13.892  0.4566  0.9348  1.9166
 5229SOL    HW227150   1.636   3.607  13.939  0.9935 -2.4498  1.2653
 5230SOL     OW27151   4.055   3.731  13.486 -0.1733 -0.1693 -0.2056
 5230SOL    HW127152   4.057   3.716  13.391  1.2627 -1.3914  0.0306
 5230SOL    HW227153   4.066   3.826  13.484 -2.4629  0.0790 -1.0865
 5231SOL     OW27154   0.287   0.121   4.905 -0.1368  0.3430 -0.2358
 5231SOL    HW127155   0.299   0.173   4.826 -1.2750 -1.7376 -1.7408
 5231SOL    HW227156   0.369   0.073   4.892  2.3260  4.6659 -0.6921
 5232SOL     OW27157   1.032   2.105   6.329 -0.5253 -0.0213  0.5797
 5232SOL    HW127158   1.059   2.154   6.252  1.9754 -0.2329  1.3223
 5232SOL    HW227159   0.952   2.149   6.358  0.0822  1.7446 -0.4140
 5233SOL     OW27160   4.706   1.382   0.975  0.3188  0.1266 -0.4306
 5233SOL    HW127161   0.052   1.313   0.975  1.3238  1.1100  0.5198
 5233SOL    HW227162   4.626   1.334   0.954 -0.4952  0.9567  0.8173
 5234SOL     OW27163   3.383   2.898   4.833  0.0393  0.4869  0.6579
 5234SOL    HW127164   3.317   2.840   4.795  2.0095 -1.7698  0.7286
 5234SOL    HW227165   3.342   2.924   4.915 -0.3290  2.0196 -0.0002
 5235SOL     OW27166   3.589   2.932  15.932 -0.4060 -0.2815 -0.0266
 5235SOL    HW127167   3.570   2.845  15.897  0.4413 -0.6915  0.5209
 5235SOL    HW227168   3.510   2.984  15.922 -0.2875 -0.4114 -1.7477
 5236SOL     OW27169   3.289   3.219   8.162  0.3517  0.0139 -0.1180
 5236SOL    HW127170   3.287   3.307   8.125  3.1066 -0.4447 -1.3412
 5236SOL    HW227171   3.256   3.218   8.252  3.0625 -0.7660  0.8676
 5237SOL     OW27172   1.878   3.809   7.819  0.0838  0.0103 -0.0368
 5237SOL    HW127173   1.828   3.816   7.900  2.7741 -1.3350  1.7106
 5237SOL    HW227174   1.816   3.771   7.757 -0.8015  0.1971  0.7428
 5238SOL     OW27175   3.878   3.165  13.518 -0.4270 -0.0382 -0.1295
 5238SOL    HW127176   3.817   3.124  13.457  0.2394 -1.0189 -0.1304
 5238SOL    HW227177   3.814   3.174  13.589 -0.3051 -0.3975  0.0273
 5239SOL     OW27178   2.791   0.964   2.942 -0.2017 -0.1085 -0.1225
 5239SOL    HW127179   2.725   1.034   2.941  1.0119  1.0117 -0.9753
 5239SOL    HW227180   2.842   0.988   2.865 -0.8556  1.5867 -0.0442
 5240SOL     OW27181   2.441   2.414   7.585  0.8255  0.2065  0.7066
 5240SOL    HW127182   2.420   2.500   7.621 -0.1961  0.6857 -1.0364
 5240SOL    HW227183   2.432   2.350   7.656 -2.5837 -1.4948 -1.2814
 5241SOL     OW27184   2.107   3.049   5.694 -0.7100 -0.5786  0.5598
 5241SOL    HW127185   2.114   3.132   5.741  1.5083  0.5599 -1.7710
 5241SOL    HW227186   2.200   3.024   5.688 -0.5446 -0.1921  1.4509
 5242SOL     OW27187   2.830   4.650   3.343  0.1688 -0.1113  0.0412
 5242SOL    HW127188   2.855   4.670   3.433  1.0254 -0.5124 -0.1132
 5242SOL    HW227189   2.883   4.572   3.330  0.1290  0.0646 -1.2024
 5243SOL     OW27190   1.403   3.124  14.633  0.0105 -0.5933  0.3904
 5243SOL    HW127191   1.478   3.085  14.589  1.7829  1.5425  1.5277
 5243SOL    HW227192   1.343   3.051  14.650 -0.9108  0.4056  1.4310
 5244SOL     OW27193   0.365   0.609  17.273 -0.0723 -0.7114  0.4423
 5244SOL    HW127194   0.282   0.616  17.226  0.3185  0.8966 -0.0104
 5244SOL    HW227195   0.344   0.551  17.346 -0.7171 -0.8739  0.1274
 5245SOL     OW27196   1.955   1.841  14.292  0.1745 -0.2102  0.1605
 5245SOL    HW127197   2.014   1.810  14.361 -0.4017  0.7411  1.0771
 5245SOL    HW227198   1.999   1.831  14.207 -0.9513 -1.2628 -0.3013
 5246SOL     OW27199   4.465   4.590   9.324 -0.0484 -0.3600 -0.0571
 5246SOL    HW127200   4.386   4.594   9.377  0.1787 -3.1375  0.5155
 5246SOL    HW227201   4.451   4.673   9.280  0.5692 -0.4621 -0.4424
 5247SOL     OW27202   1.795   1.769   5.273 -0.2077 -0.2595  0.1970
 5247SOL    HW127203   1.805   1.853   5.229  0.1054 -0.0139  0.7299
 5247SOL    HW227204   1.817   1.797   5.362  0.8774 -2.6019  0.6721
 5248SOL     OW27205   4.270   1.483   4.608 -0.2698  0.0589 -0.2882
 5248SOL    HW127206   4.339   1.539   4.572 -0.7578  1.1477  0.4629
 5248SOL    HW227207   4.195   1.540   4.623 -0.1073  0.0471  0.5914
 5249SOL     OW27208   2.223   2.712   8.735 -0.1195 -0.6158 -0.2147
 5249SOL    HW127209   2.267   2.725   8.820 -1.8514  0.9403  0.4388
 5249SOL    HW227210   2.300   2.710   8.679  0.0048  0.5637 -0.0871
 5250SOL     OW27211   3.403   0.080   5.691  0.1209  0.7276  0.2847
 5250SOL    HW127212   3.470   0.028   5.735  0.4149  1.2329  0.4291
 5250SOL    HW227213   3.453   0.160   5.676  0.4662  0.5065  0.2342
 5251SOL     OW27214   3.522   2.379   8.024  0.2518 -0.5010  0.7312
 5251SOL    HW127215   3.582   2.409   8.092 -0.0924  1.2292  0.2631
 5251SOL    HW227216   3.581   2.311   7.989  0.8495 -0.7279  2.1729
 5252SOL     OW27217   2.395   2.485   6.412 -0.0527 -0.2994 -0.3784
 5252SOL    HW127218   2.360   2.457   6.328 -2.2055  0.7029  0.1709
 5252SOL    HW227219   2.428   2.572   6.389  0.5341 -1.0561 -2.3531
 5253SOL     OW27220   2.251   1.644  14.834  0.1742 -0.0629  0.2551
 5253SOL    HW127221   2.172   1.640  14.780 -1.1272 -0.4473  2.1655
 5253SOL    HW227222   2.304   1.702  14.780  1.8203 -2.1772 -0.4083
 5254SOL     OW27223   3.030   3.173  11.966 -0.0508  0.0094  0.0900
 5254SOL    HW127224   3.097   3.208  12.024 -0.1802 -0.9031  0.7972
 5254SOL    HW227225   2.979   3.252  11.949 -0.3102 -0.2565 -0.3824
 5255SOL     OW27226   2.043   1.420   8.864  0.5962  0.1496 -0.0553
 5255SOL    HW127227   2.045   1.326   8.845  1.9158 -0.2427  1.9892
 5255SOL    HW227228   1.959   1.430   8.909 -0.7874 -1.8110 -2.1932
 5256SOL     OW27229   3.281   4.607  12.770  0.7858 -0.6713 -0.0821
 5256SOL    HW127230   3.302   4.692  12.810 -1.7450 -1.6621  3.3349
 5256SOL    HW227231   3.251   4.559  12.847  0.8699  0.6277  0.7510
 5257SOL     OW27232   1.484   2.480   8.055  1.5715  0.3841  0.2034
 5257SOL    HW127233   1.411   2.514   8.106  0.4427  0.2202 -1.2757
 5257SOL    HW227234   1.487   2.552   7.991  1.6562 -1.6228 -2.0749
 5258SOL     OW27235   0.375   1.998   6.942 -0.1101  0.0547 -0.7598
 5258SOL    HW127236   0.364   1.920   6.997 -0.7601 -0.4471 -1.6074
 5258SOL    HW227237   0.323   1.966   6.868 -0.2647  1.0595 -1.0834
 5259SOL     OW27238   3.778   2.502   2.979  0.5346  0.9147  0.0989
 5259SOL    HW127239   3.744   2.591   2.977 -0.0005  0.6877 -2.0673
 5259SOL    HW227240   3.733   2.463   2.904  3.4727  0.2694 -1.3152
 5260SOL     OW27241   3.189   1.260  11.514  0.4112 -0.0291 -0.2950
 5260SOL    HW127242   3.180   1.197  11.443 -0.9642  1.4601 -1.4247
 5260SOL    HW227243   3.277   1.297  11.506 -0.2906  1.3394 -1.5840
 5261SOL     OW27244   1.700   4.480   3.456  0.0309 -0.3512 -0.3900
 5261SOL    HW127245   1.746   4.560   3.428 -0.1692  0.0537  0.4361
 5261SOL    HW227246   1.772   4.417   3.456 -0.2266 -0.6428  0.0451
 5262SOL     OW27247   1.337   0.548   8.896 -1.2996  0.7276  0.3706
 5262SOL    HW127248   1.404   0.590   8.950 -0.8045 -0.4649  0.6726
 5262SOL    HW227249   1.386   0.565   8.816 -0.6953  2.1159  1.0210
 5263SOL     OW27250   0.394   0.929   6.432 -0.2067  0.4916 -0.2874
 5263SOL    HW127251   0.461   0.862   6.445 -1.0822 -0.5490 -1.1549
 5263SOL    HW227252   0.421   1.009   6.478 -0.1239 -0.0494  0.6014
 5264SOL     OW27253   3.496   0.366  15.083  0.4253  0.0600  0.5839
 5264SOL    HW127254   3.570   0.308  15.065 -0.8476 -0.7898 -1.9048
 5264SOL    HW227255   3.424   0.306  15.102  1.5242 -1.1930  0.7421
 5265SOL     OW27256   0.075   2.378   7.705  0.4552 -0.2155  0.0238
 5265SOL    HW127257   0.064   2.290   7.742  1.4199 -0.4429 -0.2360
 5265SOL    HW227258   4.711   2.410   7.679  0.3928 -0.8483 -0.5431
 5266SOL     OW27259   3.628   3.956   4.030  0.3359 -0.0518 -0.3997
 5266SOL    HW127260   3.636   3.983   4.122  0.5329  1.9656 -1.0180
 5266SOL    HW227261   3.687   3.880   4.029 -1.3683 -1.3893 -0.1725
 5267SOL     OW27262   3.128   4.394   7.275 -0.2222 -0.2900 -0.5225
 5267SOL    HW127263   3.035   4.373   7.272 -0.3858  0.3882 -0.3948
 5267SOL    HW227264   3.159   4.336   7.345 -1.3972 -0.6712 -0.3031
 5268SOL     OW27265   2.655   3.152  13.315  0.3304  0.2368 -0.0800
 5268SOL    HW127266   2.676   3.060  13.334 -1.9537 -0.2929 -0.0628
 5268SOL    HW227267   2.741   3.189  13.335  1.0770 -1.9476  0.8844
 5269SOL     OW27268   2.731   2.812   2.267  0.3232 -0.0829 -0.2713
 5269SOL    HW127269   2.678   2.889   2.288 -0.7008  0.0311 -3.2914
 5269SOL    HW227270   2.740   2.824   2.173  1.3592  1.9799  0.0900
 5270SOL     OW27271   3.878   3.786   1.473  0.4689 -0.1948 -0.2756
 5270SOL    HW127272   3.840   3.801   1.560  1.9152 -1.6279  0.6018
 5270SOL    HW227273   3.812   3.839   1.428  0.2115 -0.4883 -0.2497
 5271SOL     OW27274   2.962   2.020   5.398 -0.6438 -0.3800  0.6765
 5271SOL    HW127275   2.919   2.080   5.459 -1.3734 -0.8002  0.5772
 5271SOL    HW227276   2.898   1.953   5.374 -2.3970  1.3137  0.6779
 5272SOL     OW27277   0.198   1.210   8.744 -0.2362 -0.1170  0.0500
 5272SOL    HW127278   0.257   1.171   8.809  0.3934  0.5619 -0.1171
 5272SOL    HW227279   0.116   1.161   8.754 -1.6180  2.0493 -0.6749
 5273SOL     OW27280   4.027   3.623   1.088  0.0867 -0.2112  0.2916
 5273SOL    HW127281   4.039   3.696   1.149 -1.6610  0.1284  0.2311
 5273SOL    HW227282   3.936   3.643   1.066  0.8555  1.5365 -1.3182
 5274SOL     OW27283   3.677   0.219   3.581 -0.3038  0.7113 -0.0171
 5274SOL    HW127284   3.582   0.211   3.587 -0.3410  2.5901  2.0800
 5274SOL    HW227285   3.702   0.250   3.668  2.1728  0.0470 -0.4868
 5275SOL     OW27286   2.793   1.027   8.552  0.1799  0.8930  0.0902
 5275SOL    HW127287   2.724   0.970   8.518  1.9509 -0.7184 -0.8130
 5275SOL    HW227288   2.850   0.990   8.485 -0.4676  1.1947 -0.6267
 5276SOL     OW27289   2.436   1.708   7.283 -0.1391  0.3181  0.0432
 5276SOL    HW127290   2.441   1.794   7.325  2.6595 -0.7523  1.8746
 5276SOL    HW227291   2.395   1.658   7.353 -0.9255 -0.8277 -1.2424
 5277SOL     OW27292   0.279   3.941   7.146 -0.6624  0.0480  0.0702
 5277SOL    HW127293   0.287   3.851   7.113  2.8326  0.4163 -0.1248
 5277SOL    HW227294   0.233   3.941   7.230 -0.3016 -0.4089  0.2726
 5278SOL     OW27295   2.279   3.578   5.903  0.8943 -0.6056  0.5371
 5278SOL    HW127296   2.353   3.635   5.920 -0.4316  0.6001  2.2003
 5278SOL    HW227297   2.280   3.574   5.807  1.7963  3.2865  0.3931
 5279SOL     OW27298   2.224   2.944   6.407 -0.2067 -0.0830 -0.1793
 5279SOL    HW127299   2.208   2.912   6.318 -1.0972  0.7187 -0.3071
 5279SOL    HW227300   2.300   3.000   6.394  1.0052 -1.6704  0.1539
 5280SOL     OW27301   0.253   3.644   9.887 -0.0717 -0.1493 -0.1636
 5280SOL    HW127302   0.160   3.645   9.907 -0.0218  0.7787  0.0127
 5280SOL    HW227303   0.283   3.731   9.914 -1.0994  0.1993 -0.1660
 5281SOL     OW27304   2.108   2.261  13.014  0.4377  0.2215 -0.5848
 5281SOL    HW127305   2.156   2.244  13.095  1.7807  0.3484 -1.3387
 5281SOL    HW227306   2.030   2.206  13.019  0.9614 -0.4392  0.1727
 5282SOL     OW27307   3.100   0.926   2.178  0.1712 -0.7236 -0.0960
 5282SOL    HW127308   3.090   0.916   2.272  2.9884 -0.5395  0.2265
 5282SOL    HW227309   3.189   0.961   2.171 -0.2826  0.2862 -0.8805
 5283SOL     OW27310   1.135   2.179  14.452 -0.3252 -0.6619  0.0354
 5283SOL    HW127311   1.049   2.220  14.441 -1.1038 -1.7882  1.7993
 5283SOL    HW227312   1.196   2.249  14.428  1.2632 -1.7202  0.9832
 5284SOL     OW27313   2.599   3.093   7.176  0.5711  0.3313  0.5435
 5284SOL    HW127314   2.515   3.121   7.211 -0.4301  1.1154 -2.4655
 5284SOL    HW227315   2.662   3.080   7.247 -1.3079  0.0142  2.1417
 5285SOL     OW27316   0.805   0.360   0.369 -0.9695 -0.0426  1.0734
 5285SOL    HW127317   0.814   0.409   0.287 -4.0211  0.6716  1.1821
 5285SOL    HW227318   0.872   0.292   0.366 -1.1618 -0.1735 -0.3008
 5286SOL     OW27319   0.934   1.076   4.654 -0.2778  0.9978 -0.4922
 5286SOL    HW127320   0.987   1.081   4.733 -0.2589  2.6137 -0.6155
 5286SOL    HW227321   0.980   1.137   4.596 -0.1413 -0.9812 -2.5187
 5287SOL     OW27322   4.686   4.114  12.046 -0.1098  0.4946  0.0212
 5287SOL    HW127323   4.611   4.128  11.989  0.2612  1.1385 -0.3131
 5287SOL    HW227324   0.028   4.175  12.007  1.2990 -0.7999  0.2882
 5288SOL     OW27325   1.284   2.965   2.947  0.0157  0.1400  0.5603
 5288SOL    HW127326   1.229   2.910   2.891 -0.5968 -0.2500  1.5500
 5288SOL    HW227327   1.291   2.914   3.028  0.0246  1.0863  1.1622
 5289SOL     OW27328   4.387   3.205  16.998 -0.2817 -0.0875  0.2023
 5289SOL    HW127329   4.468   3.169  17.034  0.0202  1.2021  0.7894
 5289SOL    HW227330   4.407   3.222  16.906  2.0626 -0.5038  0.6255
 5290SOL     OW27331   1.344   1.656   6.876 -0.3948  0.6055 -0.2705
 5290SOL    HW127332   1.248   1.657   6.874 -0.3969 -0.6230 -0.9885
 5290SOL    HW227333   1.363   1.605   6.797  2.1190  1.3485 -0.1568
 5291SOL     OW27334   4.209   3.740  14.010  0.5250 -0.0711 -0.1329
 5291SOL    HW127335   4.299   3.708  14.003  0.6971  0.4115 -0.1911
 5291SOL    HW227336   4.227   3.829  14.043 -0.1226 -0.1151  0.3270
 5292SOL     OW27337   0.623   0.748   3.976  0.3886  0.0518 -0.1423
 5292SOL    HW127338   0.554   0.810   3.953  0.4879  0.8760  1.8364
 5292SOL    HW227339   0.676   0.807   4.029  2.5124  0.4381 -2.7253
 5293SOL     OW27340   0.757   1.144   5.895  0.0467  0.1204 -0.1932
 5293SOL    HW127341   0.810   1.103   5.827 -1.5012  1.6019 -2.2711
 5293SOL    HW227342   0.814   1.212   5.931 -0.5280 -0.2357  1.4231
 5294SOL     OW27343   0.572   0.254  14.766 -0.0550 -0.3883 -0.5870
 5294SOL    HW127344   0.513   0.306  14.821  1.4718 -0.5737  1.2104
 5294SOL    HW227345   0.511   0.244  14.693 -2.0388  0.6835  0.8962
 5295SOL     OW27346   4.619   2.586   5.529 -0.0588 -0.3537  0.8910
 5295SOL    HW127347   4.544   2.543   5.486  0.5456 -0.5028 -0.0215
 5295SOL    HW227348   4.592   2.677   5.525 -1.3693 -0.7744 -0.1041
 5296SOL     OW27349   1.544   3.753   3.924  0.2618  0.0233 -0.1757
 5296SOL    HW127350   1.573   3.806   3.850 -0.4378 -1.4353 -1.4859
 5296SOL    HW227351   1.620   3.695   3.934 -0.0122 -0.3811 -0.4192
 5297SOL     OW27352   2.310   3.429   3.448 -0.4116  0.1838 -0.3034
 5297SOL    HW127353   2.316   3.347   3.400 -0.6846  0.2023 -0.3682
 5297SOL    HW227354   2.267   3.405   3.530  1.5354 -0.0699  0.6480
 5298SOL     OW27355   2.163   2.164  13.556 -0.0821 -0.0933  0.4087
 5298SOL    HW127356   2.167   2.225  13.630  0.4451 -1.2391  1.3291
 5298SOL    HW227357   2.193   2.216  13.482  0.7149 -1.5348 -0.2721
 5299SOL     OW27358   1.739   0.746   4.225 -0.3351  0.2148 -0.1326
 5299SOL    HW127359   1.762   0.660   4.191 -1.7171  0.8236 -2.6148
 5299SOL    HW227360   1.815   0.781   4.273 -0.8840  0.9232  0.2180
 5300SOL     OW27361   1.324   0.505   6.031 -0.2569  0.7294  0.2005
 5300SOL    HW127362   1.417   0.484   6.027 -0.8828 -2.2005  1.2313
 5300SOL    HW227363   1.291   0.417   6.050  0.6393  0.2251 -0.5759
 5301SOL     OW27364   0.630   2.810   3.589  0.0570 -0.5486 -0.3698
 5301SOL    HW127365   0.604   2.780   3.676  0.5924  0.7712  0.2532
 5301SOL    HW227366   0.667   2.891   3.622 -0.3077 -1.0226  1.2014
 5302SOL     OW27367   4.314   1.994  14.452 -0.1606 -0.0790 -0.0927
 5302SOL    HW127368   4.271   1.923  14.405 -1.2798  2.0914 -2.3372
 5302SOL    HW227369   4.233   2.039  14.475 -0.9643 -1.8301  0.5420
 5303SOL     OW27370   1.755   0.655   3.914 -0.5245 -0.2337  0.1247
 5303SOL    HW127371   1.715   0.587   3.969 -1.1503 -1.5788 -1.9955
 5303SOL    HW227372   1.833   0.613   3.878 -3.6122 -5.2198 -0.8175
 5304SOL     OW27373   2.516   0.199  15.880  0.1453  0.5995  0.6563
 5304SOL    HW127374   2.527   0.187  15.786 -0.6351  2.2556  0.3615
 5304SOL    HW227375   2.492   0.292  15.884  0.8234  0.8659 -1.5478
 5305SOL     OW27376   3.937   2.461   8.892  0.2946 -0.3401  0.3311
 5305SOL    HW127377   3.930   2.549   8.855  1.1150 -1.5397 -2.7275
 5305SOL    HW227378   3.999   2.482   8.962  1.4578  0.2405 -0.8717
 5306SOL     OW27379   4.647   3.671   4.899 -0.0618 -0.1839 -0.6456
 5306SOL    HW127380   4.566   3.630   4.868 -0.2191 -0.9541  0.7624
 5306SOL    HW227381   4.606   3.744   4.945  0.1572 -0.1969 -0.4288
 5307SOL     OW27382   3.203   1.281   4.588  0.0918  1.0270  0.8788
 5307SOL    HW127383   3.270   1.313   4.648  1.0020  1.6897 -0.4937
 5307SOL    HW227384   3.256   1.230   4.526  0.2397 -0.3259  2.1138
 5308SOL     OW27385   4.254   3.227   3.890 -0.0065  0.0303  0.2282
 5308SOL    HW127386   4.163   3.256   3.896 -0.0732  0.3522 -2.4266
 5308SOL    HW227387   4.229   3.140   3.921  1.2757 -0.1837  0.6703
 5309SOL     OW27388   2.384   2.006   7.288  0.5936  0.5815 -0.5646
 5309SOL    HW127389   2.459   2.016   7.229  1.0947 -0.9614 -0.1793
 5309SOL    HW227390   2.318   2.003   7.218  2.3276 -0.3631 -2.1754
 5310SOL     OW27391   0.265   1.738   6.857 -0.7759  0.0517 -0.1517
 5310SOL    HW127392   0.225   1.725   6.771  1.4030 -0.7060 -1.0538
 5310SOL    HW227393   0.193   1.706   6.911 -0.2571 -1.5716 -0.4238
 5311SOL     OW27394   0.291   2.148  14.885 -0.5866  0.1758  0.5665
 5311SOL    HW127395   0.311   2.208  14.957  2.0357 -1.0172  0.8522
 5311SOL    HW227396   0.284   2.065  14.932 -0.6274 -0.1305  0.0197
 5312SOL     OW27397   0.113   4.417   5.047  0.4732 -0.0775  0.5932
 5312SOL    HW127398   0.202   4.403   5.081  0.8486 -1.5735 -0.9957
 5312SOL    HW227399   0.064   4.368   5.112 -2.4519 -0.3209 -1.7936
 5313SOL     OW27400   2.051   2.487   1.071  0.7278  0.5049 -0.7008
 5313SOL    HW127401   2.072   2.579   1.057 -1.1091  0.8922 -0.8545
 5313SOL    HW227402   2.051   2.466   0.978  0.8702 -0.6327 -0.4441
 5314SOL     OW27403   3.628   2.130   4.489 -0.4503 -0.3639  0.1893
 5314SOL    HW127404   3.554   2.096   4.438 -2.3480  2.5506  1.0221
 5314SOL    HW227405   3.594   2.213   4.521  0.2665 -0.7502  1.9362
 5315SOL     OW27406   3.516   1.248  12.950 -0.2966  0.2089  0.2173
 5315SOL    HW127407   3.480   1.316  13.007 -0.5067 -1.9053  2.6313
 5315SOL    HW227408   3.454   1.248  12.878  0.0493 -0.3041 -0.0817
 5316SOL     OW27409   1.257   2.558  14.105  0.5891  1.0732 -0.2794
 5316SOL    HW127410   1.303   2.545  14.188 -0.0418  1.2062  0.0950
 5316SOL    HW227411   1.173   2.517  14.125  1.5641 -2.5089 -3.5975
 5317SOL     OW27412   4.312   4.092   6.499  0.3133 -0.5479 -0.1162
 5317SOL    HW127413   4.313   3.997   6.492  1.3181 -0.2693 -3.5867
 5317SOL    HW227414   4.236   4.107   6.556 -0.2279  2.1006 -1.5469
 5318SOL     OW27415   4.312   2.077   5.713  0.2283  0.4188 -0.0020
 5318SOL    HW127416   4.369   2.040   5.645 -2.1480 -1.2694 -1.0696
 5318SOL    HW227417   4.363   2.154   5.737  0.2887 -0.1613  1.6999
 5319SOL     OW27418   4.395   2.529   6.590 -0.6536  0.6982 -0.1624
 5319SOL    HW127419   4.471   2.485   6.553 -2.1331 -1.2040 -0.9405
 5319SOL    HW227420   4.325   2.465   6.585  0.3999 -0.4465 -0.1345
 5320SOL     OW27421   4.075   2.029  15.972 -0.5038  0.2829 -0.3213
 5320SOL    HW127422   4.047   2.031  15.880 -1.2729 -2.4625 -0.1362
 5320SOL    HW227423   4.097   1.937  15.985 -1.1981  0.6337  3.2784
 5321SOL     OW27424   3.172   3.204   7.444 -0.2353 -0.0700 -0.7295
 5321SOL    HW127425   3.238   3.241   7.386 -1.3359 -0.9338 -2.5455
 5321SOL    HW227426   3.164   3.283   7.497 -2.0871  1.8158 -3.8580
 5322SOL     OW27427   2.765   2.634  16.070 -0.0164 -0.1598 -0.4613
 5322SOL    HW127428   2.801   2.681  16.145  1.9425 -0.0252 -1.4851
 5322SOL    HW227429   2.763   2.542  16.098  0.5767  0.2208  0.8643
 5323SOL     OW27430   0.988   1.962   4.174 -0.5386  0.6316  0.0103
 5323SOL    HW127431   1.016   1.917   4.254  2.5985  0.9070 -0.9243
 5323SOL    HW227432   1.068   1.973   4.123 -0.2975  0.4282  0.3398
 5324SOL     OW27433   1.386   3.412   6.531 -0.1566 -0.3389 -0.4995
 5324SOL    HW127434   1.322   3.387   6.464  0.1316 -1.0132 -0.5183
 5324SOL    HW227435   1.451   3.451   6.473 -1.6488  1.1167 -1.1734
 5325SOL     OW27436   3.011   4.193  13.280 -0.1135 -0.5664 -0.1627
 5325SOL    HW127437   3.053   4.266  13.235 -1.0329 -0.8938 -1.5622
 5325SOL    HW227438   3.050   4.124  13.225 -1.7316  0.3167 -2.4303
 5326SOL     OW27439   1.537   2.497  15.546 -0.3340  0.2804 -0.9321
 5326SOL    HW127440   1.530   2.430  15.478 -0.4827 -0.5691 -0.0820
 5326SOL    HW227441   1.446   2.518  15.566 -1.0012 -2.4980 -1.0525
 5327SOL     OW27442   2.410   4.599   8.300 -0.7359  0.1790  0.2868
 5327SOL    HW127443   2.426   4.659   8.227 -2.6031  1.9214  1.2957
 5327SOL    HW227444   2.441   4.520   8.256  0.7551  1.2735 -0.6311
 5328SOL     OW27445   4.126   3.703  12.211  0.4878  1.0346 -0.1856
 5328SOL    HW127446   4.113   3.740  12.298 -0.4984  3.6543 -1.4346
 5328SOL    HW227447   4.060   3.633  12.207 -0.3152  1.7080  1.4693
 5329SOL     OW27448   0.538   1.682   8.813 -0.4338 -1.3815  0.0737
 5329SOL    HW127449   0.455   1.680   8.862 -0.4497 -0.1850  0.0899
 5329SOL    HW227450   0.513   1.733   8.737  1.1087 -0.3244  0.2831
 5330SOL     OW27451   2.617   2.989   4.850 -0.4603 -0.4456 -0.2675
 5330SOL    HW127452   2.623   3.083   4.836  0.4296 -0.3452  0.8713
 5330SOL    HW227453   2.683   2.955   4.789  1.2551  2.6111 -0.1193
 5331SOL     OW27454   3.356   2.226   3.199  0.3211 -0.7198 -0.6861
 5331SOL    HW127455   3.333   2.298   3.258  2.7022  1.2651 -2.1899
 5331SOL    HW227456   3.296   2.237   3.125  0.1770 -0.0324 -0.4621
 5332SOL     OW27457   4.470   2.835   8.998 -0.0428 -0.2755 -0.0773
 5332SOL    HW127458   4.552   2.795   8.968  0.8202  1.3159  0.1710
 5332SOL    HW227459   4.443   2.879   8.917  1.4900  2.2865  0.7966
 5333SOL     OW27460   2.663   3.815  14.036 -0.1016  0.5737 -0.1361
 5333SOL    HW127461   2.704   3.874  13.972 -0.9056 -1.1360 -2.2652
 5333SOL    HW227462   2.685   3.846  14.123  1.5367 -1.5031  0.1978
 5334SOL     OW27463   4.521   3.696   7.637 -0.2214 -0.1733  0.4852
 5334SOL    HW127464   4.489   3.757   7.703  1.3321  2.1306 -0.8880
 5334SOL    HW227465   4.536   3.760   7.567  0.6901 -0.3935  0.4766
 5335SOL     OW27466   2.293   0.484   2.075 -0.0480  0.5774  0.0979
 5335SOL    HW127467   2.321   0.526   1.994 -2.9760  0.4847 -0.9738
 5335SOL    HW227468   2.363   0.419   2.083  1.6050  2.4148  0.5504
 5336SOL     OW27469   1.913   1.795  13.023 -0.0878  0.2963 -0.3811
 5336SOL    HW127470   2.002   1.830  13.017 -0.2673  1.1448  1.9952
 5336SOL    HW227471   1.888   1.789  12.931 -0.6279 -0.2248 -0.2019
 5337SOL     OW27472   1.186   2.295  13.977  0.3677 -0.7733 -0.3205
 5337SOL    HW127473   1.157   2.289  14.068 -1.0453 -1.5777 -0.8218
 5337SOL    HW227474   1.139   2.221  13.939 -1.2072  0.9558 -1.6858
 5338SOL     OW27475   3.351   4.615   6.538 -0.3357  0.0736  0.9942
 5338SOL    HW127476   3.341   4.708   6.518  1.9844  0.3344  1.1277
 5338SOL    HW227477   3.262   4.580   6.536  0.0833 -1.0102  1.5108
 5339SOL     OW27478   1.478   3.178   2.319  0.6139  0.0539 -0.6930
 5339SOL    HW127479   1.536   3.146   2.250  1.3198 -0.1696 -0.0002
 5339SOL    HW227480   1.392   3.156   2.282  0.1753 -1.3247  1.1350
 5340SOL     OW27481   3.993   0.105   4.811 -0.0267  0.4723  0.2150
 5340SOL    HW127482   4.039   0.182   4.777  1.7113  0.1652  1.8534
 5340SOL    HW227483   3.910   0.111   4.764  0.4579 -2.0677 -0.9661
 5341SOL     OW27484   0.300   1.431  15.646  0.2678  0.7820 -0.0506
 5341SOL    HW127485   0.277   1.448  15.737 -1.9439 -1.0217 -0.2834
 5341SOL    HW227486   0.383   1.478  15.642  0.8504 -0.1718  0.7518
 5342SOL     OW27487   2.075   3.329   3.055 -0.7532  0.1750  0.5391
 5342SOL    HW127488   2.032   3.362   2.976  1.5942  0.8630 -0.4595
 5342SOL    HW227489   2.149   3.389   3.066  1.4416 -2.3349 -0.3244
 5343SOL     OW27490   4.249   0.168   6.589 -0.4139 -0.2216  0.5041
 5343SOL    HW127491   4.165   0.127   6.569 -0.6718  2.2809 -3.4616
 5343SOL    HW227492   4.313   0.100   6.564 -0.9640 -0.9577  1.0923
 5344SOL     OW27493   4.412   0.896   3.636 -0.4512  0.0668  0.1090
 5344SOL    HW127494   4.342   0.908   3.573 -0.6723  0.1449  0.3699
 5344SOL    HW227495   4.460   0.976   3.613 -2.7870  0.6007 -2.7766
 5345SOL     OW27496   1.221   2.492   3.418  0.1603 -0.2864  0.0279
 5345SOL    HW127497   1.266   2.485   3.502 -1.9436 -1.1915  1.0732
 5345SOL    HW227498   1.144   2.436   3.423 -0.8570  0.8511 -2.5067
 5346SOL     OW27499   4.021   4.237   7.837 -0.3725  0.1987  0.4551
 5346SOL    HW127500   4.072   4.318   7.843 -1.5646  1.0346 -0.7160
 5346SOL    HW227501   3.940   4.260   7.883 -0.6548  1.1926 -0.5361
 5347SOL     OW27502   1.716   2.120  13.949 -0.1677 -0.0453 -0.1926
 5347SOL    HW127503   1.712   2.200  13.897  1.3801  0.1917  0.0546
 5347SOL    HW227504   1.646   2.075  13.901  0.3900 -0.7647 -0.3476
 5348SOL     OW27505   4.107   3.908   2.922  0.3015  0.3393  0.1925
 5348SOL    HW127506   4.092   3.813   2.931 -2.6105  0.7288 -0.6127
 5348SOL    HW227507   4.021   3.935   2.891  0.1096 -1.5648 -0.9740
 5349SOL     OW27508   1.165   0.376   4.614 -0.3859  0.1833 -0.1427
 5349SOL    HW127509   1.072   0.383   4.634 -0.1939 -0.2576  0.8985
 5349SOL    HW227510   1.188   0.357   4.705 -1.1527  0.6852  0.1547
 5350SOL     OW27511   3.655   3.963   2.690  0.3505  0.0192 -1.0132
 5350SOL    HW127512   3.726   3.985   2.629  0.0628  1.5538 -0.8052
 5350SOL    HW227513   3.606   3.897   2.642 -0.4425 -0.5277  0.5455
 5351SOL     OW27514   3.042   4.192   6.199 -0.6172  0.0030 -0.2494
 5351SOL    HW127515   3.054   4.135   6.275 -2.3265  1.1301  0.8699
 5351SOL    HW227516   3.001   4.136   6.132 -0.0294 -0.4697 -0.2175
 5352SOL     OW27517   1.595   2.763   4.083 -0.0398  0.1792 -0.4683
 5352SOL    HW127518   1.559   2.691   4.032  1.4436 -0.2942 -0.8376
 5352SOL    HW227519   1.521   2.787   4.138 -1.1514 -1.3242 -1.3234
 5353SOL     OW27520   4.325   0.378   3.316 -0.5024  0.5484 -0.0803
 5353SOL    HW127521   4.399   0.319   3.328 -0.6472 -0.2147 -2.8230
 5353SOL    HW227522   4.287   0.338   3.238 -1.0180 -0.5564  0.7398
 5354SOL     OW27523   0.148   4.146   6.990  0.4993 -0.9734 -0.3668
 5354SOL    HW127524   0.060   4.128   7.024  0.2702 -4.4967 -2.8634
 5354SOL    HW227525   0.197   4.078   7.035  0.3422 -2.5045 -2.5145
 5355SOL     OW27526   4.301   1.066   2.176  0.2577 -0.2144 -0.0629
 5355SOL    HW127527   4.371   1.050   2.113  1.1089 -0.6858  1.0047
 5355SOL    HW227528   4.349   1.105   2.249 -1.3468 -1.3928  1.6035
 5356SOL     OW27529   4.643   2.812   8.669 -0.1602 -0.4039  0.1924
 5356SOL    HW127530   4.681   2.787   8.584  0.8775 -2.5929  1.2910
 5356SOL    HW227531   4.692   2.890   8.693 -2.7252  0.4882  2.5106
 5357SOL     OW27532   1.011   1.272   7.714 -0.1697  0.7411  0.3528
 5357SOL    HW127533   0.934   1.274   7.657  1.0772  0.0845 -1.3561
 5357SOL    HW227534   0.972   1.275   7.802 -2.4092 -0.1087 -0.6125
 5358SOL     OW27535   3.077   0.487   0.589 -0.1512 -0.0549  0.7482
 5358SOL    HW127536   3.121   0.403   0.576  1.5034  0.9217  0.0976
 5358SOL    HW227537   3.013   0.460   0.654 -1.1617  1.8493  0.5632
 5359SOL     OW27538   4.012   1.122  11.622  0.9693  0.6958 -0.2211
 5359SOL    HW127539   4.025   1.185  11.550  1.5251 -1.0089 -1.6109
 5359SOL    HW227540   3.917   1.124  11.627  0.9194 -0.3440 -0.7732
 5360SOL     OW27541   1.875   0.316  12.544  0.4317  0.0925  0.1721
 5360SOL    HW127542   1.790   0.328  12.588  0.2964 -1.0691  0.2449
 5360SOL    HW227543   1.921   0.395  12.571  0.9584 -0.3769  0.6383
 5361SOL     OW27544   3.144   3.545   6.372 -0.3272 -0.0474 -0.0660
 5361SOL    HW127545   3.103   3.523   6.288  1.7323 -0.8947 -0.8306
 5361SOL    HW227546   3.190   3.624   6.345 -0.0584  0.9040  3.0903
 5362SOL     OW27547   3.238   4.427   9.247 -0.3555  0.2912  0.6203
 5362SOL    HW127548   3.210   4.510   9.283 -0.7969  0.7072 -0.6770
 5362SOL    HW227549   3.329   4.434   9.277  1.6841  0.6610 -5.6414
 5363SOL     OW27550   3.551   1.517   4.646  0.0544  0.3203 -0.2980
 5363SOL    HW127551   3.497   1.461   4.703 -1.3998  0.7756 -1.2460
 5363SOL    HW227552   3.486   1.540   4.580  2.0336  0.2757 -2.2264
 5364SOL     OW27553   3.892   1.031   6.950 -0.4672  0.4127  0.3111
 5364SOL    HW127554   3.957   1.075   6.895 -0.4781 -1.5104 -1.2702
 5364SOL    HW227555   3.940   1.046   7.030 -0.2178  0.8892  0.0698
 5365SOL     OW27556   4.340   1.184   4.997  0.6119  0.1016 -0.0146
 5365SOL    HW127557   4.370   1.236   4.922 -2.2010  1.6459 -0.0762
 5365SOL    HW227558   4.288   1.253   5.038 -0.2180 -0.0147 -0.8730
 5366SOL     OW27559   0.663   1.333   1.522 -0.1589  0.1234  0.1741
 5366SOL    HW127560   0.720   1.278   1.576  0.0873  2.4815  2.2905
 5366SOL    HW227561   0.601   1.263   1.499 -0.5759  0.7885 -0.7064
 5367SOL     OW27562   2.298   0.862  10.025 -0.3052 -0.4513 -0.4159
 5367SOL    HW127563   2.286   0.857  10.119  1.4863  1.2774 -0.1096
 5367SOL    HW227564   2.367   0.797  10.010  3.4747  3.3674  0.5777
 5368SOL     OW27565   0.892   3.122   4.941 -0.0558  0.4502  0.4267
 5368SOL    HW127566   0.986   3.112   4.929 -0.2916  1.6880 -2.4589
 5368SOL    HW227567   0.879   3.119   5.036 -1.7755 -3.6692  0.0534
 5369SOL     OW27568   1.413   0.702   3.465 -0.6458 -0.1764 -0.3091
 5369SOL    HW127569   1.387   0.717   3.555 -0.5653 -1.6918 -0.0309
 5369SOL    HW227570   1.407   0.791   3.429  1.0633 -0.8914 -2.3851
 5370SOL     OW27571   4.252   0.306   9.272  0.3490 -0.1290 -0.1774
 5370SOL    HW127572   4.309   0.377   9.301  0.0882 -0.9877  2.4091
 5370SOL    HW227573   4.199   0.352   9.207 -0.6450 -1.7533 -0.5164
 5371SOL     OW27574   0.116   0.549   3.303 -0.0667  0.3206  0.5471
 5371SOL    HW127575   0.187   0.611   3.320 -0.5294  1.1056 -0.4173
 5371SOL    HW227576   0.093   0.583   3.217 -0.5515  0.8426  0.8857
 5372SOL     OW27577   2.759   4.553   2.351 -0.3480 -0.0222  0.0601
 5372SOL    HW127578   2.682   4.608   2.363 -1.4125 -1.3459 -0.7746
 5372SOL    HW227579   2.799   4.583   2.269  1.0596 -1.5451  0.1813
 5373SOL     OW27580   0.700   0.003   5.169  0.0857  0.1997  0.3845
 5373SOL    HW127581   0.790   0.007   5.201  0.3009  0.0834 -0.2055
 5373SOL    HW227582   0.681   0.096   5.161 -1.3244 -0.0364  0.9966
 5374SOL     OW27583   1.164   2.607   3.725 -0.8918  0.1796  0.2622
 5374SOL    HW127584   1.101   2.676   3.746 -1.5337 -0.5860  0.8690
 5374SOL    HW227585   1.183   2.568   3.811  0.7757  1.2129  0.3529
 5375SOL     OW27586   1.163   0.504  17.464 -0.3502 -0.1689  0.2535
 5375SOL    HW127587   1.182   0.569  17.531 -0.3649 -2.2907  2.3233
 5375SOL    HW227588   1.123   0.560  17.398  0.9444 -0.3431 -0.6903
 5376SOL     OW27589   2.006   0.146  15.630 -0.7923  0.0500 -0.4062
 5376SOL    HW127590   2.029   0.057  15.606  0.7594  1.2600 -3.4190
 5376SOL    HW227591   2.089   0.188  15.606 -1.2117  1.4833  0.6731
 5377SOL     OW27592   4.334   1.630   9.176  0.1039  0.0456  0.7843
 5377SOL    HW127593   4.324   1.555   9.118 -0.6178 -0.8682  2.0948
 5377SOL    HW227594   4.272   1.694   9.141  1.4328  1.0228  0.1845
 5378SOL     OW27595   0.738   3.730   3.183 -0.5775  0.0331 -0.5286
 5378SOL    HW127596   0.803   3.785   3.142 -0.9367  0.2908 -0.7535
 5378SOL    HW227597   0.775   3.709   3.269 -2.5489  2.1895  0.8582
 5379SOL     OW27598   2.132   1.937   8.813 -0.2222  0.3189 -0.7240
 5379SOL    HW127599   2.163   1.846   8.812  1.3960  0.8437  0.8219
 5379SOL    HW227600   2.070   1.923   8.742  0.3423  1.7346 -1.4902
 5380SOL     OW27601   3.176   0.824   4.005 -0.3628 -0.1502 -0.1039
 5380SOL    HW127602   3.165   0.905   4.056  1.2134  0.0450 -0.0431
 5380SOL    HW227603   3.270   0.806   4.013 -0.4040 -0.0931  0.5320
 5381SOL     OW27604   0.630   0.534   3.022  0.7682  0.4408  0.4711
 5381SOL    HW127605   0.603   0.617   2.982  0.2338  0.2047  0.3444
 5381SOL    HW227606   0.698   0.578   3.074  1.6062  0.3708 -0.5712
 5382SOL     OW27607   0.428   2.976   3.111  0.3104  0.9947  0.0545
 5382SOL    HW127608   0.481   2.913   3.063  0.0833  1.2450 -0.5338
 5382SOL    HW227609   0.452   2.962   3.202 -0.4956  1.1241  0.2943
 5383SOL     OW27610   0.089   3.067  14.573 -0.1520  0.4578  0.9903
 5383SOL    HW127611   4.719   3.063  14.546 -0.0313  0.4190  0.5800
 5383SOL    HW227612   0.104   3.000  14.639 -1.9008  0.4574  1.3806
 5384SOL     OW27613   0.061   2.754  12.618  0.3996 -0.3022  0.3111
 5384SOL    HW127614   0.153   2.728  12.624  0.4286 -0.8248 -2.3636
 5384SOL    HW227615   0.077   2.838  12.663  0.0197  1.2927 -2.5498
 5385SOL     OW27616   3.148   0.308  17.507  0.0854  0.3713  0.1252
 5385SOL    HW127617   3.084   0.355  17.560 -1.5229  0.1176 -1.6246
 5385SOL    HW227618   3.226   0.364  17.514  1.0693 -0.7988 -1.3801
 5386SOL     OW27619   1.760   1.998   7.232  0.2766 -0.4234 -0.6356
 5386SOL    HW127620   1.778   2.092   7.230 -0.5104 -0.2248  1.1010
 5386SOL    HW227621   1.807   1.965   7.156  0.2245 -1.1211 -0.3713
 5387SOL     OW27622   0.462   0.384   5.069  0.2051  0.1471 -0.0284
 5387SOL    HW127623   0.508   0.416   4.992 -0.4861 -0.2208 -0.6031
 5387SOL    HW227624   0.378   0.355   5.032 -0.4721 -0.2248  1.8111
 5388SOL     OW27625   0.817   0.720  16.023 -0.3305 -0.1688 -0.3487
 5388SOL    HW127626   0.744   0.755  15.972  0.4891  0.3299 -1.1955
 5388SOL    HW227627   0.875   0.678  15.960 -0.2294 -0.6865  0.0849
 5389SOL     OW27628   4.690   2.685  17.205 -0.1994 -0.1051  0.1792
 5389SOL    HW127629   0.002   2.696  17.295 -0.4793  2.0512  0.0160
 5389SOL    HW227630   4.712   2.593  17.186  0.7252 -0.5514  3.2488
 5390SOL     OW27631   0.440   1.830   8.587  0.3648  0.3030 -0.4413
 5390SOL    HW127632   0.403   1.891   8.523  3.0588 -0.2534 -2.5509
 5390SOL    HW227633   0.441   1.895   8.657  0.3082  0.0301 -0.1867
 5391SOL     OW27634   1.477   2.881   7.486 -0.2895 -0.0573 -0.1979
 5391SOL    HW127635   1.455   2.973   7.471  0.3465  0.0778 -0.3121
 5391SOL    HW227636   1.512   2.849   7.403 -1.1955 -1.2404 -0.1130
 5392SOL     OW27637   3.072   0.487   3.346 -0.0606  0.0129  0.5550
 5392SOL    HW127638   3.055   0.516   3.436 -1.0370  1.0846  0.0283
 5392SOL    HW227639   3.090   0.393   3.355 -1.2865 -0.3468 -0.7600
 5393SOL     OW27640   0.391   2.100   6.539 -0.0633  0.0937 -0.3882
 5393SOL    HW127641   0.301   2.124   6.562 -0.1510 -0.2025 -0.4235
 5393SOL    HW227642   0.430   2.170   6.592 -1.4027  1.4997 -1.2517
 5394SOL     OW27643   1.889   0.948   9.727  0.1658 -0.1805  0.3896
 5394SOL    HW127644   1.858   0.859   9.741  3.3929 -1.0277  2.1916
 5394SOL    HW227645   1.979   0.938   9.758  0.3481  3.0325  0.9904
 5395SOL     OW27646   1.115   2.379   9.076  0.8946  0.2939 -0.1699
 5395SOL    HW127647   1.042   2.378   9.138 -0.2291  1.5952 -1.4776
 5395SOL    HW227648   1.108   2.468   9.042 -1.0875 -0.4828 -1.7490
 5396SOL     OW27649   4.096   1.854  12.095 -0.2586  0.5354  0.2305
 5396SOL    HW127650   4.166   1.801  12.058 -2.1705 -2.0168  0.2746
 5396SOL    HW227651   4.062   1.782  12.149  1.2246  0.6170  1.2619
 5397SOL     OW27652   4.062   1.185   6.791 -0.1775  0.2934  0.0841
 5397SOL    HW127653   4.066   1.277   6.818 -0.0609  0.6940 -1.2582
 5397SOL    HW227654   4.061   1.205   6.697  0.0524  1.3953  0.3170
 5398SOL     OW27655   2.804   0.780  17.291 -0.2595  0.4756  0.3005
 5398SOL    HW127656   2.875   0.812  17.346 -0.2896 -0.1361  0.6932
 5398SOL    HW227657   2.789   0.692  17.325 -0.9177  1.1901  1.8572
 5399SOL     OW27658   2.580   0.728   6.156  0.0243  0.1839 -0.1130
 5399SOL    HW127659   2.493   0.704   6.187  0.2512  0.2543  0.5667
 5399SOL    HW227660   2.615   0.761   6.239 -3.3413  2.4463  0.4375
 5400SOL     OW27661   1.318   2.029  14.078  0.2734  0.9791  0.2502
 5400SOL    HW127662   1.275   2.110  14.051 -0.9424  0.3916  0.4268
 5400SOL    HW227663   1.257   1.988  14.138 -1.4332  1.6749 -1.0197
 5401SOL     OW27664   1.091   3.909   7.280 -0.1555  0.0267 -0.5018
 5401SOL    HW127665   1.095   3.833   7.338 -0.3096  0.3552 -0.0620
 5401SOL    HW227666   1.140   3.976   7.326 -0.8073  2.0841 -2.7980
 5402SOL     OW27667   1.823   0.656   7.920  0.6435 -0.2087 -0.0288
 5402SOL    HW127668   1.814   0.733   7.976  1.3341 -0.5970  0.6251
 5402SOL    HW227669   1.732   0.632   7.902  1.6330 -3.6838 -0.3684
 5403SOL     OW27670   2.349   3.537   7.647  0.2377 -0.0973  0.3953
 5403SOL    HW127671   2.397   3.463   7.610 -0.0570 -0.8355  1.4851
 5403SOL    HW227672   2.261   3.500   7.640 -0.2612  1.2285 -0.2861
 5404SOL     OW27673   2.753   0.425   0.481  0.2608  0.3754  0.5125
 5404SOL    HW127674   2.780   0.414   0.572  0.6707 -1.2594  0.1968
 5404SOL    HW227675   2.674   0.479   0.488 -1.4501 -2.1095  0.2738
 5405SOL     OW27676   0.716   1.879   6.751 -0.4130  0.0573 -0.6022
 5405SOL    HW127677   0.675   1.959   6.785 -1.8183 -0.2372 -1.5923
 5405SOL    HW227678   0.660   1.810   6.788 -0.1245  0.1006 -0.0764
 5406SOL     OW27679   0.442   2.724   8.423 -0.3694  0.1667 -0.0402
 5406SOL    HW127680   0.435   2.635   8.456  0.0734  0.2360  0.2427
 5406SOL    HW227681   0.482   2.771   8.496 -0.1433 -1.0925  0.6427
 5407SOL     OW27682   2.696   3.544   2.707 -0.2355  0.1759 -0.0500
 5407SOL    HW127683   2.601   3.537   2.709 -0.4123  2.2694 -1.6281
 5407SOL    HW227684   2.713   3.611   2.774  0.0013  2.1036 -2.0235
 5408SOL     OW27685   1.573   2.852  14.667  0.0589 -0.0556  0.0104
 5408SOL    HW127686   1.566   2.867  14.761  0.5679  0.0163  0.0403
 5408SOL    HW227687   1.553   2.759  14.658 -1.4264  0.2026  0.8144
 5409SOL     OW27688   0.872   3.146   5.205  0.3452 -0.0799  0.4578
 5409SOL    HW127689   0.839   3.194   5.281  0.7302 -0.4074  0.8390
 5409SOL    HW227690   0.901   3.064   5.245  0.1643 -0.1220  0.5008
 5410SOL     OW27691   0.968   1.552   6.663  0.3920  0.5948 -0.6301
 5410SOL    HW127692   1.016   1.486   6.613 -2.8881 -1.2405 -1.3481
 5410SOL    HW227693   0.916   1.599   6.598  1.2875  0.3801 -1.5082
 5411SOL     OW27694   0.945   3.785   2.793  0.1470  0.4407 -0.3248
 5411SOL    HW127695   1.038   3.768   2.809 -0.4783 -1.4400  1.3345
 5411SOL    HW227696   0.960   3.855   2.730  0.9687  1.0271  0.5293
 5412SOL     OW27697   4.403   0.366   7.662  0.0841  0.5613 -0.5443
 5412SOL    HW127698   4.338   0.427   7.628  1.3619  2.1782 -0.0837
 5412SOL    HW227699   4.481   0.394   7.614 -0.1991 -1.8999 -2.4961
 5413SOL     OW27700   4.474   4.641  16.974 -0.0234  0.3496 -0.6587
 5413SOL    HW127701   4.507   4.686  17.052 -3.0247  0.0109  0.7747
 5413SOL    HW227702   4.404   4.592  17.016  1.0972 -1.5854 -1.0575
 5414SOL     OW27703   1.150   1.797   8.666  0.2626  0.3216  0.1301
 5414SOL    HW127704   1.181   1.840   8.745  1.2881 -0.4224  0.1349
 5414SOL    HW227705   1.156   1.876   8.612 -0.1003 -0.2512 -0.7544
 5415SOL     OW27706   3.713   4.629  10.196  0.5321  0.0836  0.6528
 5415SOL    HW127707   3.731   4.636  10.289 -0.0323  0.0575  0.7623
 5415SOL    HW227708   3.753   4.709  10.162 -0.4691 -0.0177 -0.7795
 5416SOL     OW27709   4.036   4.204  15.308  0.1116  0.0056  0.0409
 5416SOL    HW127710   4.018   4.146  15.382  1.5283 -0.5401 -0.0375
 5416SOL    HW227711   4.108   4.256  15.342 -0.3913  1.1399 -0.6298
 5417SOL     OW27712   0.475   1.250   7.414 -0.0290  0.0088 -0.3146
 5417SOL    HW127713   0.483   1.331   7.465  0.4865 -1.3456  1.7519
 5417SOL    HW227714   0.414   1.205   7.473  0.6915  1.0409  1.2197
 5418SOL     OW27715   1.820   1.635  15.329 -0.3982 -0.0562 -0.1024
 5418SOL    HW127716   1.876   1.647  15.252  1.6677 -1.7951  1.1509
 5418SOL    HW227717   1.745   1.690  15.305 -0.2859  0.5931  1.0655
 5419SOL     OW27718   1.165   0.936   9.161  0.2672  0.7247 -0.2689
 5419SOL    HW127719   1.071   0.928   9.176  0.5111  0.4296  1.0816
 5419SOL    HW227720   1.200   0.859   9.205  3.9712  2.1083 -0.7787
 5420SOL     OW27721   3.433   0.027   5.426 -0.4063 -0.1609 -0.0724
 5420SOL    HW127722   3.395   0.032   5.513 -0.3026  0.4214 -0.0649
 5420SOL    HW227723   3.404   4.660   5.404  2.1344 -1.1897  0.6456
 5421SOL     OW27724   4.059   1.943   8.469  0.0278  0.4455  0.0824
 5421SOL    HW127725   4.000   1.986   8.408 -1.1454  1.3132  1.8172
 5421SOL    HW227726   4.021   1.984   8.547 -1.1998 -0.5969  0.0304
 5422SOL     OW27727   4.110   2.506  10.510  0.0458 -0.2146  0.0557
 5422SOL    HW127728   4.050   2.462  10.570  0.1192 -1.7816 -1.0372
 5422SOL    HW227729   4.141   2.426  10.469 -0.7747 -2.0025  2.8929
 5423SOL     OW27730   4.331   2.087   0.642  0.0173 -0.2463 -0.9575
 5423SOL    HW127731   4.372   2.153   0.698 -2.0080 -1.9472  2.5408
 5423SOL    HW227732   4.347   2.000   0.678 -2.5064 -0.5380 -0.5181
 5424SOL     OW27733   3.377   0.992   2.156  0.1402 -0.7991 -0.1151
 5424SOL    HW127734   3.400   0.900   2.156  2.8775 -0.1185  0.7906
 5424SOL    HW227735   3.455   1.041   2.184  0.5397 -2.5077  1.7170
 5425SOL     OW27736   1.291   2.773   9.241  0.0750 -0.1810 -0.2959
 5425SOL    HW127737   1.211   2.782   9.292  0.0806 -0.0249 -0.3153
 5425SOL    HW227738   1.364   2.755   9.300 -0.3097 -2.0745 -0.3774
 5426SOL     OW27739   0.070   4.069   6.592  0.3151 -0.6545 -0.0220
 5426SOL    HW127740   4.718   4.106   6.543 -0.6834 -0.2765  1.7895
 5426SOL    HW227741   0.045   3.977   6.587  0.6509 -0.6104 -2.5424
 5427SOL     OW27742   2.642   0.952   8.059 -0.4849 -0.2649 -0.1056
 5427SOL    HW127743   2.568   0.897   8.034 -1.8565  0.9380  1.2858
 5427SOL    HW227744   2.597   1.013   8.118  0.9936  1.8070 -1.1175
 5428SOL     OW27745   4.583   2.268   5.491  0.1651  0.0498  0.2509
 5428SOL    HW127746   4.527   2.293   5.418 -1.3745  1.8253  2.0612
 5428SOL    HW227747   4.662   2.319   5.471 -0.3341  0.2996 -1.0941
 5429SOL     OW27748   4.665   3.326  16.701 -0.0151  0.0424 -0.4247
 5429SOL    HW127749   4.686   3.400  16.758  1.7830 -1.6157  1.0644
 5429SOL    HW227750   4.692   3.361  16.616 -1.2527  1.4761 -0.2153
 5430SOL     OW27751   0.090   4.202  16.173  0.4039 -0.3181 -0.0383
 5430SOL    HW127752   0.068   4.116  16.137  0.6427 -1.2374  1.9963
 5430SOL    HW227753   0.001   4.236  16.167 -0.4218 -2.8956 -2.6333
 5431SOL     OW27754   3.665   2.252   0.376 -0.1445  0.5508  0.6276
 5431SOL    HW127755   3.603   2.231   0.447  0.1302  3.4690  1.7437
 5431SOL    HW227756   3.738   2.199   0.405  1.1092  1.1436 -1.4706
 5432SOL     OW27757   3.043   1.186   2.575 -0.5384  0.4279 -0.1219
 5432SOL    HW127758   3.014   1.233   2.497 -0.5794  1.6762  0.6434
 5432SOL    HW227759   3.069   1.253   2.639 -0.1322 -0.5889  0.7673
 5433SOL     OW27760   0.171   3.949   5.917 -0.1808 -0.1906 -0.3453
 5433SOL    HW127761   0.188   3.908   5.833  0.0726  1.5324 -1.1252
 5433SOL    HW227762   0.190   4.038   5.887  0.5510 -0.7168 -1.4453
 5434SOL     OW27763   3.371   1.722  14.462 -0.3404  0.3875  0.3748
 5434SOL    HW127764   3.393   1.635  14.496  0.9940 -0.4878 -2.7075
 5434SOL    HW227765   3.279   1.702  14.446  0.2953 -1.4324 -0.9451
 5435SOL     OW27766   4.573   3.350   8.909  0.4087  0.1927  0.1053
 5435SOL    HW127767   4.505   3.410   8.878  1.0015 -0.0493 -1.6252
 5435SOL    HW227768   4.512   3.300   8.964  0.1161 -0.4069 -0.7761
 5436SOL     OW27769   2.158   2.992  15.260 -0.3379 -0.5236 -0.7223
 5436SOL    HW127770   2.130   2.917  15.313 -0.1256 -0.1530 -0.0886
 5436SOL    HW227771   2.213   2.948  15.196 -0.3415  0.3217 -1.3059
 5437SOL     OW27772   0.677   0.038   9.105 -0.7950 -0.6003  0.0277
 5437SOL    HW127773   0.659   4.678   9.058 -1.7826 -1.0702  1.2084
 5437SOL    HW227774   0.623   0.020   9.183 -0.8634 -1.9772 -0.3278
 5438SOL     OW27775   0.672   1.551   5.959 -0.0447 -0.3358 -0.0316
 5438SOL    HW127776   0.617   1.489   6.007  0.7046  0.8299  2.3222
 5438SOL    HW227777   0.696   1.505   5.878  0.2181 -0.4927  0.1337
 5439SOL     OW27778   4.576   1.083   3.009 -0.2292 -0.2753  0.5552
 5439SOL    HW127779   4.578   1.105   2.916  2.5577 -2.6601  0.0582
 5439SOL    HW227780   4.486   1.081   3.042 -0.7314 -2.7899 -0.9211
 5440SOL     OW27781   4.492   4.163   3.510  0.5211 -0.2299 -0.3997
 5440SOL    HW127782   4.555   4.226   3.474  0.1756  0.1459 -0.3492
 5440SOL    HW227783   4.532   4.086   3.469 -2.5870 -1.4462 -1.1228
 5441SOL     OW27784   4.049   3.540  13.002 -0.0252  0.5351  0.2114
 5441SOL    HW127785   3.957   3.515  13.008 -0.1979  0.7119 -1.7153
 5441SOL    HW227786   4.090   3.454  13.004 -0.1973  0.4637  0.5767
 5442SOL     OW27787   2.359   2.839   5.497  0.5849 -0.1075  0.1504
 5442SOL    HW127788   2.436   2.884   5.462  1.3872 -0.8707  0.9195
 5442SOL    HW227789   2.371   2.860   5.590 -0.6077 -2.5114  0.8304
 5443SOL     OW27790   4.264   3.254  14.662  0.0958  0.2296  0.0224
 5443SOL    HW127791   4.300   3.189  14.603  0.8881  0.2451  0.4944
 5443SOL    HW227792   4.260   3.196  14.737 -1.3656 -1.3289 -1.2588
 5444SOL     OW27793   3.692   1.809   7.380  0.5238  0.1296 -0.3875
 5444SOL    HW127794   3.634   1.733   7.379  1.6077 -0.6557 -2.4866
 5444SOL    HW227795   3.663   1.851   7.299 -0.5283  0.7033  0.2741
 5445SOL     OW27796   0.912   3.720   7.950  0.7109 -0.0023  0.5114
 5445SOL    HW127797   0.885   3.654   7.886  2.1156 -0.4517  0.3774
 5445SOL    HW227798   0.832   3.772   7.954  0.9419  0.5664 -1.8704
 5446SOL     OW27799   0.353   2.300   4.565  0.4644  0.3523 -0.4223
 5446SOL    HW127800   0.401   2.383   4.553  0.6207  0.2148 -0.7273
 5446SOL    HW227801   0.427   2.239   4.565 -0.8919 -1.2846  0.3528
 5447SOL     OW27802   0.494   4.591  12.505 -0.2713  1.0062  0.1843
 5447SOL    HW127803   0.424   4.641  12.547 -3.2872 -1.8910 -1.4514
 5447SOL    HW227804   0.458   4.502  12.507  2.5316 -0.0828  2.4346
 5448SOL     OW27805   4.207   4.083  10.368 -0.0382 -0.1280  0.4106
 5448SOL    HW127806   4.217   3.989  10.356 -2.8187 -0.3453 -0.2360
 5448SOL    HW227807   4.296   4.113  10.384  0.7298 -2.9085  1.3822
 5449SOL     OW27808   0.735   1.260   4.971  0.0602  0.1312  0.2987
 5449SOL    HW127809   0.770   1.347   4.990 -1.2376  0.5049  0.9778
 5449SOL    HW227810   0.794   1.203   5.020 -3.1294 -2.8109  0.7067
 5450SOL     OW27811   0.059   3.252   5.274 -0.1334  0.5102  0.0711
 5450SOL    HW127812   0.107   3.170   5.283 -0.9009 -0.2014 -2.4706
 5450SOL    HW227813   0.047   3.249   5.179  1.5477 -1.4170 -0.0732
 5451SOL     OW27814   2.989   2.754   0.085  0.0244  0.0327 -0.0856
 5451SOL    HW127815   3.085   2.756   0.087  0.0538 -1.8797  0.2303
 5451SOL    HW227816   2.968   2.839   0.123  0.1639 -0.5638  1.3371
 5452SOL     OW27817   3.344   1.311   3.400  0.2519 -0.3984 -0.0542
 5452SOL    HW127818   3.308   1.399   3.389  1.5336 -0.0455 -1.4987
 5452SOL    HW227819   3.393   1.326   3.481  0.3953 -0.2544 -0.1677
 5453SOL     OW27820   0.538   4.258   7.039  0.2553  0.0554 -0.5212
 5453SOL    HW127821   0.614   4.235   7.093 -0.5214  0.7422  0.8758
 5453SOL    HW227822   0.518   4.174   6.996 -1.8248  0.2170  0.1252
 5454SOL     OW27823   4.619   0.997  11.348 -0.4065  0.2625  0.0028
 5454SOL    HW127824   4.615   0.944  11.427 -1.9213  2.5316  1.4657
 5454SOL    HW227825   4.710   1.026  11.349 -0.2837 -0.2763  2.7967
 5455SOL     OW27826   4.602   1.979   0.983 -0.6704  0.2725  0.1920
 5455SOL    HW127827   4.547   1.947   1.055  1.3029  1.0667  2.0405
 5455SOL    HW227828   4.665   1.908   0.970 -0.0846  1.2204 -2.1530
 5456SOL     OW27829   0.375   3.160   7.590 -0.1062  0.1990  0.6336
 5456SOL    HW127830   0.438   3.157   7.518 -1.8635  0.7282 -0.9333
 5456SOL    HW227831   0.427   3.110   7.653  0.5922  0.4468  0.2518
 5457SOL     OW27832   3.160   1.715  10.908  0.5740 -0.2022  0.2901
 5457SOL    HW127833   3.174   1.652  10.978  1.6379 -0.8056 -0.4560
 5457SOL    HW227834   3.163   1.794  10.962 -1.1793  0.0541 -0.0138
 5458SOL     OW27835   3.474   0.996   3.576 -0.5323 -0.2718 -0.6666
 5458SOL    HW127836   3.383   0.999   3.548 -0.6249 -0.3167 -0.3724
 5458SOL    HW227837   3.490   1.055   3.650  3.5071 -2.7066  0.4312
 5459SOL     OW27838   0.398   2.119  10.830  0.0270 -0.2007 -0.2588
 5459SOL    HW127839   0.428   2.111  10.921  1.1684  1.1324 -0.5278
 5459SOL    HW227840   0.303   2.102  10.835 -0.0230 -0.6007 -2.8388
 5460SOL     OW27841   1.770   4.587   8.357  0.2452  0.5648  0.1105
 5460SOL    HW127842   1.678   4.607   8.376 -0.5338 -0.6842 -2.4061
 5460SOL    HW227843   1.809   4.629   8.434  0.1885  1.8289 -0.5605
 5461SOL     OW27844   1.329   4.302   9.844 -0.4923  0.5332  0.3158
 5461SOL    HW127845   1.346   4.361   9.918  1.8910  0.3722 -0.1231
 5461SOL    HW227846   1.406   4.324   9.792 -1.0016  1.7399  0.0750
 5462SOL     OW27847   0.303   4.111   9.474  0.1723  0.3040 -0.4599
 5462SOL    HW127848   0.379   4.167   9.458  0.4735  0.2181  0.6644
 5462SOL    HW227849   0.249   4.172   9.524 -1.5455 -0.6443 -1.1565
 5463SOL     OW27850   4.107   3.735   1.327 -0.0045 -0.7523  0.6052
 5463SOL    HW127851   4.172   3.770   1.387  0.0742 -2.8718  1.7385
 5463SOL    HW227852   4.033   3.778   1.370  1.3297 -0.6126  2.7175
 5464SOL     OW27853   0.598   0.653  11.137 -0.1172 -0.0552 -0.7256
 5464SOL    HW127854   0.547   0.643  11.056 -1.8170 -1.6243  0.5268
 5464SOL    HW227855   0.685   0.655  11.098  0.5630 -1.4749  0.7097
 5465SOL     OW27856   1.786   0.334   9.850  0.1563 -0.7421  0.0777
 5465SOL    HW127857   1.812   0.245   9.873 -3.1536 -1.7511 -0.1727
 5465SOL    HW227858   1.809   0.328   9.757  1.1695  0.6489  0.2251
 5466SOL     OW27859   3.663   2.527   8.223  0.2536  0.2682  0.0563
 5466SOL    HW127860   3.753   2.528   8.257 -0.1831  1.7868  1.1807
 5466SOL    HW227861   3.647   2.620   8.206  2.0085 -0.3547 -4.8576
 5467SOL     OW27862   4.342   3.327   4.812 -0.6066 -0.4908 -0.1615
 5467SOL    HW127863   4.314   3.376   4.890  0.0825  0.4190 -0.4810
 5467SOL    HW227864   4.318   3.238   4.837  0.5273 -1.0098 -0.9353
 5468SOL     OW27865   4.439   0.632   1.027 -0.1801 -0.0542  0.0130
 5468SOL    HW127866   4.452   0.724   1.051 -1.5311 -0.1201  0.9964
 5468SOL    HW227867   4.522   0.584   1.035 -0.0337  0.3362  0.8601
 5469SOL     OW27868   2.272   2.052   8.613  0.5134  0.6091  0.4573
 5469SOL    HW127869   2.211   2.022   8.680  0.8348 -0.7569  0.1375
 5469SOL    HW227870   2.301   2.134   8.654  2.5277  0.3962 -0.5768
 5470SOL     OW27871   4.096   3.390   3.324 -0.1383  0.0932 -0.1112
 5470SOL    HW127872   4.011   3.433   3.317 -0.3753 -0.7813 -2.5337
 5470SOL    HW227873   4.091   3.367   3.417 -2.9174 -1.8922 -0.7533
 5471SOL     OW27874   0.038   2.202  15.036 -0.3504  0.5035  0.3484
 5471SOL    HW127875   0.093   2.124  15.026 -0.5462  0.4272 -0.1537
 5471SOL    HW227876   4.705   2.192  14.957 -1.4787  0.9248  1.0703
 5472SOL     OW27877   1.290   3.543  16.876 -0.2121  0.1120 -0.3996
 5472SOL    HW127878   1.343   3.503  16.807  1.7452  2.4615 -0.2480
 5472SOL    HW227879   1.356   3.588  16.928  0.4648  0.1811 -1.3271
 5473SOL     OW27880   3.756   1.794   6.386  0.4148  0.2407 -0.1648
 5473SOL    HW127881   3.817   1.812   6.458 -0.3522 -1.0326  0.8080
 5473SOL    HW227882   3.820   1.773   6.317  0.9683  0.8819  0.1512
 5474SOL     OW27883   1.051   4.481   6.420  0.1819 -0.3084 -0.1678
 5474SOL    HW127884   1.027   4.396   6.384  4.3085 -1.1786 -0.7847
 5474SOL    HW227885   1.128   4.495   6.366 -0.0772  0.5745 -0.3242
 5475SOL     OW27886   3.355   4.278  11.573  0.4263  0.1811  0.0469
 5475SOL    HW127887   3.442   4.268  11.613  1.0969 -2.1002 -2.0151
 5475SOL    HW227888   3.332   4.186  11.564  1.6102 -0.1255  0.1197
 5476SOL     OW27889   1.357   3.714  15.382 -0.0965 -0.1591 -0.0401
 5476SOL    HW127890   1.374   3.806  15.403 -0.5497  0.3786 -2.0668
 5476SOL    HW227891   1.274   3.730  15.338 -0.3919 -0.7636  0.3197
 5477SOL     OW27892   4.252   1.342   5.298  0.3276  0.1225 -0.0061
 5477SOL    HW127893   4.336   1.303   5.323 -0.2465 -1.8062 -1.0837
 5477SOL    HW227894   4.265   1.432   5.325  0.5284  0.4179 -1.0980
 5478SOL     OW27895   4.713   4.460   1.841 -0.5258  0.1204  0.3709
 5478SOL    HW127896   4.672   4.544   1.821  0.3989  0.1505 -1.4698
 5478SOL    HW227897   0.050   4.481   1.913  0.7006  1.0854 -0.9144
 5479SOL     OW27898   2.732   3.923   4.822 -0.0650 -0.2323 -0.0387
 5479SOL    HW127899   2.655   3.951   4.871  1.1898 -0.3894  2.0119
 5479SOL    HW227900   2.799   3.925   4.890 -2.8870 -0.8735  2.7092
 5480SOL     OW27901   2.056   0.293  15.344  0.1133 -0.2367 -0.0946
 5480SOL    HW127902   2.077   0.376  15.302  0.8272 -0.0376  0.6487
 5480SOL    HW227903   1.965   0.323  15.351 -0.5854 -1.8394 -2.5663
 5481SOL     OW27904   4.585   3.099  13.061  0.3213  0.5331 -0.6176
 5481SOL    HW127905   4.557   3.027  13.118  1.8565 -0.1540 -0.7166
 5481SOL    HW227906   4.647   3.046  13.011  1.8212 -0.1067  1.9147
 5482SOL     OW27907   4.262   2.723   9.147 -0.0444 -0.1579 -0.6474
 5482SOL    HW127908   4.326   2.773   9.096 -1.1238  3.0807  1.1400
 5482SOL    HW227909   4.239   2.790   9.213  4.1622  1.6119 -0.9845
 5483SOL     OW27910   3.315   4.594   1.484 -0.0141 -0.7431  0.0016
 5483SOL    HW127911   3.228   4.634   1.476  0.8495  0.7187 -1.9465
 5483SOL    HW227912   3.294   4.510   1.525 -2.0779 -0.6252 -0.8038
 5484SOL     OW27913   3.125   0.969   6.083 -0.2111 -0.3151  0.3440
 5484SOL    HW127914   3.126   0.916   6.163  0.1099  1.1542  1.3020
 5484SOL    HW227915   3.078   1.042   6.123  1.0167 -0.2578  1.7001
 5485SOL     OW27916   3.155   3.529   5.409 -0.0370 -0.1208 -0.1611
 5485SOL    HW127917   3.219   3.599   5.396  1.1589 -1.3198 -0.7341
 5485SOL    HW227918   3.110   3.546   5.492  2.7693 -1.8651  1.6953
 5486SOL     OW27919   2.998   3.540   9.604 -0.1104  0.9661 -0.4956
 5486SOL    HW127920   3.083   3.557   9.564  0.8010  0.5614  1.2604
 5486SOL    HW227921   2.995   3.623   9.653  0.3973 -0.5693  2.1392
 5487SOL     OW27922   4.625   1.732   2.718 -0.0716 -0.8224  0.4735
 5487SOL    HW127923   4.551   1.710   2.775 -1.7971 -0.3011 -1.5787
 5487SOL    HW227924   4.578   1.752   2.637  2.6180  0.9752 -0.6109
 5488SOL     OW27925   0.547   3.553   8.260 -0.1700  0.3418 -0.2465
 5488SOL    HW127926   0.516   3.463   8.261  1.9069 -0.3826 -0.0763
 5488SOL    HW227927   0.517   3.577   8.173  2.7773  0.5138 -1.2219
 5489SOL     OW27928   0.236   0.258   5.609  0.1651  0.0176 -0.2593
 5489SOL    HW127929   0.332   0.261   5.608  0.0720  1.5867 -4.1210
 5489SOL    HW227930   0.221   0.186   5.547 -0.4683  0.8040 -1.0037
 5490SOL     OW27931   3.622   0.121  14.885 -0.6471 -0.0857 -0.0747
 5490SOL    HW127932   3.588   0.098  14.799  3.4470 -0.3193 -1.6040
 5490SOL    HW227933   3.707   0.077  14.880 -0.8931 -0.4843 -0.7865
 5491SOL     OW27934   3.428   1.646   7.085  0.4724  0.3485 -0.3533
 5491SOL    HW127935   3.450   1.603   7.168  1.1334 -0.6184 -1.0358
 5491SOL    HW227936   3.432   1.737   7.112  0.4863  0.0635  0.6121
 5492SOL     OW27937   1.357   1.981  17.533 -0.2477 -0.3156  0.4422
 5492SOL    HW127938   1.268   2.000  17.565 -1.1011 -1.6754 -1.1551
 5492SOL    HW227939   1.407   2.050  17.577 -2.8356  2.4425 -0.8834
 5493SOL     OW27940   1.874   2.825   4.672 -0.1443 -0.2423 -0.1893
 5493SOL    HW127941   1.935   2.751   4.670  0.4742  0.2018  2.3735
 5493SOL    HW227942   1.895   2.874   4.751  2.9534 -0.5883 -0.7766
 5494SOL     OW27943   0.222   4.568   6.869 -0.0735  0.1683  0.2992
 5494SOL    HW127944   0.255   4.649   6.909 -0.1558 -0.5699  1.8831
 5494SOL    HW227945   0.247   4.502   6.934  1.2095  0.8700  0.5327
 5495SOL     OW27946   2.763   0.305   3.085 -0.7291 -0.0529 -0.2283
 5495SOL    HW127947   2.696   0.330   3.148 -0.2480 -0.0552  0.2857
 5495SOL    HW227948   2.747   0.214   3.059  2.0227 -0.5442 -0.3043
 5496SOL     OW27949   1.707   2.578   5.127  0.7365  0.1597 -0.1213
 5496SOL    HW127950   1.616   2.604   5.140  0.8259  0.0619  0.6973
 5496SOL    HW227951   1.720   2.605   5.036  0.5831 -0.1313 -0.2266
 5497SOL     OW27952   0.016   0.348   1.335  0.0044 -0.2366  0.3977
 5497SOL    HW127953   0.038   0.294   1.260 -2.5966 -0.1426 -0.4340
 5497SOL    HW227954   0.097   0.357   1.385 -0.5153  0.3880  1.1549
 5498SOL     OW27955   0.117   1.664  10.068  1.0947 -1.0619 -0.1668
 5498SOL    HW127956   0.208   1.640  10.052  2.0706  0.9346  2.4938
 5498SOL    HW227957   0.093   1.612  10.144  0.2099 -0.3584  0.0414
 5499SOL     OW27958   3.194   4.092   2.405  0.0909  0.3179  0.1164
 5499SOL    HW127959   3.189   4.000   2.429  2.5722  0.5819  1.6668
 5499SOL    HW227960   3.286   4.106   2.428  0.5500 -0.8168 -1.1068
 5500SOL     OW27961   2.890   2.854   6.035 -0.4150 -1.0907 -0.1812
 5500SOL    HW127962   2.943   2.921   6.079 -0.8644 -0.7393 -0.1703
 5500SOL    HW227963   2.811   2.859   6.089 -0.7785  1.9731 -0.9600
 5501SOL     OW27964   2.051   0.756   6.887  0.5310  0.5150  0.4383
 5501SOL    HW127965   2.059   0.779   6.794 -0.4024 -2.6822 -0.4247
 5501SOL    HW227966   2.009   0.670   6.890 -0.1874  0.8579  0.1017
 5502SOL     OW27967   2.582   2.901   2.604 -0.3103  0.1196  0.1641
 5502SOL    HW127968   2.620   2.854   2.678 -0.2691  0.2984  0.2563
 5502SOL    HW227969   2.489   2.882   2.617 -0.2514 -0.1052  0.2681
 5503SOL     OW27970   2.722   2.463   4.549 -0.1462  0.0910  0.0810
 5503SOL    HW127971   2.745   2.456   4.642  2.3102  0.5555 -0.5104
 5503SOL    HW227972   2.635   2.424   4.545 -0.0607 -0.1693  0.8146
 5504SOL     OW27973   3.492   4.680   4.986 -0.1046  0.8027 -0.2520
 5504SOL    HW127974   3.465   0.043   4.951 -0.9456 -0.3614 -2.4020
 5504SOL    HW227975   3.584   4.689   5.011 -0.0767  0.0360 -0.0681
 5505SOL     OW27976   2.414   1.134   3.573 -0.1692 -0.1525 -0.7387
 5505SOL    HW127977   2.477   1.063   3.564 -0.6782 -0.7247  0.2459
 5505SOL    HW227978   2.369   1.129   3.488 -0.3844  0.2708 -0.6526
 5506SOL     OW27979   2.656   0.711   8.906 -0.1003  0.5395 -0.1419
 5506SOL    HW127980   2.605   0.709   8.825  0.1308 -0.3715 -0.2693
 5506SOL    HW227981   2.659   0.617   8.927  2.5691  0.2684 -1.7170
 5507SOL     OW27982   2.717   4.464   3.066  0.2727 -0.0926  0.1505
 5507SOL    HW127983   2.662   4.526   3.114  2.0833 -1.4182  3.8694
 5507SOL    HW227984   2.672   4.456   2.981  1.0241  0.0584 -0.2611
 5508SOL     OW27985   2.775   1.876  16.541  0.0602 -0.1807 -0.1837
 5508SOL    HW127986   2.708   1.809  16.531 -0.4986 -0.1078  3.0186
 5508SOL    HW227987   2.729   1.957  16.560  2.1512  0.4884  2.0513
 5509SOL     OW27988   2.857   0.357   5.642 -0.0534 -0.6640  0.0973
 5509SOL    HW127989   2.776   0.391   5.605 -1.8122 -2.7915  1.9975
 5509SOL    HW227990   2.909   0.320   5.571  3.3999  0.8146  1.8360
 5510SOL     OW27991   2.778   4.420   1.988 -0.0938  0.4012  0.2015
 5510SOL    HW127992   2.810   4.330   1.996 -0.3659  0.1292 -1.6987
 5510SOL    HW227993   2.685   4.405   1.972  0.0761 -1.1348  0.6795
 5511SOL     OW27994   4.321   2.714   4.606  0.1380 -0.1678  0.0680
 5511SOL    HW127995   4.328   2.808   4.617 -0.4061 -0.0650 -0.4031
 5511SOL    HW227996   4.351   2.705   4.515  0.6585  1.0440  0.1229
 5512SOL     OW27997   3.069   3.849   7.496 -0.4709 -0.0982  0.1033
 5512SOL    HW127998   3.006   3.778   7.505 -0.9140  0.4376  1.2275
 5512SOL    HW227999   3.043   3.893   7.415 -2.5166 -0.3943  0.6046
 5513SOL     OW28000   3.544   1.467   9.164  0.0080  0.1955  0.1482
 5513SOL    HW128001   3.555   1.485   9.071 -1.3154 -1.7448 -0.3937
 5513SOL    HW228002   3.470   1.524   9.186  0.3009  0.8242 -0.4821
 5514SOL     OW28003   4.040   1.114   7.161 -0.7430  0.1631 -0.1228
 5514SOL    HW128004   4.074   1.200   7.185  0.6808 -0.0810 -1.2444
 5514SOL    HW228005   4.113   1.061   7.194 -2.1280 -1.4410  0.4118
 5515SOL     OW28006   3.069   2.998   6.536 -0.2042 -0.7475  1.0392
 5515SOL    HW128007   3.051   3.059   6.607  0.5197  0.4411  0.2037
 5515SOL    HW228008   3.142   2.946   6.569  1.7414 -0.0425 -2.1544
 5516SOL     OW28009   3.742   0.527   7.750 -0.5020 -0.2727  0.3849
 5516SOL    HW128010   3.714   0.619   7.748 -1.8877 -0.7463 -1.8473
 5516SOL    HW228011   3.666   0.482   7.787 -0.0072 -0.1167  1.5944
 5517SOL     OW28012   1.262   2.206   8.183 -0.2345  0.2945  0.1277
 5517SOL    HW128013   1.186   2.158   8.151 -2.1566  3.5484 -0.2341
 5517SOL    HW228014   1.228   2.271   8.244 -1.8018 -0.3969 -0.0216
 5518SOL     OW28015   1.981   3.522   3.437 -0.1762 -0.0109  0.7094
 5518SOL    HW128016   2.049   3.530   3.504  0.3618  1.0962  0.0301
 5518SOL    HW228017   2.028   3.543   3.356  0.8212 -0.2103  1.2381
 5519SOL     OW28018   2.656   0.351  15.587  0.2363  0.4783  0.6940
 5519SOL    HW128019   2.656   0.417  15.518  0.7396 -0.2425  0.0040
 5519SOL    HW228020   2.630   0.267  15.549  0.8089  0.5715  0.1115
 5520SOL     OW28021   2.569   2.586  12.420  0.1346 -0.7923 -0.2158
 5520SOL    HW128022   2.577   2.574  12.325  1.6547  3.0892 -0.5857
 5520SOL    HW228023   2.486   2.635  12.416  0.5657 -0.0999 -0.6002
 5521SOL     OW28024   0.992   0.805   2.147  0.6227 -0.0277 -0.0361
 5521SOL    HW128025   1.017   0.846   2.230  0.1009 -1.8830  1.0408
 5521SOL    HW228026   0.966   0.881   2.095 -2.2102  0.0692  1.5689
 5522SOL     OW28027   3.433   1.093   4.500  0.5408 -0.3567 -0.1551
 5522SOL    HW128028   3.477   1.049   4.573 -0.9702  1.0044  1.5632
 5522SOL    HW228029   3.426   1.016   4.443  1.6010 -1.4183  1.1639
 5523SOL     OW28030   3.826   3.345   3.691  0.0394  0.6796  0.0347
 5523SOL    HW128031   3.869   3.289   3.627 -1.1033 -0.1593  0.0122
 5523SOL    HW228032   3.738   3.333   3.655 -0.7498  0.7573  1.9547
 5524SOL     OW28033   0.288   4.702  12.193 -0.0658  0.2881 -0.3171
 5524SOL    HW128034   0.283   0.051  12.256  1.1870 -0.2502  0.3918
 5524SOL    HW228035   0.236   4.633  12.234  0.8657  0.9488  1.9350
 5525SOL     OW28036   2.195   1.830  12.018 -0.4958 -0.0968 -0.0781
 5525SOL    HW128037   2.146   1.824  12.100 -0.9252  0.9588 -0.2591
 5525SOL    HW228038   2.280   1.803  12.051 -0.6588  0.5186  0.8425
 5526SOL     OW28039   1.609   4.540   5.608  0.6359 -0.5480 -0.3217
 5526SOL    HW128040   1.534   4.492   5.642  0.7179  0.2733  1.0631
 5526SOL    HW228041   1.661   4.562   5.686 -1.5008  0.8921  0.6993
 5527SOL     OW28042   3.163   4.137   2.818  0.0933 -0.6458  0.3151
 5527SOL    HW128043   3.104   4.205   2.785  2.4267  0.8434 -0.8355
 5527SOL    HW228044   3.229   4.127   2.749 -1.1335  2.1825 -1.2790
 5528SOL     OW28045   0.840   3.757   2.322 -0.0411 -0.3846  0.9111
 5528SOL    HW128046   0.875   3.823   2.261  0.2353 -0.5236  0.9226
 5528SOL    HW228047   0.749   3.763   2.293  0.2438  2.7548  0.5920
 5529SOL     OW28048   2.190   2.305   4.637  0.0300  0.1682 -0.0272
 5529SOL    HW128049   2.098   2.305   4.609  0.0831  0.2698 -0.1993
 5529SOL    HW228050   2.226   2.244   4.573  0.5942  1.4941 -0.9740
 5530SOL     OW28051   2.971   1.646   3.756  0.5582  0.6823  0.2349
 5530SOL    HW128052   3.014   1.695   3.827  1.4349  0.6139 -0.2426
 5530SOL    HW228053   3.045   1.589   3.736 -0.9288 -0.0350 -3.2703
 5531SOL     OW28054   3.595   4.368   2.181  0.6384 -0.0980  0.0220
 5531SOL    HW128055   3.622   4.406   2.265  0.7690 -1.6510  0.6762
 5531SOL    HW228056   3.503   4.345   2.193  0.5739  0.1115 -0.0706
 5532SOL     OW28057   3.697   0.782   7.582 -0.1096  0.0413 -0.1129
 5532SOL    HW128058   3.683   0.828   7.665  0.8199 -1.1367  0.6847
 5532SOL    HW228059   3.608   0.755   7.559  0.2564 -0.1488 -1.3296
 5533SOL     OW28060   1.570   0.167   6.016 -0.4771  0.0200  0.0555
 5533SOL    HW128061   1.633   0.096   6.032 -1.8563 -1.3126 -0.3865
 5533SOL    HW228062   1.624   0.233   5.973  0.5537 -1.2594 -0.6433
 5534SOL     OW28063   4.655   0.645   6.926 -0.0127  0.1774  0.0064
 5534SOL    HW128064   4.624   0.719   6.874  1.7454  0.7806 -0.1667
 5534SOL    HW228065   0.021   0.638   6.891 -0.5322 -0.5236 -1.1508
 5535SOL     OW28066   1.177   2.398   4.664 -0.1113  0.0217  0.2422
 5535SOL    HW128067   1.091   2.404   4.623  0.0489  1.0514  0.0500
 5535SOL    HW228068   1.156   2.383   4.756  1.6275  0.0093  0.6417
 5536SOL     OW28069   1.244   3.052   5.344 -0.1664  0.7522  0.2149
 5536SOL    HW128070   1.180   2.985   5.369  1.2889 -0.7700 -0.1408
 5536SOL    HW228071   1.251   3.050   5.248  0.5869 -0.9451  0.3041
 5537SOL     OW28072   1.091   4.288  17.676 -0.2454 -0.4042  0.1316
 5537SOL    HW128073   1.105   4.202  17.635 -0.4813 -1.0919  1.4981
 5537SOL    HW228074   1.010   4.303  17.629  0.8602  1.2896 -1.2154
 5538SOL     OW28075   2.886   2.953  12.052 -0.1232 -0.6839  0.4907
 5538SOL    HW128076   2.902   2.998  12.134 -1.1395  0.5901  0.0046
 5538SOL    HW228077   2.939   3.010  11.996  1.3136 -0.8225  1.7299
 5539SOL     OW28078   1.792   0.468   7.453 -0.5664  0.0813  0.0759
 5539SOL    HW128079   1.876   0.449   7.410 -0.6089  2.7730 -1.2267
 5539SOL    HW228080   1.791   0.415   7.532  0.6729 -1.6497 -1.0638
 5540SOL     OW28081   3.071   2.189   5.687 -0.3548 -0.0866 -0.3323
 5540SOL    HW128082   3.078   2.182   5.782  0.2482 -0.9669 -0.4367
 5540SOL    HW228083   3.000   2.250   5.667 -0.3343  0.3589  1.0133
 5541SOL     OW28084   4.294   3.274   2.080  0.5935  0.3688  0.2118
 5541SOL    HW128085   4.234   3.268   2.005  1.2283  1.6254 -0.4024
 5541SOL    HW228086   4.315   3.367   2.080  0.8699  0.3149 -1.0081
 5542SOL     OW28087   0.566   1.061  14.238  0.2511  0.3067  0.4924
 5542SOL    HW128088   0.605   1.149  14.238  1.0659 -0.0467  2.7601
 5542SOL    HW228089   0.636   1.000  14.258  0.5630  1.4981  3.0933
 5543SOL     OW28090   2.373   1.496   1.394 -0.6235  0.1691 -0.1150
 5543SOL    HW128091   2.291   1.474   1.439 -0.5310 -0.3742 -0.2069
 5543SOL    HW228092   2.431   1.422   1.414  0.2082  0.8746  0.0980
 5544SOL     OW28093   1.461   2.108   2.193  0.6009  0.3930 -0.0607
 5544SOL    HW128094   1.536   2.161   2.164  0.9721  0.0213  0.2191
 5544SOL    HW228095   1.422   2.156   2.266 -2.4547 -0.3291 -1.2115
 5545SOL     OW28096   0.645   0.644   4.536 -0.3329 -0.0469  0.1119
 5545SOL    HW128097   0.550   0.639   4.527 -0.4322  0.5984  0.8559
 5545SOL    HW228098   0.669   0.736   4.538 -0.6331 -0.0292  2.7335
 5546SOL     OW28099   1.474   0.756   5.050 -0.2316  0.3279 -0.3507
 5546SOL    HW128100   1.494   0.737   4.958 -0.0370  1.0093 -0.4444
 5546SOL    HW228101   1.557   0.792   5.082  0.4463 -0.9636 -0.6117
 5547SOL     OW28102   4.102   2.443   2.335  0.1231  0.4708  0.4029
 5547SOL    HW128103   4.113   2.510   2.268  1.5917 -0.0836  0.0915
 5547SOL    HW228104   4.007   2.428   2.339  0.1239  0.6586  1.1273
 5548SOL     OW28105   2.192   0.538   3.278  0.1255  0.1164  0.0577
 5548SOL    HW128106   2.185   0.455   3.230 -1.1655  0.2246  0.0703
 5548SOL    HW228107   2.284   0.556   3.256  0.0881  1.9071  1.3739
 5549SOL     OW28108   2.408   4.235   6.130 -0.0379  0.1231  0.1911
 5549SOL    HW128109   2.363   4.235   6.045 -2.2324  0.5299  1.3569
 5549SOL    HW228110   2.365   4.307   6.175 -0.5361 -0.3587  0.4787
 5550SOL     OW28111   1.957   0.996   1.291  0.3755 -0.3440 -0.2738
 5550SOL    HW128112   2.027   0.953   1.243 -2.0793 -1.9805 -2.3978
 5550SOL    HW228113   1.907   1.026   1.215 -3.6208  0.7198  2.7384
 5551SOL     OW28114   3.148   1.110   3.705 -0.6667 -0.0893  0.1653
 5551SOL    HW128115   3.126   1.021   3.730  1.4136 -0.6235  0.0578
 5551SOL    HW228116   3.175   1.098   3.614  1.1604 -1.4088  0.9021
 5552SOL     OW28117   0.870   4.153   3.279  0.1981 -0.2380 -0.5427
 5552SOL    HW128118   0.858   4.202   3.197 -0.9556 -0.1088 -0.2995
 5552SOL    HW228119   0.898   4.215   3.347 -1.9898  1.8605 -1.5426
 5553SOL     OW28120   1.391   3.185   4.860  0.3213 -0.2579 -1.3026
 5553SOL    HW128121   1.352   3.268   4.829  0.7583  1.5820  3.1330
 5553SOL    HW228122   1.486   3.190   4.846  0.3762  0.0301 -0.8289
 5554SOL     OW28123   3.655   1.918  13.491 -0.4202 -0.3957 -0.3108
 5554SOL    HW128124   3.640   2.009  13.466 -0.0191 -1.1234 -3.1453
 5554SOL    HW228125   3.640   1.925  13.586  1.0442  1.3316 -0.2254
 5555SOL     OW28126   4.495   3.636   6.898  0.0967  0.1842 -0.4680
 5555SOL    HW128127   4.510   3.544   6.879  3.6733 -0.3035  4.5762
 5555SOL    HW228128   4.494   3.617   6.992 -1.2774  1.1067 -0.2883
 5556SOL     OW28129   2.007   3.052   2.976  0.1064  0.2464 -0.2421
 5556SOL    HW128130   1.938   3.103   2.934 -0.1574  3.4012  3.9805
 5556SOL    HW228131   2.039   3.113   3.043  0.6966 -0.2137 -0.1089
 5557SOL     OW28132   3.708   4.352   1.285  0.6078  0.3232  0.6733
 5557SOL    HW128133   3.752   4.268   1.299 -0.3829  0.3323  3.7694
 5557SOL    HW228134   3.657   4.336   1.365  0.1863  0.2561  0.3922
 5558SOL     OW28135   3.087   1.722   7.442 -0.4207  0.2230 -0.2458
 5558SOL    HW128136   3.156   1.667   7.479 -0.6890 -0.6848 -1.0901
 5558SOL    HW228137   3.054   1.753   7.526 -0.8605  0.3046 -0.4499
 5559SOL     OW28138   3.585   1.113   3.814  0.1224  0.2006  0.4422
 5559SOL    HW128139   3.651   1.046   3.797  0.0754 -0.6556  3.5892
 5559SOL    HW228140   3.576   1.098   3.908 -1.1574  0.3760  0.3496
 5560SOL     OW28141   2.398   1.189   5.724  0.1614  0.5039 -0.1031
 5560SOL    HW128142   2.464   1.209   5.791 -0.5438 -0.6609  0.9517
 5560SOL    HW228143   2.342   1.267   5.728 -0.7388 -0.1657  0.4166
 5561SOL     OW28144   1.189   1.556  10.321 -0.5150  0.4501  0.0541
 5561SOL    HW128145   1.117   1.600  10.365  0.2944  1.1544  0.6848
 5561SOL    HW228146   1.239   1.523  10.395 -1.0217 -0.5155 -0.0367
 5562SOL     OW28147   2.936   3.532   1.484  0.6901  0.4563 -0.3800
 5562SOL    HW128148   2.949   3.444   1.520 -0.0170  0.3684 -0.3395
 5562SOL    HW228149   2.995   3.519   1.410  0.5672  0.2287 -0.4383
 5563SOL     OW28150   4.229   2.290   0.995 -0.4938 -0.1211 -0.0153
 5563SOL    HW128151   4.231   2.242   1.078 -0.1081  0.8661  0.5492
 5563SOL    HW228152   4.142   2.271   0.960 -0.5496 -0.2331  0.1835
 5564SOL     OW28153   3.048   0.087   5.179 -0.1121  0.8161  0.3405
 5564SOL    HW128154   3.072   0.003   5.141 -0.2451  1.4965 -1.2637
 5564SOL    HW228155   2.979   0.062   5.240 -1.6327  1.2138 -1.2286
 5565SOL     OW28156   0.946   0.418   2.418  0.3036 -0.3035 -0.0375
 5565SOL    HW128157   0.899   0.466   2.350 -1.7390 -1.9412  0.2128
 5565SOL    HW228158   0.868   0.387   2.466  1.1423 -2.3008  0.0370
 5566SOL     OW28159   2.610   0.011   5.685 -0.9012 -0.0445 -0.6993
 5566SOL    HW128160   2.705   4.722   5.680 -0.6303  1.7845  0.5539
 5566SOL    HW228161   2.598   0.067   5.608 -0.0467 -0.1411 -0.9091
 5567SOL     OW28162   0.089   2.132  16.523  0.2141  0.4092  0.3223
 5567SOL    HW128163   0.072   2.041  16.496  1.3105  0.6832 -1.3209
 5567SOL    HW228164   0.072   2.180  16.442  0.7234 -0.2182 -0.1617
 5568SOL     OW28165   0.709   4.453   2.199 -0.0738  0.0355  0.1470
 5568SOL    HW128166   0.743   4.435   2.287  0.5615 -0.6198 -0.2422
 5568SOL    HW228167   0.763   4.519   2.157 -1.7723  1.2365 -0.1614
 5569SOL     OW28168   2.494   1.493  12.154  0.2340 -0.2974  0.0022
 5569SOL    HW128169   2.402   1.476  12.175 -0.1069  1.9391  0.3554
 5569SOL    HW228170   2.523   1.415  12.108 -0.5492 -0.5259 -0.1021
 5570SOL     OW28171   1.527   2.543  17.134 -0.2246  0.5110 -0.0830
 5570SOL    HW128172   1.531   2.639  17.146 -0.5649  0.3281  1.5587
 5570SOL    HW228173   1.528   2.527  17.040 -2.0754  1.3341 -0.2331
 5571SOL     OW28174   0.493   4.638   8.510  0.6943 -0.1773  0.1374
 5571SOL    HW128175   0.464   4.683   8.590  1.6094  1.1190 -0.2449
 5571SOL    HW228176   0.408   4.598   8.497  1.4918 -2.4246  1.8250
 5572SOL     OW28177   0.362   1.549  14.506  0.6096  0.0679 -0.0145
 5572SOL    HW128178   0.303   1.475  14.492  0.2204  0.3986 -0.1380
 5572SOL    HW228179   0.396   1.514  14.588  0.0808  1.0602  0.6199
 5573SOL     OW28180   3.205   1.104   3.446  0.1700  0.1735 -0.4728
 5573SOL    HW128181   3.258   1.179   3.417  0.7299  0.1105  0.3838
 5573SOL    HW228182   3.125   1.112   3.394  0.2250 -4.2976 -1.2188
 5574SOL     OW28183   1.354   3.512  10.473  0.3371  0.1176 -0.0726
 5574SOL    HW128184   1.386   3.594  10.512  0.0333  0.2722 -0.1456
 5574SOL    HW228185   1.410   3.447  10.515  1.0686  0.2158 -0.9040
 5575SOL     OW28186   0.543   0.112   6.035  0.1329 -0.3682  0.3052
 5575SOL    HW128187   0.461   0.085   5.992  1.6966 -2.9873 -1.0248
 5575SOL    HW228188   0.573   0.023   6.057  2.3397 -0.3942 -2.7633
 5576SOL     OW28189   1.128   3.906   8.182 -0.8977  0.6491  0.1059
 5576SOL    HW128190   1.206   3.904   8.128 -1.2505 -0.2923 -0.3807
 5576SOL    HW228191   1.076   3.951   8.114 -1.8756  2.1153  1.8215
 5577SOL     OW28192   0.748   2.590   1.914  0.5633  0.2150 -0.2430
 5577SOL    HW128193   0.708   2.567   1.998 -2.5090  2.2705 -1.1536
 5577SOL    HW228194   0.703   2.670   1.886 -0.8662 -1.0454 -1.5843
 5578SOL     OW28195   0.203   4.572   8.551  0.3481 -0.0504 -0.1969
 5578SOL    HW128196   0.141   4.523   8.604 -1.5873 -1.0344 -3.3751
 5578SOL    HW228197   0.233   4.498   8.499  1.4789  0.8325 -0.8153
 5579SOL     OW28198   0.786   0.611   6.399 -0.4488 -0.0534 -0.4203
 5579SOL    HW128199   0.846   0.661   6.454 -1.4789  2.8624 -1.8819
 5579SOL    HW228200   0.811   0.521   6.420 -0.1155 -0.0445 -0.7803
 5580SOL     OW28201   2.498   2.633   8.608 -0.1717  0.0619 -0.1251
 5580SOL    HW128202   2.525   2.693   8.538 -1.5749 -0.4862 -1.1257
 5580SOL    HW228203   2.544   2.667   8.685 -0.2736 -0.2151  0.0578
 5581SOL     OW28204   2.995   1.551   7.851  0.2899  0.3375  0.7605
 5581SOL    HW128205   3.050   1.550   7.929  1.7860 -0.0456 -0.3061
 5581SOL    HW228206   2.915   1.593   7.884  0.1863  0.6671  0.0884
 5582SOL     OW28207   1.171   2.968  13.796 -0.2796  0.7545 -0.0234
 5582SOL    HW128208   1.109   3.015  13.851  0.3952  1.5579  0.0429
 5582SOL    HW228209   1.136   2.976  13.708 -1.1008 -0.7714  0.1558
 5583SOL     OW28210   1.087   4.045   0.696  0.0547 -0.5877 -0.0933
 5583SOL    HW128211   1.044   4.069   0.614  1.7470  0.3917 -0.6877
 5583SOL    HW228212   1.012   4.064   0.752  0.0237 -1.8241  0.2885
 5584SOL     OW28213   0.092   1.516   2.692  0.0894  0.4841  0.0652
 5584SOL    HW128214   0.040   1.597   2.686 -2.3888 -1.2364 -1.6325
 5584SOL    HW228215   0.179   1.555   2.682  0.8807 -1.0730  0.9495
 5585SOL     OW28216   0.095   4.246   3.530  0.0913 -0.4714 -0.5391
 5585SOL    HW128217   0.066   4.235   3.620 -1.2989  0.8094 -0.8335
 5585SOL    HW228218   0.153   4.172   3.513 -0.3497 -0.7989 -0.5974
 5586SOL     OW28219   2.945   3.770   9.143  0.5428 -0.0144  0.3848
 5586SOL    HW128220   2.877   3.749   9.207 -0.4112 -0.0669 -0.6476
 5586SOL    HW228221   2.930   3.863   9.132 -0.8737 -0.2493  0.3515
 5587SOL     OW28222   4.122   1.629   3.159  0.4886 -0.1362 -0.2330
 5587SOL    HW128223   4.034   1.598   3.178  0.2577 -0.3089 -1.5978
 5587SOL    HW228224   4.158   1.608   3.245 -0.3811  1.1922  0.4590
 5588SOL     OW28225   2.108   3.480  15.191 -0.3258  0.3296 -0.2979
 5588SOL    HW128226   2.025   3.450  15.154 -0.8021 -0.2454  1.2275
 5588SOL    HW228227   2.153   3.506  15.111 -0.8816  0.7506 -0.4737
 5589SOL     OW28228   4.448   0.944   4.364  0.0713 -0.3738  0.2315
 5589SOL    HW128229   4.498   0.970   4.287 -1.6625  1.0097 -0.4161
 5589SOL    HW228230   4.423   0.854   4.341 -1.3713  0.1669 -0.2769
 5590SOL     OW28231   1.975   0.626  11.732  0.6652  0.2626 -0.1619
 5590SOL    HW128232   1.911   0.696  11.717 -0.2032 -0.4456  0.2750
 5590SOL    HW228233   2.021   0.641  11.649 -0.2674 -0.7100 -0.8425
 5591SOL     OW28234   2.419   1.267   7.766 -1.1145 -0.2909  0.0776
 5591SOL    HW128235   2.474   1.193   7.791  0.3758  1.1727  1.1510
 5591SOL    HW228236   2.364   1.210   7.712 -0.1400 -0.1298 -1.0846
 5592SOL     OW28237   1.588   1.734   8.036 -0.7732 -0.0417  0.0157
 5592SOL    HW128238   1.566   1.698   8.122  0.5975 -1.8395 -0.4020
 5592SOL    HW228239   1.550   1.670   7.976  0.5362  0.1829 -1.0532
 5593SOL     OW28240   1.169   4.204   9.146  0.1554 -0.4721  0.0822
 5593SOL    HW128241   1.188   4.288   9.187  1.0306  0.7173 -2.7276
 5593SOL    HW228242   1.082   4.212   9.107 -0.0219 -0.1927  0.5429
 5594SOL     OW28243   2.118   0.623  13.374  0.2531  0.8757  0.4061
 5594SOL    HW128244   2.072   0.702  13.345 -1.6470 -0.5493 -0.4755
 5594SOL    HW228245   2.087   0.557  13.312  1.4889  0.6114  0.0607
 5595SOL     OW28246   1.986   2.021   3.545  0.7229 -0.5155  0.1990
 5595SOL    HW128247   1.943   1.977   3.472 -1.1785 -0.7356  1.4409
 5595SOL    HW228248   1.979   2.113   3.519  0.3858 -1.4510 -3.0181
 5596SOL     OW28249   2.483   1.418   6.252  0.0703 -0.1032 -0.1557
 5596SOL    HW128250   2.466   1.449   6.341  0.5400 -1.1294  0.2997
 5596SOL    HW228251   2.570   1.377   6.251 -1.4693 -3.4146  1.4476
 5597SOL     OW28252   0.020   2.058   8.859  0.2517  0.2248  0.1875
 5597SOL    HW128253   0.083   2.019   8.920 -2.2522 -2.8345  0.8097
 5597SOL    HW228254   4.700   1.976   8.832  0.0917  0.1722  0.6006
 5598SOL     OW28255   3.755   4.667   4.585  0.3337  0.2742  0.3744
 5598SOL    HW128256   3.728   4.631   4.669 -2.3663  1.6073  0.0769
 5598SOL    HW228257   3.846   4.638   4.586 -0.1986 -1.3899 -0.0637
 5599SOL     OW28258   1.945   1.249   5.682  0.5234  0.4041 -0.2298
 5599SOL    HW128259   2.009   1.271   5.750  0.2844 -0.7362  0.3512
 5599SOL    HW228260   1.992   1.188   5.626  2.6186  0.5766  1.3198
 5600SOL     OW28261   1.711   0.987   6.658  0.5423  0.8045  0.1034
 5600SOL    HW128262   1.732   0.901   6.696 -0.8957 -0.1890 -1.3461
 5600SOL    HW228263   1.726   1.062   6.714  1.1863 -0.0192  1.0397
 5601SOL     OW28264   1.844   3.072  17.057  0.1624 -0.4795  0.1023
 5601SOL    HW128265   1.799   3.111  16.982 -0.6256  0.7674  1.2168
 5601SOL    HW228266   1.802   3.121  17.128 -1.6094 -0.8684 -0.6911
 5602SOL     OW28267   3.859   2.158   1.653 -0.2240  0.3982 -0.0575
 5602SOL    HW128268   3.925   2.096   1.684 -0.8372 -0.5990 -0.7722
 5602SOL    HW228269   3.815   2.115   1.580  0.7679 -0.9375  0.1475
 5603SOL     OW28270   4.675   2.905  15.197 -0.3008 -0.3670  0.2800
 5603SOL    HW128271   4.669   2.986  15.248  1.9280  0.7133 -1.1978
 5603SOL    HW228272   0.047   2.894  15.181 -0.5171 -1.1446 -0.4541
 5604SOL     OW28273   0.178   3.688  11.294  0.5495  0.7222  0.0680
 5604SOL    HW128274   0.099   3.636  11.278  0.3570  1.9918 -3.1222
 5604SOL    HW228275   0.178   3.685  11.389  0.1829 -0.6586  0.0249
 5605SOL     OW28276   0.086   4.150   2.453  0.1506  0.1522  0.6787
 5605SOL    HW128277   0.086   4.194   2.368 -2.2334 -1.7327 -0.3000
 5605SOL    HW228278   4.718   4.117   2.455  1.1263 -2.3889  1.9923
 5606SOL     OW28279   1.295   3.434   4.744 -0.1095  0.0849 -0.6369
 5606SOL    HW128280   1.201   3.453   4.753  0.0019  1.0073 -1.4552
 5606SOL    HW228281   1.290   3.405   4.653 -0.6008 -0.2520 -0.5060
 5607SOL     OW28282   2.502   1.997   1.148 -0.1794  0.2164 -0.0208
 5607SOL    HW128283   2.459   1.918   1.181 -0.4378  0.4153  0.1190
 5607SOL    HW228284   2.587   1.998   1.192 -0.0319  1.7663 -0.3516
 5608SOL     OW28285   1.254   4.615   6.018  0.3937 -0.4131 -0.7390
 5608SOL    HW128286   1.163   4.611   5.989 -0.4334  1.4524  1.5157
 5608SOL    HW228287   1.278   4.528   5.987  0.7046 -0.1194 -1.3088
 5609SOL     OW28288   3.563   2.657  15.837  0.0295 -0.9616 -0.6409
 5609SOL    HW128289   3.566   2.589  15.905  4.0121  0.9124  1.1049
 5609SOL    HW228290   3.475   2.694  15.839  0.8558  0.9499  0.4019
 5610SOL     OW28291   3.456   1.241   5.223 -0.4354 -0.0777  0.1356
 5610SOL    HW128292   3.535   1.294   5.220  1.3079 -2.6996 -0.1416
 5610SOL    HW228293   3.470   1.196   5.140 -0.0073  1.1609 -0.4651
 5611SOL     OW28294   0.553   4.547   7.849 -0.9251  0.0128  0.3906
 5611SOL    HW128295   0.487   4.614   7.830 -0.8760 -0.6469 -2.1348
 5611SOL    HW228296   0.520   4.483   7.912 -0.8224 -0.5133 -0.0838
 5612SOL     OW28297   1.954   0.702   8.668  0.2162  0.3157 -0.0419
 5612SOL    HW128298   2.047   0.708   8.692  0.3248 -0.6395 -0.2241
 5612SOL    HW228299   1.968   0.692   8.574 -1.3802  2.1775 -0.4610
 5613SOL     OW28300   3.681   3.298   7.870 -0.2019  0.4949 -0.0556
 5613SOL    HW128301   3.761   3.252   7.845 -0.2081  1.4083 -1.7415
 5613SOL    HW228302   3.642   3.237   7.933  1.9153 -1.3155 -0.5150
 5614SOL     OW28303   4.555   1.189   1.371 -0.4915  0.4095 -0.6789
 5614SOL    HW128304   4.571   1.099   1.400 -0.4963  0.7125  0.2507
 5614SOL    HW228305   4.637   1.213   1.327 -0.6934  0.1905 -1.1715
 5615SOL     OW28306   2.173   4.085   1.526  0.1296  0.3847  0.2261
 5615SOL    HW128307   2.091   4.054   1.488 -0.0380  1.7725 -0.5373
 5615SOL    HW228308   2.216   4.143   1.463  0.3377 -0.8069 -0.7142
 5616SOL     OW28309   0.261   4.068   2.019  0.2933  1.2259  0.0481
 5616SOL    HW128310   0.327   4.100   1.957 -0.9274  2.9008 -0.4196
 5616SOL    HW228311   0.201   4.036   1.951 -0.7854  0.0097  1.5642
 5617SOL     OW28312   0.599   2.372  17.367 -0.3496 -0.0521 -0.2735
 5617SOL    HW128313   0.508   2.349  17.349 -0.1841 -0.2877 -0.8375
 5617SOL    HW228314   0.643   2.287  17.374  2.3802  1.5517  2.2649
 5618SOL     OW28315   4.105   2.772  13.420 -0.0200  0.3840  0.4665
 5618SOL    HW128316   4.088   2.685  13.456 -0.6789 -0.5759 -2.1524
 5618SOL    HW228317   4.020   2.804  13.389 -0.1613 -0.4414 -0.0072
 5619SOL     OW28318   2.769   4.520   7.925 -0.3525  0.2701  0.2423
 5619SOL    HW128319   2.734   4.511   7.836  0.5402 -0.1720 -0.0553
 5619SOL    HW228320   2.752   4.433   7.959 -1.7775  0.1959 -0.6318
 5620SOL     OW28321   3.346   1.054   9.428  0.3374 -0.2506  0.0037
 5620SOL    HW128322   3.291   1.042   9.351  1.4700  2.5439 -1.2747
 5620SOL    HW228323   3.425   1.090   9.386 -0.7505  1.7910 -0.3059
 5621SOL     OW28324   1.306   1.139   6.339  0.0493  0.4830  0.1171
 5621SOL    HW128325   1.383   1.115   6.287 -0.3576 -2.0915  0.7146
 5621SOL    HW228326   1.258   1.056   6.335  0.3176  0.3038  0.6089
 5622SOL     OW28327   4.582   2.346  16.819 -0.2456 -0.0382  0.0081
 5622SOL    HW128328   4.505   2.395  16.790  0.2712 -1.0925 -3.1439
 5622SOL    HW228329   4.653   2.410  16.818  0.8637 -1.2731 -0.3799
 5623SOL     OW28330   0.073   2.809   6.556  0.1385  0.0277  0.2506
 5623SOL    HW128331   0.057   2.902   6.570 -0.7615  0.2066 -1.9509
 5623SOL    HW228332   0.102   2.810   6.464  0.6338 -1.3909  0.3729
 5624SOL     OW28333   4.387   2.870   7.701  0.0198 -0.0825  0.2842
 5624SOL    HW128334   4.314   2.825   7.659 -1.1446  0.5687  1.6329
 5624SOL    HW228335   4.440   2.889   7.623  0.7124 -0.2606  0.7141
 5625SOL     OW28336   0.711   1.590   1.551  0.6673 -0.6273 -0.3318
 5625SOL    HW128337   0.802   1.607   1.526  0.1187  2.4757 -0.2165
 5625SOL    HW228338   0.704   1.497   1.532  1.2461 -0.4931 -1.1951
 5626SOL     OW28339   4.077   3.954   2.008 -0.0481  0.3905  0.1968
 5626SOL    HW128340   4.117   3.979   2.092 -0.8989  1.6767  0.2149
 5626SOL    HW228341   3.987   3.986   2.013 -0.4493 -0.9034  1.1955
 5627SOL     OW28342   0.899   4.148   5.290  0.4815 -0.4193 -0.3484
 5627SOL    HW128343   0.853   4.076   5.247  1.0998 -0.1057 -1.5338
 5627SOL    HW228344   0.836   4.161   5.361 -1.6300 -3.0007 -1.7405
 5628SOL     OW28345   1.510   0.726   4.385  0.6137 -0.5939 -0.3540
 5628SOL    HW128346   1.591   0.696   4.344  0.5888  0.9718 -1.5585
 5628SOL    HW228347   1.452   0.656   4.353  1.1761 -1.7004  1.0495
 5629SOL     OW28348   0.150   0.843   9.407  0.4508 -0.3210  0.6003
 5629SOL    HW128349   0.097   0.909   9.453  1.9683  0.3217  1.4122
 5629SOL    HW228350   0.078   0.810   9.352  1.2829  2.8701 -2.4714
 5630SOL     OW28351   3.881   1.614   0.965 -0.4553 -0.8314 -0.2381
 5630SOL    HW128352   3.948   1.641   1.029 -0.7714 -1.2843  0.2879
 5630SOL    HW228353   3.816   1.572   1.021  0.2913 -0.0887  1.1934
 5631SOL     OW28354   1.038   3.427   3.764  0.4756 -0.1884 -0.3391
 5631SOL    HW128355   1.085   3.450   3.844 -0.3968  1.6778 -0.3726
 5631SOL    HW228356   1.098   3.433   3.689  0.7480  0.3871 -0.0768
 5632SOL     OW28357   4.247   1.822   4.023 -0.0723 -0.0387 -0.0763
 5632SOL    HW128358   4.340   1.844   4.016 -0.2461  0.7962  0.1736
 5632SOL    HW228359   4.243   1.729   4.002  1.2695 -0.0329 -0.3677
 5633SOL     OW28360   1.337   2.800   4.177 -0.1505  0.0124  0.1945
 5633SOL    HW128361   1.275   2.838   4.114 -0.2065  0.0846  0.2938
 5633SOL    HW228362   1.288   2.727   4.215 -1.4793  0.6794 -0.2318
 5634SOL     OW28363   2.871   2.052  15.124  0.0197 -1.1018 -0.8059
 5634SOL    HW128364   2.794   2.073  15.072 -0.1246 -0.9224 -0.5184
 5634SOL    HW228365   2.868   2.134  15.173  0.5605 -0.3834 -1.9886
 5635SOL     OW28366   2.883   4.275  16.506  0.2040 -0.6792 -0.2440
 5635SOL    HW128367   2.857   4.208  16.442  0.7752  0.2602 -1.4602
 5635SOL    HW228368   2.832   4.252  16.584 -0.2001 -1.5328 -0.7662
 5636SOL     OW28369   0.582   0.396   3.294  0.0407  0.6510 -0.2248
 5636SOL    HW128370   0.594   0.461   3.225  1.5709 -0.4308 -0.9923
 5636SOL    HW228371   0.642   0.329   3.260  0.2204  1.4188 -1.4253
 5637SOL     OW28372   0.047   2.499   3.354  0.5153 -0.9109  0.6306
 5637SOL    HW128373   4.686   2.462   3.323  1.3191 -1.8496 -0.4078
 5637SOL    HW228374   0.070   2.550   3.276 -0.1528 -2.5852 -0.6594
 5638SOL     OW28375   2.638   4.415  16.041  0.4779 -0.0817  0.3769
 5638SOL    HW128376   2.636   4.508  16.020 -0.0732 -0.2606 -0.3582
 5638SOL    HW228377   2.659   4.391  15.951 -3.3496 -1.2425 -0.1723
 5639SOL     OW28378   3.041   1.787  16.630 -0.0057  0.7655 -0.1118
 5639SOL    HW128379   3.093   1.838  16.567 -0.5157  2.4227  0.7896
 5639SOL    HW228380   2.952   1.797  16.597 -0.2593  1.7972  0.8682
 5640SOL     OW28381   3.360   3.470   7.702 -0.8070 -0.2045 -0.3108
 5640SOL    HW128382   3.440   3.495   7.749 -2.7226 -0.2399  2.9676
 5640SOL    HW228383   3.325   3.553   7.669 -2.2561 -0.8459 -0.4037
 5641SOL     OW28384   4.061   2.862   2.650 -0.4234  0.7747  0.4477
 5641SOL    HW128385   4.142   2.822   2.683  0.5843  0.0691 -2.8392
 5641SOL    HW228386   4.089   2.949   2.619 -1.7460  0.8696 -0.4392
 5642SOL     OW28387   2.207   4.497  14.427 -0.6194 -0.1075 -0.7613
 5642SOL    HW128388   2.190   4.538  14.343  0.1599  0.7452 -0.4998
 5642SOL    HW228389   2.213   4.407  14.395 -1.1884 -1.0409  1.7269
 5643SOL     OW28390   2.105   0.315   4.349 -0.2277  0.2333  0.1108
 5643SOL    HW128391   2.087   0.402   4.385 -2.5860  0.2533 -1.1855
 5643SOL    HW228392   2.188   0.322   4.301  0.5134  1.1829  1.5207
 5644SOL     OW28393   1.698   3.829   5.169 -0.2885  0.1535  0.2443
 5644SOL    HW128394   1.653   3.745   5.174 -0.5928  0.4005  1.8884
 5644SOL    HW228395   1.621   3.885   5.161 -0.7915 -0.3711  1.3755
 5645SOL     OW28396   3.938   2.312   5.677 -0.1449 -0.4885 -0.3421
 5645SOL    HW128397   3.992   2.364   5.736 -0.4130 -2.1187  1.3385
 5645SOL    HW228398   4.001   2.275   5.615 -0.2279 -2.1762  0.5968
 5646SOL     OW28399   1.822   0.250   9.591  0.3840  0.0405 -0.1568
 5646SOL    HW128400   1.782   0.176   9.546 -1.2046  1.3970 -0.9622
 5646SOL    HW228401   1.861   0.301   9.520  1.0359  1.4674  1.2093
 5647SOL     OW28402   0.817   1.756   8.787  0.4580  0.1522  0.0481
 5647SOL    HW128403   0.819   1.847   8.757 -2.6704  0.5044  0.9476
 5647SOL    HW228404   0.724   1.744   8.807  0.2511  2.2846  0.4362
 5648SOL     OW28405   4.069   1.675   1.165 -0.4613 -0.1489  0.6234
 5648SOL    HW128406   4.122   1.606   1.127 -0.9253  1.7435 -3.4241
 5648SOL    HW228407   4.104   1.679   1.254  1.3077  1.5688 -0.1561
 5649SOL     OW28408   3.318   1.790  10.705 -0.0672 -0.1577  0.1867
 5649SOL    HW128409   3.250   1.751  10.650 -0.2467 -0.1821  0.4266
 5649SOL    HW228410   3.254   1.805  10.774 -1.9583 -0.0904 -1.6021
 5650SOL     OW28411   1.164   0.235  12.798  0.0405 -0.0470 -0.2537
 5650SOL    HW128412   1.081   0.204  12.835  0.0851  1.4638  1.0988
 5650SOL    HW228413   1.131   0.305  12.742 -1.2710 -0.1412  0.4055
 5651SOL     OW28414   3.830   2.268  12.523 -0.0697 -0.3425 -0.4585
 5651SOL    HW128415   3.761   2.287  12.586  3.0200  1.7293  2.2417
 5651SOL    HW228416   3.801   2.303  12.438 -0.3447  1.0590  0.2121
 5652SOL     OW28417   0.355   2.731   6.996 -0.5639  0.4505 -0.0373
 5652SOL    HW128418   0.353   2.763   6.906 -0.5206  3.6701  1.1207
 5652SOL    HW228419   0.316   2.643   6.993  3.3583 -1.2494 -1.3077
 5653SOL     OW28420   3.821   3.996   2.107  0.1718 -0.0013  0.4724
 5653SOL    HW128421   3.754   3.953   2.161 -1.0856 -0.1931 -1.2364
 5653SOL    HW228422   3.768   4.047   2.046  1.0669 -0.0425 -0.3473
 5654SOL     OW28423   2.688   2.069  13.134 -0.6150  0.3214 -0.3835
 5654SOL    HW128424   2.757   2.117  13.181  1.0251 -0.0944 -2.3563
 5654SOL    HW228425   2.678   2.120  13.054  2.1385  3.0901  0.9978
 5655SOL     OW28426   1.764   2.500  10.573 -0.1454  0.1243  0.4514
 5655SOL    HW128427   1.705   2.498  10.498 -0.5015  1.3695  0.6825
 5655SOL    HW228428   1.716   2.544  10.643 -0.4128  1.8169 -0.7932
 5656SOL     OW28429   0.933   3.908   3.162  0.1263  0.2065 -0.2428
 5656SOL    HW128430   0.887   3.975   3.213 -0.8648 -1.1079  0.5851
 5656SOL    HW228431   0.964   3.961   3.088 -0.9998  1.8019  0.4321
 5657SOL     OW28432   0.323   2.671  12.646  0.1664 -0.5188  0.2726
 5657SOL    HW128433   0.393   2.646  12.706 -0.0466  0.1079  0.7796
 5657SOL    HW228434   0.381   2.723  12.591  0.3461 -1.4600 -0.4327
 5658SOL     OW28435   0.389   3.474   2.393 -0.2404 -0.4203  0.6582
 5658SOL    HW128436   0.309   3.435   2.427 -0.2864  1.9169  3.2755
 5658SOL    HW228437   0.395   3.436   2.306  2.1992  2.3308 -0.3489
 5659SOL     OW28438   1.873   1.272   7.149 -0.7850  0.5247 -0.8608
 5659SOL    HW128439   1.962   1.269   7.114 -0.2437 -2.6915  0.7981
 5659SOL    HW228440   1.850   1.365   7.157  1.0663  0.6196  3.2545
 5660SOL     OW28441   0.395   1.838  12.384  0.4960  0.2058  0.2860
 5660SOL    HW128442   0.446   1.918  12.395  0.1162  0.4774  0.0576
 5660SOL    HW228443   0.371   1.823  12.476  0.5626 -0.9470  0.1267
 5661SOL     OW28444   2.301   3.483   8.346 -0.2076 -0.1849  0.3793
 5661SOL    HW128445   2.385   3.449   8.378  0.9578  0.6749 -1.7648
 5661SOL    HW228446   2.271   3.540   8.416 -1.3477 -0.4709  0.1306
 5662SOL     OW28447   2.833   1.245   3.144 -0.5403 -0.2919  0.3486
 5662SOL    HW128448   2.772   1.315   3.167 -0.0703 -0.1755  1.2294
 5662SOL    HW228449   2.785   1.211   3.069 -0.5978 -0.1798  0.3348
 5663SOL     OW28450   2.421   1.433  13.780 -0.1905  0.2944 -0.1171
 5663SOL    HW128451   2.342   1.483  13.797  0.0010 -0.6008  3.3173
 5663SOL    HW228452   2.387   1.344  13.788  0.7392  0.1876  2.4739
 5664SOL     OW28453   1.005   4.622  10.082  0.9563 -0.4788  0.2949
 5664SOL    HW128454   0.965   4.571  10.153  3.8242 -0.8355  1.6374
 5664SOL    HW228455   1.013   4.557  10.013  2.5781 -1.0536  1.0287
 5665SOL     OW28456   4.584   4.152   6.416  0.5497  0.2737  0.6327
 5665SOL    HW128457   4.590   4.173   6.322 -3.6270  1.3787  0.6106
 5665SOL    HW228458   4.490   4.134   6.407  0.2695  2.4975 -1.0677
 5666SOL     OW28459   1.495   3.144   2.044 -0.0968  0.4217  0.1843
 5666SOL    HW128460   1.553   3.115   1.974  0.1539  0.7881  0.2413
 5666SOL    HW228461   1.462   3.228   2.011  3.5921  2.3586  1.3971
 5667SOL     OW28462   0.797   3.158  12.849  0.2859  0.4143 -0.0931
 5667SOL    HW128463   0.795   3.205  12.932  0.5299  1.1964 -0.5256
 5667SOL    HW228464   0.889   3.170  12.822  0.3156  0.0981 -0.1300
 5668SOL     OW28465   0.573   3.105   5.922  0.3720 -0.0524 -0.2617
 5668SOL    HW128466   0.517   3.028   5.907  0.9574 -0.7128  0.9549
 5668SOL    HW228467   0.588   3.091   6.015  1.5759 -0.4476 -0.5233
 5669SOL     OW28468   2.738   3.933  13.160  0.1213  0.0161  0.3848
 5669SOL    HW128469   2.733   4.029  13.165 -1.2478  0.0153 -0.9427
 5669SOL    HW228470   2.668   3.917  13.097 -0.7361  0.5064  1.2141
 5670SOL     OW28471   3.567   2.651   6.923  0.3858 -0.8186  0.9278
 5670SOL    HW128472   3.484   2.684   6.956  0.5802 -1.5366  2.1379
 5670SOL    HW228473   3.609   2.725   6.880 -0.9777 -0.6924 -0.1846
 5671SOL     OW28474   1.290   1.604   3.343 -0.6839 -0.3817 -0.0796
 5671SOL    HW128475   1.295   1.524   3.291 -2.8948  1.0744 -2.5552
 5671SOL    HW228476   1.373   1.649   3.330 -0.1745 -0.8977  1.3548
 5672SOL     OW28477   3.152   3.538  12.048  0.4158  0.3161  0.2775
 5672SOL    HW128478   3.171   3.462  12.104  0.1435  0.3657  0.4395
 5672SOL    HW228479   3.202   3.512  11.970 -0.3597 -1.0078  0.2190
 5673SOL     OW28480   3.192   4.232   0.689  0.2481  0.2084 -0.0232
 5673SOL    HW128481   3.158   4.292   0.755 -0.1139 -1.1301  1.0098
 5673SOL    HW228482   3.111   4.224   0.639 -1.0054 -0.3628  2.0962
 5674SOL     OW28483   0.743   3.576  10.353 -0.9311 -0.3021  1.1489
 5674SOL    HW128484   0.689   3.612  10.424 -0.0557  0.9587  1.1764
 5674SOL    HW228485   0.679   3.513  10.320 -0.2426  0.6093 -1.9740
 5675SOL     OW28486   4.198   3.012   4.084 -0.2010 -0.2124  0.0557
 5675SOL    HW128487   4.165   2.923   4.097  0.4665 -0.6182 -1.0658
 5675SOL    HW228488   4.291   2.990   4.086 -0.2326 -0.2744  1.1739
 5676SOL     OW28489   0.839   4.398   5.105 -0.3068  0.0414 -0.1295
 5676SOL    HW128490   0.851   4.439   5.191 -0.6949 -0.8201  0.3404
 5676SOL    HW228491   0.825   4.306   5.127  2.4184  0.0216  1.5809
 5677SOL     OW28492   0.506   2.689  11.760 -0.1873  0.1647  0.6527
 5677SOL    HW128493   0.422   2.724  11.731  0.0864 -0.0268 -0.3690
 5677SOL    HW228494   0.567   2.762  11.749  0.6623 -0.6721 -0.2233
 5678SOL     OW28495   0.098   0.968   3.747  0.1306  0.0507 -0.1968
 5678SOL    HW128496   0.082   0.917   3.668 -0.2055 -0.8264  0.4351
 5678SOL    HW228497   0.054   0.906   3.806 -1.0554  0.1563 -0.9795
 5679SOL     OW28498   4.476   0.155   7.825 -0.1143 -0.5507 -0.6280
 5679SOL    HW128499   4.486   0.196   7.911 -0.4067 -2.0505  0.1195
 5679SOL    HW228500   4.462   0.233   7.770  0.8801 -0.8365 -1.2919
 5680SOL     OW28501   1.006   4.038   7.957 -0.0975 -0.4538 -0.2316
 5680SOL    HW128502   0.941   4.097   7.919 -0.0830 -0.1336  0.2309
 5680SOL    HW228503   1.032   3.975   7.890 -1.7618  0.3225 -1.6094
 5681SOL     OW28504   1.477   0.546   9.356  0.0479  0.1398 -0.3353
 5681SOL    HW128505   1.403   0.496   9.390  0.4818 -1.2726 -1.4661
 5681SOL    HW228506   1.502   0.602   9.430 -0.4571 -1.2870  0.9226
 5682SOL     OW28507   0.339   0.358   8.054 -0.0692 -0.0712 -0.5796
 5682SOL    HW128508   0.348   0.452   8.069  0.3008 -0.3853  1.2149
 5682SOL    HW228509   0.420   0.342   8.006  1.1435  2.0238  0.7977
 5683SOL     OW28510   0.168   1.115  12.691  0.6470 -0.0869  0.0492
 5683SOL    HW128511   0.084   1.157  12.673  0.1442 -0.7078  0.9405
 5683SOL    HW228512   0.160   1.065  12.772  2.5819  0.6010  0.6851
 5684SOL     OW28513   1.457   2.150   4.405  0.0789 -0.3888 -0.3131
 5684SOL    HW128514   1.541   2.180   4.439  0.5376 -0.9700 -0.9404
 5684SOL    HW228515   1.490   2.103   4.329  0.6454  3.7773 -2.6099
 5685SOL     OW28516   2.039   4.134  10.072 -0.4702 -0.2931 -0.3516
 5685SOL    HW128517   2.001   4.073  10.135  0.8509 -1.3571 -0.5736
 5685SOL    HW228518   1.961   4.181  10.042 -0.8258  0.4893  1.8006
 5686SOL     OW28519   0.268   2.321   8.225  0.2262  0.4593 -0.3342
 5686SOL    HW128520   0.274   2.281   8.312 -0.5127 -0.7494 -0.8389
 5686SOL    HW228521   0.356   2.359   8.219 -1.4706  4.0865 -2.3911
 5687SOL     OW28522   4.092   4.469   8.457 -0.2144 -0.2297 -0.0947
 5687SOL    HW128523   4.005   4.508   8.462 -0.0820  0.0848 -0.2236
 5687SOL    HW228524   4.146   4.513   8.523 -1.1034 -0.1591  0.5840
 5688SOL     OW28525   3.608   0.752  11.758 -0.4227  0.4308  0.2999
 5688SOL    HW128526   3.686   0.699  11.739 -0.5091 -0.6191  2.8939
 5688SOL    HW228527   3.578   0.777  11.670  0.2969  0.6469  0.1185
 5689SOL     OW28528   3.702   1.664  15.101 -0.1136  0.4010  0.3805
 5689SOL    HW128529   3.795   1.640  15.102  0.1017  1.2067 -0.7586
 5689SOL    HW228530   3.698   1.755  15.072 -0.9196 -0.3426 -1.8223
 5690SOL     OW28531   1.872   4.013  12.078 -0.6929 -0.5416  0.1363
 5690SOL    HW128532   1.904   4.047  11.994 -0.2817  2.0554  1.3237
 5690SOL    HW228533   1.949   3.971  12.117 -0.3882  2.0932  2.3826
 5691SOL     OW28534   0.951   4.248   6.344  0.1864 -0.2799 -0.0665
 5691SOL    HW128535   0.862   4.232   6.373  0.3100 -1.3799 -0.3011
 5691SOL    HW228536   0.960   4.210   6.256 -0.3986 -1.1306  0.2519
 5692SOL     OW28537   4.131   3.497   7.640  0.3971  0.2325 -0.0087
 5692SOL    HW128538   4.116   3.580   7.595  1.3192 -0.2834 -1.2534
 5692SOL    HW228539   4.220   3.469   7.618  0.9147  1.3444  0.7329
 5693SOL     OW28540   2.898   3.720   4.510  0.1420 -0.0673  0.0668
 5693SOL    HW128541   2.890   3.787   4.443  1.4320 -0.4001 -0.4245
 5693SOL    HW228542   2.825   3.663   4.484  0.7988 -0.4309 -1.0012
 5694SOL     OW28543   2.858   0.581   2.629 -0.1106 -0.3711  0.0183
 5694SOL    HW128544   2.784   0.595   2.569  0.3412  1.4029 -0.1148
 5694SOL    HW228545   2.818   0.506   2.672  0.7839 -0.4344  0.7265
 5695SOL     OW28546   0.341   1.626   5.303 -0.3440  0.3546 -0.5006
 5695SOL    HW128547   0.277   1.575   5.253  0.8691  1.1913 -2.8892
 5695SOL    HW228548   0.360   1.696   5.242  1.0793  0.5179  0.1306
 5696SOL     OW28549   0.963   1.697  15.629  0.7223  0.3019  0.1058
 5696SOL    HW128550   0.899   1.638  15.589 -0.2903  1.3633  0.1446
 5696SOL    HW228551   0.964   1.762  15.558 -0.5371 -0.4925 -0.6408
 5697SOL     OW28552   2.026   0.840   8.108 -0.8702  0.1679 -0.1685
 5697SOL    HW128553   1.932   0.854   8.120 -0.9054  0.3096 -0.6046
 5697SOL    HW228554   2.068   0.926   8.096 -1.0553  0.2239 -0.4069
 5698SOL     OW28555   3.905   1.404  15.153  0.0129  0.9513 -0.9170
 5698SOL    HW128556   3.917   1.496  15.130 -0.7867  1.1603 -0.5204
 5698SOL    HW228557   3.824   1.409  15.205 -0.7060  0.3406 -1.9844
 5699SOL     OW28558   3.543   3.045   5.736  0.7444  0.3058  0.8480
 5699SOL    HW128559   3.540   2.996   5.654 -0.7160  1.1999  0.3658
 5699SOL    HW228560   3.628   3.089   5.739 -0.5141  2.9121 -1.4684
 5700SOL     OW28561   1.415   3.091  11.920  0.5460  0.2961  0.6792
 5700SOL    HW128562   1.344   3.026  11.921  0.6299  0.1805 -0.3381
 5700SOL    HW228563   1.367   3.172  11.906 -0.7252 -0.9472 -2.1424
 5701SOL     OW28564   4.680   0.787  10.306  0.0514 -0.0966  0.2850
 5701SOL    HW128565   4.674   0.713  10.246  0.8350  1.0374 -1.1902
 5701SOL    HW228566   0.049   0.816  10.297 -0.3873  1.2475  0.1186
 5702SOL     OW28567   0.681   2.719   1.343  0.0424 -0.5699  0.0409
 5702SOL    HW128568   0.764   2.765   1.351 -0.7712  1.3044 -2.3188
 5702SOL    HW228569   0.664   2.677   1.427 -2.4855  1.0380  0.3199
 5703SOL     OW28570   1.165   3.233   5.564 -0.2372  0.0065 -0.0565
 5703SOL    HW128571   1.208   3.164   5.514 -2.6540 -1.1716 -0.4874
 5703SOL    HW228572   1.169   3.305   5.502  2.9401  1.6451  2.0153
 5704SOL     OW28573   2.137   3.574   3.838 -0.0865 -0.0318 -0.5341
 5704SOL    HW128574   2.105   3.487   3.819  3.0819 -0.6318 -3.2358
 5704SOL    HW228575   2.232   3.572   3.850 -0.2279 -0.7371  0.3917
 5705SOL     OW28576   1.582   1.092   2.884  0.7194 -0.6539 -0.1110
 5705SOL    HW128577   1.592   1.064   2.975  2.2396 -0.3604 -0.1802
 5705SOL    HW228578   1.559   1.002   2.860 -2.2271 -0.3094  1.4154
 5706SOL     OW28579   4.626   0.637  11.235 -0.1827  0.4902 -0.7943
 5706SOL    HW128580   4.602   0.592  11.154 -0.9661 -1.5117  0.5495
 5706SOL    HW228581   4.711   0.670  11.208 -0.8684  1.4475 -1.7462
 5707SOL     OW28582   1.307   4.566  13.121 -0.1077  1.0161  0.5163
 5707SOL    HW128583   1.309   4.644  13.066  0.6105  0.4686 -0.2518
 5707SOL    HW228584   1.400   4.548  13.136 -0.2672 -0.0104  0.2949
 5708SOL     OW28585   1.404   1.337   7.003  0.1899 -0.1205 -0.4511
 5708SOL    HW128586   1.461   1.377   6.938 -0.1554 -1.1747 -1.4293
 5708SOL    HW228587   1.327   1.313   6.950 -0.3635 -0.0392  0.3301
 5709SOL     OW28588   1.896   1.964   1.385 -0.2689  0.2881  0.6969
 5709SOL    HW128589   1.857   1.954   1.298 -1.6833 -1.9588  1.5896
 5709SOL    HW228590   1.985   1.939   1.362 -0.9943 -1.5788 -0.0330
 5710SOL     OW28591   2.169   3.343  11.615 -0.4231  0.5614  0.5221
 5710SOL    HW128592   2.147   3.403  11.687 -0.7425  0.0384  0.8585
 5710SOL    HW228593   2.136   3.397  11.543  2.8146 -0.1350 -1.4710
 5711SOL     OW28594   1.752   0.917   2.443  0.0409  0.1597  0.0548
 5711SOL    HW128595   1.690   0.932   2.372 -1.3515  0.5906  1.3655
 5711SOL    HW228596   1.745   0.822   2.450 -1.2592  0.2042 -0.8257
 5712SOL     OW28597   3.699   0.494  15.735 -0.2520  0.2636  0.0294
 5712SOL    HW128598   3.681   0.584  15.707 -1.6463 -0.3153 -0.9801
 5712SOL    HW228599   3.779   0.506  15.784 -0.4621 -2.4841  1.0129
 5713SOL     OW28600   3.064   1.788  12.060  0.0178  0.4063 -0.4792
 5713SOL    HW128601   3.015   1.708  12.074  1.3279  0.0075  1.9170
 5713SOL    HW228602   3.024   1.848  12.123 -2.2144  1.3358 -2.7867
 5714SOL     OW28603   4.030   1.436  17.581 -0.3974 -0.0397 -0.0782
 5714SOL    HW128604   4.002   1.459  17.493 -0.2013  0.2114 -0.0760
 5714SOL    HW228605   4.093   1.503  17.606 -0.4511  0.6710 -1.8389
 5715SOL     OW28606   4.514   2.568   8.669 -0.0269  0.1561  0.2359
 5715SOL    HW128607   4.529   2.566   8.574 -0.4372 -1.6039  0.2098
 5715SOL    HW228608   4.540   2.657   8.694  1.0285  0.6865 -2.7430
 5716SOL     OW28609   0.821   4.295   5.767 -0.1983 -0.2479 -0.0030
 5716SOL    HW128610   0.906   4.335   5.753  0.2483 -1.0353  0.4310
 5716SOL    HW228611   0.769   4.361   5.814  1.8381  1.5794 -0.3420
 5717SOL     OW28612   2.549   0.745   5.301  0.5832 -0.3430 -0.4507
 5717SOL    HW128613   2.633   0.789   5.298  0.4008  0.1894  2.2078
 5717SOL    HW228614   2.490   0.810   5.339 -0.0839  0.1853 -2.3847
 5718SOL     OW28615   0.596   3.111   3.964 -0.7369 -0.2449 -0.2143
 5718SOL    HW128616   0.608   3.184   3.904  2.1740 -0.1937  0.4200
 5718SOL    HW228617   0.674   3.121   4.018 -0.4473 -0.1984 -0.6491
 5719SOL     OW28618   1.025   3.441  16.801  0.0304 -0.3574 -0.5113
 5719SOL    HW128619   0.967   3.474  16.870 -1.1552 -1.9404 -0.7553
 5719SOL    HW228620   1.106   3.478  16.836  0.1573 -1.0397 -0.0915
 5720SOL     OW28621   1.656   2.518   9.233 -0.0301 -0.5087 -0.1406
 5720SOL    HW128622   1.735   2.465   9.237  0.4235  0.2054  0.2794
 5720SOL    HW228623   1.620   2.480   9.153 -1.7049  1.0404 -0.1161
 5721SOL     OW28624   2.754   0.216  13.432  0.4399  0.3232 -0.6988
 5721SOL    HW128625   2.708   0.181  13.509 -0.4786 -2.4146 -2.4646
 5721SOL    HW228626   2.680   0.246  13.377  0.0691  2.7631  1.1387
 5722SOL     OW28627   1.125   0.114   2.621 -0.3622 -0.2128 -0.2554
 5722SOL    HW128628   1.174   0.062   2.686 -2.1992 -1.8594 -0.1795
 5722SOL    HW228629   1.144   0.066   2.541  2.1619 -0.3484  0.4193
 5723SOL     OW28630   4.301   3.829   3.491 -0.3535 -0.8299  0.3540
 5723SOL    HW128631   4.326   3.891   3.422 -0.4421 -1.7756 -0.5277
 5723SOL    HW228632   4.366   3.761   3.474  0.1487  0.2065 -1.8290
 5724SOL     OW28633   1.097   2.288   4.157  0.2806  0.7844  0.4238
 5724SOL    HW128634   1.140   2.311   4.240  2.2576 -2.4775  0.2872
 5724SOL    HW228635   1.010   2.291   4.197 -0.7803  0.6377 -1.9227
 5725SOL     OW28636   3.819   0.435  12.032 -0.0661  0.7529 -0.2849
 5725SOL    HW128637   3.815   0.386  11.950  0.6771 -0.7330  0.5794
 5725SOL    HW228638   3.875   0.507  12.002  2.2456  0.0840  2.5155
 5726SOL     OW28639   0.610   0.561   1.652 -0.0249 -0.1321 -0.4447
 5726SOL    HW128640   0.687   0.575   1.707 -0.8052  2.3789 -0.0218
 5726SOL    HW228641   0.626   0.476   1.611  0.4996  0.0736 -0.6663
 5727SOL     OW28642   3.914   0.769   8.944  0.0919  0.2349 -0.2432
 5727SOL    HW128643   3.822   0.750   8.930  0.0317 -0.9136  1.7014
 5727SOL    HW228644   3.921   0.856   8.905  0.1658  0.1338 -0.4557
 5728SOL     OW28645   4.117   0.429   7.337 -0.0131 -0.3679  0.1528
 5728SOL    HW128646   4.035   0.448   7.293 -0.3019 -1.0356  0.4112
 5728SOL    HW228647   4.138   0.337   7.320 -0.9394 -0.5092 -0.2128
 5729SOL     OW28648   3.885   4.333   8.216 -0.4240 -0.4616 -0.4776
 5729SOL    HW128649   3.954   4.391   8.184 -1.3786  0.7143 -0.3865
 5729SOL    HW228650   3.821   4.394   8.253 -0.9494 -1.5160  0.3687
 5730SOL     OW28651   4.319   4.575   5.824  0.1998 -0.0416  0.1941
 5730SOL    HW128652   4.302   4.591   5.731 -0.9796 -1.4561  0.1678
 5730SOL    HW228653   4.297   4.482   5.835  1.2602 -0.2648  0.4204
 5731SOL     OW28654   4.609   0.884   6.294 -0.0636 -0.1871 -0.5789
 5731SOL    HW128655   4.575   0.799   6.324 -0.3974  0.9366  2.2486
 5731SOL    HW228656   4.703   0.872   6.307 -0.0938 -0.1454 -0.3313
 5732SOL     OW28657   0.340   2.459   4.190  0.2033 -0.7648  0.2897
 5732SOL    HW128658   0.265   2.509   4.157  0.9882 -0.0764 -0.4573
 5732SOL    HW228659   0.366   2.513   4.264 -0.8860  1.6862 -1.1069
 5733SOL     OW28660   4.336   1.765  11.933  0.0532  0.5196  0.6723
 5733SOL    HW128661   4.277   1.695  11.907  2.0439 -0.9336  0.0557
 5733SOL    HW228662   4.356   1.804  11.848 -1.3202  2.6136  1.2971
 5734SOL     OW28663   3.596   4.692   9.176 -0.2338 -0.3200 -0.0560
 5734SOL    HW128664   3.529   4.631   9.207  0.1066 -0.8983 -0.4469
 5734SOL    HW228665   3.652   4.702   9.253 -0.9452  1.1458  0.2698
 5735SOL     OW28666   1.444   4.553  13.409  0.2880  0.0113  0.0579
 5735SOL    HW128667   1.350   4.568  13.416  0.4665  0.3489  1.6857
 5735SOL    HW228668   1.468   4.537  13.500 -2.2413 -1.5628  0.4651
 5736SOL     OW28669   3.332   2.117  13.917 -0.2770 -0.0598 -0.3177
 5736SOL    HW128670   3.319   2.186  13.982 -0.8771 -0.9644  0.5200
 5736SOL    HW228671   3.241   2.087  13.913 -0.2115 -0.3531  0.3535
 5737SOL     OW28672   0.688   2.499   6.158  0.0553  0.9087 -0.4408
 5737SOL    HW128673   0.675   2.414   6.116 -1.4482  0.4517  0.9399
 5737SOL    HW228674   0.714   2.482   6.249  1.3450 -1.9624 -1.3469
 5738SOL     OW28675   4.285   0.303   5.729 -0.5281  0.8620 -0.0209
 5738SOL    HW128676   4.192   0.312   5.706 -0.7074  1.2410  0.8514
 5738SOL    HW228677   4.323   0.340   5.649 -1.5910  0.0332 -0.9092
 5739SOL     OW28678   2.892   2.987   3.200 -0.2679 -0.3205  0.1105
 5739SOL    HW128679   2.819   3.008   3.142 -1.2746 -1.3483  0.9963
 5739SOL    HW228680   2.901   3.065   3.254 -2.5095  0.1796 -0.2307
 5740SOL     OW28681   4.431   0.534   9.304  0.2048 -0.3428 -0.5626
 5740SOL    HW128682   4.512   0.570   9.342 -1.3663  0.5547  1.9402
 5740SOL    HW228683   4.406   0.610   9.251 -2.5577  0.5954  2.0572
 5741SOL     OW28684   3.707   1.293   3.448  0.1947 -0.0896 -0.0570
 5741SOL    HW128685   3.666   1.231   3.387  0.9393 -0.5291 -0.1050
 5741SOL    HW228686   3.772   1.242   3.496 -0.1836  1.4566  2.0882
 5742SOL     OW28687   0.847   1.886   9.808  0.1305  0.3012  0.5218
 5742SOL    HW128688   0.811   1.802   9.835 -2.3381  1.4261  0.6910
 5742SOL    HW228689   0.843   1.926   9.895 -2.5797 -0.6933  0.8322
 5743SOL     OW28690   1.731   4.106   5.860 -0.9471 -0.5042 -0.1018
 5743SOL    HW128691   1.811   4.135   5.904 -0.5841  0.1481 -1.1738
 5743SOL    HW228692   1.725   4.017   5.896 -2.2185  0.6192  2.4740
 5744SOL     OW28693   2.948   4.175  14.008  0.1950 -0.0483  0.0327
 5744SOL    HW128694   3.002   4.155  13.932 -0.0813  3.5892 -1.1001
 5744SOL    HW228695   2.990   4.120  14.074  0.7104  1.2351  0.7683
 5745SOL     OW28696   0.933   4.711   3.955  0.4666 -0.4683 -0.4059
 5745SOL    HW128697   0.904   4.621   3.942 -1.4615  0.3682 -1.9649
 5745SOL    HW228698   0.890   0.031   3.880 -0.6881 -0.7781  0.0855
 5746SOL     OW28699   0.852   0.589  15.304 -0.1153 -0.3392  0.1976
 5746SOL    HW128700   0.826   0.646  15.232 -0.0055  0.5153  0.8358
 5746SOL    HW228701   0.767   0.595  15.349  0.6708 -1.0008  1.7928
 5747SOL     OW28702   1.373   2.723   0.802  0.1528  0.0864 -1.0687
 5747SOL    HW128703   1.413   2.677   0.875  0.4899  0.0041 -1.3073
 5747SOL    HW228704   1.431   2.798   0.791 -0.4083  0.3806 -2.0209
 5748SOL     OW28705   2.787   0.240  12.742  0.1052 -0.4185  0.5242
 5748SOL    HW128706   2.854   0.175  12.719 -1.2406 -1.3523 -0.7592
 5748SOL    HW228707   2.838   0.307  12.788  0.8431 -0.2231 -0.6054
 5749SOL     OW28708   0.184   3.593   8.007  0.5653  0.1445 -0.0320
 5749SOL    HW128709   0.098   3.587   8.050  1.5490 -1.9951  1.5904
 5749SOL    HW228710   0.179   3.514   7.953  0.1377  0.2424 -0.1414
 5750SOL     OW28711   2.156   1.093   5.506 -0.0566 -0.2130 -0.0248
 5750SOL    HW128712   2.112   1.030   5.449 -0.1123  0.7272 -1.0137
 5750SOL    HW228713   2.226   1.032   5.531  1.9100  1.2695 -1.9171
 5751SOL     OW28714   0.840   4.268   1.981 -0.2325 -0.9260  0.3710
 5751SOL    HW128715   0.856   4.362   1.977 -1.2330 -0.8340 -1.8019
 5751SOL    HW228716   0.856   4.253   2.074  0.2746 -2.6680  0.0048
 5752SOL     OW28717   1.183   4.470   8.639  0.5318 -0.0124  0.1192
 5752SOL    HW128718   1.132   4.402   8.684  2.0264 -0.5000  1.0940
 5752SOL    HW228719   1.211   4.520   8.716  0.3467  1.4496 -0.7580
 5753SOL     OW28720   3.929   2.835   3.703 -0.0012  0.2405  0.3884
 5753SOL    HW128721   3.969   2.749   3.695  0.1012  0.3126  0.1356
 5753SOL    HW228722   3.983   2.885   3.642 -0.2572 -0.8908 -0.7720
 5754SOL     OW28723   2.311   4.195   7.104 -0.2316  0.1606  0.5237
 5754SOL    HW128724   2.356   4.242   7.034  0.2107 -0.5944  0.2956
 5754SOL    HW228725   2.312   4.111   7.057  0.1247  1.0912 -1.1367
 5755SOL     OW28726   0.843   1.588  13.869 -0.3931 -0.3128  0.6725
 5755SOL    HW128727   0.933   1.610  13.843 -0.6762 -0.3953 -0.3495
 5755SOL    HW228728   0.856   1.494  13.870 -2.9461 -0.6676 -1.1701
 5756SOL     OW28729   0.024   4.009   3.106  0.1879  0.2326 -0.2772
 5756SOL    HW128730   0.065   4.092   3.129 -0.5264  0.9508 -1.5775
 5756SOL    HW228731   0.091   3.968   3.051  0.9779 -2.1952  2.5046
 5757SOL     OW28732   4.619   1.205  17.320  0.1863 -0.3682  0.4752
 5757SOL    HW128733   4.551   1.265  17.349 -0.6708 -0.7779 -0.6913
 5757SOL    HW228734   4.690   1.240  17.372  1.5193 -2.9693  0.4314
 5758SOL     OW28735   2.485   2.305   4.687  0.1178  0.3514 -0.2563
 5758SOL    HW128736   2.462   2.241   4.754  2.0648  0.2294  0.3026
 5758SOL    HW228737   2.400   2.339   4.658 -1.2701 -3.0460 -0.2967
 5759SOL     OW28738   2.750   0.684   7.584  0.1757  0.4967 -0.1731
 5759SOL    HW128739   2.820   0.684   7.519 -0.8855 -0.1419 -1.3280
 5759SOL    HW228740   2.797   0.653   7.661  0.3618 -0.9243 -0.8434
 5760SOL     OW28741   2.359   4.555   9.085  0.2900 -0.6426  0.4747
 5760SOL    HW128742   2.441   4.564   9.134 -0.4659  1.2621  1.3881
 5760SOL    HW228743   2.387   4.579   8.996  0.5182  1.5198  1.1230
 5761SOL     OW28744   3.464   3.229   6.774  0.3977  0.1179  0.0134
 5761SOL    HW128745   3.459   3.297   6.707 -0.9043 -0.8407 -0.8716
 5761SOL    HW228746   3.377   3.242   6.812  0.3991 -0.1396  0.0979
 5762SOL     OW28747   3.464   3.142   4.288 -0.0519 -0.2686 -0.6820
 5762SOL    HW128748   3.383   3.167   4.333  1.4380 -0.2996  2.0577
 5762SOL    HW228749   3.439   3.157   4.197  0.6473 -3.5597 -1.4193
 5763SOL     OW28750   3.831   1.248   9.735  0.1548  0.3495 -0.0556
 5763SOL    HW128751   3.854   1.270   9.826 -1.5538 -2.8709  1.1617
 5763SOL    HW228752   3.921   1.258   9.703  0.0504  0.4027 -0.3319
 5764SOL     OW28753   2.623   2.862   2.010  0.0052  0.3198 -0.0905
 5764SOL    HW128754   2.615   2.767   2.009  3.3941 -0.0070  1.8068
 5764SOL    HW228755   2.648   2.892   1.922 -1.7199  0.4673 -0.5177
 5765SOL     OW28756   2.281   3.514   3.011 -0.1436  0.4761 -0.4258
 5765SOL    HW128757   2.336   3.554   3.079 -1.4590 -1.2639  1.6265
 5765SOL    HW228758   2.231   3.591   2.982 -1.3058 -0.7318 -1.5850
 5766SOL     OW28759   4.542   3.084  16.407  0.6070  0.3989 -0.0868
 5766SOL    HW128760   4.589   3.052  16.329  0.3181 -1.2442  0.4098
 5766SOL    HW228761   4.546   3.179  16.398  0.6989  0.4313  0.2935
 5767SOL     OW28762   2.921   1.745  10.781 -0.0834 -0.0357  0.3208
 5767SOL    HW128763   2.946   1.702  10.699  1.5945  1.8236 -0.1258
 5767SOL    HW228764   3.003   1.716  10.823  0.5729  0.3372 -0.7066
 5768SOL     OW28765   4.427   0.029   3.743 -1.0486 -0.2383  0.1833
 5768SOL    HW128766   4.376   0.010   3.665  0.0431 -0.9679 -0.3449
 5768SOL    HW228767   4.494   0.082   3.699 -2.9052  2.5670  0.6775
 5769SOL     OW28768   2.429   2.325  15.118  0.3388  0.0748 -0.3213
 5769SOL    HW128769   2.496   2.386  15.086 -1.5856  1.4920 -1.6479
 5769SOL    HW228770   2.483   2.303  15.195 -0.4292 -2.4254 -0.5260
 5770SOL     OW28771   3.556   0.308   1.608  0.7269  0.4337 -0.2818
 5770SOL    HW128772   3.530   0.394   1.641 -2.5305 -0.2908 -1.0082
 5770SOL    HW228773   3.536   0.252   1.684 -0.5451 -1.8617 -2.3120
 5771SOL     OW28774   3.310   1.465   1.409 -0.6863 -0.1522 -0.4272
 5771SOL    HW128775   3.251   1.513   1.351 -0.0339 -0.7828 -1.6248
 5771SOL    HW228776   3.397   1.482   1.372 -1.4634 -0.4265 -2.3772
 5772SOL     OW28777   0.356   4.053   3.277 -0.3932  0.9913  0.1870
 5772SOL    HW128778   0.438   4.011   3.253  1.0342  2.4777  2.4639
 5772SOL    HW228779   0.303   4.055   3.197 -0.6069  0.9299  0.3288
 5773SOL     OW28780   0.630   1.443   8.876  0.2832  0.4830  0.4861
 5773SOL    HW128781   0.598   1.533   8.877  0.1801  0.4293  1.4996
 5773SOL    HW228782   0.703   1.445   8.814 -0.1256  0.0441 -0.0169
 5774SOL     OW28783   4.203   2.567   4.222  0.1279  0.2595  0.3867
 5774SOL    HW128784   4.191   2.536   4.312 -1.5718 -1.9606 -0.6073
 5774SOL    HW228785   4.287   2.529   4.200  0.5877  0.8169  1.1732
 5775SOL     OW28786   3.019   3.358   9.794  0.1346  0.6608 -0.6377
 5775SOL    HW128787   2.996   3.282   9.741  0.7934  0.6616 -0.9228
 5775SOL    HW228788   2.975   3.420   9.736  1.5615 -1.6383 -4.1441
 5776SOL     OW28789   1.243   2.492  15.327 -0.3307 -0.3169 -0.3751
 5776SOL    HW128790   1.312   2.543  15.284  0.6431 -0.1854  1.3522
 5776SOL    HW228791   1.193   2.564  15.366  1.2960 -0.0259  1.1722
 5777SOL     OW28792   1.998   4.040   7.654  0.2427 -0.1643 -0.0537
 5777SOL    HW128793   1.944   4.092   7.713 -0.0892 -0.3695 -0.1778
 5777SOL    HW228794   1.961   3.956   7.680 -1.4195  0.3081 -0.9092
 5778SOL     OW28795   0.261   3.531  14.016 -0.6966  0.1623 -0.2323
 5778SOL    HW128796   0.251   3.450  14.066 -1.5569  0.5905  0.2841
 5778SOL    HW228797   0.355   3.545  14.020 -0.7690  0.6423 -0.2214
 5779SOL     OW28798   0.334   3.123   8.076  1.0637 -0.0902  0.6933
 5779SOL    HW128799   0.295   3.041   8.045 -0.3941  1.2037 -0.8748
 5779SOL    HW228800   0.351   3.165   7.992  2.0488  0.7755  1.3290
 5780SOL     OW28801   2.280   3.490  14.981 -1.1775 -0.5707  0.1089
 5780SOL    HW128802   2.346   3.549  14.946  0.1587 -1.4908  1.0590
 5780SOL    HW228803   2.291   3.410  14.930  2.2676  0.4670 -0.7697
 5781SOL     OW28804   1.271   0.764   2.107  0.0114 -0.1107 -0.0339
 5781SOL    HW128805   1.296   0.834   2.168 -0.1324 -0.4252  0.3870
 5781SOL    HW228806   1.176   0.771   2.118 -0.1078  0.4427 -1.3525
 5782SOL     OW28807   1.678   3.473   6.960 -0.4179  0.5119  0.1005
 5782SOL    HW128808   1.600   3.476   7.016  1.5937  0.1459  2.9169
 5782SOL    HW228809   1.633   3.428   6.889  0.4610  1.2242 -0.8993
 5783SOL     OW28810   0.700   3.174   5.440  1.0588 -0.0652 -0.5112
 5783SOL    HW128811   0.622   3.151   5.391 -0.5854  0.2497  1.9670
 5783SOL    HW228812   0.720   3.081   5.451  0.9006 -0.0821 -0.3613
 5784SOL     OW28813   3.536   2.628  11.455 -0.5200  0.5484 -0.0256
 5784SOL    HW128814   3.555   2.613  11.548  0.2222 -0.3570 -0.3223
 5784SOL    HW228815   3.459   2.684  11.447 -0.7082 -0.1040 -2.8203
 5785SOL     OW28816   1.215   1.160   4.096  0.5828 -0.3159  0.0808
 5785SOL    HW128817   1.246   1.211   4.021  2.0547 -1.1664  0.1158
 5785SOL    HW228818   1.288   1.099   4.100  0.4376 -0.4883  0.0988
 5786SOL     OW28819   2.339   1.444   7.967 -0.1865 -0.5948  0.1827
 5786SOL    HW128820   2.354   1.377   7.900  1.5679 -1.8751  1.8406
 5786SOL    HW228821   2.410   1.506   7.953  0.3712 -0.9685  1.3308
 5787SOL     OW28822   2.522   4.561   9.303 -0.0735 -0.7883 -0.5364
 5787SOL    HW128823   2.485   4.475   9.286  0.3054 -1.2918  1.1962
 5787SOL    HW228824   2.601   4.538   9.352 -0.5313  0.7014  0.8929
 5788SOL     OW28825   2.934   4.252   3.853  0.3609 -0.1885  0.6072
 5788SOL    HW128826   2.888   4.294   3.780  0.2466  1.3150  1.5422
 5788SOL    HW228827   2.981   4.330   3.884  1.7944 -0.3907 -1.0582
 5789SOL     OW28828   0.641   2.739  17.335  0.5466 -0.1937  0.5448
 5789SOL    HW128829   0.648   2.695  17.250 -2.3128  0.0212  0.2121
 5789SOL    HW228830   0.711   2.804  17.328 -0.3117  0.8693  2.0483
 5790SOL     OW28831   3.168   4.298   3.527  0.3383  0.3632 -0.0333
 5790SOL    HW128832   3.123   4.299   3.442  0.1504 -3.4248  0.0204
 5790SOL    HW228833   3.122   4.233   3.579 -0.0893 -1.5313 -2.7853
 5791SOL     OW28834   3.913   1.045   6.592 -0.0344  0.0266  0.0359
 5791SOL    HW128835   3.965   0.988   6.648 -1.9489 -1.7075  0.0364
 5791SOL    HW228836   3.826   1.039   6.632 -1.1718  1.7415 -2.1591
 5792SOL     OW28837   0.902   3.507   8.916 -0.3420 -0.1360 -0.3232
 5792SOL    HW128838   0.982   3.516   8.866  0.3547  0.1078  0.8328
 5792SOL    HW228839   0.873   3.599   8.912 -0.4199 -0.3500 -4.2216
 5793SOL     OW28840   2.101   2.004   2.562 -0.2269  0.4287  0.5464
 5793SOL    HW128841   2.059   2.068   2.505  0.0611 -0.4907 -0.6947
 5793SOL    HW228842   2.059   2.033   2.644 -2.8402 -0.5255 -0.4594
 5794SOL     OW28843   3.117   0.140   7.753 -0.4194  0.1056  0.1809
 5794SOL    HW128844   3.206   0.171   7.743  0.8315 -3.7477 -0.7393
 5794SOL    HW228845   3.130   0.048   7.731  3.5723  0.3023  1.7984
 5795SOL     OW28846   4.225   0.547   7.556 -0.0520  0.9461  0.3302
 5795SOL    HW128847   4.176   0.477   7.513  0.8941  0.3456  0.2358
 5795SOL    HW228848   4.152   0.603   7.580  0.4524  0.2322  3.5821
 5796SOL     OW28849   1.365   2.817  11.930  0.0407  0.0930  0.6770
 5796SOL    HW128850   1.424   2.890  11.945 -0.7914  0.4019  2.4504
 5796SOL    HW228851   1.358   2.776  12.017 -2.4728 -4.1546 -1.5083
 5797SOL     OW28852   0.754   1.171  16.343  0.1964 -0.1941 -0.3027
 5797SOL    HW128853   0.741   1.133  16.430  1.6103 -1.3787 -0.6045
 5797SOL    HW228854   0.792   1.095  16.298 -0.1774  1.1323 -2.8913
 5798SOL     OW28855   2.670   1.431   7.745 -0.2825 -0.1219 -0.1264
 5798SOL    HW128856   2.602   1.383   7.793  0.3662 -2.4037 -1.4600
 5798SOL    HW228857   2.696   1.498   7.808  1.6465  0.2181 -1.3057
 5799SOL     OW28858   4.708   0.061   5.261  0.2294 -0.0560  0.1086
 5799SOL    HW128859   0.028   0.013   5.190  0.3086  2.0431 -1.2673
 5799SOL    HW228860   0.020   0.149   5.242 -0.8619  0.0762 -1.2565
 5800SOL     OW28861   4.269   0.190   2.514  0.5251  0.1737 -0.2150
 5800SOL    HW128862   4.279   0.103   2.473 -2.0738  0.6296 -1.7923
 5800SOL    HW228863   4.357   0.227   2.514 -0.0419  1.5146  0.3217
 5801SOL     OW28864   0.241   1.803   8.097 -0.4254  0.7572  0.1972
 5801SOL    HW128865   0.220   1.894   8.074 -1.0038  0.7956  0.8860
 5801SOL    HW228866   0.184   1.793   8.173  0.0653 -1.5306  0.2640
 5802SOL     OW28867   2.986   2.773   4.164  0.3637  0.4438 -0.7297
 5802SOL    HW128868   2.955   2.693   4.205  1.1263  1.0604  1.0498
 5802SOL    HW228869   2.973   2.764   4.070 -0.4567 -2.0077 -0.3835
 5803SOL     OW28870   3.325   3.010  13.133 -0.1009 -0.3982  0.3674
 5803SOL    HW128871   3.262   3.068  13.177  0.9893  0.6853  0.5087
 5803SOL    HW228872   3.264   2.954  13.086 -0.9876 -0.3231  1.4352
 5804SOL     OW28873   3.531   2.620   0.875  0.2392  0.7202 -0.0887
 5804SOL    HW128874   3.489   2.559   0.934  0.4955  0.0649 -0.5857
 5804SOL    HW228875   3.553   2.564   0.800  0.1772  0.6720 -0.0709
 5805SOL     OW28876   2.547   0.521   9.534  0.2189  0.7891  0.5920
 5805SOL    HW128877   2.563   0.529   9.440  0.0401 -0.7675  0.4381
 5805SOL    HW228878   2.511   0.608   9.550 -0.2040 -0.0136  4.0107
 5806SOL     OW28879   4.095   3.567   5.794  0.8863  0.3217 -0.0341
 5806SOL    HW128880   4.103   3.610   5.709  1.5676 -2.6536 -1.4862
 5806SOL    HW228881   4.127   3.480   5.768  1.3309 -0.0089  1.6257
 5807SOL     OW28882   2.595   2.215   3.428 -0.1244  0.3456  0.3978
 5807SOL    HW128883   2.555   2.186   3.511 -0.1143  1.9044  0.9351
 5807SOL    HW228884   2.515   2.214   3.375  0.3757  1.4725 -0.3604
 5808SOL     OW28885   3.222   2.955  17.502 -0.2312  0.1547 -0.0992
 5808SOL    HW128886   3.315   2.956  17.480 -0.4247  2.1365 -0.8262
 5808SOL    HW228887   3.182   2.885  17.450  1.0225 -1.1206  0.6306
 5809SOL     OW28888   2.599   1.226   1.167  0.4917  0.1285  0.4245
 5809SOL    HW128889   2.689   1.203   1.190  0.5262 -0.7675 -0.6099
 5809SOL    HW228890   2.552   1.161   1.220  1.6502  0.2546  1.6138
 5810SOL     OW28891   1.444   3.977   5.225 -0.1900  0.2113  0.0761
 5810SOL    HW128892   1.367   3.933   5.188  0.8650 -1.7448  0.2058
 5810SOL    HW228893   1.414   3.982   5.316  0.1097 -0.0107  0.1862
 5811SOL     OW28894   2.701   1.098  11.041 -0.3509  0.8163  0.7787
 5811SOL    HW128895   2.704   1.177  11.095 -1.0854  1.3821  0.0010
 5811SOL    HW228896   2.723   1.030  11.105  1.8691  1.4090  0.6474
 5812SOL     OW28897   4.597   3.735   2.347 -0.0637  0.6670  0.1190
 5812SOL    HW128898   4.582   3.698   2.434 -0.5219  2.0208  0.6218
 5812SOL    HW228899   4.693   3.738   2.356 -0.1327 -0.0063  1.0965
 5813SOL     OW28900   3.664   0.752  15.607 -0.5594  0.6182 -0.1359
 5813SOL    HW128901   3.656   0.848  15.607  1.6603  0.7955  1.4928
 5813SOL    HW228902   3.611   0.726  15.532 -1.8385 -0.6953  1.2256
 5814SOL     OW28903   2.759   3.384   0.791 -0.0488  0.3615  0.0586
 5814SOL    HW128904   2.670   3.394   0.825 -1.1207 -1.7719 -2.1501
 5814SOL    HW228905   2.771   3.291   0.811 -0.0293  0.4157  0.2976
 5815SOL     OW28906   0.758   1.532  17.231  0.1001  0.1411  0.4646
 5815SOL    HW128907   0.795   1.591  17.166  3.9298 -2.7502  0.0369
 5815SOL    HW228908   0.688   1.488  17.183  0.0249 -1.5591  2.1488
 5816SOL     OW28909   0.189   3.584   3.647 -0.2373 -0.2565  0.1449
 5816SOL    HW128910   0.262   3.635   3.612 -0.3325 -0.3669 -0.2131
 5816SOL    HW228911   0.156   3.545   3.566  0.1723 -0.2737 -0.0147
 5817SOL     OW28912   3.129   0.097  13.222  0.4281 -1.0222  0.0980
 5817SOL    HW128913   3.194   0.160  13.255  1.4529 -2.0808  0.1248
 5817SOL    HW228914   3.159   0.084  13.132  0.9542 -1.9095  0.3966
 5818SOL     OW28915   0.659   1.063  13.970  0.2612 -0.2185  0.0523
 5818SOL    HW128916   0.563   1.057  13.978  0.1144 -0.2974 -1.8405
 5818SOL    HW228917   0.679   1.020  14.053 -1.2588 -0.3787  0.3476
 5819SOL     OW28918   0.509   1.046   8.432  0.3240 -0.0550 -0.4750
 5819SOL    HW128919   0.572   1.113   8.457 -1.4143  2.1477 -1.9451
 5819SOL    HW228920   0.431   1.102   8.428 -0.6116 -1.2318  1.6470
 5820SOL     OW28921   2.593   3.754   8.381  0.2492 -0.5679 -0.3602
 5820SOL    HW128922   2.615   3.847   8.382  0.4805 -0.6150 -1.4168
 5820SOL    HW228923   2.533   3.744   8.307 -0.6085  0.0121  0.2529
 5821SOL     OW28924   4.209   0.980   5.416 -0.5511 -0.2989 -0.3136
 5821SOL    HW128925   4.295   0.966   5.454  0.2000  0.6995 -1.6404
 5821SOL    HW228926   4.192   0.894   5.377  0.3935 -0.3592 -0.5895
 5822SOL     OW28927   1.163   4.614  13.452  0.2233 -0.6213  0.2531
 5822SOL    HW128928   1.119   4.691  13.487 -0.5025  0.6054 -3.3767
 5822SOL    HW228929   1.121   4.537  13.489  0.8122 -0.6977  0.7697
 5823SOL     OW28930   3.060   0.764   2.751  0.5319 -0.6416  0.0786
 5823SOL    HW128931   2.990   0.718   2.704 -0.8941  1.2430  0.3404
 5823SOL    HW228932   3.099   0.693   2.802  2.2023  1.0585  1.1803
 5824SOL     OW28933   3.573   0.826  11.467  0.5163 -0.0681 -0.3764
 5824SOL    HW128934   3.600   0.905  11.419  0.0948  0.7902  0.8132
 5824SOL    HW228935   3.483   0.820  11.434  0.7732 -1.6334 -0.8039
 5825SOL     OW28936   0.486   3.249   2.980  0.1467 -0.2453  0.4077
 5825SOL    HW128937   0.503   3.193   3.056 -1.7737 -0.8818  0.3593
 5825SOL    HW228938   0.547   3.220   2.911  0.0567 -0.6029  0.4763
 5826SOL     OW28939   1.029   0.134  13.341  0.2079  0.1558  0.6792
 5826SOL    HW128940   0.934   0.137  13.354  0.1376 -0.1159  0.2245
 5826SOL    HW228941   1.034   0.089  13.256 -0.5232  0.7290  0.3235
 5827SOL     OW28942   0.972   1.170   3.357 -0.5930 -0.2308  0.4789
 5827SOL    HW128943   1.002   1.081   3.375 -0.7029 -0.4834 -0.5855
 5827SOL    HW228944   0.917   1.155   3.280 -1.1130 -0.7508  0.9527
 5828SOL     OW28945   3.455   4.341   6.633 -0.1133  0.0618  0.6150
 5828SOL    HW128946   3.502   4.382   6.560 -1.0374  0.2215  0.0949
 5828SOL    HW228947   3.371   4.312   6.597  0.9482 -1.9688 -0.2255
 5829SOL     OW28948   1.022   0.790  15.146  0.0692  0.5309  0.0907
 5829SOL    HW128949   1.110   0.822  15.167  0.2131  0.5980 -0.6118
 5829SOL    HW228950   0.983   0.835  15.221 -0.1885 -1.8812  1.4070
 5830SOL     OW28951   0.839   3.656  15.257 -0.1173  0.1822  0.4337
 5830SOL    HW128952   0.853   3.730  15.199 -3.3929 -0.1528 -0.7889
 5830SOL    HW228953   0.743   3.656  15.257 -0.1125 -0.9518  0.2385
 5831SOL     OW28954   1.631   1.234   2.322 -0.9810  0.3180  0.3106
 5831SOL    HW128955   1.656   1.192   2.404 -1.0786  1.3060  0.8495
 5831SOL    HW228956   1.617   1.156   2.270 -0.2258 -0.8643  1.8772
 5832SOL     OW28957   0.268   1.323  10.219  0.1963 -0.0394  0.1622
 5832SOL    HW128958   0.277   1.302  10.126 -0.4238 -0.2299  0.1455
 5832SOL    HW228959   0.182   1.288  10.243  0.4313  1.0812  2.6333
 5833SOL     OW28960   1.120   3.320  15.211  0.4887  0.2990  0.2185
 5833SOL    HW128961   1.067   3.393  15.177  1.5078  1.3460  0.9075
 5833SOL    HW228962   1.057   3.248  15.217  1.1922 -0.1401  2.0530
 5834SOL     OW28963   1.211   2.883   4.668  0.1576 -0.5468  0.1282
 5834SOL    HW128964   1.261   2.802   4.658  2.1039  0.4452  1.7109
 5834SOL    HW228965   1.156   2.876   4.590  1.2019 -0.0479 -0.6588
 5835SOL     OW28966   2.012   1.592  14.706 -0.6657 -0.6119  0.5182
 5835SOL    HW128967   1.977   1.523  14.650  1.2877 -2.1263  1.1722
 5835SOL    HW228968   1.935   1.645  14.724 -2.3683 -2.8189 -0.2780
 5836SOL     OW28969   1.795   3.423   8.120  0.0205 -0.3791 -0.5981
 5836SOL    HW128970   1.706   3.450   8.145  0.1824  1.0181 -1.5402
 5836SOL    HW228971   1.777   3.332   8.096 -3.3224 -0.0249  0.4505
 5837SOL     OW28972   3.145   0.802   6.291 -0.0313 -0.2860  0.6258
 5837SOL    HW128973   3.221   0.798   6.350  1.2007 -2.1660 -1.1088
 5837SOL    HW228974   3.081   0.842   6.350  0.1049 -0.0003  0.5791
 5838SOL     OW28975   4.369   1.165  17.075 -0.1238 -0.8024  0.1823
 5838SOL    HW128976   4.362   1.143  16.982 -1.2696  0.3387 -0.0049
 5838SOL    HW228977   4.284   1.135  17.104 -1.0553  1.2178 -0.4181
 5839SOL     OW28978   1.384   4.378   1.103 -0.4378  0.7518  0.7538
 5839SOL    HW128979   1.424   4.386   1.190  0.7339 -2.5812  0.4936
 5839SOL    HW228980   1.430   4.447   1.054  0.4934  0.6906  1.5460
 5840SOL     OW28981   1.414   4.328   7.197  0.0077 -0.2903 -0.0045
 5840SOL    HW128982   1.441   4.275   7.123  1.4509  0.2176  0.1650
 5840SOL    HW228983   1.492   4.325   7.252  1.2779  3.5810 -1.6273
 5841SOL     OW28984   0.062   2.714  10.371 -0.7925  0.3964  0.0203
 5841SOL    HW128985   4.710   2.665  10.408 -1.3755  0.8911 -0.4779
 5841SOL    HW228986   0.078   2.674  10.285 -0.0988  1.4489 -0.3384
 5842SOL     OW28987   4.150   3.377  16.908  0.1641 -0.1894  0.0722
 5842SOL    HW128988   4.143   3.454  16.964  2.0928  0.4595 -0.5763
 5842SOL    HW228989   4.224   3.336  16.955  0.6381  0.2491 -0.2956
 5843SOL     OW28990   3.929   4.296   3.596  0.1364 -0.1826 -0.1349
 5843SOL    HW128991   3.939   4.227   3.662  1.6001 -0.6885 -0.8773
 5843SOL    HW228992   3.855   4.263   3.545  0.6179 -0.2939 -0.7541
 5844SOL     OW28993   0.920   0.269   7.431  0.0448  0.6557  0.4146
 5844SOL    HW128994   0.996   0.311   7.471  0.5806  1.0215 -0.9772
 5844SOL    HW228995   0.873   0.258   7.514  0.1593 -3.0081 -0.0182
 5845SOL     OW28996   4.502   1.981  10.532 -0.2356  0.6140  0.1620
 5845SOL    HW128997   4.571   1.980  10.465  0.7343 -1.9444  1.1915
 5845SOL    HW228998   4.456   1.898  10.518 -1.7433  1.8030 -1.9630
 5846SOL     OW28999   0.531   3.931   8.775 -0.5050 -0.3047  0.0864
 5846SOL    HW129000   0.473   3.985   8.828 -1.3345  0.4449 -1.5721
 5846SOL    HW229001   0.600   3.987   8.738  0.3498 -2.5450 -1.7172
 5847SOL     OW29002   2.821   4.681  15.666 -0.1098  0.5514  0.0762
 5847SOL    HW129003   2.735   4.721  15.675  0.4769  1.5415  1.3166
 5847SOL    HW229004   2.855   4.671  15.755 -0.5401  0.5902  0.2443
 5848SOL     OW29005   3.234   1.169   7.819  0.5863  0.2309 -0.2925
 5848SOL    HW129006   3.179   1.092   7.834  0.9932  0.0270  0.1459
 5848SOL    HW229007   3.250   1.210   7.904 -1.6603  2.0881 -0.7517
 5849SOL     OW29008   2.233   0.705   8.486  0.2603  0.2809  0.3718
 5849SOL    HW129009   2.251   0.737   8.398 -3.3548 -1.6382 -1.0638
 5849SOL    HW229010   2.148   0.661   8.476  1.1291 -1.6124  1.3748
 5850SOL     OW29011   4.469   3.109  13.567 -0.5717  0.6259 -0.1979
 5850SOL    HW129012   4.379   3.140  13.567 -0.6133  0.5071  0.8411
 5850SOL    HW229013   4.512   3.190  13.594 -1.7605  1.5889 -1.1748
 5851SOL     OW29014   3.447   3.210   2.571  0.1930  0.1229 -0.0051
 5851SOL    HW129015   3.416   3.248   2.489  0.5057 -0.1545 -0.2456
 5851SOL    HW229016   3.400   3.268   2.632  1.2987  0.2973  0.6929
 5852SOL     OW29017   0.197   1.220   0.930  0.0823 -0.1459  0.3087
 5852SOL    HW129018   0.276   1.264   0.959 -0.3756  1.4813 -0.9308
 5852SOL    HW229019   0.225   1.130   0.912 -1.5755 -0.4440 -0.8646
 5853SOL     OW29020   3.931   1.669  13.454 -0.0015  0.5718  0.5911
 5853SOL    HW129021   3.869   1.598  13.473 -0.5836  0.2299 -2.6407
 5853SOL    HW229022   3.883   1.721  13.390  0.1555  0.8863  0.7316
 5854SOL     OW29023   3.928   3.280   6.814  0.3054 -0.1188 -0.6739
 5854SOL    HW129024   3.900   3.303   6.902  1.5605 -1.1628 -0.0108
 5854SOL    HW229025   3.865   3.322   6.754 -1.3608  0.8994  1.7710
 5855SOL     OW29026   0.112   4.618  12.572  0.2971  0.2593  0.1064
 5855SOL    HW129027   0.047   4.683  12.597 -2.1149 -2.8743  2.0346
 5855SOL    HW229028   0.183   4.661  12.620  0.8336 -1.2175  0.6368
 5856SOL     OW29029   1.611   1.628   2.720  0.0032 -0.0292 -0.1451
 5856SOL    HW129030   1.584   1.580   2.641 -0.0931  1.0465 -0.7788
 5856SOL    HW229031   1.522   1.653   2.745 -0.0860 -1.2694  0.7449
 5857SOL     OW29032   3.761   0.278  13.549  0.3170 -0.1291 -0.7825
 5857SOL    HW129033   3.686   0.260  13.606 -0.2675 -1.7824 -2.0950
 5857SOL    HW229034   3.755   0.370  13.523 -1.0603 -0.4518 -1.5818
 5858SOL     OW29035   2.709   2.973   1.732 -0.1369  0.1924  0.2763
 5858SOL    HW129036   2.696   2.976   1.637  0.0544 -0.1924  0.2345
 5858SOL    HW229037   2.794   3.018   1.728  1.0201 -1.8518  1.2955
 5859SOL     OW29038   1.610   2.193   9.387  0.2766  0.6037 -0.1913
 5859SOL    HW129039   1.621   2.189   9.292  0.6563  0.7651 -0.1573
 5859SOL    HW229040   1.685   2.144   9.419 -0.7881 -1.0724 -0.3018
 5860SOL     OW29041   0.613   2.689   6.686 -0.1755 -0.2662  0.0844
 5860SOL    HW129042   0.531   2.738   6.698 -0.0244  0.6037 -2.5526
 5860SOL    HW229043   0.681   2.756   6.692 -0.7370  0.1830  1.4665
 5861SOL     OW29044   0.633   3.446   2.184 -0.4703  0.1341  0.2776
 5861SOL    HW129045   0.644   3.367   2.237  0.0265  0.1325  0.1766
 5861SOL    HW229046   0.610   3.513   2.247 -3.6819 -1.1771  0.4850
 5862SOL     OW29047   3.380   1.951   1.952 -0.6794  0.0213  0.3387
 5862SOL    HW129048   3.451   1.886   1.947  0.9402  1.8173  0.0511
 5862SOL    HW229049   3.383   1.990   1.865 -2.7936 -0.9290 -0.1530
 5863SOL     OW29050   2.168   3.016   8.990  0.0600  0.2220  0.3785
 5863SOL    HW129051   2.180   2.965   9.069 -1.3297  0.7543  0.9372
 5863SOL    HW229052   2.103   3.077   9.026 -0.8705 -0.2831 -0.4147
 5864SOL     OW29053   4.537   1.979  16.721  0.1865  0.3127 -0.4244
 5864SOL    HW129054   4.471   2.048  16.716 -1.5161 -1.1920  0.8887
 5864SOL    HW229055   4.623   2.019  16.731 -0.3768  1.5376 -0.5253
 5865SOL     OW29056   4.419   3.556   6.337 -0.5511 -0.0232 -0.1951
 5865SOL    HW129057   4.366   3.478   6.325  1.7995 -1.8916  1.5798
 5865SOL    HW229058   4.506   3.520   6.316 -0.8522 -1.7818  1.6344
 5866SOL     OW29059   3.306   2.755  15.892 -0.4800  0.2091  0.6063
 5866SOL    HW129060   3.241   2.685  15.891 -1.2150  0.8536  3.9872
 5866SOL    HW229061   3.261   2.838  15.902 -0.2471  0.3992  0.0882
 5867SOL     OW29062   4.687   4.655   3.563 -0.0011  0.4269 -0.2361
 5867SOL    HW129063   4.716   4.628   3.650 -2.3837 -0.3694  0.3218
 5867SOL    HW229064   4.676   0.028   3.570  2.2381  0.6386  0.2426
 5868SOL     OW29065   4.203   0.176   7.210 -0.5298  0.2693 -0.0361
 5868SOL    HW129066   4.234   0.207   7.125 -1.4482  0.7471 -0.1878
 5868SOL    HW229067   4.285   0.147   7.250 -0.5431  0.3461  0.0476
 5869SOL     OW29068   1.194   2.840   8.881  0.2779 -0.0189  0.7353
 5869SOL    HW129069   1.219   2.804   8.796  0.7351 -0.8742  1.2250
 5869SOL    HW229070   1.156   2.925   8.857  1.6800 -0.1495 -2.0118
 5870SOL     OW29071   3.298   2.203   3.671 -0.1154  0.1138 -0.2899
 5870SOL    HW129072   3.244   2.132   3.704 -0.1406  0.3103  0.0875
 5870SOL    HW229073   3.235   2.267   3.635 -0.7514 -0.2612  0.1638
 5871SOL     OW29074   3.348   3.580   2.722  0.0812 -0.0457  0.0983
 5871SOL    HW129075   3.332   3.594   2.629 -1.1301 -2.3879 -0.0355
 5871SOL    HW229076   3.339   3.485   2.727 -0.7326  0.0663  0.9159
 5872SOL     OW29077   1.749   3.442   7.741  1.1274  0.2334  0.1020
 5872SOL    HW129078   1.815   3.455   7.809  0.2768  1.3890  0.6993
 5872SOL    HW229079   1.801   3.385   7.684  0.1355 -2.5513  1.9623
 5873SOL     OW29080   0.308   0.045   2.251 -0.1925  0.2350  1.2174
 5873SOL    HW129081   0.336   0.027   2.341  1.0324 -3.5532  0.0693
 5873SOL    HW229082   0.364   4.707   2.202 -0.0176  2.0392 -0.7579
 5874SOL     OW29083   2.337   0.998   4.452  0.2505  0.5182  0.4700
 5874SOL    HW129084   2.413   0.994   4.394  0.2966  0.1740  0.5535
 5874SOL    HW229085   2.371   1.030   4.536 -0.4376  0.9483  0.5841
 5875SOL     OW29086   2.699   3.826  16.796 -0.1664  0.6098 -0.4319
 5875SOL    HW129087   2.612   3.866  16.792 -0.0347  1.0477  1.0534
 5875SOL    HW229088   2.680   3.736  16.825 -0.6098  1.0867  0.7758
 5876SOL     OW29089   2.478   1.969   6.353  0.3448  0.0638 -0.0932
 5876SOL    HW129090   2.559   1.977   6.403 -0.5300  0.9189  1.1722
 5876SOL    HW229091   2.473   1.874   6.342  1.1624 -0.0258  0.2877
 5877SOL     OW29092   2.593   2.751   5.823  0.0549  0.3982 -0.2272
 5877SOL    HW129093   2.563   2.813   5.756 -0.1628  0.8196  0.2590
 5877SOL    HW229094   2.523   2.753   5.889  0.4472  4.7019  0.0512
 5878SOL     OW29095   0.212   1.619  11.094 -0.5339  0.4638 -0.4441
 5878SOL    HW129096   0.225   1.632  11.188 -2.4657  1.8768 -0.3713
 5878SOL    HW229097   0.257   1.535  11.091 -2.7339 -0.6906 -1.1782
 5879SOL     OW29098   1.538   0.449   3.974 -0.2817  0.2273 -0.2404
 5879SOL    HW129099   1.540   0.489   4.061 -0.1238 -2.6100  1.0781
 5879SOL    HW229100   1.456   0.484   3.939 -0.4366 -0.8679 -0.9700
 5880SOL     OW29101   2.398   1.360   4.096 -0.2592  0.0908 -0.4707
 5880SOL    HW129102   2.471   1.345   4.035  0.2150  0.4239  0.0190
 5880SOL    HW229103   2.368   1.269   4.103  1.1271 -0.5468 -2.6926
 5881SOL     OW29104   0.386   1.022   8.035 -0.2744 -0.5485 -0.0121
 5881SOL    HW129105   0.295   0.995   8.040 -0.8518  1.8162  2.3321
 5881SOL    HW229106   0.384   1.109   8.076 -1.4388 -0.9421  0.7505
 5882SOL     OW29107   2.121   4.643   3.987 -0.1619 -0.7610  0.0581
 5882SOL    HW129108   2.054   4.575   3.980  2.9249 -3.5726 -2.4227
 5882SOL    HW229109   2.103   4.667   4.077  2.5164 -0.9182  0.6301
 5883SOL     OW29110   0.005   2.416   5.284  0.5289 -0.3907  0.2482
 5883SOL    HW129111   0.071   2.484   5.272  0.0699  0.0728  0.3577
 5883SOL    HW229112   4.649   2.472   5.276  2.5477  2.2133 -1.1291
 5884SOL     OW29113   1.443   1.892   3.369  0.7650 -0.9513  0.0841
 5884SOL    HW129114   1.487   1.891   3.454  4.5873  0.1495 -1.8939
 5884SOL    HW229115   1.493   1.955   3.317  1.4643 -0.9073  0.8132
 5885SOL     OW29116   1.286   2.835   6.509 -0.1101  0.1764  0.2910
 5885SOL    HW129117   1.340   2.756   6.516 -3.3718 -2.2579 -1.9882
 5885SOL    HW229118   1.265   2.830   6.602 -0.2681 -0.0703  0.2436
 5886SOL     OW29119   0.659   0.479   5.434  0.6170  0.2625  0.2075
 5886SOL    HW129120   0.616   0.547   5.486  0.5972  2.3338 -2.4972
 5886SOL    HW229121   0.721   0.538   5.390  0.2954  0.3544 -0.1289
 5887SOL     OW29122   3.386   0.037   8.064  0.2696  0.5384  0.1331
 5887SOL    HW129123   3.340   0.121   8.058 -0.0159  0.5682  2.7172
 5887SOL    HW229124   3.315   4.705   8.100 -0.7447  1.6389 -0.2072
 5888SOL     OW29125   3.957   1.012  14.455  0.1884  0.1141  0.3440
 5888SOL    HW129126   4.053   1.019  14.456  0.1313  0.9395 -1.0281
 5888SOL    HW229127   3.944   1.016  14.361 -0.3248 -1.7203  0.3269
 5889SOL     OW29128   1.758   1.655   8.590  0.6237  0.4611  0.2251
 5889SOL    HW129129   1.711   1.631   8.670 -1.2168 -1.3090 -1.3775
 5889SOL    HW229130   1.705   1.720   8.544  2.7228  0.9067 -1.5592
 5890SOL     OW29131   4.696   2.103   0.697 -0.8234  0.4581 -0.4822
 5890SOL    HW129132   4.628   2.066   0.754  0.4185  1.2826  1.5268
 5890SOL    HW229133   4.666   2.194   0.697 -0.2258  0.6495  0.2952
 5891SOL     OW29134   4.247   1.125   4.273 -0.3498 -0.8023  0.0433
 5891SOL    HW129135   4.159   1.149   4.300 -0.3721 -0.0550 -0.6790
 5891SOL    HW229136   4.254   1.045   4.326 -1.0545 -0.4380  0.6797
 5892SOL     OW29137   2.696   2.338   6.310 -0.5285 -0.2110 -0.4640
 5892SOL    HW129138   2.619   2.319   6.257 -1.1644 -0.4675  0.5661
 5892SOL    HW229139   2.740   2.258   6.282 -0.7730 -0.3327 -0.4953
 5893SOL     OW29140   3.220   4.314   4.685  0.2570  0.0460  0.1279
 5893SOL    HW129141   3.214   4.366   4.605 -1.0939  0.1091  0.2694
 5893SOL    HW229142   3.285   4.251   4.652 -0.5440 -0.8067  0.1721
 5894SOL     OW29143   0.964   2.928  11.363  0.2970 -0.1767  0.3715
 5894SOL    HW129144   0.993   2.915  11.453 -0.1615  0.9008  0.6780
 5894SOL    HW229145   1.023   2.877  11.308  0.7777  0.4951  0.2746
 5895SOL     OW29146   0.666   0.029  14.931 -0.4366 -0.4346 -0.8648
 5895SOL    HW129147   0.590   4.696  14.912  1.0965 -2.6109 -0.7469
 5895SOL    HW229148   0.678   0.095  14.862 -0.4783 -1.7276 -2.0975
 5896SOL     OW29149   3.149   1.067   2.837  0.0222  0.0337  0.2325
 5896SOL    HW129150   3.104   1.088   2.919 -1.0187  0.5880 -0.4856
 5896SOL    HW229151   3.206   1.143   2.829 -1.0359  0.7454 -0.4937
 5897SOL     OW29152   1.679   2.014   8.833 -0.2374  0.5975 -0.0451
 5897SOL    HW129153   1.637   2.100   8.830 -0.7124  0.3265 -1.1375
 5897SOL    HW229154   1.727   2.016   8.751  0.9525 -1.6374  0.6222
 5898SOL     OW29155   2.456   0.264   9.505 -0.4606  0.8521 -0.1870
 5898SOL    HW129156   2.479   0.353   9.531 -1.5359  1.0417  0.0874
 5898SOL    HW229157   2.497   0.200   9.564 -0.4187  0.4312 -0.6650
 5899SOL     OW29158   2.640   0.779   6.407  0.0372  0.0891  0.0241
 5899SOL    HW129159   2.636   0.698   6.457 -0.4246 -0.4492 -0.8727
 5899SOL    HW229160   2.711   0.829   6.447 -0.6065 -0.0184  1.3029
 5900SOL     OW29161   2.378   3.360  10.065  0.4955 -0.0099  0.2563
 5900SOL    HW129162   2.430   3.288  10.100  0.5240 -0.0954  0.0417
 5900SOL    HW229163   2.311   3.365  10.133 -0.1401 -1.6965 -0.2443
 5901SOL     OW29164   3.114   0.988   9.205  0.1541  0.0561  0.1801
 5901SOL    HW129165   3.137   0.944   9.123 -0.5596  0.7028 -0.3682
 5901SOL    HW229166   3.028   0.949   9.222  1.2518 -2.6546 -0.5326
 5902SOL     OW29167   1.665   2.055  14.820 -0.6706  0.2031  0.0775
 5902SOL    HW129168   1.749   2.035  14.862 -1.2563  1.3408  1.7851
 5902SOL    HW229169   1.605   2.064  14.894 -1.7233 -3.9803 -0.2702
 5903SOL     OW29170   1.679   0.689  10.093  0.1047  0.6101  0.3916
 5903SOL    HW129171   1.761   0.640  10.089  0.9382  1.9872  0.4621
 5903SOL    HW229172   1.621   0.624  10.054  1.9871  0.3301 -1.9470
 5904SOL     OW29173   4.474   1.402  17.194  0.2272  0.1984 -0.5315
 5904SOL    HW129174   4.473   1.461  17.118 -0.0955 -0.1515 -0.7974
 5904SOL    HW229175   4.452   1.315  17.162 -0.5392  0.1328  0.1642
 5905SOL     OW29176   0.997   0.926  12.398 -0.6726 -0.6069 -0.1517
 5905SOL    HW129177   0.913   0.931  12.443 -0.2404 -0.8891  0.6920
 5905SOL    HW229178   0.965   0.905  12.310 -0.9375  1.2332 -0.4766
 5906SOL     OW29179   0.194   3.224   9.954 -0.0102 -0.1032  0.3718
 5906SOL    HW129180   0.135   3.247   9.882  0.1081 -1.7235 -0.2260
 5906SOL    HW229181   0.149   3.158  10.006  0.9394 -0.6311  0.5314
 5907SOL     OW29182   1.571   3.781   7.422 -0.2784 -0.1555  0.3589
 5907SOL    HW129183   1.525   3.697   7.428 -0.6601 -0.0847 -1.6568
 5907SOL    HW229184   1.593   3.786   7.515  0.3662 -0.2836  0.2070
 5908SOL     OW29185   4.131   3.615  17.052  0.3315  0.2932 -0.1463
 5908SOL    HW129186   4.052   3.639  17.004 -0.9301 -1.8730  0.8300
 5908SOL    HW229187   4.166   3.699  17.081  0.4622  0.5352 -1.0185
 5909SOL     OW29188   0.016   4.611   8.209  0.3140  0.0604 -0.0450
 5909SOL    HW129189   0.077   4.642   8.276 -0.5999  0.3516  0.6491
 5909SOL    HW229190   4.712   4.526   8.243  0.3816  0.1812  0.3076
 5910SOL     OW29191   1.513   3.264   7.478 -0.0512 -0.4632 -0.2057
 5910SOL    HW129192   1.577   3.202   7.444 -0.8007 -0.3997 -1.7373
 5910SOL    HW229193   1.438   3.222   7.436 -1.1797  0.2913  1.0769
 5911SOL     OW29194   1.317   3.853   4.407 -0.0557  0.3669  0.4196
 5911SOL    HW129195   1.238   3.862   4.354 -0.7086  2.4116  1.7387
 5911SOL    HW229196   1.299   3.889   4.494  2.7074  1.2168  0.6331
 5912SOL     OW29197   1.607   1.367   4.237 -0.5522  0.4207  0.1770
 5912SOL    HW129198   1.664   1.290   4.238 -2.1159 -0.7892 -2.1679
 5912SOL    HW229199   1.579   1.382   4.327  0.3946  0.2316  0.5105
 5913SOL     OW29200   0.693   4.119   2.993  0.0573 -0.2496 -0.9736
 5913SOL    HW129201   0.658   4.208   2.996 -0.4376 -0.4377 -1.1035
 5913SOL    HW229202   0.775   4.139   2.948  1.0774 -2.9209 -0.2988
 5914SOL     OW29203   1.973   1.060   8.416  0.1809  0.3460  0.0546
 5914SOL    HW129204   2.058   1.061   8.460  0.3279 -0.0703 -0.2223
 5914SOL    HW229205   1.954   0.968   8.433  0.9953  0.0542 -0.6221
 5915SOL     OW29206   1.021   0.685   7.552 -0.1314  0.7118  0.2333
 5915SOL    HW129207   0.961   0.759   7.557 -0.0569  0.9580 -2.5461
 5915SOL    HW229208   1.014   0.649   7.464 -0.4611 -0.6867  0.8257
 5916SOL     OW29209   2.336   0.022  10.071  0.0306 -0.2961 -0.1253
 5916SOL    HW129210   2.249   4.718  10.101  0.0939 -1.7663 -1.1981
 5916SOL    HW229211   2.346   4.705   9.984 -0.1628 -0.2486 -0.1678
 5917SOL     OW29212   1.361   4.515   4.587 -0.0639 -0.8265 -0.0766
 5917SOL    HW129213   1.280   4.487   4.631 -1.8902  1.8173 -1.7647
 5917SOL    HW229214   1.408   4.559   4.658 -0.7280  1.4661 -1.0579
 5918SOL     OW29215   3.087   1.226   4.853 -0.0762  0.0412 -0.7269
 5918SOL    HW129216   3.018   1.267   4.801 -0.8169 -1.1709 -0.6836
 5918SOL    HW229217   3.110   1.153   4.796  0.6786 -0.4915  0.2507
 5919SOL     OW29218   2.847   0.413   2.309  0.1492  0.4247 -0.2898
 5919SOL    HW129219   2.911   0.416   2.238 -1.2481 -3.3307 -1.6731
 5919SOL    HW229220   2.907   0.421   2.384  2.5928 -1.0413 -2.0971
 5920SOL     OW29221   0.724   3.110   3.128  0.4928  0.1287 -0.4969
 5920SOL    HW129222   0.706   3.126   3.035  1.6026  1.8557 -0.4051
 5920SOL    HW229223   0.801   3.054   3.120  0.7403  0.2562  1.0092
 5921SOL     OW29224   2.251   3.233   3.258 -0.2808  0.0961 -0.1724
 5921SOL    HW129225   2.194   3.171   3.303  0.5682 -0.6907 -0.1994
 5921SOL    HW229226   2.183   3.289   3.221  0.1053  0.2891 -0.5909
 5922SOL     OW29227   2.455   3.278   8.803 -0.1470  0.2305 -0.1948
 5922SOL    HW129228   2.457   3.202   8.861  0.3119 -0.5805 -1.2663
 5922SOL    HW229229   2.450   3.233   8.719  2.8759  0.2885 -0.3910
 5923SOL     OW29230   3.548   3.773  11.241 -0.0501  0.5823 -0.0253
 5923SOL    HW129231   3.540   3.684  11.206 -0.7788  0.7973 -0.4164
 5923SOL    HW229232   3.609   3.761  11.314 -1.9240 -0.8573  1.3247
 5924SOL     OW29233   2.970   4.601   4.790  0.3408  0.1761 -0.2241
 5924SOL    HW129234   2.934   4.578   4.876  0.1003  1.4526  0.0213
 5924SOL    HW229235   2.944   4.691   4.773 -2.7092 -0.5491  0.4047
 5925SOL     OW29236   2.957   0.704   5.628  0.3262 -0.2034  0.7435
 5925SOL    HW129237   3.005   0.727   5.707  0.1162  0.1024  0.7822
 5925SOL    HW229238   3.029   0.689   5.566 -1.2452  0.3153 -1.2247
 5926SOL     OW29239   1.976   0.993   8.795 -0.1788 -0.0451 -0.1318
 5926SOL    HW129240   2.035   0.963   8.726 -1.0164 -0.9766 -0.4397
 5926SOL    HW229241   1.907   1.033   8.741  1.0461  0.9622 -0.9571
 5927SOL     OW29242   4.445   0.787  13.474 -0.1727 -0.0479 -0.0437
 5927SOL    HW129243   4.400   0.722  13.528  0.5732 -0.8826 -0.4091
 5927SOL    HW229244   4.369   0.844  13.468  0.6344  1.1110  0.8705
 5928SOL     OW29245   0.522   3.101  10.656 -0.3694  1.2161 -0.5388
 5928SOL    HW129246   0.551   3.147  10.734  1.7834 -1.1975  0.1032
 5928SOL    HW229247   0.447   3.059  10.697  1.5890 -0.9816  0.8121
 5929SOL     OW29248   2.841   2.990  14.221  0.4050 -0.3494 -0.6306
 5929SOL    HW129249   2.863   2.968  14.130 -0.2709 -0.4834 -0.7622
 5929SOL    HW229250   2.921   2.957  14.261  0.7648 -0.1422 -1.1692
 5930SOL     OW29251   2.148   1.660   6.078  0.1426 -0.5018  0.1768
 5930SOL    HW129252   2.145   1.749   6.044 -1.2818 -0.6205 -0.0155
 5930SOL    HW229253   2.239   1.639   6.059  0.5561 -0.6272  2.2884
 5931SOL     OW29254   2.125   3.739   8.452  0.1770 -0.5781 -0.0189
 5931SOL    HW129255   2.132   3.832   8.472 -0.3759 -0.5624  0.0781
 5931SOL    HW229256   2.152   3.732   8.360 -0.2795 -0.0963 -0.1874
 5932SOL     OW29257   4.699   2.854   7.756  0.0369 -0.0787 -0.3677
 5932SOL    HW129258   0.029   2.890   7.829  0.6664 -0.2278 -0.7411
 5932SOL    HW229259   4.653   2.931   7.723 -1.3341  0.0790  1.8771
 5933SOL     OW29260   2.762   1.604  11.407 -0.1960 -0.4876 -0.2102
 5933SOL    HW129261   2.731   1.658  11.479 -0.9363 -1.6201  0.3284
 5933SOL    HW229262   2.830   1.552  11.449  1.3074  0.7926 -1.0814
 5934SOL     OW29263   4.570   0.444   0.201 -0.3734  0.7749  0.5157
 5934SOL    HW129264   4.573   0.523   0.147 -1.0248 -0.5622 -1.4700
 5934SOL    HW229265   4.550   0.380   0.134  1.7622  1.0863 -0.4226
 5935SOL     OW29266   3.642   3.932   6.851 -0.5040  0.0837  0.6530
 5935SOL    HW129267   3.616   4.022   6.834 -1.0455 -0.2755 -0.4185
 5935SOL    HW229268   3.734   3.944   6.876 -0.4716  1.2367 -0.0233
 5936SOL     OW29269   1.050   0.148   5.005 -0.4987  0.3979 -0.3255
 5936SOL    HW129270   1.107   0.078   4.973  0.3855  0.6706  0.6318
 5936SOL    HW229271   1.010   0.093   5.073  0.0612 -0.1570 -0.4447
 5937SOL     OW29272   0.833   2.307   7.792  0.5209 -0.2242  0.2328
 5937SOL    HW129273   0.794   2.387   7.756 -0.8008 -1.3932 -0.9180
 5937SOL    HW229274   0.754   2.253   7.787  0.0167  0.6222 -0.9179
 5938SOL     OW29275   2.628   3.422   5.114 -0.2130 -0.1235  0.0365
 5938SOL    HW129276   2.538   3.445   5.090  0.1494  0.9802 -0.2306
 5938SOL    HW229277   2.641   3.341   5.064 -0.7377  0.2263 -0.6673
 5939SOL     OW29278   4.674   0.755   9.740 -0.1239  0.1867  0.0648
 5939SOL    HW129279   4.658   0.669   9.700  3.7682  0.6430 -2.5567
 5939SOL    HW229280   4.610   0.766   9.809 -1.0948  0.8364 -0.9411
 5940SOL     OW29281   4.334   1.285   9.169  0.3455  0.8632  0.0734
 5940SOL    HW129282   4.261   1.341   9.193 -0.5455  0.1046 -0.8809
 5940SOL    HW229283   4.335   1.219   9.238 -0.8334 -0.3898 -1.1176
 5941SOL     OW29284   3.164   0.485   6.986  0.2127  0.2682 -0.9002
 5941SOL    HW129285   3.079   0.446   7.008  0.7642 -0.0992  0.6111
 5941SOL    HW229286   3.216   0.408   6.965  0.1418  0.3554 -1.3921
 5942SOL     OW29287   0.092   3.144  14.283  0.0220  0.0840  0.0921
 5942SOL    HW129288   0.035   3.198  14.338 -0.2262  0.9804 -1.0562
 5942SOL    HW229289   0.029   3.094  14.230 -0.5220  0.3552  0.4755
 5943SOL     OW29290   2.052   2.182  14.885 -0.0538 -0.3907 -0.4840
 5943SOL    HW129291   2.102   2.205  14.964 -0.7426 -0.5423  0.0020
 5943SOL    HW229292   2.022   2.094  14.905 -0.4056  0.0902  1.1061
 5944SOL     OW29293   1.727   0.529  10.726 -0.5669 -1.1474  0.1255
 5944SOL    HW129294   1.772   0.590  10.668 -0.2006 -2.6369 -1.1453
 5944SOL    HW229295   1.635   0.551  10.709 -0.9528 -2.4939  0.4470
 5945SOL     OW29296   1.748   3.021   9.171  0.1449 -0.0219 -0.2099
 5945SOL    HW129297   1.689   2.946   9.178 -1.9732  1.5289 -1.1807
 5945SOL    HW229298   1.829   2.976   9.148 -1.3200 -1.2563 -2.9815
 5946SOL     OW29299   4.185   1.878   5.327  0.3841 -0.3100  0.0546
 5946SOL    HW129300   4.279   1.865   5.315  0.3446 -1.3210  0.8215
 5946SOL    HW229301   4.176   1.842   5.415 -0.9218 -0.3011 -0.0734
 5947SOL     OW29302   3.047   4.674  17.054 -0.4516  0.5094 -0.1602
 5947SOL    HW129303   2.994   4.628  17.119 -0.2487 -0.5108 -0.7108
 5947SOL    HW229304   3.121   4.705  17.106 -0.0885  1.0002 -0.9629
 5948SOL     OW29305   4.136   2.515  17.367  0.4295 -0.1565  0.4686
 5948SOL    HW129306   4.059   2.458  17.361  2.1159 -2.2807 -1.0459
 5948SOL    HW229307   4.108   2.602  17.395 -2.2146 -0.5743 -0.9037
 5949SOL     OW29308   3.407   1.777   4.787 -0.4595  0.1532 -0.2604
 5949SOL    HW129309   3.387   1.803   4.877  0.5211  0.7674 -0.2190
 5949SOL    HW229310   3.318   1.750   4.765 -0.1765  0.8810 -2.3702
 5950SOL     OW29311   3.127   0.448   1.746  0.0851  0.6392  0.8120
 5950SOL    HW129312   3.058   0.510   1.766 -0.7516  0.3418 -1.1694
 5950SOL    HW229313   3.163   0.487   1.667  1.8779  2.4071  2.5078
 5951SOL     OW29314   0.622   1.468   4.471 -0.1529  0.0157  0.2516
 5951SOL    HW129315   0.641   1.561   4.477 -0.3260  0.0715 -0.0613
 5951SOL    HW229316   0.539   1.466   4.422 -0.6887  2.4958  1.0533
 5952SOL     OW29317   2.838   0.414   0.734  0.3525  0.0651  0.0423
 5952SOL    HW129318   2.855   0.492   0.787 -1.4382  0.4667  0.0528
 5952SOL    HW229319   2.806   0.354   0.802  2.2261 -0.3666  0.5435
 5953SOL     OW29320   4.396   1.914   4.644 -0.5808 -0.5341 -0.0880
 5953SOL    HW129321   4.332   1.942   4.579 -1.8538 -2.5177  0.3057
 5953SOL    HW229322   4.357   1.949   4.725  1.3256 -0.6726  0.8996
 5954SOL     OW29323   3.946   1.561   6.956  0.1576  0.3713 -0.4116
 5954SOL    HW129324   3.949   1.588   7.048  1.2268 -1.4136  0.0663
 5954SOL    HW229325   3.851   1.553   6.944  0.2608 -0.6234 -0.5547
 5955SOL     OW29326   4.383   2.274   4.370 -0.2824  0.2626  0.7623
 5955SOL    HW129327   4.301   2.314   4.399 -1.4948 -1.5123 -0.2341
 5955SOL    HW229328   4.440   2.338   4.413  0.5657  0.8144 -1.2157
 5956SOL     OW29329   3.830   4.044   6.165 -0.1625 -0.7282  0.0292
 5956SOL    HW129330   3.739   4.067   6.147 -0.3299 -0.0958  1.7088
 5956SOL    HW229331   3.818   3.976   6.231 -0.9853  0.7207  1.3609
 5957SOL     OW29332   2.807   3.113  13.046  0.4988 -0.5556 -0.0903
 5957SOL    HW129333   2.850   3.047  13.101 -1.7632 -0.3342  1.9245
 5957SOL    HW229334   2.764   3.151  13.122  0.5413 -0.9018  0.1090
 5958SOL     OW29335   1.449   0.906  12.793 -0.2529 -0.0197 -0.0232
 5958SOL    HW129336   1.471   0.874  12.705  1.4452 -0.2300  0.4740
 5958SOL    HW229337   1.446   0.828  12.849  0.4553  1.7423  2.4890
 5959SOL     OW29338   0.121   4.510   4.720  0.1821  0.5445 -0.2768
 5959SOL    HW129339   0.204   4.507   4.672 -0.7183 -0.6653 -1.7293
 5959SOL    HW229340   0.064   4.555   4.657  0.4548  2.3081  0.7368
 5960SOL     OW29341   3.202   0.116   7.144  0.4644  0.0802  0.2946
 5960SOL    HW129342   3.144   0.142   7.216  0.4581 -0.2558  0.4125
 5960SOL    HW229343   3.279   0.079   7.187 -0.3521  1.3835  2.8704
 5961SOL     OW29344   0.947   0.073   5.285  0.8495 -0.0702  0.1948
 5961SOL    HW129345   0.949   0.164   5.316  0.9424 -0.2382  0.6828
 5961SOL    HW229346   0.947   0.025   5.368 -2.1482 -1.4675 -0.6313
 5962SOL     OW29347   1.679   3.244   7.195 -0.9035 -0.5333  0.0357
 5962SOL    HW129348   1.617   3.208   7.131  0.0489  0.4912 -1.4637
 5962SOL    HW229349   1.763   3.228   7.152 -0.7433 -0.5826  0.3714
 5963SOL     OW29350   4.175   1.858   9.062  0.0864 -0.0637  0.5693
 5963SOL    HW129351   4.127   1.789   9.109 -0.3730  0.4606  0.8771
 5963SOL    HW229352   4.110   1.871   8.993 -0.9583 -0.8444  1.4033
 5964SOL     OW29353   4.407   3.182  13.846 -0.5649  0.6810  0.1354
 5964SOL    HW129354   4.366   3.193  13.761  2.0241  1.4709 -1.0126
 5964SOL    HW229355   4.481   3.243  13.834  0.0907 -0.1625 -0.1164
 5965SOL     OW29356   1.200   4.107   7.413  1.0457 -0.1390  0.2156
 5965SOL    HW129357   1.234   4.083   7.500  3.6556 -0.5983 -0.9251
 5965SOL    HW229358   1.166   4.196   7.426 -1.7360 -1.0009 -1.3902
 5966SOL     OW29359   3.544   2.926  10.883 -0.0156  0.3952 -0.1526
 5966SOL    HW129360   3.576   3.016  10.886  0.4424  0.2304 -0.1724
 5966SOL    HW229361   3.620   2.887  10.840 -1.0554 -0.8556 -0.8453
 5967SOL     OW29362   1.702   2.216   3.851 -0.1939 -0.7411 -0.4519
 5967SOL    HW129363   1.639   2.217   3.923 -1.4480  1.2572 -1.5614
 5967SOL    HW229364   1.742   2.131   3.866  0.2720 -0.1229  1.8401
 5968SOL     OW29365   3.074   0.505   0.079 -0.4392  0.4611  0.6257
 5968SOL    HW129366   3.030   0.473   0.158 -1.9963 -0.8331 -0.7744
 5968SOL    HW229367   3.014   0.573   0.049  0.8353  1.7868  1.0986
 5969SOL     OW29368   2.571   0.413   7.499  0.6295 -0.5297  0.1837
 5969SOL    HW129369   2.615   0.332   7.525  0.4004 -0.1707  1.6805
 5969SOL    HW229370   2.638   0.436   7.434  1.2811  0.3162  1.1381
 5970SOL     OW29371   1.361   2.774   1.132  0.1035 -0.0964  0.2809
 5970SOL    HW129372   1.412   2.833   1.075  0.6419 -2.8403 -2.0748
 5970SOL    HW229373   1.272   2.796   1.104 -0.1762 -3.1258 -1.1650
 5971SOL     OW29374   4.023   2.176   7.774 -0.3933  0.0341 -0.2089
 5971SOL    HW129375   4.057   2.116   7.707  0.8159  1.3740 -0.8025
 5971SOL    HW229376   3.978   2.240   7.719 -0.7791 -0.4924 -0.5053
 5972SOL     OW29377   2.315   0.678   3.781  0.3991 -0.1784  0.8972
 5972SOL    HW129378   2.298   0.685   3.688  0.6806 -0.6217  0.8156
 5972SOL    HW229379   2.402   0.637   3.779 -1.0169 -3.1781  1.3701
 5973SOL     OW29380   2.988   1.250   4.093 -0.0933 -0.3390  0.7538
 5973SOL    HW129381   2.969   1.238   4.000  0.0024 -0.4691  0.7509
 5973SOL    HW229382   2.910   1.299   4.120  0.0421 -0.5624  1.5751
 5974SOL     OW29383   4.053   4.349   9.538  0.1437 -0.5165 -0.3531
 5974SOL    HW129384   4.093   4.372   9.622 -2.5550 -0.0435  0.8087
 5974SOL    HW229385   3.977   4.300   9.568  0.1098 -0.2355  0.0326
 5975SOL     OW29386   2.125   1.873   1.260 -0.0798  0.0252 -0.2856
 5975SOL    HW129387   2.216   1.857   1.287  0.0863  2.1857  0.4181
 5975SOL    HW229388   2.139   1.964   1.233 -3.7119  0.5846 -0.2282
 5976SOL     OW29389   2.856   2.342   9.344  0.0338 -0.1659 -0.4271
 5976SOL    HW129390   2.925   2.289   9.304 -0.7730 -0.2145 -1.7426
 5976SOL    HW229391   2.876   2.427   9.306  0.6203  0.6730  1.7530
 5977SOL     OW29392   0.201   1.627   0.097  0.5111  0.2262 -0.1537
 5977SOL    HW129393   0.288   1.610   0.133  0.1310 -2.6567 -0.6281
 5977SOL    HW229394   0.219   1.599   0.007  0.6282 -0.1074 -0.0268
 5978SOL     OW29395   3.989   4.181   5.987 -0.0501  0.1746  0.0514
 5978SOL    HW129396   3.959   4.117   6.052 -0.4003 -0.2947 -0.5688
 5978SOL    HW229397   3.913   4.180   5.928 -1.1966 -1.4366  1.5650
 5979SOL     OW29398   0.751   1.605   7.274 -0.1527 -0.2331  0.0823
 5979SOL    HW129399   0.809   1.604   7.350  0.2231 -2.6431 -0.2349
 5979SOL    HW229400   0.804   1.586   7.196  0.3601 -1.4871  0.7412
 5980SOL     OW29401   2.590   3.838   8.007 -0.1111  0.2993  0.8875
 5980SOL    HW129402   2.540   3.800   8.079 -0.7951 -0.5366 -0.0398
 5980SOL    HW229403   2.519   3.860   7.948  1.3993 -0.3619 -1.1750
 5981SOL     OW29404   4.153   2.388   5.819 -0.1431  0.7096  0.1279
 5981SOL    HW129405   4.235   2.434   5.802  0.4520 -0.5062 -0.3214
 5981SOL    HW229406   4.173   2.332   5.894 -0.1254 -0.0471 -0.4383
 5982SOL     OW29407   1.687   4.446  14.834  0.0441  0.5931 -0.1585
 5982SOL    HW129408   1.659   4.451  14.742  2.2218 -0.7018 -0.9046
 5982SOL    HW229409   1.772   4.486  14.813  0.0218  0.8984  0.3509
 5983SOL     OW29410   0.191   3.356  14.496  0.4268 -0.2542  0.1204
 5983SOL    HW129411   0.183   3.261  14.485 -3.2091  0.0019  0.6447
 5983SOL    HW229412   0.178   3.367  14.590  0.2066 -0.9456  0.1664
 5984SOL     OW29413   4.640   0.609   9.508 -0.2394 -0.1854  0.2696
 5984SOL    HW129414   0.008   0.638   9.488 -0.1441 -2.1503 -2.1859
 5984SOL    HW229415   4.651   0.515   9.520  0.8608  0.0798  1.3542
 5985SOL     OW29416   0.746   1.745   4.255 -0.0345 -0.0620 -0.8396
 5985SOL    HW129417   0.713   1.687   4.186 -1.2012  0.3881 -0.6481
 5985SOL    HW229418   0.835   1.753   4.220  0.3997  0.0118  0.2948
 5986SOL     OW29419   2.725   0.323   4.650 -0.2847 -0.0295  0.0240
 5986SOL    HW129420   2.731   0.362   4.737  1.2044  0.7721 -0.4376
 5986SOL    HW229421   2.782   0.380   4.598 -1.4705  0.3632 -0.8438
 5987SOL     OW29422   4.694   2.088   4.046 -0.3329  0.7867 -0.0321
 5987SOL    HW129423   4.702   2.100   4.141  0.8591  0.4428 -0.0953
 5987SOL    HW229424   4.718   2.177   4.018  2.8128  0.8245  2.8271
 5988SOL     OW29425   1.051   0.070   4.545 -0.2012  0.3331 -0.0369
 5988SOL    HW129426   1.047   0.115   4.460 -1.0160  1.3019  0.5173
 5988SOL    HW229427   1.023   0.140   4.603 -0.3103 -0.0667  0.3915
 5989SOL     OW29428   2.936   4.297   4.123 -0.3833 -0.3269  0.3574
 5989SOL    HW129429   2.958   4.242   4.047 -1.5850  0.3648 -0.4811
 5989SOL    HW229430   2.846   4.320   4.102 -0.6230 -1.6738 -0.1485
 5990SOL     OW29431   4.034   3.693  16.024  0.0207  0.8116 -0.0748
 5990SOL    HW129432   4.019   3.788  16.029  1.2781  0.9152  2.0768
 5990SOL    HW229433   4.078   3.684  16.109 -0.4784  0.3590  0.1324
 5991SOL     OW29434   4.697   1.770  12.455  0.5795 -0.7551 -0.3764
 5991SOL    HW129435   4.654   1.850  12.424 -0.3855 -1.3523 -0.5784
 5991SOL    HW229436   4.643   1.759  12.533  1.9279  3.5594  1.1676
 5992SOL     OW29437   2.624   4.210   6.738 -0.0136  0.1231 -0.2670
 5992SOL    HW129438   2.662   4.131   6.777  1.5006  0.5861 -0.7750
 5992SOL    HW229439   2.702   4.266   6.742  0.5281 -0.5321 -1.5863
 5993SOL     OW29440   3.577   0.500   5.462 -0.6248  0.2360 -0.0261
 5993SOL    HW129441   3.564   0.595   5.467 -0.5828  0.1933  0.9529
 5993SOL    HW229442   3.646   0.485   5.398 -0.7518 -0.4989  0.0119
 5994SOL     OW29443   3.385   4.445  11.915 -0.6802 -0.1175  0.0709
 5994SOL    HW129444   3.347   4.434  11.827 -0.7383 -0.3498  0.1227
 5994SOL    HW229445   3.437   4.524  11.908  1.2875 -1.2116  2.4668
 5995SOL     OW29446   1.579   4.483   8.617 -0.7516 -0.1018 -0.1535
 5995SOL    HW129447   1.592   4.568   8.576  0.8080 -0.2895 -0.0452
 5995SOL    HW229448   1.543   4.510   8.702 -0.6334  0.8000 -0.3895
 5996SOL     OW29449   3.507   3.903   7.769 -0.2081 -0.1241 -0.6841
 5996SOL    HW129450   3.562   3.944   7.702  0.1869  0.7501  0.1847
 5996SOL    HW229451   3.566   3.901   7.844  0.1040  1.0579 -0.8869
 5997SOL     OW29452   1.474   1.823   8.833  0.6890  0.1314  0.2998
 5997SOL    HW129453   1.436   1.862   8.912  0.1518 -0.5564  0.3699
 5997SOL    HW229454   1.529   1.897   8.805  2.5487 -0.7311  1.6501
 5998SOL     OW29455   1.128   2.034   8.478  0.2651  0.5282 -0.0336
 5998SOL    HW129456   1.035   2.013   8.476  0.6391 -1.3128  2.4685
 5998SOL    HW229457   1.133   2.123   8.511 -0.2778  1.4362 -2.3717
 5999SOL     OW29458   0.049   1.973   2.632 -0.1308 -0.5160  0.4781
 5999SOL    HW129459   0.068   1.933   2.547 -0.1914  0.5170 -0.0228
 5999SOL    HW229460   0.004   1.893   2.659 -1.1081  0.2880  1.1944
 6000SOL     OW29461   0.537   1.705   6.876 -0.0198 -0.1584  0.0350
 6000SOL    HW129462   0.558   1.743   6.961 -0.2929  1.4288 -0.6224
 6000SOL    HW229463   0.442   1.696   6.888  0.0221  2.6951  2.4257
 6001SOL     OW29464   0.517   1.055  12.494  0.6439 -0.0647 -0.0830
 6001SOL    HW129465   0.434   1.101  12.482  1.8189  2.0059 -0.3762
 6001SOL    HW229466   0.562   1.125  12.543 -1.9632  1.3315  0.3076
 6002SOL     OW29467   3.125   3.479   7.460  0.1300  0.7381  0.0872
 6002SOL    HW129468   3.044   3.524   7.436  0.7129  0.7806 -1.8221
 6002SOL    HW229469   3.151   3.541   7.528 -0.6304  1.3977 -0.2281
 6003SOL     OW29470   2.003   1.774  15.497 -0.5501  0.1755  0.0082
 6003SOL    HW129471   1.920   1.738  15.467 -2.5556  2.1869  3.1514
 6003SOL    HW229472   2.041   1.825  15.425 -1.1921  0.0873 -0.3861
 6004SOL     OW29473   2.547   0.858   3.941  0.1196  0.0553 -0.5293
 6004SOL    HW129474   2.454   0.844   3.958  0.2679  0.7719  0.9286
 6004SOL    HW229475   2.573   0.790   3.879 -1.0850 -0.6543 -0.2521
 6005SOL     OW29476   0.557   3.415   4.223  0.0358  0.5003 -0.0575
 6005SOL    HW129477   0.584   3.325   4.243 -2.7510 -0.3765 -0.1489
 6005SOL    HW229478   0.623   3.448   4.162  0.6943 -0.9428 -0.1450
 6006SOL     OW29479   1.188   2.174   2.079  0.3979 -0.2109  0.1927
 6006SOL    HW129480   1.277   2.142   2.091  0.5535  0.7621  1.7266
 6006SOL    HW229481   1.148   2.127   2.153 -0.0845 -0.9893 -0.5698
 6007SOL     OW29482   3.619   4.276  13.147 -0.6724 -0.2203 -0.1261
 6007SOL    HW129483   3.670   4.245  13.222  1.0955 -0.0507 -1.2565
 6007SOL    HW229484   3.612   4.204  13.085 -3.0288 -0.7411  0.7692
 6008SOL     OW29485   0.681   2.229  16.377  0.0065 -0.4141  0.1505
 6008SOL    HW129486   0.773   2.210  16.364 -0.2613  1.0331 -3.7650
 6008SOL    HW229487   0.648   2.162  16.317  0.4009 -0.9259  0.5073
 6009SOL     OW29488   3.751   1.242   6.423 -0.4017 -0.2814 -0.1644
 6009SOL    HW129489   3.797   1.193   6.491 -1.0439 -1.1380 -0.3354
 6009SOL    HW229490   3.823   1.274   6.370 -2.0483  1.4245 -1.3897
 6010SOL     OW29491   3.295   4.718   4.584 -0.3713  0.0500 -0.3584
 6010SOL    HW129492   3.243   4.638   4.592 -1.1356  0.3633 -2.1930
 6010SOL    HW229493   3.345   4.700   4.504 -2.4065 -1.4923 -1.2851
 6011SOL     OW29494   4.570   3.307   5.631 -0.1088  0.6766 -0.0166
 6011SOL    HW129495   4.485   3.351   5.626 -0.7355 -0.4205  1.0293
 6011SOL    HW229496   4.637   3.376   5.621  0.6334 -0.3406 -2.1490
 6012SOL     OW29497   2.065   4.012   5.752 -0.0974 -0.2926  0.1645
 6012SOL    HW129498   2.114   4.025   5.671  1.8912 -1.9412  1.1091
 6012SOL    HW229499   2.027   4.099   5.763 -2.3987 -1.2705  0.0089
 6013SOL     OW29500   2.647   2.861   6.180 -0.0923  0.0479 -0.7873
 6013SOL    HW129501   2.633   2.845   6.273  0.0799 -0.0316 -0.7742
 6013SOL    HW229502   2.600   2.783   6.151  0.7350 -0.4360 -0.8421
 6014SOL     OW29503   3.620   1.467   2.421  0.0857  0.5039  0.4488
 6014SOL    HW129504   3.605   1.519   2.342 -1.1784 -2.9201 -1.5359
 6014SOL    HW229505   3.572   1.389   2.394  1.4462  0.2135 -1.1152
 6015SOL     OW29506   4.674   2.898   4.902  0.3602 -0.0523  0.0591
 6015SOL    HW129507   4.643   2.816   4.941  0.3517 -0.1394 -0.1322
 6015SOL    HW229508   0.004   2.941   4.970  1.9793 -1.6616 -0.1609
 6016SOL     OW29509   1.589   4.267   2.121 -0.3537  0.1818 -0.2017
 6016SOL    HW129510   1.669   4.222   2.150 -1.6449 -1.2895  1.0568
 6016SOL    HW229511   1.518   4.206   2.102  0.3371 -1.0729  1.2995
 6017SOL     OW29512   0.918   4.385   4.324  0.2181 -0.0325 -0.0074
 6017SOL    HW129513   0.957   4.436   4.253  0.4274 -1.8174 -1.1613
 6017SOL    HW229514   0.932   4.449   4.394 -0.0502 -0.9322  0.8691
 6018SOL     OW29515   2.146   2.491   9.525 -0.5222  0.0444  0.6582
 6018SOL    HW129516   2.195   2.443   9.459  2.6738  0.9132  2.4231
 6018SOL    HW229517   2.221   2.530   9.569  0.1531  1.1407 -1.4984
 6019SOL     OW29518   1.507   1.484  10.708 -0.5344  0.0919  0.0519
 6019SOL    HW129519   1.517   1.392  10.732 -0.2481  0.2827  0.6697
 6019SOL    HW229520   1.571   1.519  10.770 -0.7118 -1.3936  1.0857
 6020SOL     OW29521   1.560   1.973   5.163  0.0047  0.0225  0.2959
 6020SOL    HW129522   1.581   1.906   5.097 -1.0050  1.1181 -1.1553
 6020SOL    HW229523   1.529   1.925   5.240  0.3512  2.2598  1.8125
 6021SOL     OW29524   4.288   2.108   7.185  0.1615 -0.2499 -0.0607
 6021SOL    HW129525   4.244   2.126   7.268  2.0171 -0.4449  0.9674
 6021SOL    HW229526   4.279   2.195   7.147 -2.0410 -1.6021 -2.6750
 6022SOL     OW29527   0.036   4.229   7.926 -0.3458  0.0790 -0.2342
 6022SOL    HW129528   0.026   4.144   7.969  0.7623  0.9734  1.7601
 6022SOL    HW229529   0.060   4.200   7.838  0.2366 -0.4456  0.0964
 6023SOL     OW29530   0.594   0.858   4.883 -0.4396 -0.3043 -0.3725
 6023SOL    HW129531   0.539   0.927   4.922  1.5277  1.7084 -1.1224
 6023SOL    HW229532   0.534   0.784   4.878 -2.6250  1.6971 -4.3470
 6024SOL     OW29533   3.929   3.770   7.308  0.6443 -0.0504 -0.6024
 6024SOL    HW129534   3.867   3.837   7.338  0.0201 -0.0959 -1.8030
 6024SOL    HW229535   3.954   3.804   7.223 -0.5315 -0.8528 -1.2843
 6025SOL     OW29536   4.629   3.821   7.105  0.0282  0.7471 -0.6259
 6025SOL    HW129537   4.696   3.764   7.141 -1.0644  0.0620  0.2976
 6025SOL    HW229538   4.551   3.765   7.101  1.3014 -1.1290  1.2944
 6026SOL     OW29539   1.118   4.428  16.031 -0.4502 -0.0813  0.6548
 6026SOL    HW129540   1.121   4.364  15.960 -2.7077 -0.3498  0.7822
 6026SOL    HW229541   1.025   4.417  16.051  0.0092  1.7252  3.8256
 6027SOL     OW29542   1.317   4.611   2.691 -0.6744 -0.2617 -0.4969
 6027SOL    HW129543   1.350   4.571   2.771 -1.2960 -0.2734 -0.2446
 6027SOL    HW229544   1.298   4.538   2.632  0.3588 -1.5242  0.7387
 6028SOL     OW29545   3.929   2.151  10.418 -0.0200  0.1046  0.0932
 6028SOL    HW129546   3.886   2.227  10.457 -1.1951 -0.2327 -0.5650
 6028SOL    HW229547   3.889   2.154  10.331 -0.2628 -0.6326  0.1811
 6029SOL     OW29548   0.187   0.150  13.469  0.0235  0.2787 -0.4381
 6029SOL    HW129549   0.096   0.159  13.497  0.4018 -1.0387  1.1827
 6029SOL    HW229550   0.233   0.188  13.544  0.4866 -1.9117  0.3654
 6030SOL     OW29551   1.173   0.291   7.581 -0.2409 -0.3695 -0.6522
 6030SOL    HW129552   1.236   0.306   7.510  2.6938  0.1913  2.0633
 6030SOL    HW229553   1.164   0.196   7.588  1.7736 -0.6149 -1.1815
 6031SOL     OW29554   2.554   1.223   5.949  0.2828 -0.5668  0.1690
 6031SOL    HW129555   2.482   1.281   5.973  0.6088 -0.2060  0.2747
 6031SOL    HW229556   2.542   1.153   6.013  1.3308 -0.3806  0.5635
 6032SOL     OW29557   3.054   0.810   5.862  0.2559 -0.1336  0.1079
 6032SOL    HW129558   2.965   0.799   5.897  0.6171  2.2522  1.6839
 6032SOL    HW229559   3.095   0.840   5.942 -0.2448 -0.5684  0.5290
 6033SOL     OW29560   3.731   2.480  14.756 -0.3743  0.1132 -0.0464
 6033SOL    HW129561   3.704   2.449  14.843 -1.6937  1.0987 -0.1135
 6033SOL    HW229562   3.748   2.571  14.777 -0.3394 -0.3306  1.8375
 6034SOL     OW29563   2.851   1.200   0.941 -0.5552 -0.4488 -0.1122
 6034SOL    HW129564   2.847   1.198   0.846  1.7717 -0.5999 -0.1992
 6034SOL    HW229565   2.946   1.202   0.952 -0.7996 -1.0527  2.1938
 6035SOL     OW29566   2.973   4.699   0.693 -0.5552  0.2153 -0.2012
 6035SOL    HW129567   2.890   0.005   0.652 -1.4441  0.9416  2.0669
 6035SOL    HW229568   3.033   0.020   0.632  0.3648 -0.0064  0.5532
 6036SOL     OW29569   0.169   4.004   7.411  0.8686 -0.6372 -0.2941
 6036SOL    HW129570   0.190   4.096   7.396 -0.2631 -0.2494  0.5315
 6036SOL    HW229571   0.242   3.959   7.454  0.3693 -0.9944  0.1844
 6037SOL     OW29572   0.565   1.749  16.325  0.0309 -0.0048  0.6252
 6037SOL    HW129573   0.567   1.794  16.410  0.0022 -1.5462  1.4351
 6037SOL    HW229574   0.588   1.821  16.266 -1.1620  0.2412  0.4592
 6038SOL     OW29575   0.080   1.701  11.364 -0.1158 -0.3152 -0.2632
 6038SOL    HW129576   0.046   1.622  11.322 -1.0093  0.3391 -0.7802
 6038SOL    HW229577   0.173   1.681  11.361 -0.0312  0.1506 -0.7626
 6039SOL     OW29578   0.115   1.790   3.888  0.1297  0.0169 -0.0320
 6039SOL    HW129579   0.099   1.881   3.913 -3.3472 -0.6805  0.2192
 6039SOL    HW229580   0.146   1.789   3.797 -0.1941  1.0498 -0.1422
 6040SOL     OW29581   1.672   3.221   5.756 -0.0292 -0.3796 -0.2903
 6040SOL    HW129582   1.690   3.289   5.691  2.8829 -0.9798 -0.1026
 6040SOL    HW229583   1.620   3.153   5.713 -1.0450  0.4056 -0.3138
 6041SOL     OW29584   3.772   4.638  17.542  0.1812  0.3145 -0.2820
 6041SOL    HW129585   3.845   4.662  17.599  0.7655  1.4730 -1.5226
 6041SOL    HW229586   3.803   4.658  17.454  2.4407 -2.9385 -0.2186
 6042SOL     OW29587   0.806   2.043   0.384 -0.3469  0.3096  0.1307
 6042SOL    HW129588   0.743   2.097   0.431 -2.1425 -1.9786  0.3224
 6042SOL    HW229589   0.856   2.025   0.463  0.4621 -0.4555 -0.5465
 6043SOL     OW29590   1.238   3.443   9.290 -0.1452  0.3577 -0.1874
 6043SOL    HW129591   1.248   3.529   9.251 -1.8337  0.8964  0.5570
 6043SOL    HW229592   1.319   3.395   9.272  1.1024  2.5334 -0.3426
 6044SOL     OW29593   1.626   3.585   1.544 -0.2622  0.7406 -0.0180
 6044SOL    HW129594   1.714   3.559   1.572 -0.0198  2.9417  1.2281
 6044SOL    HW229595   1.611   3.653   1.609 -0.5689  0.3160  0.3588
 6045SOL     OW29596   2.563   1.188   0.915  0.6543  0.0279 -0.2703
 6045SOL    HW129597   2.650   1.148   0.923  0.3756 -0.1002  1.9855
 6045SOL    HW229598   2.549   1.212   1.007 -0.9757 -2.5889  0.1644
 6046SOL     OW29599   2.088   1.466   7.289  0.1518  0.4623 -0.0877
 6046SOL    HW129600   2.091   1.558   7.314 -1.4933  0.4899  0.0014
 6046SOL    HW229601   2.013   1.421   7.329 -0.2715  0.5002 -0.8461
 6047SOL     OW29602   3.525   0.014   8.927  0.0065  0.3417  0.1428
 6047SOL    HW129603   3.577   0.094   8.918  0.1972  0.0970 -0.9039
 6047SOL    HW229604   3.547   4.715   9.018 -2.5812 -1.9384  0.2647
 6048SOL     OW29605   3.911   1.335  14.624  0.3298  0.8183 -0.8813
 6048SOL    HW129606   3.956   1.255  14.595 -0.9723  0.0114 -0.6978
 6048SOL    HW229607   3.873   1.354  14.538 -0.1405 -1.6427 -1.2292
 6049SOL     OW29608   4.111   4.097   1.761  0.1418 -0.2919 -0.3857
 6049SOL    HW129609   4.046   4.167   1.758 -0.2507 -0.6207  0.7300
 6049SOL    HW229610   4.084   4.052   1.841  0.3191  0.9014  0.3622
 6050SOL     OW29611   3.149   4.308   9.900  0.2598 -0.1840  0.5521
 6050SOL    HW129612   3.109   4.247   9.961 -0.3561 -0.8715 -0.5476
 6050SOL    HW229613   3.241   4.283   9.909 -0.1337 -1.3439  1.3712
 6051SOL     OW29614   3.884   4.544   4.308  0.2164  0.2590 -0.2382
 6051SOL    HW129615   3.971   4.575   4.283 -0.6487  2.0016 -1.0884
 6051SOL    HW229616   3.890   4.530   4.403 -1.5418  0.8405 -0.0519
 6052SOL     OW29617   2.594   1.368   9.036  0.4826 -0.1323  0.5214
 6052SOL    HW129618   2.502   1.389   9.022  0.8724  1.7473  0.7442
 6052SOL    HW229619   2.606   1.400   9.126  3.0563 -0.1919  0.1994
 6053SOL     OW29620   4.619   2.623  12.778  0.0325  0.2089 -0.0803
 6053SOL    HW129621   4.664   2.650  12.698  0.1775  0.3430  0.0497
 6053SOL    HW229622   4.658   2.682  12.842 -1.3217  0.2567  0.7087
 6054SOL     OW29623   0.979   2.173   2.643 -0.2796 -0.2075  0.0529
 6054SOL    HW129624   0.991   2.187   2.549 -0.2486  0.6449  0.1911
 6054SOL    HW229625   1.002   2.080   2.648 -0.6833 -0.3149 -0.0942
 6055SOL     OW29626   0.199   0.637  14.832 -0.0801 -0.5142  0.4079
 6055SOL    HW129627   0.104   0.631  14.832  0.0473 -2.9593 -4.5370
 6055SOL    HW229628   0.221   0.711  14.889 -2.4525  2.3308 -2.3851
 6056SOL     OW29629   2.237   2.442   7.136 -0.1794 -0.2265  0.7209
 6056SOL    HW129630   2.294   2.379   7.090 -0.1162 -0.2579  0.8415
 6056SOL    HW229631   2.244   2.404   7.224 -1.0524 -0.1391  0.8230
 6057SOL     OW29632   2.018   0.395   6.221 -0.2766  0.3216 -0.2380
 6057SOL    HW129633   2.017   0.375   6.315 -0.0205  0.2381 -0.2539
 6057SOL    HW229634   2.109   0.368   6.207 -0.7060 -2.3475  2.2158
 6058SOL     OW29635   4.722   2.571   7.117 -0.0751  0.6813  0.0391
 6058SOL    HW129636   4.641   2.620   7.136 -1.0512  0.0047 -2.3556
 6058SOL    HW229637   0.009   2.506   7.187 -0.1117 -0.2696 -0.8344
 6059SOL     OW29638   2.525   1.906   8.525 -0.0076  0.6044 -0.2352
 6059SOL    HW129639   2.441   1.945   8.552  0.1004  0.2730  0.5590
 6059SOL    HW229640   2.580   1.959   8.582 -0.3942  2.3497 -1.4708
 6060SOL     OW29641   1.031   3.580   4.388 -0.1432 -0.1161 -0.2924
 6060SOL    HW129642   0.959   3.566   4.326 -1.1055  1.7995  0.3773
 6060SOL    HW229643   1.110   3.573   4.335  1.5636 -0.8843  2.3316
 6061SOL     OW29644   2.787   0.519  17.367  0.3733  0.3915  0.2621
 6061SOL    HW129645   2.761   0.444  17.313 -2.1955  1.4146  0.0434
 6061SOL    HW229646   2.730   0.520  17.445 -0.7339  1.5578 -0.5574
 6062SOL     OW29647   4.353   4.344   9.226  0.3174 -0.0688  0.2582
 6062SOL    HW129648   4.399   4.426   9.245 -2.0809  1.6069 -1.2175
 6062SOL    HW229649   4.321   4.365   9.138  0.4398  0.3880  0.3241
 6063SOL     OW29650   3.955   3.575   3.803 -0.0946  0.0462 -0.6678
 6063SOL    HW129651   4.013   3.607   3.734 -1.0098  0.5485 -1.2058
 6063SOL    HW229652   3.887   3.537   3.747  1.0229 -2.3042 -0.4406
 6064SOL     OW29653   1.990   0.823  14.252 -0.1848 -0.0441 -0.1376
 6064SOL    HW129654   2.018   0.859  14.336 -1.3927  0.6485 -0.0152
 6064SOL    HW229655   1.928   0.756  14.281  0.5674 -0.3736  0.6875
 6065SOL     OW29656   0.648   3.314   7.196 -0.0771  1.0756 -0.0476
 6065SOL    HW129657   0.677   3.365   7.272  0.0298 -0.2069  0.7742
 6065SOL    HW229658   0.680   3.368   7.123  3.2746  0.0856  0.6832
 6066SOL     OW29659   2.994   0.768   1.316  0.0281  0.2548 -0.5342
 6066SOL    HW129660   2.931   0.831   1.350  0.3099 -0.7978  1.8937
 6066SOL    HW229661   3.004   0.807   1.229  0.8409  0.7376 -0.2200
 6067SOL     OW29662   3.904   0.319   4.603  0.2113  0.3296  0.4657
 6067SOL    HW129663   3.982   0.362   4.567 -1.4534  2.9020 -0.0080
 6067SOL    HW229664   3.836   0.330   4.536  0.7020  1.6523  0.1875
 6068SOL     OW29665   1.547   1.702   6.084  0.7458 -0.5494 -0.9135
 6068SOL    HW129666   1.507   1.642   6.148 -1.6413 -0.1703 -2.0505
 6068SOL    HW229667   1.630   1.654   6.080  0.1503 -1.6660  0.0576
 6069SOL     OW29668   1.661   2.877  17.214  0.0636 -0.4640  0.4703
 6069SOL    HW129669   1.586   2.906  17.162 -0.1331 -0.5666  0.6953
 6069SOL    HW229670   1.719   2.948  17.189  0.8513 -0.2034  2.9899
 6070SOL     OW29671   0.438   0.753   1.729  0.0710 -0.3797 -0.0223
 6070SOL    HW129672   0.502   0.691   1.693  1.2330  0.5094  0.5101
 6070SOL    HW229673   0.362   0.695   1.730  0.7648 -1.3094 -0.7848
 6071SOL     OW29674   4.703   4.707   4.539  0.2279  0.6563  0.4612
 6071SOL    HW129675   4.636   4.650   4.499  0.3255  1.1533 -0.4150
 6071SOL    HW229676   0.027   0.016   4.460  0.9741  0.9569  1.0169
 6072SOL     OW29677   2.432   1.728   4.099 -0.6013 -0.5311  0.1752
 6072SOL    HW129678   2.414   1.822   4.096 -3.5037 -0.9690  3.1552
 6072SOL    HW229679   2.463   1.714   4.010 -0.3000 -1.5946  0.4407
 6073SOL     OW29680   2.990   0.806   2.457 -0.2973  0.0581  0.3394
 6073SOL    HW129681   2.922   0.739   2.445 -0.4903  0.1832  0.7209
 6073SOL    HW229682   3.066   0.749   2.446 -1.6550 -1.3857 -1.6964
 6074SOL     OW29683   3.725   1.642  14.609 -0.3817  0.4668 -0.2725
 6074SOL    HW129684   3.718   1.579  14.537  1.0995  0.6807 -0.6097
 6074SOL    HW229685   3.645   1.633  14.660 -0.2663 -1.8398 -0.5038
 6075SOL     OW29686   3.422   2.540  10.343 -0.2639 -0.4168 -0.3476
 6075SOL    HW129687   3.486   2.539  10.415 -1.5046 -0.1404  0.7660
 6075SOL    HW229688   3.369   2.471  10.384 -1.6715  1.2509  0.6523
 6076SOL     OW29689   2.631   2.791   6.440  0.2091 -0.0566 -0.2271
 6076SOL    HW129690   2.659   2.759   6.526  3.6487 -1.4362 -1.8256
 6076SOL    HW229691   2.554   2.842   6.464  0.8844  0.2174  1.3735
 6077SOL     OW29692   0.339   0.495  11.640 -0.0014  0.1283 -0.0282
 6077SOL    HW129693   0.389   0.576  11.655  1.7779 -0.6653 -1.6086
 6077SOL    HW229694   0.402   0.436  11.682 -0.4639 -1.2859 -1.3581
 6078SOL     OW29695   0.312   4.291   8.970  0.0476  0.7086 -0.2011
 6078SOL    HW129696   0.351   4.367   8.927  3.4218  0.3605  2.2086
 6078SOL    HW229697   0.242   4.335   9.018 -0.5502 -0.4347 -0.0176
 6079SOL     OW29698   0.279   2.968   3.818 -0.1156 -0.0758 -0.6234
 6079SOL    HW129699   0.356   2.973   3.875 -0.1471 -0.0660 -0.5814
 6079SOL    HW229700   0.322   2.969   3.733 -0.6351  0.2173 -0.8855
 6080SOL     OW29701   0.074   3.112   9.014 -0.6530 -0.3047 -0.4695
 6080SOL    HW129702   0.080   3.204   9.036 -2.7667  0.2138 -2.1090
 6080SOL    HW229703   4.710   3.106   9.056 -0.5696 -1.6699 -0.4763
 6081SOL     OW29704   0.970   3.211   5.726  1.0634  0.0155  0.1076
 6081SOL    HW129705   1.035   3.229   5.658 -0.1765  0.5051 -0.9378
 6081SOL    HW229706   0.919   3.147   5.677 -1.2989  1.8074  0.2513
 6082SOL     OW29707   2.867   0.196   1.565 -0.3796  0.0026  0.0488
 6082SOL    HW129708   2.935   0.149   1.517  2.2340  3.0411  0.8341
 6082SOL    HW229709   2.840   0.134   1.633  2.8387 -3.5215 -1.8520
 6083SOL     OW29710   0.158   1.867   9.029  0.3311 -0.2272 -0.2482
 6083SOL    HW129711   0.105   1.804   9.078  1.8915 -0.3434  1.2950
 6083SOL    HW229712   0.216   1.903   9.096  0.1159 -1.0583  0.3837
 6084SOL     OW29713   3.698   0.607  14.110 -0.1292  0.2126  0.1298
 6084SOL    HW129714   3.672   0.648  14.192 -2.6966  1.7861 -1.4996
 6084SOL    HW229715   3.710   0.515  14.133 -0.0007 -0.4579 -2.6191
 6085SOL     OW29716   4.210   4.571   3.754  0.3017 -0.0630  0.0968
 6085SOL    HW129717   4.215   4.499   3.817 -2.5370 -1.4830 -1.2891
 6085SOL    HW229718   4.292   4.566   3.705  1.5046  2.1816  1.9192
 6086SOL     OW29719   1.879   3.735  11.602 -0.0448  0.3761  0.4157
 6086SOL    HW129720   1.867   3.647  11.639  1.1789  0.5538  1.2107
 6086SOL    HW229721   1.967   3.759  11.631  0.3039  1.2669 -1.3580
 6087SOL     OW29722   2.309   4.142   2.842 -0.7091 -0.5578 -0.1713
 6087SOL    HW129723   2.289   4.229   2.807 -0.7806 -0.3281  0.4367
 6087SOL    HW229724   2.233   4.127   2.898 -0.7592 -0.9972 -0.3582
 6088SOL     OW29725   1.191   2.090   4.013  0.3962  0.2110  0.2520
 6088SOL    HW129726   1.145   2.123   3.936  2.1457 -0.3839 -1.0547
 6088SOL    HW229727   1.171   2.166   4.068  3.2042  0.1062  1.4636
 6089SOL     OW29728   4.478   3.533   3.970  0.6644 -0.4920 -0.0272
 6089SOL    HW129729   4.426   3.498   4.043  1.3798  0.2195  0.8132
 6089SOL    HW229730   4.529   3.457   3.942 -0.6565 -0.9741 -1.1487
 6090SOL     OW29731   0.821   2.754   1.082  0.0440 -0.0030  0.3734
 6090SOL    HW129732   0.752   2.688   1.078 -0.4833  0.8610 -4.7293
 6090SOL    HW229733   0.827   2.759   1.178 -1.5664 -0.4296  0.4887
 6091SOL     OW29734   2.183   0.707   7.323  0.1348  0.1778 -0.5023
 6091SOL    HW129735   2.115   0.746   7.268  0.7405 -0.8966 -2.0164
 6091SOL    HW229736   2.137   0.634   7.364  2.1303 -0.9287 -0.2474
 6092SOL     OW29737   1.633   2.366   8.308 -0.5465 -0.0905  0.3701
 6092SOL    HW129738   1.712   2.376   8.254  0.0634  0.1339  1.2932
 6092SOL    HW229739   1.566   2.392   8.245 -0.5598 -0.9436  0.0231
 6093SOL     OW29740   1.409   3.223   1.195  0.3101 -0.2105 -0.1494
 6093SOL    HW129741   1.313   3.218   1.199  0.2424  2.3475  1.1109
 6093SOL    HW229742   1.433   3.164   1.266  0.4739  0.0269 -0.0066
 6094SOL     OW29743   1.132   1.213  11.750  0.2881  0.0525 -0.5415
 6094SOL    HW129744   1.196   1.164  11.800 -0.9266 -1.5910 -0.6067
 6094SOL    HW229745   1.076   1.140  11.722 -0.9607  2.4781 -4.4219
 6095SOL     OW29746   2.083   4.539   5.064 -0.2772 -0.1679 -0.3429
 6095SOL    HW129747   2.046   4.503   4.983  1.8248  1.2118 -1.9048
 6095SOL    HW229748   2.009   4.531   5.124  2.4250 -0.7988  2.8913
 6096SOL     OW29749   2.104   2.524   0.393  0.6217 -0.2392  0.5658
 6096SOL    HW129750   2.137   2.549   0.307  1.9968 -1.3520  0.7800
 6096SOL    HW229751   2.138   2.435   0.391  0.9787 -0.0823 -0.2899
 6097SOL     OW29752   3.421   0.055  15.030  0.0720  0.0282 -0.2404
 6097SOL    HW129753   3.503   0.081  14.987 -0.7379  0.8829 -1.2542
 6097SOL    HW229754   3.452   4.696  15.071 -0.3901  1.0740  2.1428
 6098SOL     OW29755   2.267   4.428   5.259 -0.2620 -0.2708  0.4505
 6098SOL    HW129756   2.295   4.462   5.344 -0.4495  0.7611  0.0984
 6098SOL    HW229757   2.228   4.501   5.210  1.3599 -0.2335 -0.7880
 6099SOL     OW29758   0.948   1.593   7.103 -0.5487 -0.3288  0.2306
 6099SOL    HW129759   0.999   1.641   7.169 -0.9694 -0.3430  0.5691
 6099SOL    HW229760   1.005   1.523   7.072 -0.5723 -0.1106 -0.3064
 6100SOL     OW29761   3.727   0.453   3.365 -0.3827 -0.3899  0.5660
 6100SOL    HW129762   3.768   0.400   3.297 -2.2226  2.2762 -2.5978
 6100SOL    HW229763   3.642   0.409   3.365 -1.2056  1.1757  0.1518
 6101SOL     OW29764   2.526   0.647  14.895 -0.2750  0.0993 -0.2415
 6101SOL    HW129765   2.568   0.581  14.840  1.2664  1.7197 -1.0005
 6101SOL    HW229766   2.609   0.686  14.925 -1.4020 -0.1031  3.2050
 6102SOL     OW29767   3.940   4.234   3.972  0.0740 -0.0340  0.6754
 6102SOL    HW129768   3.999   4.302   3.940  2.9171 -3.5199 -1.4518
 6102SOL    HW229769   4.001   4.160   3.976 -0.2967 -0.4213 -0.7545
 6103SOL     OW29770   3.555   1.615   3.736 -0.1075  0.2258 -0.0083
 6103SOL    HW129771   3.538   1.663   3.655 -1.2083  1.9507  1.2166
 6103SOL    HW229772   3.615   1.676   3.779  1.3870 -2.4133  1.6350
 6104SOL     OW29773   2.711   2.322  15.018 -0.1136  0.0129  0.7698
 6104SOL    HW129774   2.695   2.409  14.981  0.4254 -0.8377 -1.4365
 6104SOL    HW229775   2.720   2.263  14.943  1.0232  0.5501  0.4886
 6105SOL     OW29776   4.095   3.814   7.089 -0.2566 -0.4241 -0.2130
 6105SOL    HW129777   4.140   3.889   7.051 -0.3256 -0.4315 -0.3098
 6105SOL    HW229778   4.136   3.744   7.038 -1.0777 -2.2874  1.6422
 6106SOL     OW29779   2.607   4.435  15.344  0.7086 -0.6744 -0.1392
 6106SOL    HW129780   2.515   4.461  15.351  0.2397 -1.9144 -1.5387
 6106SOL    HW229781   2.609   4.433  15.248  0.5838  1.7097 -0.2020
 6107SOL     OW29782   4.085   4.067   1.481 -0.1617  0.0052 -0.5066
 6107SOL    HW129783   4.075   4.109   1.566  1.1235 -0.1658 -0.2778
 6107SOL    HW229784   4.142   3.996   1.512 -0.9294 -0.6978 -0.7038
 6108SOL     OW29785   4.495   1.166   3.553 -0.6018 -0.2052 -0.1796
 6108SOL    HW129786   4.537   1.144   3.470 -0.3289  0.8493 -0.3181
 6108SOL    HW229787   4.438   1.234   3.516  1.0177  1.7923  0.9713
 6109SOL     OW29788   3.888   3.930   9.046 -0.3014  0.0492 -0.4427
 6109SOL    HW129789   3.813   3.896   9.096  0.3734 -0.4603  0.2252
 6109SOL    HW229790   3.895   4.012   9.095 -0.1679 -1.0225  1.3322
 6110SOL     OW29791   1.470   3.726  10.617 -0.2990 -0.6224  0.0438
 6110SOL    HW129792   1.395   3.783  10.635  1.0426  1.1917 -0.0111
 6110SOL    HW229793   1.536   3.792  10.596 -2.2287  1.3960  0.2870
 6111SOL     OW29794   2.200   4.696   6.052  0.5881 -0.3311 -0.2175
 6111SOL    HW129795   2.131   4.679   5.988  0.3868  1.7095 -0.5186
 6111SOL    HW229796   2.280   4.677   6.003 -0.3118 -0.9930 -1.4315
 6112SOL     OW29797   1.908   4.310  14.167  0.0824 -0.0837 -0.1003
 6112SOL    HW129798   1.937   4.401  14.173 -0.8989  0.2030  0.4062
 6112SOL    HW229799   1.863   4.311  14.082 -1.9009  1.0248  0.9530
 6113SOL     OW29800   0.082   1.221   6.611 -0.7924 -0.5584 -0.0747
 6113SOL    HW129801   0.047   1.308   6.594 -0.5217 -0.3232  0.5530
 6113SOL    HW229802   0.083   1.218   6.707  2.1207 -0.0288 -0.0801
 6114SOL     OW29803   4.067   1.312  10.566 -0.0462  0.1063 -0.7243
 6114SOL    HW129804   4.093   1.393  10.523  0.7278 -0.2121 -0.8423
 6114SOL    HW229805   4.130   1.251  10.529  0.7114 -0.3200  1.2998
 6115SOL     OW29806   0.428   4.112  17.145  0.4665 -0.7219  0.2775
 6115SOL    HW129807   0.345   4.120  17.193  0.2746  2.4502 -0.5590
 6115SOL    HW229808   0.462   4.044  17.202  0.7862 -1.1235 -0.3951
 6116SOL     OW29809   3.647   0.969   2.263  0.0805  0.5871  0.0497
 6116SOL    HW129810   3.738   0.948   2.284  0.2017  1.8553  0.7683
 6116SOL    HW229811   3.643   0.991   2.170 -0.5589 -2.5398 -0.6687
 6117SOL     OW29812   4.486   2.562   1.717  0.5774  0.2899  0.0380
 6117SOL    HW129813   4.447   2.646   1.693 -1.0374 -0.6774 -0.7176
 6117SOL    HW229814   4.431   2.540   1.792  0.0863 -0.5062 -0.5561
 6118SOL     OW29815   1.187   0.897  17.515  0.3336  0.5418  0.3011
 6118SOL    HW129816   1.157   0.858  17.598  2.9379 -1.3676  0.3258
 6118SOL    HW229817   1.111   0.950  17.492  0.3783  0.7354  0.6006
 6119SOL     OW29818   3.970   2.978   6.405  0.3318 -0.6910  0.1020
 6119SOL    HW129819   3.943   2.891   6.377  1.2221 -0.9927  0.2075
 6119SOL    HW229820   3.888   3.009   6.445 -0.8500 -1.5059 -1.6712
 6120SOL     OW29821   0.699   1.611   3.634  0.2028 -0.2656 -0.1614
 6120SOL    HW129822   0.733   1.548   3.570 -1.8574  1.2910 -2.7510
 6120SOL    HW229823   0.726   1.564   3.713 -0.6208 -0.9047 -0.2599
 6121SOL     OW29824   2.545   0.411   3.960  0.2370 -0.6536  0.0332
 6121SOL    HW129825   2.568   0.365   3.880 -0.6949 -0.1002 -0.5407
 6121SOL    HW229826   2.472   0.467   3.934  1.2874 -0.3921 -2.3117
 6122SOL     OW29827   1.154   1.812  10.531 -0.0085  0.6922 -0.5414
 6122SOL    HW129828   1.092   1.746  10.501 -0.9421  0.6282  1.5606
 6122SOL    HW229829   1.163   1.870  10.456 -3.9069  2.2730  0.2449
 6123SOL     OW29830   2.887   0.225  17.516  0.1614  0.0441 -0.3146
 6123SOL    HW129831   2.839   0.245  17.435 -0.6591 -1.1308 -0.1290
 6123SOL    HW229832   2.979   0.230  17.490  0.2926 -1.4449 -0.1413
 6124SOL     OW29833   4.576   1.290   9.020 -0.5756 -0.1577 -0.4001
 6124SOL    HW129834   4.481   1.287   9.013 -0.4902 -0.2224 -1.5894
 6124SOL    HW229835   4.589   1.353   9.091  1.8002  1.0106 -1.8485
 6125SOL     OW29836   0.904   2.179   6.864  0.5401  0.0606 -0.8746
 6125SOL    HW129837   0.966   2.114   6.898  0.3373  0.7532  0.8169
 6125SOL    HW229838   0.820   2.132   6.867  0.2455  0.6176 -0.4807
 6126SOL     OW29839   3.566   0.150   2.971 -0.5847  0.0022  0.2501
 6126SOL    HW129840   3.499   0.211   3.002 -0.1607  0.7003 -0.1946
 6126SOL    HW229841   3.514   0.092   2.916  1.0912 -1.9363  0.7061
 6127SOL     OW29842   0.291   2.850  14.537  0.4115 -1.0185  0.2246
 6127SOL    HW129843   0.222   2.831  14.600 -1.5827  1.1711 -1.2733
 6127SOL    HW229844   0.371   2.829  14.585 -0.2848 -2.7283  0.6454
 6128SOL     OW29845   3.732   1.817   5.580 -0.1990  0.1100 -0.1211
 6128SOL    HW129846   3.759   1.776   5.662 -0.3740  0.6555  0.2057
 6128SOL    HW229847   3.672   1.753   5.541 -0.6775 -1.8260  3.7648
 6129SOL     OW29848   0.770   1.674  10.004 -0.1079  0.4693 -0.0011
 6129SOL    HW129849   0.826   1.598   9.986 -0.7846 -0.5553  2.1990
 6129SOL    HW229850   0.760   1.656  10.098 -0.4076 -1.8630 -0.4608
 6130SOL     OW29851   3.079   3.808   0.537 -0.5295  0.3162 -0.3562
 6130SOL    HW129852   3.113   3.720   0.553 -1.6377 -0.3060 -1.4099
 6130SOL    HW229853   3.035   3.821   0.621 -0.6272  3.0779 -0.8210
 6131SOL     OW29854   2.057   1.045  15.293 -0.4918 -0.0616  0.3193
 6131SOL    HW129855   2.057   1.138  15.271  1.6623 -0.5339 -1.6402
 6131SOL    HW229856   1.966   1.019  15.275  0.6778 -2.9198 -1.4118
 6132SOL     OW29857   0.960   0.573  15.836  0.5274  0.0195  0.1318
 6132SOL    HW129858   0.893   0.608  15.778  2.0223  1.8500 -0.5019
 6132SOL    HW229859   1.034   0.576  15.776  1.8822 -2.3450  1.6940
 6133SOL     OW29860   4.233   0.591   3.824  0.3021  0.2693 -0.0231
 6133SOL    HW129861   4.155   0.619   3.775  2.1462  1.0480 -2.5325
 6133SOL    HW229862   4.236   0.502   3.790 -0.5338  0.6388 -1.1111
 6134SOL     OW29863   4.507   1.868   4.007  0.0022 -0.2174 -0.3168
 6134SOL    HW129864   4.567   1.942   4.009  1.0851 -1.1366  1.2804
 6134SOL    HW229865   4.548   1.804   4.065  0.6588  0.0071 -0.5399
 6135SOL     OW29866   3.736   3.504   7.162 -0.0307  0.7355  0.0947
 6135SOL    HW129867   3.699   3.580   7.207  2.1846  0.9747  1.5390
 6135SOL    HW229868   3.651   3.466   7.138  0.6915 -2.3664  2.3338
 6136SOL     OW29869   3.231   4.712   4.157 -0.4393  0.2595  0.4033
 6136SOL    HW129870   3.298   4.647   4.137  0.3391  0.3999  2.5604
 6136SOL    HW229871   3.156   4.660   4.185  0.0832 -0.2513  0.8466
 6137SOL     OW29872   4.438   4.348   2.849 -0.2423  0.1653 -0.1743
 6137SOL    HW129873   4.512   4.295   2.818  1.0167  2.4096 -1.0199
 6137SOL    HW229874   4.367   4.323   2.790  1.4960 -1.7149 -1.4778
 6138SOL     OW29875   0.829   2.874   7.773  0.0698 -0.3039 -0.0296
 6138SOL    HW129876   0.906   2.820   7.788 -1.6464 -3.3987 -2.3024
 6138SOL    HW229877   0.787   2.896   7.856 -2.3672 -0.9114 -1.0818
 6139SOL     OW29878   1.449   3.408  15.891 -0.6614  0.1627 -0.7043
 6139SOL    HW129879   1.373   3.453  15.854 -0.3434  1.4783  0.2103
 6139SOL    HW229880   1.524   3.451  15.850 -0.1995  0.1067  0.0859
 6140SOL     OW29881   1.789   1.521   7.180  0.4629 -0.1564 -0.4349
 6140SOL    HW129882   1.741   1.582   7.124  2.4143  0.8036 -1.0989
 6140SOL    HW229883   1.761   1.552   7.265  0.9866 -0.8892  0.0067
 6141SOL     OW29884   4.512   4.491   6.022  0.1035 -0.4094  0.3242
 6141SOL    HW129885   4.441   4.530   5.971  0.2288 -1.1445 -0.4103
 6141SOL    HW229886   4.503   4.534   6.108  0.8254  2.6736 -1.1431
 6142SOL     OW29887   0.122   2.947   8.017  0.0535  0.0514  0.9781
 6142SOL    HW129888   0.108   2.983   8.104  3.4269 -0.3462  1.6843
 6142SOL    HW229889   0.098   2.856   8.034 -1.0122  0.6634  2.8206
 6143SOL     OW29890   1.197   4.713   6.637 -0.6768  0.0894 -0.2112
 6143SOL    HW129891   1.149   4.651   6.692  0.3799  1.3060  2.1068
 6143SOL    HW229892   1.280   4.666   6.629 -1.2275 -0.7934 -0.7072
 6144SOL     OW29893   3.915   3.051  17.598 -0.4487  0.0952  0.4819
 6144SOL    HW129894   3.878   3.081  17.681  2.0585 -1.1154  2.0236
 6144SOL    HW229895   3.928   2.958  17.614 -0.4170  0.2892  1.5710
 6145SOL     OW29896   2.795   0.433  15.030 -0.4427 -0.1610  0.1847
 6145SOL    HW129897   2.829   0.522  15.016 -2.3975  0.2979 -1.6668
 6145SOL    HW229898   2.803   0.382  14.950 -1.9303 -0.1323  0.0217
 6146SOL     OW29899   4.124   2.918   1.848 -0.5504  0.1889  0.1170
 6146SOL    HW129900   4.119   2.829   1.885 -2.4861 -0.3133 -1.3926
 6146SOL    HW229901   4.217   2.934   1.866  0.1864 -3.2311 -0.5492
 6147SOL     OW29902   0.961   0.801  14.605 -0.2402 -0.5562  0.0744
 6147SOL    HW129903   1.051   0.812  14.573 -0.6660 -0.3406 -1.0482
 6147SOL    HW229904   0.972   0.787  14.699  0.9431 -0.1679 -0.0104
 6148SOL     OW29905   4.644   2.004   4.604  0.1794 -0.4612 -0.2823
 6148SOL    HW129906   4.561   1.957   4.606  0.3372 -0.6834  0.9010
 6148SOL    HW229907   4.646   2.047   4.519 -0.7846 -2.7510 -1.4438
 6149SOL     OW29908   4.496   0.641   8.385 -0.7057 -0.4522 -0.1909
 6149SOL    HW129909   4.575   0.594   8.410 -0.1679  0.2833 -0.5058
 6149SOL    HW229910   4.501   0.659   8.291  0.1157 -2.9379 -0.6276
 6150SOL     OW29911   2.644   0.223   9.803  0.3345  0.0715 -0.0443
 6150SOL    HW129912   2.549   0.211   9.793  0.4871 -2.5240  1.6978
 6150SOL    HW229913   2.679   0.143   9.763  0.7409  0.5764 -0.7118
 6151SOL     OW29914   4.423   2.345  11.361 -0.4578 -0.5082  0.5002
 6151SOL    HW129915   4.487   2.360  11.430  2.0256 -0.0605 -1.8843
 6151SOL    HW229916   4.430   2.429  11.314 -0.2021 -0.0307  1.3898
 6152SOL     OW29917   1.396   1.705  16.787 -0.2712  0.6296  0.4130
 6152SOL    HW129918   1.430   1.700  16.876 -0.4293  0.4998  0.4668
 6152SOL    HW229919   1.449   1.770  16.740 -1.1695  0.1070 -1.3150
 6153SOL     OW29920   2.424   3.689   3.912  0.1463 -0.3295  0.6836
 6153SOL    HW129921   2.501   3.720   3.960 -0.5525 -0.8635  2.1651
 6153SOL    HW229922   2.452   3.701   3.821 -2.5818  0.7809 -0.0025
 6154SOL     OW29923   1.989   4.686   9.343 -0.1315  0.1872  0.3281
 6154SOL    HW129924   2.037   4.603   9.339 -0.0754  0.3231 -1.7475
 6154SOL    HW229925   2.047   0.010   9.282  3.4221 -3.1938  1.1237
 6155SOL     OW29926   4.215   0.658  13.551  0.1360  0.8002 -0.0562
 6155SOL    HW129927   4.128   0.698  13.557 -0.2726 -0.0928 -0.1136
 6155SOL    HW229928   4.219   0.609  13.633 -0.2837  0.3746 -0.2962
 6156SOL     OW29929   0.846   1.243   7.499  0.4389  1.0051 -0.2976
 6156SOL    HW129930   0.894   1.176   7.449 -1.5054 -0.3093 -0.3998
 6156SOL    HW229931   0.799   1.193   7.566 -0.4146  0.5240 -1.2593
 6157SOL     OW29932   4.578   0.946  12.828  0.1207 -0.1425 -0.7262
 6157SOL    HW129933   4.548   0.956  12.738  1.5795  3.4948 -0.8219
 6157SOL    HW229934   4.541   1.022  12.874  2.0878 -0.3850  1.3005
 6158SOL     OW29935   3.245   0.045   8.877 -0.5555 -0.2210 -0.0143
 6158SOL    HW129936   3.228   0.050   8.782  0.8028  0.6153 -0.2150
 6158SOL    HW229937   3.338   0.061   8.891 -0.4340  0.1048 -1.1349
 6159SOL     OW29938   3.272   3.423   3.736 -0.0492  0.1427  0.0582
 6159SOL    HW129939   3.244   3.338   3.770  0.3297  0.3015  0.7950
 6159SOL    HW229940   3.229   3.486   3.794  0.3915 -0.2099  0.7788
 6160SOL     OW29941   1.103   4.340   5.753 -0.0684  0.9323 -0.0468
 6160SOL    HW129942   1.153   4.319   5.833  0.1027 -0.2318 -0.4566
 6160SOL    HW229943   1.170   4.339   5.685  0.2974  1.1706  0.3036
 6161SOL     OW29944   1.355   3.552   0.985  0.4187  0.2292 -0.0805
 6161SOL    HW129945   1.305   3.634   0.988 -1.6683 -1.0466 -0.5000
 6161SOL    HW229946   1.283   3.489   0.980 -1.2723  2.1647 -0.3872
 6162SOL     OW29947   3.915   1.200   0.872 -0.3211 -0.0428  0.3393
 6162SOL    HW129948   3.911   1.110   0.904  1.6675 -0.1415  0.3345
 6162SOL    HW229949   3.976   1.236   0.936 -0.4566 -1.5585  1.3214
 6163SOL     OW29950   1.439   2.213   6.157  0.4427 -0.6677  0.3341
 6163SOL    HW129951   1.491   2.133   6.157  0.4107 -0.6924  1.5306
 6163SOL    HW229952   1.347   2.189   6.151  0.6884 -1.0423 -1.8077
 6164SOL     OW29953   0.446   0.996   5.458  0.7595 -0.3449 -0.3426
 6164SOL    HW129954   0.398   1.016   5.378  1.2737 -0.8666 -0.7759
 6164SOL    HW229955   0.477   1.085   5.475 -0.0698  0.5809 -3.7431
 6165SOL     OW29956   4.526   4.102   2.463  0.3668  0.0246 -0.1406
 6165SOL    HW129957   4.507   4.023   2.412  0.7552 -0.2363  0.1165
 6165SOL    HW229958   4.467   4.162   2.417 -1.7965  0.4983  3.2553
 6166SOL     OW29959   0.827   2.226  10.386 -0.3556 -0.2843  0.0505
 6166SOL    HW129960   0.878   2.260  10.460  1.1999  0.9518 -1.5973
 6166SOL    HW229961   0.756   2.289  10.382 -1.3059 -1.2739  1.1560
 6167SOL     OW29962   3.948   0.707   8.654 -0.1388 -0.1479  0.3391
 6167SOL    HW129963   4.038   0.690   8.625  0.3943  2.6286  0.3744
 6167SOL    HW229964   3.953   0.732   8.746 -0.2674 -0.1293  0.3404
 6168SOL     OW29965   2.186   3.150   7.777  0.1753 -0.3310 -0.1740
 6168SOL    HW129966   2.132   3.071   7.771 -1.1026  0.6484 -1.4427
 6168SOL    HW229967   2.150   3.186   7.858  1.2854 -1.1148  0.6700
 6169SOL     OW29968   1.657   4.125   1.858 -0.1416  0.1145 -0.4552
 6169SOL    HW129969   1.602   4.099   1.931  2.8636  0.4333  1.9183
 6169SOL    HW229970   1.743   4.088   1.879 -0.1436  0.2974 -0.1228
 6170SOL     OW29971   4.256   4.171   7.396  0.6112 -0.1409 -1.0788
 6170SOL    HW129972   4.274   4.077   7.405  0.8753  0.0623  0.5236
 6170SOL    HW229973   4.246   4.171   7.301 -0.9416 -0.8985 -0.9098
 6171SOL     OW29974   3.836   0.106  11.077  0.2550 -0.3946 -0.5810
 6171SOL    HW129975   3.914   0.135  11.125 -0.1038  1.2718 -1.0031
 6171SOL    HW229976   3.864   0.130  10.989  1.7175 -1.6661 -0.4651
 6172SOL     OW29977   1.549   3.170   4.032 -0.5272 -0.0664  0.0465
 6172SOL    HW129978   1.640   3.145   4.012 -1.2388 -1.7420 -1.0605
 6172SOL    HW229979   1.533   3.143   4.122 -2.1125  1.3199  0.1804
 6173SOL     OW29980   1.995   0.844   4.352 -0.3200 -0.0021 -0.2116
 6173SOL    HW129981   2.009   0.938   4.361  1.1174  0.0793 -2.9846
 6173SOL    HW229982   2.049   0.800   4.418 -0.8607 -1.6649 -0.8647
 6174SOL     OW29983   0.678   1.191   6.266  0.4561 -0.0556  0.0932
 6174SOL    HW129984   0.632   1.125   6.317  2.0175  0.1563  1.7751
 6174SOL    HW229985   0.761   1.145   6.255  1.6685  1.8169  1.3507
 6175SOL     OW29986   4.044   2.671   8.713 -0.1339 -0.2520  0.0191
 6175SOL    HW129987   4.123   2.626   8.743 -0.4982  1.0962  3.0199
 6175SOL    HW229988   4.042   2.760   8.749  0.9775 -1.0242  1.9671
 6176SOL     OW29989   4.430   3.417   0.933 -0.2239  0.8587  0.1423
 6176SOL    HW129990   4.501   3.388   0.876  0.6145  1.1838  1.0150
 6176SOL    HW229991   4.451   3.379   1.018 -0.7769  0.8691  0.2872
 6177SOL     OW29992   3.782   2.244   8.822 -0.3044 -0.5464 -0.6521
 6177SOL    HW129993   3.837   2.313   8.858  2.0797 -1.6104 -2.3031
 6177SOL    HW229994   3.711   2.293   8.781  0.9816  2.6153  0.8754
 6178SOL     OW29995   3.340   4.362   1.693 -0.8103  0.2291 -0.1306
 6178SOL    HW129996   3.352   4.406   1.777  0.4474  1.8022 -1.1413
 6178SOL    HW229997   3.264   4.306   1.707  0.5327 -1.9793 -1.6958
 6179SOL     OW29998   3.064   3.218   6.729  0.1192 -0.4692 -0.6474
 6179SOL    HW129999   2.981   3.262   6.749  0.1708 -0.8268  0.3415
 6179SOL    HW230000   3.087   3.266   6.649  0.7238 -1.5753 -1.1403
 6180SOL     OW30001   0.137   0.690   0.804 -0.2192  0.4626  0.2045
 6180SOL    HW130002   0.231   0.705   0.796 -0.1956 -0.6400 -1.5464
 6180SOL    HW230003   0.138   0.594   0.796 -0.2793  0.3500  1.6220
 6181SOL     OW30004   1.819   2.798  13.480 -0.2049 -0.3197  0.2506
 6181SOL    HW130005   1.798   2.760  13.394 -1.5264  1.1003 -0.0461
 6181SOL    HW230006   1.747   2.856  13.503  1.0536  1.3105  0.1335
 6182SOL     OW30007   1.656   3.815   6.923 -0.0274  0.1878 -0.3625
 6182SOL    HW130008   1.604   3.735   6.920 -0.3077  0.2767  2.3725
 6182SOL    HW230009   1.623   3.871   6.853  0.3698  1.2781  0.3210
 6183SOL     OW30010   2.410   0.122   3.051  0.4798  0.2145  0.0551
 6183SOL    HW130011   2.401   0.160   3.139 -0.5356 -0.4814  0.2453
 6183SOL    HW230012   2.420   0.031   3.079 -0.3394 -1.0787 -3.9276
 6184SOL     OW30013   4.123   0.137   3.834 -0.0698 -0.0300  0.2371
 6184SOL    HW130014   4.035   0.099   3.827 -0.4152  1.0549 -1.3244
 6184SOL    HW230015   4.177   0.060   3.820 -0.6463 -0.9715  3.1665
 6185SOL     OW30016   2.849   2.264   1.137 -0.1513  0.8095  0.1402
 6185SOL    HW130017   2.874   2.289   1.048 -1.2272 -0.2213 -0.4506
 6185SOL    HW230018   2.875   2.346   1.179  1.6669  0.5443 -0.4437
 6186SOL     OW30019   2.189   3.216  13.992  0.1928  0.3382 -0.0802
 6186SOL    HW130020   2.189   3.294  14.047 -0.3052 -0.4562  1.0461
 6186SOL    HW230021   2.178   3.255  13.905  3.5001  2.6789  0.5782
 6187SOL     OW30022   4.202   1.701  13.488 -0.1865  0.5735 -0.2931
 6187SOL    HW130023   4.219   1.713  13.395  2.1283  2.5356  0.3812
 6187SOL    HW230024   4.108   1.680  13.487 -0.3334  0.9618  3.7350
 6188SOL     OW30025   0.034   2.442   8.020 -0.6280 -0.1750 -0.4404
 6188SOL    HW130026   0.084   2.430   8.100 -1.9772  0.5689  0.5133
 6188SOL    HW230027   4.704   2.361   8.024  0.2716 -0.8473 -2.0426
 6189SOL     OW30028   2.545   2.445  17.121  0.3989 -0.3012 -0.7406
 6189SOL    HW130029   2.549   2.357  17.159  1.2008 -0.0087 -0.1550
 6189SOL    HW230030   2.637   2.472  17.118 -0.1703  1.6940 -0.3759
 6190SOL     OW30031   2.015   4.254   3.798  0.2735  0.4764  0.1321
 6190SOL    HW130032   2.050   4.176   3.840  0.5505  1.0167  0.8852
 6190SOL    HW230033   1.953   4.202   3.745 -0.2938  0.5916  0.6827
 6191SOL     OW30034   3.454   4.031  16.391  0.0567  0.2363 -0.3493
 6191SOL    HW130035   3.373   3.984  16.374 -0.6961  2.0761 -1.8826
 6191SOL    HW230036   3.416   4.094  16.453  1.8660  0.8329  0.1750
 6192SOL     OW30037   0.157   3.300  15.446  0.5820  0.4026  0.1972
 6192SOL    HW130038   0.237   3.268  15.486 -0.4381  0.5766  2.3844
 6192SOL    HW230039   0.132   3.378  15.496  0.4803 -0.8656  2.1141
 6193SOL     OW30040   1.361   3.397  15.295 -0.3407 -0.2545 -0.5356
 6193SOL    HW130041   1.353   3.443  15.379 -0.1877 -0.5359 -0.3687
 6193SOL    HW230042   1.272   3.395  15.260 -0.8291 -4.0790  0.9805
 6194SOL     OW30043   0.353   3.397   9.807  0.4072  0.0526 -0.7408
 6194SOL    HW130044   0.330   3.486   9.834 -0.0701 -0.1436 -0.5068
 6194SOL    HW230045   0.336   3.348   9.887  0.2327 -1.6320 -1.8060
 6195SOL     OW30046   1.153   2.344   6.257 -0.0692  0.3111 -0.1612
 6195SOL    HW130047   1.187   2.292   6.184  0.8677 -0.3386  0.7489
 6195SOL    HW230048   1.112   2.423   6.221 -1.0469 -0.0273  0.2198
 6196SOL     OW30049   3.861   1.327   7.983 -0.1514 -0.1642  0.1310
 6196SOL    HW130050   3.914   1.314   7.904  1.2450  2.0473  0.7047
 6196SOL    HW230051   3.925   1.329   8.053 -3.0002 -0.1410  2.7564
 6197SOL     OW30052   3.551   4.716   3.860 -0.1908  0.1961  0.2178
 6197SOL    HW130053   3.564   4.622   3.851 -0.7581  0.1050  0.3416
 6197SOL    HW230054   3.457   0.009   3.871  0.1212  1.3135  1.4652
 6198SOL     OW30055   1.674   2.707   8.209 -0.2314 -0.0354  0.0843
 6198SOL    HW130056   1.579   2.708   8.198 -0.1307 -0.4337 -0.8084
 6198SOL    HW230057   1.701   2.626   8.167 -0.6638 -0.3163  0.3428
 6199SOL     OW30058   2.141   1.747  15.065 -0.5849 -0.2652  0.0313
 6199SOL    HW130059   2.056   1.740  15.023 -1.5041  0.9440  1.6991
 6199SOL    HW230060   2.189   1.714  14.989  1.9186  2.1839  0.5252
 6200SOL     OW30061   2.744   4.324   4.840 -0.7343 -0.8250 -0.0679
 6200SOL    HW130062   2.787   4.250   4.883  1.8957  0.9510  0.3785
 6200SOL    HW230063   2.757   4.312   4.746  0.5798 -0.5339  0.0652
 6201SOL     OW30064   0.611   1.173   4.711 -0.4352  0.9588 -0.1360
 6201SOL    HW130065   0.693   1.178   4.661  0.2854 -3.1542  0.6206
 6201SOL    HW230066   0.648   1.160   4.798  0.6000  0.4782 -0.6466
 6202SOL     OW30067   3.471   2.130  15.980  0.4114 -0.4249 -0.5486
 6202SOL    HW130068   3.460   2.197  15.913  0.8394 -1.4019 -1.5914
 6202SOL    HW230069   3.562   2.133  16.010  0.9970 -1.2807 -2.2565
 6203SOL     OW30070   2.117   4.417   9.362 -0.1640 -0.0470 -0.0865
 6203SOL    HW130071   2.033   4.374   9.380  0.9509 -2.1520  0.1638
 6203SOL    HW230072   2.157   4.345   9.313 -0.3893 -1.3863  1.7018
 6204SOL     OW30073   2.821   1.398  17.652  0.1584 -0.1308  0.2525
 6204SOL    HW130074   2.894   1.354  17.610 -1.2460 -1.3598 -0.9137
 6204SOL    HW230075   2.749   1.389  17.589 -1.5571  1.0866  2.0261
 6205SOL     OW30076   3.815   2.080   9.555  0.2592 -0.0038  0.1970
 6205SOL    HW130077   3.749   2.121   9.500  0.5181 -0.6875 -0.6262
 6205SOL    HW230078   3.838   2.009   9.494 -1.1561 -0.4979  0.2489
 6206SOL     OW30079   2.954   3.344   4.517  0.5211  0.3624 -0.4346
 6206SOL    HW130080   3.016   3.416   4.521  0.4454  0.3959  0.0690
 6206SOL    HW230081   2.980   3.301   4.435  3.0308  1.5431 -0.2397
 6207SOL     OW30082   1.641   3.971   2.863  0.2171  0.5765 -0.1736
 6207SOL    HW130083   1.601   4.057   2.847 -0.1934  0.5089  0.5190
 6207SOL    HW230084   1.634   3.957   2.957 -0.2928  1.2123 -0.1189
 6208SOL     OW30085   0.556   2.050  12.494 -0.0210  0.3566  0.4033
 6208SOL    HW130086   0.614   2.053  12.570  0.3331 -2.6181  0.2451
 6208SOL    HW230087   0.528   2.142  12.497  2.1456  1.0121 -0.0925
 6209SOL     OW30088   1.721   3.517   4.204  0.4117 -0.5163 -0.1328
 6209SOL    HW130089   1.635   3.504   4.244  0.7831  2.1536  1.4993
 6209SOL    HW230090   1.741   3.427   4.182 -2.0269 -1.1659  0.2966
 6210SOL     OW30091   0.569   0.352   7.528 -0.6488 -0.3568  0.3671
 6210SOL    HW130092   0.553   0.293   7.602  0.5102 -1.4581 -0.2528
 6210SOL    HW230093   0.486   0.343   7.481 -2.6810  1.1717  3.7540
 6211SOL     OW30094   2.476   2.311   6.106  0.3330  0.0761 -0.6351
 6211SOL    HW130095   2.495   2.354   6.023  0.2568 -2.6528 -2.0783
 6211SOL    HW230096   2.398   2.361   6.129  0.4835  0.1327 -0.2537
 6212SOL     OW30097   3.852   0.184   5.576 -0.0923  0.1781 -0.2305
 6212SOL    HW130098   3.771   0.225   5.606 -0.1522 -0.3975  0.3967
 6212SOL    HW230099   3.848   0.202   5.482  2.3361 -2.1797 -0.7966
 6213SOL     OW30100   2.131   0.714   2.034 -0.3075  0.7699 -0.3238
 6213SOL    HW130101   2.173   0.792   2.070  1.2183 -1.0072  1.7108
 6213SOL    HW230102   2.189   0.648   2.070 -0.1453  0.9703 -0.2181
 6214SOL     OW30103   3.778   2.441   6.971  0.4410 -0.0859  0.1387
 6214SOL    HW130104   3.699   2.495   6.965 -0.8094 -1.9542 -0.1812
 6214SOL    HW230105   3.844   2.506   6.994 -1.0747  1.1288  1.0048
 6215SOL     OW30106   3.127   1.886   3.123 -0.1724  0.2532  0.0962
 6215SOL    HW130107   3.070   1.963   3.112  0.5902  0.8878  0.5894
 6215SOL    HW230108   3.183   1.906   3.198 -1.0762 -0.9707  1.0931
 6216SOL     OW30109   4.094   0.987   1.992 -0.1457  0.1902 -0.0902
 6216SOL    HW130110   4.116   1.059   2.051 -1.6562  1.0792 -0.6149
 6216SOL    HW230111   4.027   1.027   1.937  0.2040  1.7327  0.6292
 6217SOL     OW30112   4.675   3.030   5.662 -0.7944 -0.2660  0.2838
 6217SOL    HW130113   4.718   3.042   5.747 -0.1707  0.2368 -0.1000
 6217SOL    HW230114   4.632   3.115   5.653  0.6029  0.2049 -2.0281
 6218SOL     OW30115   0.746   1.597   5.475 -0.2818 -0.3398 -0.4192
 6218SOL    HW130116   0.673   1.565   5.528  0.3947 -0.7070  0.2825
 6218SOL    HW230117   0.819   1.563   5.526  0.4135  0.5850 -0.8044
 6219SOL     OW30118   2.679   0.473   7.206 -0.8545  0.1340  0.5914
 6219SOL    HW130119   2.596   0.521   7.198 -0.8013  0.3243  1.1464
 6219SOL    HW230120   2.737   0.539   7.244  0.1347  0.6863 -1.8728
 6220SOL     OW30121   2.738   0.460  13.139  0.0972  0.1756 -0.5825
 6220SOL    HW130122   2.663   0.421  13.184 -0.1288  2.1665  0.7504
 6220SOL    HW230123   2.773   0.525  13.201 -0.9095 -0.5027  0.6914
 6221SOL     OW30124   2.575   0.845   6.752  0.2514  0.0719  0.3190
 6221SOL    HW130125   2.606   0.885   6.833  0.8727 -2.9142  1.5627
 6221SOL    HW230126   2.520   0.775   6.786 -1.3945  1.7244  1.0825
 6222SOL     OW30127   4.594   1.124   3.797 -0.5893 -0.0782 -0.2769
 6222SOL    HW130128   4.656   1.054   3.779  0.5571  1.5404 -2.5983
 6222SOL    HW230129   4.553   1.144   3.713  0.1545 -1.0843 -0.8695
 6223SOL     OW30130   2.297   4.161   4.066  0.1034 -0.0500  0.3777
 6223SOL    HW130131   2.329   4.073   4.046  3.1005  1.3238 -0.9299
 6223SOL    HW230132   2.242   4.149   4.143 -0.6255  0.6244 -0.0347
 6224SOL     OW30133   0.171   0.061   8.385 -0.2166  0.1205  0.6738
 6224SOL    HW130134   0.168   0.004   8.461 -0.7359  1.1626  1.4287
 6224SOL    HW230135   0.250   0.112   8.403  0.4332 -0.7265  0.2153
 6225SOL     OW30136   4.602   4.391   4.627  0.0952 -0.5699 -0.1608
 6225SOL    HW130137   4.610   4.338   4.548  0.3830  0.4952 -0.8470
 6225SOL    HW230138   4.510   4.373   4.646 -0.1465  1.4108  0.5386
 6226SOL     OW30139   4.436   1.011   7.749  0.0784  0.2543  0.0441
 6226SOL    HW130140   4.474   1.018   7.661  0.0313  1.8091  0.1529
 6226SOL    HW230141   4.486   0.935   7.779  0.4962  1.1587  1.6099
 6227SOL     OW30142   3.381   1.943  16.197  0.1091 -0.2932  0.4653
 6227SOL    HW130143   3.334   1.862  16.214 -1.5930  0.8766  1.2926
 6227SOL    HW230144   3.414   1.937  16.108  0.0227 -0.1712  0.4250
 6228SOL     OW30145   2.410   1.904   6.685  0.1984 -0.2678 -0.2294
 6228SOL    HW130146   2.468   1.831   6.666  1.2665  1.2296 -2.6727
 6228SOL    HW230147   2.474   1.974   6.699  0.3959 -0.6795  0.9743
 6229SOL     OW30148   2.637   0.244   3.746  0.5701  0.3662 -0.4592
 6229SOL    HW130149   2.688   0.241   3.665 -0.5702  2.4706 -1.2867
 6229SOL    HW230150   2.627   0.149   3.753 -1.2196  0.4785 -1.5086
 6230SOL     OW30151   4.713   2.824   1.909  0.3325 -0.6454  0.2248
 6230SOL    HW130152   0.025   2.759   1.848  2.5495  1.0481 -0.3805
 6230SOL    HW230153   4.677   2.888   1.847 -0.2629 -0.1668  1.0643
 6231SOL     OW30154   2.800   0.070   4.537 -0.5144  0.4844 -0.7647
 6231SOL    HW130155   2.744   0.147   4.536 -1.2381 -0.0418 -0.1599
 6231SOL    HW230156   2.892   0.098   4.535 -0.3133 -0.2299 -1.5995
 6232SOL     OW30157   3.551   3.835   1.606  0.6795  0.9639 -0.7733
 6232SOL    HW130158   3.575   3.801   1.692 -0.6981 -0.6309 -1.0076
 6232SOL    HW230159   3.467   3.793   1.587 -0.1260  0.9710  2.7870
 6233SOL     OW30160   2.494   1.825   8.072  0.4595  0.2198 -0.4022
 6233SOL    HW130161   2.447   1.909   8.078  1.8034  0.8200  1.4014
 6233SOL    HW230162   2.459   1.786   8.152 -0.1324  0.2469 -0.6420
 6234SOL     OW30163   3.391   4.574   1.167 -0.9310 -0.6037  0.0053
 6234SOL    HW130164   3.353   4.492   1.135  0.2682 -1.2564  0.2532
 6234SOL    HW230165   3.483   4.564   1.142 -1.4182  1.9134 -2.9061
 6235SOL     OW30166   1.732   0.021   3.611  0.0862 -0.0786  0.3209
 6235SOL    HW130167   1.744   0.041   3.518 -0.2535 -1.6857 -0.0809
 6235SOL    HW230168   1.776   0.095   3.652 -2.8753  1.4283  0.7934
 6236SOL     OW30169   3.673   4.432   2.455  0.0439  0.2462 -0.2027
 6236SOL    HW130170   3.763   4.443   2.488 -0.5699  0.4641  1.3947
 6236SOL    HW230171   3.644   4.360   2.509 -2.2421  0.1793 -1.5380
 6237SOL     OW30172   3.003   0.189   9.733  0.0602  0.1547 -0.2010
 6237SOL    HW130173   3.052   0.117   9.694  2.3189  1.2699  0.6216
 6237SOL    HW230174   3.035   0.254   9.672 -0.2740 -1.3781 -1.9953
 6238SOL     OW30175   2.424   3.608   2.757  0.1748  0.3526 -0.5761
 6238SOL    HW130176   2.378   3.684   2.795  1.1061  0.4162  0.4496
 6238SOL    HW230177   2.402   3.611   2.664  0.4998 -3.4241 -0.7632
 6239SOL     OW30178   0.231   4.034   8.946  0.6047 -0.2584 -0.3634
 6239SOL    HW130179   0.144   4.041   8.986  0.4412  1.3422 -0.9784
 6239SOL    HW230180   0.273   4.118   8.962  1.1602 -0.8753  1.3862
 6240SOL     OW30181   1.546   2.891   4.918  0.2074 -0.1163  0.5370
 6240SOL    HW130182   1.635   2.905   4.884 -1.1562  1.3227 -2.4246
 6240SOL    HW230183   1.553   2.960   4.984 -0.3682  0.9741 -0.5421
 6241SOL     OW30184   0.197   1.395  16.396 -0.5859 -0.8838 -0.1594
 6241SOL    HW130185   0.147   1.352  16.466 -0.7845  0.6884  0.6719
 6241SOL    HW230186   0.256   1.321  16.380  1.1168  1.2909 -3.8686
 6242SOL     OW30187   0.026   4.494   3.773 -0.6452  0.0209  0.4037
 6242SOL    HW130188   0.096   4.431   3.791 -0.0230  0.3195 -0.9798
 6242SOL    HW230189   4.669   4.441   3.786 -0.6598 -0.0983 -0.2097
 6243SOL     OW30190   0.011   4.483   7.929  0.6202  0.0469 -0.2953
 6243SOL    HW130191   0.019   4.388   7.938 -1.1463  0.1691  2.7404
 6243SOL    HW230192   0.028   4.506   8.020 -3.2653  3.0250 -0.3014
 6244SOL     OW30193   1.576   4.307   6.064 -0.9829 -0.7220  0.1071
 6244SOL    HW130194   1.633   4.313   6.141 -0.8753  2.7851 -0.2361
 6244SOL    HW230195   1.562   4.213   6.071 -1.3971 -0.5754  1.1153
 6245SOL     OW30196   4.651   0.223   8.347 -0.6735  0.1928 -0.0012
 6245SOL    HW130197   0.006   0.167   8.356 -1.8342 -1.2018  1.1300
 6245SOL    HW230198   4.683   0.281   8.277 -2.6702  1.4435  0.1375
 6246SOL     OW30199   1.097   1.874   1.019 -0.2701 -0.0914  0.0171
 6246SOL    HW130200   1.022   1.854   0.963 -0.8119 -2.6456  1.6371
 6246SOL    HW230201   1.176   1.872   0.965 -0.4700 -0.4024 -0.2626
 6247SOL     OW30202   2.687   1.403   0.248 -0.0799 -0.3177  0.5078
 6247SOL    HW130203   2.761   1.457   0.219 -0.2135 -0.5912 -0.3582
 6247SOL    HW230204   2.690   1.312   0.217 -1.4942 -0.5786  1.1486
 6248SOL     OW30205   3.343   0.872   2.938  0.0568  0.5815  0.0201
 6248SOL    HW130206   3.419   0.890   2.883 -0.3721  0.4088 -0.6250
 6248SOL    HW230207   3.268   0.875   2.880 -0.7876 -1.8305  0.9852
 6249SOL     OW30208   1.535   4.346  10.205  0.6665 -0.7406  0.0489
 6249SOL    HW130209   1.535   4.251  10.197 -1.9250 -0.6725 -0.7539
 6249SOL    HW230210   1.630   4.355  10.214  0.5949 -1.0417  1.0827
 6250SOL     OW30211   1.708   4.384   6.295  0.2869 -0.3464  0.5828
 6250SOL    HW130212   1.799   4.354   6.302  0.4392  0.2382  1.0864
 6250SOL    HW230213   1.726   4.478   6.284 -0.3423 -0.5010 -1.8709
 6251SOL     OW30214   1.695   0.781   3.214  0.7604  0.1183 -0.3004
 6251SOL    HW130215   1.788   0.760   3.202  0.4880 -1.8512  0.8841
 6251SOL    HW230216   1.675   0.738   3.298  0.3966  2.0932  0.6291
 6252SOL     OW30217   3.677   3.930   1.377  0.5102 -0.0008 -0.4778
 6252SOL    HW130218   3.622   3.915   1.454 -0.8558 -0.6181 -1.5840
 6252SOL    HW230219   3.637   3.871   1.314  0.3179  0.0337 -0.3890
 6253SOL     OW30220   4.441   2.522   1.998  0.6192  0.0166 -0.2407
 6253SOL    HW130221   4.455   2.588   2.065  2.0819 -1.7701  1.2146
 6253SOL    HW230222   4.510   2.459   2.019 -0.2474 -0.8960 -0.1558
 6254SOL     OW30223   3.262   2.974   9.023 -0.0646  0.3385 -0.2741
 6254SOL    HW130224   3.293   3.057   8.987  0.3770 -0.1655 -1.0544
 6254SOL    HW230225   3.275   2.983   9.117 -0.9255 -1.1107 -0.0179
 6255SOL     OW30226   4.699   3.817   6.495 -0.3503  0.1790 -0.7028
 6255SOL    HW130227   4.666   3.823   6.405 -0.0001  0.1433 -0.8362
 6255SOL    HW230228   4.614   3.805   6.536 -1.6128  2.1586 -2.7172
 6256SOL     OW30229   0.616   0.548   8.889  0.1965  0.2256  0.4680
 6256SOL    HW130230   0.616   0.639   8.917  0.0109  0.0065  1.1985
 6256SOL    HW230231   0.577   0.553   8.802 -1.1812  0.6306  1.1078
 6257SOL     OW30232   0.785   0.800   0.381  0.4514 -0.4894  0.2896
 6257SOL    HW130233   0.874   0.767   0.396  0.3726  0.3462  2.6180
 6257SOL    HW230234   0.752   0.804   0.471  0.3570 -1.3708  0.2897
 6258SOL     OW30235   2.180   0.812   3.981 -0.1452  0.1118 -0.1313
 6258SOL    HW130236   2.200   0.751   3.910  1.7663  3.0665 -2.1193
 6258SOL    HW230237   2.185   0.898   3.939 -2.4610 -0.3005 -1.2449
 6259SOL     OW30238   4.368   2.069   9.429  0.5501 -0.8687  0.0745
 6259SOL    HW130239   4.396   2.012   9.501  1.6069 -0.0330  0.3190
 6259SOL    HW230240   4.418   2.032   9.356 -2.2733  0.1000 -2.3597
 6260SOL     OW30241   2.084   4.655  13.188 -0.1672 -0.3321 -0.7952
 6260SOL    HW130242   2.039   4.571  13.191 -1.5455  0.4558  0.6978
 6260SOL    HW230243   2.017   4.696  13.243  0.7124  0.4403 -0.3148
 6261SOL     OW30244   0.224   3.033   6.052 -0.0928  0.0724 -1.1158
 6261SOL    HW130245   0.237   2.959   5.992 -0.4923 -1.5280  0.7761
 6261SOL    HW230246   0.148   3.083   6.023  0.5052  1.6592  0.0625
 6262SOL     OW30247   0.182   3.137   3.356 -0.1334  0.8653 -0.0632
 6262SOL    HW130248   0.183   3.094   3.271  0.2713  2.9158 -1.0962
 6262SOL    HW230249   0.112   3.201   3.342 -1.7078 -0.5829  1.0998
 6263SOL     OW30250   4.149   4.081   8.039  0.5443 -0.5855  0.0308
 6263SOL    HW130251   4.221   4.030   8.002  0.9436 -0.1962  0.2737
 6263SOL    HW230252   4.131   4.146   7.971  1.3829  2.5829  2.8137
 6264SOL     OW30253   1.075   0.690   4.717 -0.0436  0.4161  0.0623
 6264SOL    HW130254   1.055   0.768   4.665 -1.1383 -0.4190 -0.7594
 6264SOL    HW230255   1.021   0.622   4.678 -2.3314  1.9350  0.5835
 6265SOL     OW30256   0.363   0.865   5.697 -0.3128 -0.3983  0.4478
 6265SOL    HW130257   0.411   0.942   5.728  0.7334 -0.8335 -0.0717
 6265SOL    HW230258   0.372   0.890   5.605  0.5404 -0.6966  0.4485
 6266SOL     OW30259   3.764   3.204   2.522  0.7115 -0.3821 -0.2009
 6266SOL    HW130260   3.831   3.166   2.466  0.6645  0.5403 -0.8774
 6266SOL    HW230261   3.730   3.270   2.461  3.9536 -1.0996 -2.7886
 6267SOL     OW30262   2.147   0.877   6.632  0.1251  0.3075  0.4416
 6267SOL    HW130263   2.223   0.860   6.577 -1.2939 -1.0321 -1.1154
 6267SOL    HW230264   2.185   0.963   6.651  0.1573  0.5157 -0.6015
 6268SOL     OW30265   1.811   3.237   0.936 -0.4038 -0.3038  0.2665
 6268SOL    HW130266   1.802   3.175   1.008 -2.3379 -2.2561 -1.6492
 6268SOL    HW230267   1.728   3.284   0.951 -1.4758 -2.6569  1.7555
 6269SOL     OW30268   2.648   1.766   3.566  0.0347 -0.3343  0.1690
 6269SOL    HW130269   2.679   1.683   3.603 -2.1355 -1.3891 -0.3672
 6269SOL    HW230270   2.727   1.778   3.514 -0.1237 -1.5570 -0.3758
 6270SOL     OW30271   4.320   3.538   9.271 -0.9114  0.1670 -0.3049
 6270SOL    HW130272   4.347   3.611   9.215  2.2185 -0.4673  0.4116
 6270SOL    HW230273   4.294   3.577   9.354 -1.7499 -0.9185 -0.0555
 6271SOL     OW30274   2.886   3.454  16.807 -0.1910  0.2380 -0.2758
 6271SOL    HW130275   2.891   3.510  16.730  1.7883 -0.2733 -0.5229
 6271SOL    HW230276   2.854   3.376  16.762  0.1029  0.3274 -0.6317
 6272SOL     OW30277   3.696   2.184   7.948 -0.3376 -0.1752  0.5542
 6272SOL    HW130278   3.666   2.125   7.879 -0.8771  0.1378  0.5168
 6272SOL    HW230279   3.755   2.139   8.007 -1.4782 -1.5883  0.6014
 6273SOL     OW30280   1.513   1.423   2.525 -0.7577 -0.3641 -0.1487
 6273SOL    HW130281   1.449   1.356   2.551  0.6931 -0.9960  1.7670
 6273SOL    HW230282   1.572   1.379   2.463 -1.8834  0.9383 -2.1377
 6274SOL     OW30283   2.236   2.330   8.729 -0.1209 -0.0311 -0.4133
 6274SOL    HW130284   2.191   2.363   8.807 -0.2922 -2.2828  0.4351
 6274SOL    HW230285   2.216   2.393   8.659 -1.5951 -0.6533 -0.5425
 6275SOL     OW30286   3.135   2.997   8.723  0.3850 -0.5448 -0.2581
 6275SOL    HW130287   3.202   2.981   8.789 -0.4473 -0.9474  0.4969
 6275SOL    HW230288   3.193   3.042   8.662 -0.4380  0.8645 -0.0060
 6276SOL     OW30289   4.716   2.775  13.011  0.3097  0.1606 -0.5906
 6276SOL    HW130290   0.084   2.746  12.994  0.6312  0.1360  1.1514
 6276SOL    HW230291   4.718   2.770  13.106 -3.0960 -1.3457 -0.5714
 6277SOL     OW30292   1.365   3.538   8.593 -0.1020 -0.2828 -0.2402
 6277SOL    HW130293   1.278   3.496   8.596  0.3907 -1.3840 -1.2193
 6277SOL    HW230294   1.424   3.467   8.570  0.3326 -0.2799  0.8707
 6278SOL     OW30295   4.403   4.637   1.884  0.3262  0.2295 -0.8297
 6278SOL    HW130296   4.314   4.603   1.878  0.9426 -1.6542  0.6488
 6278SOL    HW230297   4.417   4.655   1.791 -0.4904  0.7426 -0.8449
 6279SOL     OW30298   0.762   3.501  13.065 -0.0521  0.0608  0.3243
 6279SOL    HW130299   0.720   3.416  13.077  1.9849 -1.2848 -2.1552
 6279SOL    HW230300   0.846   3.466  13.035  0.4681  1.5273  0.0676
 6280SOL     OW30301   0.775   0.857   9.020 -0.2354  0.0183 -0.1712
 6280SOL    HW130302   0.818   0.870   9.104 -0.6365  0.5692 -0.0550
 6280SOL    HW230303   0.841   0.818   8.963  0.2013 -1.9776  1.6753
 6281SOL     OW30304   0.578   1.902   9.559  0.0653 -0.1597 -0.2889
 6281SOL    HW130305   0.527   1.910   9.640 -0.0436  0.5289 -0.4233
 6281SOL    HW230306   0.628   1.824   9.584 -0.1732  0.6187  2.6747
 6282SOL     OW30307   1.000   0.052   6.471 -0.4156 -0.1001  0.3488
 6282SOL    HW130308   1.063   0.072   6.540  2.2488 -3.8245 -1.0245
 6282SOL    HW230309   0.997   4.678   6.481  1.2120 -0.4083 -2.3910
 6283SOL     OW30310   2.677   0.142  16.826  0.2835 -0.0007  0.5764
 6283SOL    HW130311   2.752   0.088  16.802  0.2051 -0.7648  2.0701
 6283SOL    HW230312   2.700   0.166  16.915  1.3426 -2.3837  0.9322
 6284SOL     OW30313   3.903   0.853   3.520 -0.1296  0.0285  0.0031
 6284SOL    HW130314   3.932   0.767   3.489 -1.4649 -0.0664 -1.0265
 6284SOL    HW230315   3.838   0.876   3.453  2.5338  2.4318 -1.7450
 6285SOL     OW30316   0.017   3.225   9.756 -0.0585 -0.4260  0.1258
 6285SOL    HW130317   0.001   3.279   9.679 -3.1710  0.2493  1.2545
 6285SOL    HW230318   0.046   3.147   9.708  1.8473 -1.0779  2.3001
 6286SOL     OW30319   2.594   1.974   9.205  0.2878  0.2231  0.5437
 6286SOL    HW130320   2.551   2.060   9.208  0.0106  0.1972 -2.1430
 6286SOL    HW230321   2.629   1.980   9.294 -0.5582  0.5496  0.8558
 6287SOL     OW30322   1.274   2.374   9.489  0.0084 -0.0809  0.2862
 6287SOL    HW130323   1.307   2.389   9.400  0.0732 -1.5264  0.0674
 6287SOL    HW230324   1.347   2.335   9.537  1.5036  1.4156 -0.7625
 6288SOL     OW30325   0.186   0.097   8.011 -0.1776  0.0937 -0.2903
 6288SOL    HW130326   0.248   0.135   8.072 -0.7277 -0.0064  0.3386
 6288SOL    HW230327   0.110   0.084   8.068  2.3766 -2.1419  2.5853
 6289SOL     OW30328   2.818   1.079   2.341 -0.2949 -0.3117  0.3441
 6289SOL    HW130329   2.779   1.007   2.291 -0.0448 -0.9053  1.0145
 6289SOL    HW230330   2.857   1.042   2.420  0.3279 -0.7952 -0.1934
 6290SOL     OW30331   3.095   3.307   9.026 -0.6967 -0.0976  0.1792
 6290SOL    HW130332   3.191   3.308   9.038 -0.8282 -0.0718  1.2970
 6290SOL    HW230333   3.080   3.385   8.973  0.7873  1.5834  2.2119
 6291SOL     OW30334   3.213   0.001  14.317 -0.4340  0.2501 -0.0208
 6291SOL    HW130335   3.247   4.647  14.269  0.7659  0.9148 -0.2227
 6291SOL    HW230336   3.243   4.694  14.403 -2.4100  2.0725  1.2630
 6292SOL     OW30337   0.242   4.188   5.805  0.0112 -0.6253 -0.0940
 6292SOL    HW130338   0.151   4.205   5.783  0.1147  0.7488  0.5642
 6292SOL    HW230339   0.284   4.255   5.751  1.8273 -2.2610 -0.7283
 6293SOL     OW30340   1.782   1.193   9.616  0.0974 -0.0360 -0.1094
 6293SOL    HW130341   1.865   1.210   9.572 -0.2605  0.0646 -0.7346
 6293SOL    HW230342   1.803   1.112   9.662  0.1269 -0.8819 -1.6360
 6294SOL     OW30343   0.242   3.682   6.452  0.1594  0.4141 -0.3747
 6294SOL    HW130344   0.291   3.764   6.447  0.5073  0.1617 -1.0718
 6294SOL    HW230345   0.156   3.716   6.478  1.5271  2.1845  1.7985
 6295SOL     OW30346   2.044   2.601   4.671 -0.2699 -0.1303 -0.0279
 6295SOL    HW130347   1.986   2.530   4.644  0.0509 -0.4386  0.0970
 6295SOL    HW230348   2.088   2.573   4.751 -0.4558 -0.4186 -0.0252
 6296SOL     OW30349   3.244   0.670  17.598  0.3237  0.4306 -0.1493
 6296SOL    HW130350   3.249   0.656  17.504 -0.2197  0.0286 -0.1229
 6296SOL    HW230351   3.185   0.599  17.624 -1.6883  1.5330 -1.6172
 6297SOL     OW30352   0.345   1.618   2.537  0.3238  0.1337 -0.5765
 6297SOL    HW130353   0.355   1.614   2.442 -1.4060 -1.5823 -0.6871
 6297SOL    HW230354   0.361   1.708   2.566 -2.4880  0.4079  0.1510
 6298SOL     OW30355   4.076   2.491   3.882  0.4528 -0.4078 -0.2909
 6298SOL    HW130356   4.003   2.524   3.830  1.9778 -0.1303 -2.2289
 6298SOL    HW230357   4.030   2.410   3.906  1.5784 -0.6775  0.9487
 6299SOL     OW30358   0.955   1.014   5.705 -0.1643  0.1530 -0.1006
 6299SOL    HW130359   1.009   0.946   5.745 -1.1948 -0.6051 -0.0167
 6299SOL    HW230360   0.909   0.966   5.636 -0.9469  3.1311 -1.6341
 6300SOL     OW30361   1.402   1.556   7.891  0.0286  0.0270  0.9088
 6300SOL    HW130362   1.402   1.466   7.923 -2.0725 -1.0340 -2.1309
 6300SOL    HW230363   1.364   1.552   7.804 -0.6786  0.1215  1.2173
 6301SOL     OW30364   1.353   1.741  10.704  0.2181 -0.1177  0.0383
 6301SOL    HW130365   1.295   1.750  10.628  0.3026 -0.7404 -0.1022
 6301SOL    HW230366   1.406   1.662  10.694 -0.0118 -0.3907  0.9511
 6302SOL     OW30367   1.033   2.164   5.199  0.0051  0.1673  0.2476
 6302SOL    HW130368   0.956   2.124   5.240 -0.1786  0.8096  0.5458
 6302SOL    HW230369   1.026   2.253   5.234 -1.0221  0.0882  0.2419
 6303SOL     OW30370   2.734   1.965   7.313  0.1744  0.4338  0.1508
 6303SOL    HW130371   2.821   1.942   7.280  0.8760  1.5632  1.2279
 6303SOL    HW230372   2.697   1.991   7.229  1.0164  0.6578 -0.1468
 6304SOL     OW30373   4.610   2.984   7.512 -0.8378 -0.2804  0.0583
 6304SOL    HW130374   4.666   3.057   7.539  1.4550 -2.1146  0.3064
 6304SOL    HW230375   4.568   3.024   7.436  0.5693 -0.1740 -0.6550
 6305SOL     OW30376   0.448   1.599   7.344 -0.1476 -0.1618 -0.1675
 6305SOL    HW130377   0.438   1.659   7.270 -0.6595  1.0648  0.8891
 6305SOL    HW230378   0.544   1.593   7.344 -0.1592 -0.4228 -2.1731
 6306SOL     OW30379   4.287   1.079  15.584 -0.7223  0.1945 -0.4125
 6306SOL    HW130380   4.262   1.061  15.494 -0.5926 -0.5473 -0.3001
 6306SOL    HW230381   4.362   1.138  15.572  0.7563 -2.1336 -2.4916
 6307SOL     OW30382   0.303   2.437   6.923 -0.3912  0.3680 -0.3219
 6307SOL    HW130383   0.397   2.423   6.912 -0.1053  1.0479  1.2741
 6307SOL    HW230384   0.288   2.377   6.995 -2.3964  0.6218 -0.5266
 6308SOL     OW30385   0.994   1.882   5.427 -0.9894  0.1048  0.4393
 6308SOL    HW130386   0.999   1.789   5.449 -2.1972 -1.1011 -4.3562
 6308SOL    HW230387   0.939   1.873   5.349  2.2721 -2.5856 -1.5462
 6309SOL     OW30388   0.129   2.080   1.402  0.1459  0.2005 -0.2499
 6309SOL    HW130389   0.041   2.062   1.434 -0.8731  1.1104 -2.5197
 6309SOL    HW230390   0.133   2.016   1.331 -1.1799 -0.2080  0.0455
 6310SOL     OW30391   3.809   1.527   1.879  0.2357  0.3908 -0.5288
 6310SOL    HW130392   3.802   1.604   1.823  1.3110  0.5272 -0.4771
 6310SOL    HW230393   3.823   1.466   1.806  0.6765 -2.1155  1.6591
 6311SOL     OW30394   1.167   3.154  16.612  0.1390  0.4598 -0.2296
 6311SOL    HW130395   1.259   3.175  16.601  0.7440 -1.6121  0.8254
 6311SOL    HW230396   1.131   3.204  16.539  1.5435  0.1344 -1.1298
 6312SOL     OW30397   2.648   1.886   5.934  0.0838  0.4177  0.0484
 6312SOL    HW130398   2.667   1.944   5.860 -1.1485  1.2746  0.4042
 6312SOL    HW230399   2.600   1.944   5.993  1.0761  0.6414  0.6348
 6313SOL     OW30400   4.545   3.981   2.852 -0.2936 -0.4323 -0.0956
 6313SOL    HW130401   4.488   3.911   2.821 -1.5142  0.1804  0.7749
 6313SOL    HW230402   4.628   3.937   2.868  0.1079  0.3378 -0.0277
 6314SOL     OW30403   0.039   0.569  17.259 -0.2781 -0.1438 -0.0855
 6314SOL    HW130404   4.694   0.503  17.241 -0.3158 -0.0344 -0.3533
 6314SOL    HW230405   0.056   0.549  17.351 -1.1962  0.3847  0.2013
 6315SOL     OW30406   3.720   4.334  11.182 -0.9006  0.0566 -0.4623
 6315SOL    HW130407   3.734   4.425  11.208 -1.6825  0.4289 -1.3398
 6315SOL    HW230408   3.624   4.328  11.186 -0.9749  1.4292 -0.2474
 6316SOL     OW30409   2.076   0.063   5.342  0.2252  0.1732 -0.2545
 6316SOL    HW130410   2.026   0.053   5.423  0.4741 -0.1139 -0.1392
 6316SOL    HW230411   2.159   0.027   5.373  1.1880  1.4170 -1.3610
 6317SOL     OW30412   0.412   2.606   4.396 -0.3495  0.1396  0.2294
 6317SOL    HW130413   0.487   2.664   4.401  0.2428 -0.5357 -0.8796
 6317SOL    HW230414   0.399   2.587   4.489  0.7039 -2.1420 -0.0915
 6318SOL     OW30415   1.630   2.344  14.131 -0.1765  0.2633  0.0057
 6318SOL    HW130416   1.698   2.404  14.100  1.8151 -1.9364  0.0871
 6318SOL    HW230417   1.555   2.401  14.146  1.8706  3.0303 -0.1811
 6319SOL     OW30418   3.064   1.615   4.982  0.1698 -0.0040 -0.1932
 6319SOL    HW130419   3.063   1.710   4.987 -1.0606  0.0049 -0.4785
 6319SOL    HW230420   3.072   1.605   4.887 -0.7310 -0.2026 -0.2500
 6320SOL     OW30421   2.583   2.465   8.947 -0.0618  0.0280 -0.1388
 6320SOL    HW130422   2.652   2.512   8.901  1.1303  0.3402  2.0167
 6320SOL    HW230423   2.544   2.540   8.990  1.9746  0.8365  0.2738
 6321SOL     OW30424   0.626   2.108  13.285  0.3965 -0.1877  0.5601
 6321SOL    HW130425   0.595   2.032  13.237  1.1836 -1.3874  1.9579
 6321SOL    HW230426   0.705   2.069  13.322  1.5743 -0.1165 -1.8926
 6322SOL     OW30427   3.381   2.530  15.269 -0.1439  0.4885  0.0307
 6322SOL    HW130428   3.305   2.499  15.319 -0.3727  0.5596 -0.2720
 6322SOL    HW230429   3.451   2.507  15.330  0.1375  0.6317 -0.2428
 6323SOL     OW30430   3.091   1.593   8.950 -0.1380 -0.1807  0.4695
 6323SOL    HW130431   3.071   1.679   8.987  1.8407  0.9727 -1.0812
 6323SOL    HW230432   3.003   1.561   8.932 -1.1416  1.0084  3.3319
 6324SOL     OW30433   1.773   3.846   4.367  0.3234 -0.1165  0.3039
 6324SOL    HW130434   1.688   3.852   4.323 -0.2860  0.5342  1.5652
 6324SOL    HW230435   1.804   3.935   4.350  2.5256 -0.6698  1.4786
 6325SOL     OW30436   2.838   4.287   5.543  0.0439  0.1867  0.2705
 6325SOL    HW130437   2.742   4.283   5.542 -0.0064  0.5740  2.2375
 6325SOL    HW230438   2.856   4.193   5.549 -2.9911 -0.4448 -0.2993
 6326SOL     OW30439   0.258   1.980   4.958  0.1028 -0.1870 -0.3348
 6326SOL    HW130440   0.192   2.030   4.910 -0.7987 -1.3451 -0.2924
 6326SOL    HW230441   0.329   2.043   4.940  1.4117 -1.2595  1.0285
 6327SOL     OW30442   2.728   3.986  13.840  0.5343  0.2543  0.4729
 6327SOL    HW130443   2.795   4.024  13.783  1.2058 -2.6413 -0.6469
 6327SOL    HW230444   2.668   3.951  13.775  0.6143  2.5103 -0.8190
 6328SOL     OW30445   4.282   3.894   7.903  0.5963 -0.4159  0.1162
 6328SOL    HW130446   4.272   3.829   7.972 -2.3079  0.8872  0.9109
 6328SOL    HW230447   4.373   3.884   7.877  1.2008  1.1557  1.6086
 6329SOL     OW30448   4.504   1.303   8.419  0.2754 -0.6625  0.2072
 6329SOL    HW130449   4.449   1.359   8.473 -1.7764 -1.0130 -1.5199
 6329SOL    HW230450   4.589   1.310   8.464  0.2996  0.1369  0.0446
 6330SOL     OW30451   4.137   3.481   9.952  0.0524  0.3083  0.3210
 6330SOL    HW130452   4.180   3.500  10.035  0.4744  3.7045 -0.6631
 6330SOL    HW230453   4.174   3.401   9.915  0.8437  1.1934 -0.8191
 6331SOL     OW30454   3.979   3.645   8.182  0.2560  0.0153  0.4064
 6331SOL    HW130455   3.964   3.583   8.111 -2.3291  1.7160 -0.4922
 6331SOL    HW230456   4.010   3.718   8.129  2.1806  0.3338  1.9663
 6332SOL     OW30457   4.336   0.731   2.859  0.1846  0.0400 -0.2074
 6332SOL    HW130458   4.252   0.695   2.889 -0.3039  0.0150 -1.5875
 6332SOL    HW230459   4.308   0.812   2.816 -0.5362 -0.5809 -0.9222
 6333SOL     OW30460   3.852   4.445   2.832  0.1850 -0.5348 -0.6038
 6333SOL    HW130461   3.928   4.436   2.890  0.1406 -2.2774 -0.8076
 6333SOL    HW230462   3.893   4.460   2.748 -1.4413 -0.4682 -1.3832
 6334SOL     OW30463   2.671   2.532   8.351 -0.2240 -0.1421 -0.1714
 6334SOL    HW130464   2.639   2.465   8.290  0.4927  1.3152 -2.1604
 6334SOL    HW230465   2.708   2.480   8.422  0.4347 -1.0301 -1.1691
 6335SOL     OW30466   0.781   1.198  11.751 -0.3968  0.3637  0.4157
 6335SOL    HW130467   0.818   1.286  11.762  1.0391  0.1328 -2.7579
 6335SOL    HW230468   0.699   1.220  11.796 -0.6356  0.4261 -0.0462
 6336SOL     OW30469   1.202   0.358   4.879  0.6180  0.3314 -0.2169
 6336SOL    HW130470   1.164   0.304   4.948  1.2734 -0.7281 -0.6888
 6336SOL    HW230471   1.287   0.389   4.911  0.6355 -0.2182  0.2543
 6337SOL     OW30472   3.817   2.804  12.264  0.0224 -0.3238  0.6862
 6337SOL    HW130473   3.882   2.803  12.334 -0.1239  1.3726  0.8426
 6337SOL    HW230474   3.754   2.743  12.303  0.0187 -1.3840 -0.9625
 6338SOL     OW30475   3.609   4.152   5.399 -0.4018 -0.1748  0.2179
 6338SOL    HW130476   3.577   4.237   5.429 -1.2852 -0.3734 -0.1552
 6338SOL    HW230477   3.565   4.094   5.461 -0.2475 -0.3944  0.1201
 6339SOL     OW30478   0.755   4.472   3.258  0.3057  0.2881  0.2236
 6339SOL    HW130479   0.722   4.554   3.221  2.9025  1.5499  0.7188
 6339SOL    HW230480   0.675   4.425   3.282  0.1412  0.3636 -0.1794
 6340SOL     OW30481   3.125   3.652   8.692  0.3755  0.7325 -0.6838
 6340SOL    HW130482   3.067   3.640   8.617 -0.8133 -1.9720  0.6705
 6340SOL    HW230483   3.093   3.733   8.731  1.9787 -0.6803  3.5534
 6341SOL     OW30484   1.793   1.182   3.567  0.0690  0.0280  0.1092
 6341SOL    HW130485   1.728   1.157   3.632 -2.4143  4.1967 -0.7407
 6341SOL    HW230486   1.866   1.195   3.627 -0.6272 -1.0546  1.1714
 6342SOL     OW30487   2.084   0.678   5.094  0.2098  0.1138 -0.3038
 6342SOL    HW130488   1.991   0.672   5.115  0.2264 -0.7215 -0.4704
 6342SOL    HW230489   2.100   0.664   5.001  2.1673 -0.8577  0.1682
 6343SOL     OW30490   3.177   1.064   4.160  0.3479  0.2199 -0.0809
 6343SOL    HW130491   3.113   1.130   4.133  0.1399  1.1907  2.8087
 6343SOL    HW230492   3.257   1.116   4.158  2.1668 -2.5824 -0.8266
 6344SOL     OW30493   1.110   2.920   7.243 -0.1658  0.2540  0.0284
 6344SOL    HW130494   1.165   2.842   7.238 -2.2482 -1.2004 -0.0103
 6344SOL    HW230495   1.037   2.887   7.295  0.0540 -0.1977  0.0465
 6345SOL     OW30496   0.304   1.567   3.677  0.3674  0.5063  0.0266
 6345SOL    HW130497   0.356   1.497   3.717  1.3166  1.9856  1.3992
 6345SOL    HW230498   0.358   1.641   3.706  1.3121  0.9155 -2.8158
 6346SOL     OW30499   3.217   0.968  15.631 -0.2682 -0.1467 -0.3171
 6346SOL    HW130500   3.134   0.947  15.587  0.2932  1.2864 -2.0438
 6346SOL    HW230501   3.267   0.889  15.612 -0.5769 -0.4726  0.2172
 6347SOL     OW30502   1.360   1.238   2.865 -0.0570  0.4422 -0.9620
 6347SOL    HW130503   1.311   1.192   2.933  0.8194 -0.9818 -1.2940
 6347SOL    HW230504   1.451   1.211   2.882 -0.1457  0.2679 -0.7569
 6348SOL     OW30505   0.276   4.638   8.943  0.2506  0.0141 -0.2459
 6348SOL    HW130506   0.293   4.701   8.873 -0.4842 -0.0436 -0.4791
 6348SOL    HW230507   0.233   4.692   9.009  0.8245 -0.7396  0.7484
 6349SOL     OW30508   0.930   0.025   8.605  0.5916 -1.1201  0.0311
 6349SOL    HW130509   0.872   4.698   8.546  1.2340 -1.5301 -0.2681
 6349SOL    HW230510   0.914   0.111   8.569  0.8931 -0.4647  1.4521
 6350SOL     OW30511   0.663   4.059   3.476 -0.2306 -0.6285  0.4547
 6350SOL    HW130512   0.710   4.064   3.393  0.0446 -0.5627  0.6140
 6350SOL    HW230513   0.590   4.001   3.455 -0.2023 -1.6090  2.9815
 6351SOL     OW30514   2.690   0.226   5.079 -0.4357  0.0238 -0.0508
 6351SOL    HW130515   2.725   0.165   5.145 -0.0552  1.9045  1.4929
 6351SOL    HW230516   2.661   0.163   5.013 -2.1291 -0.1215  0.8273
 6352SOL     OW30517   4.627   0.086   0.341  0.5023 -0.4391  0.2052
 6352SOL    HW130518   4.629   4.712   0.342 -2.0983 -0.5125 -1.3234
 6352SOL    HW230519   4.685   0.101   0.415 -2.0097  0.8395  1.9190
 6353SOL     OW30520   4.719   1.150   1.942 -0.6713 -0.0819  0.2216
 6353SOL    HW130521   0.062   1.085   1.970  1.5446  2.2955  0.6919
 6353SOL    HW230522   0.022   1.235   1.980 -0.8382 -0.0198  0.1914
 6354SOL     OW30523   0.547   1.526  10.345 -0.1872 -0.0389  0.2176
 6354SOL    HW130524   0.599   1.450  10.373 -0.4979 -0.1077  0.5963
 6354SOL    HW230525   0.609   1.599  10.346 -0.1777 -0.0825  1.7570
 6355SOL     OW30526   1.516   2.309   9.616 -0.2394  0.1485 -0.1639
 6355SOL    HW130527   1.555   2.268   9.538  0.4195  1.1201 -0.3453
 6355SOL    HW230528   1.548   2.399   9.610  0.3342 -0.1127 -1.1001
 6356SOL     OW30529   3.940   3.636  15.775  0.0555 -0.2713 -0.1205
 6356SOL    HW130530   3.991   3.717  15.776  1.4028 -1.2218  3.7593
 6356SOL    HW230531   3.955   3.616  15.867  0.1284 -0.3303 -0.1453
 6357SOL     OW30532   0.228   3.224   1.579  0.1189 -0.6403 -0.2120
 6357SOL    HW130533   0.188   3.138   1.568  0.8793 -1.1690  1.1426
 6357SOL    HW230534   0.187   3.254   1.661  1.4135 -1.0069  0.5814
 6358SOL     OW30535   1.183   3.237  10.352 -0.5187 -0.0041 -0.4173
 6358SOL    HW130536   1.137   3.158  10.324 -0.9600 -0.7033  2.2423
 6358SOL    HW230537   1.241   3.245  10.277 -0.0350 -0.5890 -0.1093
 6359SOL     OW30538   4.249   1.747   7.308  0.8805  0.3784  0.2132
 6359SOL    HW130539   4.181   1.786   7.252  1.1234  1.2385  0.5117
 6359SOL    HW230540   4.199   1.767   7.387  0.7982  0.5660  0.1145
 6360SOL     OW30541   4.300   1.287   8.865 -0.2448  0.1114 -0.3206
 6360SOL    HW130542   4.229   1.239   8.822  0.6031  1.0575 -2.7978
 6360SOL    HW230543   4.366   1.282   8.796  0.9531  2.1216  0.6918
 6361SOL     OW30544   2.822   0.743  15.797 -0.4874  0.2276 -0.1095
 6361SOL    HW130545   2.917   0.744  15.801 -0.5955 -0.3507  2.3931
 6361SOL    HW230546   2.800   0.657  15.832  0.0281  0.1845  0.0957
 6362SOL     OW30547   3.262   3.283   5.481 -0.2809  0.3752 -0.3668
 6362SOL    HW130548   3.315   3.274   5.401  1.1877 -1.2409  0.7945
 6362SOL    HW230549   3.213   3.365   5.470  0.3238  0.6638 -0.9111
 6363SOL     OW30550   3.090   4.635   1.887 -0.4170 -0.4735 -0.0678
 6363SOL    HW130551   3.063   4.618   1.796 -1.3115  1.4684 -0.1595
 6363SOL    HW230552   3.017   4.679   1.931  1.2573  0.9321  1.2416
 6364SOL     OW30553   2.781   3.352  16.381 -0.4245 -0.3715  0.1046
 6364SOL    HW130554   2.792   3.298  16.459  2.7131  1.1216  0.6885
 6364SOL    HW230555   2.762   3.279  16.322  0.0526  0.7600 -1.4360
 6365SOL     OW30556   3.101   4.503  11.078 -0.5645 -0.3608 -0.0971
 6365SOL    HW130557   3.157   4.493  11.155  0.0355 -1.0321 -0.6216
 6365SOL    HW230558   3.166   4.478  11.013 -0.7018  2.2168 -1.2107
 6366SOL     OW30559   1.161   1.080   1.955  0.2882 -0.6775 -0.3140
 6366SOL    HW130560   1.134   1.171   1.947 -0.3404 -0.6345  2.1528
 6366SOL    HW230561   1.132   1.049   1.869  0.6314  0.0235 -0.6812
 6367SOL     OW30562   0.866   2.402   5.489 -0.1976 -0.7797 -0.7557
 6367SOL    HW130563   0.776   2.382   5.514 -0.7406  1.5161 -0.9473
 6367SOL    HW230564   0.879   2.490   5.523  0.4508 -1.9622  2.0633
 6368SOL     OW30565   2.310   0.926   3.224 -0.2398  0.2563 -1.0124
 6368SOL    HW130566   2.376   0.857   3.225 -0.8596 -0.3239 -0.2279
 6368SOL    HW230567   2.351   0.984   3.160  0.1592  1.1195  0.0331
 6369SOL     OW30568   1.002   0.075   3.012  0.4477 -1.1396 -0.3754
 6369SOL    HW130569   0.946   0.103   2.940 -2.1117 -3.9503  0.5135
 6369SOL    HW230570   1.088   0.086   2.971  0.0033  2.5994 -0.2976
 6370SOL     OW30571   1.863   4.441   6.690 -0.1251 -0.2400 -0.2470
 6370SOL    HW130572   1.887   4.421   6.780 -0.2839  0.9937  0.0621
 6370SOL    HW230573   1.784   4.495   6.694 -2.0204 -2.9106 -1.7553
 6371SOL     OW30574   4.318   3.561  14.907  0.1755 -0.1708  0.8300
 6371SOL    HW130575   4.382   3.542  14.840  0.1948  2.9711 -0.0433
 6371SOL    HW230576   4.303   3.654  14.889  1.5384 -0.2807 -0.8349
 6372SOL     OW30577   4.506   2.092  11.734  0.2434  0.6243  0.0942
 6372SOL    HW130578   4.583   2.067  11.785  0.3657  1.6783  0.4301
 6372SOL    HW230579   4.477   2.011  11.690 -0.7378  0.0674  1.7915
 6373SOL     OW30580   1.601   4.205   3.540 -0.0708 -0.1531  0.1161
 6373SOL    HW130581   1.536   4.221   3.607  0.6877  0.3357  0.7293
 6373SOL    HW230582   1.559   4.179   3.457 -0.9639  0.5768  0.3441
 6374SOL     OW30583   3.496   0.851  13.811 -0.1662 -0.1916  0.2221
 6374SOL    HW130584   3.512   0.925  13.752 -2.5160  1.1704  1.2723
 6374SOL    HW230585   3.400   0.851  13.801  0.0630 -1.2090 -2.0263
 6375SOL     OW30586   4.122   1.525   2.393  0.3648  0.7850 -0.4098
 6375SOL    HW130587   4.181   1.453   2.372 -1.2382 -1.0718  1.4872
 6375SOL    HW230588   4.053   1.480   2.442 -0.2661 -0.7584 -2.7347
 6376SOL     OW30589   2.214   0.464   8.698 -0.3389 -0.1160  0.2730
 6376SOL    HW130590   2.289   0.460   8.639  0.3947 -0.5928  1.2303
 6376SOL    HW230591   2.226   0.544   8.749  0.0562  0.2756 -0.4306
 6377SOL     OW30592   1.683   3.568  10.981  0.4322 -0.0254 -0.0138
 6377SOL    HW130593   1.616   3.534  10.921  0.7110 -2.3642  1.0133
 6377SOL    HW230594   1.679   3.516  11.061 -0.9871 -1.4075 -0.9583
 6378SOL     OW30595   0.892   3.206   4.648 -0.2280 -0.2364 -0.2965
 6378SOL    HW130596   0.831   3.188   4.720  1.4502  2.2858  1.7446
 6378SOL    HW230597   0.960   3.141   4.664  0.9859  0.4640 -2.6273
 6379SOL     OW30598   0.455   2.921   4.061  0.4293 -0.2950  0.0762
 6379SOL    HW130599   0.516   2.987   4.030 -0.9262  1.3616  0.9391
 6379SOL    HW230600   0.472   2.910   4.155  1.2397  2.4589  0.2277
 6380SOL     OW30601   3.326   1.232   8.060  0.4606 -0.2316 -0.1818
 6380SOL    HW130602   3.297   1.145   8.088  0.5698 -0.0756  0.4251
 6380SOL    HW230603   3.420   1.232   8.076  0.5464  3.0070 -0.7128
 6381SOL     OW30604   2.063   1.585   5.432  0.1121  0.2631  0.4799
 6381SOL    HW130605   2.099   1.669   5.460 -1.0351  1.4555 -1.6171
 6381SOL    HW230606   2.123   1.525   5.476  2.1678  0.8795 -1.5472
 6382SOL     OW30607   1.902   2.877   1.151 -0.2517  0.0584  0.7230
 6382SOL    HW130608   1.879   2.957   1.198  2.2768  1.7006 -0.8401
 6382SOL    HW230609   1.904   2.812   1.221 -0.5920 -0.5990  0.1262
 6383SOL     OW30610   4.698   4.433   6.447  0.0180 -0.6440  0.6983
 6383SOL    HW130611   4.629   4.368   6.435 -0.0583 -0.4704  0.2112
 6383SOL    HW230612   4.680   4.459   6.537 -2.3825  1.7077 -0.4994
 6384SOL     OW30613   0.629   2.242  10.711  0.1704  0.3305  0.3641
 6384SOL    HW130614   0.536   2.230  10.732  0.6676 -1.3916  1.5602
 6384SOL    HW230615   0.668   2.175  10.767 -0.5114 -0.3415  0.0474
 6385SOL     OW30616   0.218   4.507  14.731  0.4517 -0.0707  0.3538
 6385SOL    HW130617   0.299   4.458  14.741 -0.6627 -1.6926  1.3592
 6385SOL    HW230618   0.250   4.597  14.739 -0.7914  0.1640  2.4913
 6386SOL     OW30619   1.796   1.121   4.928 -0.0984 -0.6781 -0.2166
 6386SOL    HW130620   1.779   1.085   4.841 -2.0428 -0.1779 -0.0364
 6386SOL    HW230621   1.870   1.177   4.903 -1.0375  0.3175 -0.7332
 6387SOL     OW30622   0.720   4.580   7.280 -0.0847 -0.1424  0.3292
 6387SOL    HW130623   0.702   4.576   7.186 -0.6145  0.8162  0.3900
 6387SOL    HW230624   0.678   4.662   7.305 -1.1625 -0.7999  0.6637
 6388SOL     OW30625   1.875   1.833   6.090  0.1265  0.5881  0.2179
 6388SOL    HW130626   1.856   1.800   6.002 -0.2905  1.9245 -0.1804
 6388SOL    HW230627   1.947   1.779   6.123  0.5913 -0.5959 -2.6503
 6389SOL     OW30628   3.733   2.821  15.611 -0.1081  0.1595  0.0975
 6389SOL    HW130629   3.638   2.830  15.619  0.0290  1.6002  0.1136
 6389SOL    HW230630   3.753   2.795  15.701 -1.5692  2.4842  1.0801
 6390SOL     OW30631   0.001   4.017   1.356  0.2050  0.5411 -0.2200
 6390SOL    HW130632   0.036   4.002   1.268  1.8250 -2.0167  0.8724
 6390SOL    HW230633   4.706   3.926   1.380  0.9055  0.6949  0.8129
 6391SOL     OW30634   2.953   4.338   8.469  0.2206 -0.0444 -0.1398
 6391SOL    HW130635   2.917   4.267   8.416 -0.3203  0.0325  0.1264
 6391SOL    HW230636   3.015   4.283   8.517  0.0503  1.9826  2.4341
 6392SOL     OW30637   4.380   1.367   8.103 -0.7029 -0.0590  0.6213
 6392SOL    HW130638   4.421   1.317   8.174 -0.5281  1.3561  1.4964
 6392SOL    HW230639   4.322   1.425   8.151 -0.4369 -1.9271  3.2390
 6393SOL     OW30640   3.927   4.542   2.172  0.2777 -0.3817  0.3240
 6393SOL    HW130641   3.840   4.582   2.181 -0.6583 -2.8959  2.7641
 6393SOL    HW230642   3.974   4.552   2.255 -0.4741  1.2966  0.5444
 6394SOL     OW30643   1.186   0.326   3.410  0.0789 -0.3518 -0.5979
 6394SOL    HW130644   1.187   0.238   3.373  1.8506 -1.3097  1.6979
 6394SOL    HW230645   1.211   0.309   3.501 -1.2004  1.6628  0.1324
 6395SOL     OW30646   2.447   2.886   4.074 -0.6329 -0.0290 -0.6258
 6395SOL    HW130647   2.434   2.919   4.163 -1.0774 -1.7744 -0.0486
 6395SOL    HW230648   2.529   2.836   4.084 -1.5083 -1.1544  0.9054
 6396SOL     OW30649   1.507   0.101   0.030 -0.2759 -0.1562  0.4213
 6396SOL    HW130650   1.413   0.113   0.023  0.1332  1.8300 -1.8763
 6396SOL    HW230651   1.534   0.096  17.627 -0.6150  0.1162  0.3064
 6397SOL     OW30652   0.473   1.500   1.077 -0.0528 -0.4946 -0.3715
 6397SOL    HW130653   0.454   1.415   1.038 -1.4877 -0.3538  0.0048
 6397SOL    HW230654   0.474   1.476   1.170 -0.8523 -0.6026 -0.3860
 6398SOL     OW30655   4.617   3.683  10.556 -0.3116  0.7669 -0.0815
 6398SOL    HW130656   4.658   3.673  10.643  1.7939  1.7177 -0.9704
 6398SOL    HW230657   4.679   3.638  10.498  0.0496 -1.5095  2.0447
 6399SOL     OW30658   3.653   1.872   0.425 -0.3698 -0.9523  0.7488
 6399SOL    HW130659   3.740   1.832   0.425 -0.6618 -1.5882  0.6937
 6399SOL    HW230660   3.671   1.934   0.495  0.1533 -1.7208  1.3005
 6400SOL     OW30661   0.606   3.590  12.593 -0.4908 -0.1681 -0.7929
 6400SOL    HW130662   0.644   3.623  12.511 -1.1740 -0.5249 -1.2441
 6400SOL    HW230663   0.680   3.541  12.631 -2.1291 -0.4269  2.1005
 6401SOL     OW30664   3.782   3.301   3.310 -0.4664  0.0514  0.7660
 6401SOL    HW130665   3.721   3.373   3.327 -1.5133 -0.5951 -0.2596
 6401SOL    HW230666   3.775   3.288   3.215 -0.9535  2.1232  0.5247
 6402SOL     OW30667   0.747   0.562   0.153 -0.3784 -0.3630 -0.7475
 6402SOL    HW130668   0.717   0.630   0.213  1.9745  0.1225 -0.1368
 6402SOL    HW230669   0.794   0.612   0.086 -0.5658 -1.9160 -2.0345
 6403SOL     OW30670   1.230   0.027   2.262  0.6379  0.2614  0.0068
 6403SOL    HW130671   1.300   0.033   2.327 -0.1139  0.5211  0.7877
 6403SOL    HW230672   1.260   0.098   2.206 -0.9748  1.3433  0.5240
 6404SOL     OW30673   2.147   4.347   8.324 -0.0641 -0.6768 -0.1906
 6404SOL    HW130674   2.170   4.340   8.417 -0.0170 -2.1966 -0.3013
 6404SOL    HW230675   2.224   4.400   8.303  1.7817 -2.0587  3.0218
 6405SOL     OW30676   1.696   2.156   9.795 -0.3115 -0.5777  0.2655
 6405SOL    HW130677   1.642   2.079   9.812 -0.4036 -0.7466 -0.8179
 6405SOL    HW230678   1.635   2.209   9.744  4.3150  3.1777 -1.3703
 6406SOL     OW30679   0.657   3.635   5.846  0.7902 -0.1015 -0.2634
 6406SOL    HW130680   0.729   3.606   5.902 -0.1323  0.3022  1.1273
 6406SOL    HW230681   0.586   3.645   5.908 -0.1843 -0.9782 -1.2308
 6407SOL     OW30682   2.439   2.345   5.024 -0.0949  0.4243  0.1738
 6407SOL    HW130683   2.412   2.259   4.994  2.2890 -0.0611 -0.5467
 6407SOL    HW230684   2.498   2.378   4.956 -2.2074  0.9158 -1.4362
 6408SOL     OW30685   0.080   2.508   8.603 -0.6089 -0.3743  0.4802
 6408SOL    HW130686   0.087   2.414   8.619  1.1571 -0.3201 -0.0148
 6408SOL    HW230687   0.142   2.543   8.667  0.0432 -0.9311  0.1552
 6409SOL     OW30688   0.111   0.017   4.298 -0.2865 -0.0701 -0.3667
 6409SOL    HW130689   0.187   0.072   4.278  0.4571  0.2147  3.3273
 6409SOL    HW230690   0.087   4.707   4.211  0.5821 -0.0839 -0.6026
 6410SOL     OW30691   1.913   0.350   4.769 -0.0279 -0.0017 -0.1602
 6410SOL    HW130692   1.876   0.299   4.698  0.1351  0.8437 -0.8602
 6410SOL    HW230693   1.890   0.292   4.842  0.1118  0.1705  0.0243
 6411SOL     OW30694   3.110   2.509  11.837  0.0988 -0.8267  0.5006
 6411SOL    HW130695   3.080   2.592  11.875 -1.3619 -2.2340  2.3946
 6411SOL    HW230696   3.029   2.476  11.798  0.1201 -1.6169  1.1166
 6412SOL     OW30697   1.669   0.851   3.741  0.3253 -0.0666  0.3952
 6412SOL    HW130698   1.691   0.826   3.652  0.4951  2.5518 -0.2846
 6412SOL    HW230699   1.691   0.775   3.795  1.7844 -0.1540 -0.3407
 6413SOL     OW30700   2.656   4.579  10.190 -0.4285 -0.1783 -0.1519
 6413SOL    HW130701   2.697   4.505  10.234 -1.1095 -0.4410  0.0420
 6413SOL    HW230702   2.603   4.526  10.130 -1.2594  1.4541 -0.8472
 6414SOL     OW30703   0.903   1.558   2.516 -0.0057 -0.6046 -0.0516
 6414SOL    HW130704   0.948   1.580   2.434 -1.2416 -1.0826 -0.8623
 6414SOL    HW230705   0.811   1.570   2.494  0.2385  1.1601 -0.0974
 6415SOL     OW30706   3.669   3.449   7.510  0.6956  0.3412 -0.4709
 6415SOL    HW130707   3.708   3.529   7.476 -0.8588  0.7508 -1.3282
 6415SOL    HW230708   3.739   3.424   7.569  1.0626 -0.4425 -1.2282
 6416SOL     OW30709   4.268   0.466  11.388  0.3828  0.2797 -0.2606
 6416SOL    HW130710   4.265   0.506  11.301  2.8851  1.5313  0.2278
 6416SOL    HW230711   4.265   0.372  11.366  1.3079  0.0548  0.5503
 6417SOL     OW30712   1.597   0.664   9.599 -0.2257  0.3796 -0.4095
 6417SOL    HW130713   1.557   0.751   9.598 -0.3584  0.3230 -0.1181
 6417SOL    HW230714   1.580   0.629   9.686 -1.6234  0.6175 -0.5898
 6418SOL     OW30715   4.118   0.905   4.363  0.2270  0.3984 -0.3718
 6418SOL    HW130716   4.140   0.859   4.282  1.0131  1.1349 -0.5706
 6418SOL    HW230717   4.081   0.837   4.420  1.4338 -0.7364 -0.9317
 6419SOL     OW30718   3.797   3.074   0.145  0.3584  0.2113 -0.5195
 6419SOL    HW130719   3.835   3.013   0.208 -1.5539 -0.5778 -0.1269
 6419SOL    HW230720   3.775   3.139   0.212  2.7991  0.5667 -0.0808
 6420SOL     OW30721   1.747   4.547   2.917 -0.1439  0.0454 -0.0894
 6420SOL    HW130722   1.734   4.596   2.998 -0.2642 -0.0593 -0.0464
 6420SOL    HW230723   1.760   4.624   2.861  0.8809 -1.5672 -2.0314
 6421SOL     OW30724   3.071   4.206   5.139 -0.3083 -0.1300  0.0519
 6421SOL    HW130725   3.148   4.149   5.142  0.6093  1.0763 -0.2360
 6421SOL    HW230726   3.059   4.216   5.044 -0.6986 -1.6204 -0.0567
 6422SOL     OW30727   2.653   2.150   8.315  0.4184  0.2222  0.3152
 6422SOL    HW130728   2.587   2.108   8.370  1.3831 -1.1341  0.4191
 6422SOL    HW230729   2.601   2.180   8.240 -1.9925 -0.8732  1.5177
 6423SOL     OW30730   3.542   1.590  15.572  0.1070  0.8052  0.5332
 6423SOL    HW130731   3.581   1.666  15.616  2.1201  1.0514 -1.6578
 6423SOL    HW230732   3.611   1.592  15.505 -1.6194  0.1338 -1.2367
 6424SOL     OW30733   4.483   4.599   9.953 -0.3254 -0.2216  0.1483
 6424SOL    HW130734   4.546   4.566  10.017  1.2449 -2.1093 -2.3670
 6424SOL    HW230735   4.534   4.590   9.873 -0.5650  1.7342 -0.2286
 6425SOL     OW30736   1.050   3.528   3.246  0.1117 -0.6937 -0.2273
 6425SOL    HW130737   1.061   3.544   3.152 -1.3776  1.6883  0.0179
 6425SOL    HW230738   0.986   3.456   3.239 -1.2593  0.2900  2.2383
 6426SOL     OW30739   0.888   0.350   3.708  0.0663 -0.5874  0.4946
 6426SOL    HW130740   0.980   0.362   3.729  0.1983 -1.1145  0.2311
 6426SOL    HW230741   0.874   0.256   3.725  0.4136 -0.1418  3.1799
 6427SOL     OW30742   1.315   3.205  17.460  0.1832  0.4409 -0.8163
 6427SOL    HW130743   1.377   3.273  17.436 -0.0773  0.3417 -1.7645
 6427SOL    HW230744   1.371   3.141  17.504 -0.0563  0.1955 -0.8674
 6428SOL     OW30745   4.407   3.040   6.880 -0.4859 -0.3779  0.1901
 6428SOL    HW130746   4.341   3.108   6.898  0.8371  0.4159  2.0875
 6428SOL    HW230747   4.369   2.965   6.926 -1.1372 -0.0164  0.2384
 6429SOL     OW30748   4.202   1.495  10.759  0.2148 -0.1701  0.1363
 6429SOL    HW130749   4.282   1.512  10.809  0.8286  1.1175 -1.2695
 6429SOL    HW230750   4.231   1.423  10.703 -1.6880  0.0702 -1.1577
 6430SOL     OW30751   3.789   0.544   8.245  0.3044 -0.3779  0.7552
 6430SOL    HW130752   3.831   0.508   8.167  1.5539 -0.0912  1.3010
 6430SOL    HW230753   3.743   0.468   8.281 -0.2555 -0.4390 -0.0845
 6431SOL     OW30754   0.548   0.046   8.266 -0.4433 -0.3202 -0.0882
 6431SOL    HW130755   0.515   4.703   8.204 -0.5867 -1.5769  1.3170
 6431SOL    HW230756   0.538   4.719   8.348 -0.5887  2.5618  1.6063
 6432SOL     OW30757   0.201   2.865  17.286 -0.8430 -0.6551  0.1950
 6432SOL    HW130758   0.280   2.879  17.337  0.7714 -1.2038 -2.1421
 6432SOL    HW230759   0.149   2.819  17.352 -0.4755 -0.4159  0.6432
 6433SOL     OW30760   3.296   4.599   3.108 -0.1491  0.2081 -0.3487
 6433SOL    HW130761   3.381   4.626   3.075 -0.2136  0.6055 -0.2002
 6433SOL    HW230762   3.290   4.507   3.086 -1.0841 -0.1310  1.2877
 6434SOL     OW30763   0.236   3.058  12.437 -0.2482  0.7022 -0.1562
 6434SOL    HW130764   0.162   3.069  12.496 -0.6678 -1.9163 -0.1749
 6434SOL    HW230765   0.236   3.141  12.390 -3.2624  0.8772  0.1664
 6435SOL     OW30766   1.374   1.429  13.266 -0.3958  0.1231  0.0042
 6435SOL    HW130767   1.399   1.517  13.294 -0.7429  0.2055  0.0601
 6435SOL    HW230768   1.450   1.384  13.302 -1.7145 -1.7112  0.5125
 6436SOL     OW30769   0.998   1.567   1.733 -0.5064  0.1262  0.2828
 6436SOL    HW130770   1.011   1.610   1.648  0.8223  0.6646  0.7622
 6436SOL    HW230771   0.923   1.614   1.769  0.6775  1.7293  0.7012
 6437SOL     OW30772   1.394   3.952   3.685 -0.0757  0.1320 -0.1777
 6437SOL    HW130773   1.358   3.872   3.722  0.3130 -1.2793 -2.8321
 6437SOL    HW230774   1.391   4.010   3.761 -0.2026  1.4127 -1.1642
 6438SOL     OW30775   1.445   2.621  14.633 -0.1599 -0.3975  0.5976
 6438SOL    HW130776   1.387   2.652  14.563 -3.4119 -0.2699  3.3691
 6438SOL    HW230777   1.397   2.555  14.683  3.5502 -3.2424  0.3568
 6439SOL     OW30778   2.022   0.738   2.897  0.4359  0.4797 -0.0929
 6439SOL    HW130779   1.995   0.829   2.886 -1.2969 -0.0414 -0.1768
 6439SOL    HW230780   2.117   0.748   2.909  0.6529 -1.1165 -0.4047
 6440SOL     OW30781   1.977   3.356   5.991 -0.1230  0.0547  0.5198
 6440SOL    HW130782   1.883   3.372   5.993  0.0642  1.0979  1.1293
 6440SOL    HW230783   1.976   3.266   6.023 -0.2854 -0.2299 -0.2946
 6441SOL     OW30784   2.338   0.157  12.522  0.2760  0.1376  0.4441
 6441SOL    HW130785   2.351   0.095  12.449  3.5277 -0.5988  1.6654
 6441SOL    HW230786   2.425   0.189  12.543  0.0858  2.1707 -1.8391
 6442SOL     OW30787   0.819   0.227   3.267  0.1348  0.4726  0.3440
 6442SOL    HW130788   0.872   0.307   3.277  2.3331 -1.1095  1.3150
 6442SOL    HW230789   0.883   0.157   3.255 -0.6175 -0.2019  0.3281
 6443SOL     OW30790   1.128   4.620  15.084 -0.4275 -0.7934 -0.0227
 6443SOL    HW130791   1.147   4.660  14.999  1.6045  0.2484  0.9082
 6443SOL    HW230792   1.037   4.591  15.077 -0.8303  0.7086 -0.7855
 6444SOL     OW30793   3.471   1.420   6.007 -0.4191  0.7986 -0.4898
 6444SOL    HW130794   3.392   1.365   6.005  0.8296 -1.0615  2.2064
 6444SOL    HW230795   3.433   1.488   5.950 -2.4614 -2.3322 -2.8573
 6445SOL     OW30796   3.365   4.242  11.293  0.1058 -0.2787  0.5284
 6445SOL    HW130797   3.384   4.261  11.385  4.2531 -0.2599 -0.3135
 6445SOL    HW230798   3.281   4.199  11.310 -0.1882  0.4188  0.8445
 6446SOL     OW30799   0.725   1.631   2.319  0.5567 -0.0073 -0.5319
 6446SOL    HW130800   0.762   1.612   2.233  0.9561 -0.6507 -0.2191
 6446SOL    HW230801   0.725   1.727   2.321  1.2719 -0.0388  0.6928
 6447SOL     OW30802   0.858   2.629   5.981 -0.1887 -0.8876  0.0193
 6447SOL    HW130803   0.839   2.546   5.937 -1.1613  0.9858 -3.1143
 6447SOL    HW230804   0.789   2.620   6.048 -0.5019  2.6263  0.1701
 6448SOL     OW30805   3.561   1.000  15.587  0.0175 -0.0840 -0.4226
 6448SOL    HW130806   3.489   0.943  15.561  0.7787 -1.8449  1.3522
 6448SOL    HW230807   3.550   1.073  15.525  2.6844 -0.6537 -1.5689
 6449SOL     OW30808   1.308   1.381   3.183  0.1603  0.0136 -0.2276
 6449SOL    HW130809   1.316   1.286   3.169 -0.1975 -0.0591  0.0705
 6449SOL    HW230810   1.317   1.410   3.092 -0.6449  0.8432 -0.0343
 6450SOL     OW30811   2.139   3.778   8.192  0.2279  0.0994  0.7106
 6450SOL    HW130812   2.111   3.859   8.150 -1.9993 -0.9429  0.2282
 6450SOL    HW230813   2.063   3.722   8.177 -0.3515  1.0465  0.1527
 6451SOL     OW30814   1.049   0.235  13.671 -0.0512  0.5178  0.4085
 6451SOL    HW130815   1.075   0.310  13.618 -0.3816  0.2644 -0.1112
 6451SOL    HW230816   1.004   0.181  13.606 -0.4098 -0.3637  1.3946
 6452SOL     OW30817   2.307   2.712  12.425 -0.8527  0.3611  0.8063
 6452SOL    HW130818   2.249   2.647  12.386 -2.9125  1.7121  1.5774
 6452SOL    HW230819   2.282   2.789  12.373  2.1749 -0.2796 -1.5574
 6453SOL     OW30820   3.718   0.549   9.696  0.3988  0.7276 -0.5627
 6453SOL    HW130821   3.789   0.507   9.648 -1.4415  1.0874 -3.5957
 6453SOL    HW230822   3.713   0.508   9.783  1.0178  1.9281  0.0394
 6454SOL     OW30823   4.719   3.345  12.555  0.1215 -0.0944 -0.2328
 6454SOL    HW130824   0.012   3.252  12.571 -0.6512  0.0241  1.1288
 6454SOL    HW230825   0.076   3.374  12.600  0.3400 -0.0238 -0.6538
 6455SOL     OW30826   2.833   2.869   7.814  0.2648  0.1651  0.3899
 6455SOL    HW130827   2.882   2.949   7.793  3.0435 -1.6801 -0.1643
 6455SOL    HW230828   2.796   2.901   7.896  1.2041  0.1529  0.8142
 6456SOL     OW30829   0.496   1.370   7.672 -0.8452 -0.0147 -0.2197
 6456SOL    HW130830   0.420   1.354   7.727 -0.0957  1.1455  1.1425
 6456SOL    HW230831   0.521   1.455   7.707  0.2165 -1.1797  1.8954
 6457SOL     OW30832   0.823   2.737   5.259 -0.5853 -0.5606  0.2277
 6457SOL    HW130833   0.779   2.680   5.196 -1.1081 -0.9243  0.9213
 6457SOL    HW230834   0.909   2.755   5.222 -0.1943  0.6726  1.7305
 6458SOL     OW30835   4.532   1.433  10.111  0.5961 -0.0135 -0.3078
 6458SOL    HW130836   4.550   1.483  10.191  0.2098 -0.5984  0.1451
 6458SOL    HW230837   4.452   1.385  10.133  0.9218 -0.5488 -0.3182
 6459SOL     OW30838   1.495   0.413  10.260 -0.3352  0.2338  0.2803
 6459SOL    HW130839   1.410   0.446  10.290 -0.8113 -0.6851 -0.0837
 6459SOL    HW230840   1.494   0.422  10.165  0.7259  3.3573  0.5705
 6460SOL     OW30841   0.221   2.197  13.721  0.6768  0.2521  0.3742
 6460SOL    HW130842   0.136   2.166  13.754  0.6430  0.6714  0.6824
 6460SOL    HW230843   0.272   2.189  13.802 -0.3641  0.9916  1.1083
 6461SOL     OW30844   3.414   4.576   8.362 -0.6319  0.3911 -0.3339
 6461SOL    HW130845   3.393   4.531   8.444  0.5570 -2.3532 -1.5513
 6461SOL    HW230846   3.332   4.580   8.312 -0.7337 -1.5749 -0.2964
 6462SOL     OW30847   0.301   2.379   3.259  0.1649 -0.1191 -0.2549
 6462SOL    HW130848   0.286   2.284   3.265  1.7539 -0.2397  1.7261
 6462SOL    HW230849   0.224   2.398   3.313 -0.2296  0.1238 -0.8939
 6463SOL     OW30850   2.561   4.306   5.447  0.7499  0.5613  0.4504
 6463SOL    HW130851   2.519   4.240   5.502 -1.7741  1.9216  0.1593
 6463SOL    HW230852   2.533   4.392   5.480 -0.4651  0.2042  0.3266
 6464SOL     OW30853   3.432   4.071   6.455  0.2940 -0.2481 -0.3798
 6464SOL    HW130854   3.358   4.129   6.474  0.2678 -0.3491 -0.1688
 6464SOL    HW230855   3.436   4.007   6.526  2.2530  0.6585  0.3265
 6465SOL     OW30856   0.963   3.289   6.130  0.4142  0.0037  0.6279
 6465SOL    HW130857   0.944   3.379   6.106  0.7875  0.0140  0.3717
 6465SOL    HW230858   0.892   3.239   6.090  2.0690 -0.5149 -1.6837
 6466SOL     OW30859   1.840   1.547   7.527  0.2643 -0.2696 -0.8469
 6466SOL    HW130860   1.768   1.498   7.567  1.3065 -1.7910 -0.8290
 6466SOL    HW230861   1.791   1.625   7.501  0.4398 -0.3539 -1.4141
 6467SOL     OW30862   4.327   3.055  14.100  0.1422  0.4409  0.5859
 6467SOL    HW130863   4.375   3.117  14.155  1.6576  0.8839 -1.2025
 6467SOL    HW230864   4.345   3.093  14.013  1.6052 -0.4178  0.5122
 6468SOL     OW30865   3.276   2.629   2.605 -0.6245  0.4734 -1.3667
 6468SOL    HW130866   3.254   2.721   2.592  1.9886  1.0936 -1.4473
 6468SOL    HW230867   3.369   2.624   2.582 -0.0667  2.7921  0.3717
 6469SOL     OW30868   2.492   0.591   4.760  0.1677  0.1030  0.1347
 6469SOL    HW130869   2.497   0.604   4.855 -3.3490  2.7994 -0.0500
 6469SOL    HW230870   2.553   0.657   4.725  1.9042 -1.1753  0.7642
 6470SOL     OW30871   0.428   0.399   1.186 -0.2144 -0.6886  0.0582
 6470SOL    HW130872   0.442   0.446   1.104 -1.3825 -2.5172 -1.1666
 6470SOL    HW230873   0.373   0.458   1.237  2.2552  0.7633  1.0649
 6471SOL     OW30874   2.583   1.588   3.070  0.4319  0.6603 -0.1766
 6471SOL    HW130875   2.634   1.550   3.141  0.2686 -1.0219 -0.9588
 6471SOL    HW230876   2.550   1.668   3.110  2.5335  1.8477 -0.8384
 6472SOL     OW30877   3.829   4.396  13.822  0.4756  0.1208  0.3834
 6472SOL    HW130878   3.883   4.443  13.758  1.8774 -2.2886 -0.2041
 6472SOL    HW230879   3.770   4.358  13.757 -0.0289 -0.7412  1.3522
 6473SOL     OW30880   0.513   0.043  13.614  0.1971 -0.3881  0.4575
 6473SOL    HW130881   0.540   0.083  13.532  0.9855  2.3038  2.0385
 6473SOL    HW230882   0.477   4.681  13.586 -1.4890  0.7487 -0.7789
 6474SOL     OW30883   3.798   3.947  12.703  0.1469 -0.5420  0.6009
 6474SOL    HW130884   3.763   4.036  12.701 -1.4987 -1.1962  0.5711
 6474SOL    HW230885   3.873   3.968  12.760 -1.0091  2.5959  0.9679
 6475SOL     OW30886   4.468   4.536   5.158  0.0087 -0.2909 -0.1130
 6475SOL    HW130887   4.493   4.603   5.094 -0.1958 -0.0462  0.0642
 6475SOL    HW230888   4.466   4.579   5.243  0.6446 -0.5299  0.0218
 6476SOL     OW30889   1.433   2.893   6.800  0.0752  0.3242 -0.0206
 6476SOL    HW130890   1.338   2.877   6.799  0.2704 -0.7672 -1.0663
 6476SOL    HW230891   1.469   2.820   6.850  0.1557 -0.2083 -0.8404
 6477SOL     OW30892   2.208   1.982   5.349  0.2918 -0.2901 -0.1773
 6477SOL    HW130893   2.240   2.073   5.353 -3.4446  0.9939  0.7290
 6477SOL    HW230894   2.165   1.990   5.264  0.9096  1.3143 -0.3512
 6478SOL     OW30895   1.462   0.224   7.813 -0.5155  0.3101 -0.3764
 6478SOL    HW130896   1.507   0.290   7.758 -1.6886  1.7816  0.4358
 6478SOL    HW230897   1.517   0.217   7.891 -1.7206 -0.7735  0.3649
 6479SOL     OW30898   4.121   2.323   6.872 -0.0678 -0.9301 -0.1197
 6479SOL    HW130899   4.092   2.371   6.950 -0.2035  0.8390 -1.2534
 6479SOL    HW230900   4.073   2.240   6.877 -2.6020  0.5459  0.1243
 6480SOL     OW30901   4.523   3.566  14.696  0.1130 -0.4289 -0.1239
 6480SOL    HW130902   4.493   3.652  14.665  0.9011 -0.6376 -1.4329
 6480SOL    HW230903   4.537   3.519  14.614  0.1305 -1.3325  0.4054
 6481SOL     OW30904   2.133   3.166   5.390 -0.1542 -0.4604  0.3184
 6481SOL    HW130905   2.170   3.228   5.454  1.3174 -0.4359 -0.5456
 6481SOL    HW230906   2.110   3.224   5.318 -0.2276 -0.3480  0.4323
 6482SOL     OW30907   2.842   2.128   4.635  0.0328  0.2418  0.2353
 6482SOL    HW130908   2.779   2.104   4.703  0.5996  0.0256  0.6808
 6482SOL    HW230909   2.897   2.186   4.687  1.8039 -0.4330 -0.8860
 6483SOL     OW30910   4.478   0.614   3.625  0.3420 -0.1530  0.8234
 6483SOL    HW130911   4.414   0.619   3.554 -0.2129  0.9453  1.4019
 6483SOL    HW230912   4.482   0.708   3.644  0.8547 -0.0285  0.0946
 6484SOL     OW30913   3.557   1.382   6.792  0.3359 -0.1638 -0.3288
 6484SOL    HW130914   3.470   1.401   6.758  0.1430 -0.6946 -0.1284
 6484SOL    HW230915   3.544   1.291   6.817  1.6343 -0.5161 -0.9081
 6485SOL     OW30916   3.484   1.116   6.821 -0.4063  0.4246 -0.4739
 6485SOL    HW130917   3.419   1.047   6.806  2.1707 -2.0681 -0.3511
 6485SOL    HW230918   3.561   1.059   6.817 -0.8572 -0.1001 -1.8595
 6486SOL     OW30919   0.348   3.901   8.116 -0.4130  0.2455  0.1369
 6486SOL    HW130920   0.294   3.839   8.065  1.3886 -0.7725 -0.5601
 6486SOL    HW230921   0.341   3.979   8.061 -0.7894 -0.1294 -0.3555
 6487SOL     OW30922   2.528   3.825   9.468  0.0967  0.1424  0.2563
 6487SOL    HW130923   2.503   3.885   9.538  2.9688  1.6229 -0.0159
 6487SOL    HW230924   2.494   3.743   9.506 -1.2336  0.2624 -0.6785
 6488SOL     OW30925   2.135   2.986  14.255 -0.4124 -0.5977  0.1625
 6488SOL    HW130926   2.215   2.939  14.277 -0.9101 -1.9451 -0.9306
 6488SOL    HW230927   2.117   2.975  14.161  2.2657 -2.6047 -0.0997
 6489SOL     OW30928   3.282   0.440   6.324  0.7945 -0.4762  0.2892
 6489SOL    HW130929   3.283   0.403   6.235 -0.1922  0.0047  0.0795
 6489SOL    HW230930   3.317   0.526   6.300  1.4459 -1.0147 -0.7349
 6490SOL     OW30931   1.129   1.245  16.443 -0.0918  0.3131 -0.1171
 6490SOL    HW130932   1.208   1.295  16.422  1.0666 -1.0291  1.1348
 6490SOL    HW230933   1.094   1.215  16.359 -1.4286 -0.4521  0.7178
 6491SOL     OW30934   3.238   3.292   3.031 -0.4971  0.0733 -0.2026
 6491SOL    HW130935   3.183   3.370   3.020  1.2869  1.4163  0.3354
 6491SOL    HW230936   3.176   3.221   3.018  1.2669 -1.4589 -0.2816
 6492SOL     OW30937   4.114   0.465  15.097  0.2728 -0.1013 -0.1220
 6492SOL    HW130938   4.088   0.552  15.129 -0.7789  0.2371 -1.9077
 6492SOL    HW230939   4.037   0.433  15.051 -0.0284  1.3408 -0.6324
 6493SOL     OW30940   0.587   3.758  15.516 -0.1209 -0.4799  0.2860
 6493SOL    HW130941   0.576   3.845  15.554  0.9385  0.0430 -0.5852
 6493SOL    HW230942   0.618   3.764  15.425 -1.0671 -0.7796 -0.0492
 6494SOL     OW30943   1.576   1.329   5.049 -0.0286  0.7032  0.2344
 6494SOL    HW130944   1.620   1.258   5.095 -1.1164 -0.1198  0.0128
 6494SOL    HW230945   1.641   1.398   5.063  1.0385 -0.4177  0.6765
 6495SOL     OW30946   4.634   4.377   4.245 -0.1747  0.2469  0.2704
 6495SOL    HW130947   4.702   4.314   4.223  0.8731  1.1561  0.9559
 6495SOL    HW230948   4.565   4.348   4.185  0.4324 -1.9590  0.6186
 6496SOL     OW30949   2.035   0.442  14.345 -0.5782 -0.2554 -0.3732
 6496SOL    HW130950   1.989   0.500  14.405  1.9357 -0.3027  1.5884
 6496SOL    HW230951   2.114   0.440  14.398 -1.3734  1.1832  0.8608
 6497SOL     OW30952   4.077   2.906   8.985  0.4292 -0.4178 -0.1854
 6497SOL    HW130953   4.134   2.977   9.012 -0.6102  0.6493 -0.8035
 6497SOL    HW230954   4.116   2.826   9.021  0.6508 -0.2854 -0.1377
 6498SOL     OW30955   2.489   4.186   1.572  0.4935 -0.1359  0.0301
 6498SOL    HW130956   2.418   4.229   1.523  0.4453  0.6924  0.8365
 6498SOL    HW230957   2.472   4.094   1.548 -1.6150  0.1556  0.3485
 6499SOL     OW30958   4.175   4.185   9.351 -0.1350  0.2417  0.2091
 6499SOL    HW130959   4.165   4.227   9.437 -0.6056 -1.1094  0.8217
 6499SOL    HW230960   4.246   4.238   9.315  0.2104 -1.7238 -1.9759
 6500SOL     OW30961   1.445   3.705   5.425  0.5131 -0.1573  0.0885
 6500SOL    HW130962   1.512   3.739   5.366  0.7377  0.1712  0.5399
 6500SOL    HW230963   1.391   3.664   5.357 -0.0231 -1.3516  1.2393
 6501SOL     OW30964   4.398   1.550   5.389  0.0237  0.0794  0.5537
 6501SOL    HW130965   4.484   1.529   5.353  0.0455 -0.6577  1.0402
 6501SOL    HW230966   4.410   1.644   5.380 -0.2428 -0.1544 -2.2390
 6502SOL     OW30967   4.288   3.803   6.451 -0.4303 -0.2690 -0.7522
 6502SOL    HW130968   4.320   3.723   6.409 -0.9315 -1.0046  0.2528
 6502SOL    HW230969   4.357   3.811   6.517 -1.4248  0.1862  0.2347
 6503SOL     OW30970   0.556   1.251   5.744 -0.3793 -0.7199  0.1486
 6503SOL    HW130971   0.478   1.242   5.798 -1.1267 -1.3553 -1.0293
 6503SOL    HW230972   0.618   1.201   5.797 -0.0935  0.0470  0.5358
 6504SOL     OW30973   4.220   1.632   3.463  0.2446  0.2008  0.2798
 6504SOL    HW130974   4.180   1.718   3.474 -1.8381 -0.4739 -1.9919
 6504SOL    HW230975   4.308   1.648   3.495  0.1298  1.8260 -0.2192
 6505SOL     OW30976   0.029   1.127   5.745 -0.6530  0.0650 -0.3617
 6505SOL    HW130977   0.031   1.075   5.665 -1.1919 -1.1448  0.4132
 6505SOL    HW230978   4.693   1.200   5.723 -1.4918 -0.8715 -1.2584
 6506SOL     OW30979   3.511   0.042  12.611 -0.3220 -0.0895  0.0768
 6506SOL    HW130980   3.525   0.116  12.552 -0.7936 -1.1096 -1.3055
 6506SOL    HW230981   3.593   0.045  12.661 -0.4307  4.2587  0.0208
 6507SOL     OW30982   4.404   1.807   1.138 -0.0840  0.2416  0.6079
 6507SOL    HW130983   4.414   1.714   1.117 -2.3859 -0.1144  1.1633
 6507SOL    HW230984   4.398   1.801   1.233  0.3516 -1.6728  0.5114
 6508SOL     OW30985   0.198   2.473   6.682 -0.0972  0.2863 -0.1778
 6508SOL    HW130986   0.222   2.469   6.774  0.4542 -0.1696 -0.3412
 6508SOL    HW230987   0.236   2.391   6.650 -0.3273  0.0076  0.2711
 6509SOL     OW30988   1.670   0.920  13.645  0.5906  0.4931  0.2604
 6509SOL    HW130989   1.635   1.008  13.632  3.2701  1.7591  1.6307
 6509SOL    HW230990   1.646   0.889  13.732 -0.9445 -2.1523 -1.1002
 6510SOL     OW30991   3.304   3.710   1.505  0.1217  0.0709 -0.3156
 6510SOL    HW130992   3.296   3.629   1.555 -0.3321  0.4886  0.3008
 6510SOL    HW230993   3.279   3.680   1.418 -1.6341  0.2189  0.1291
 6511SOL     OW30994   2.767   0.526   8.447 -0.5568  0.2603  0.2881
 6511SOL    HW130995   2.738   0.436   8.462  0.1559  0.3452  2.1423
 6511SOL    HW230996   2.704   0.544   8.377  0.7692  0.7931 -0.7670
 6512SOL     OW30997   2.400   3.196   2.292  0.4154  0.1260 -0.5915
 6512SOL    HW130998   2.320   3.213   2.342 -1.3649  0.7390 -3.6684
 6512SOL    HW230999   2.442   3.281   2.283  0.9849  0.0056  0.8341
 6513SOL     OW31000   0.095   1.392  13.078 -0.2171  0.3404  0.1835
 6513SOL    HW131001   0.047   1.316  13.046 -0.7769  0.8047 -0.0936
 6513SOL    HW231002   0.097   1.368  13.171  0.2863  0.2290  0.1451
 6514SOL     OW31003   2.653   0.057  12.924 -0.1204 -0.2291 -0.0905
 6514SOL    HW131004   2.689   0.123  12.865 -1.6422  2.0519  1.5636
 6514SOL    HW231005   2.585   0.111  12.963 -0.1182  0.2879 -0.8049
 6515SOL     OW31006   3.073   3.968   6.732 -0.1744 -0.3099 -0.1831
 6515SOL    HW131007   3.114   3.899   6.681  0.4630 -1.5150  1.9746
 6515SOL    HW231008   3.133   3.973   6.807 -0.5002 -1.0564  0.1202
 6516SOL     OW31009   4.006   0.786  13.247  0.5664  0.1939 -0.2587
 6516SOL    HW131010   4.032   0.878  13.258  0.8533 -0.0162  0.7949
 6516SOL    HW231011   4.011   0.775  13.152  1.6862  1.1756 -0.3194
 6517SOL     OW31012   3.868   2.063   0.139  0.3287  0.1517 -0.3804
 6517SOL    HW131013   3.837   1.973   0.126  0.3414 -0.2595  2.3768
 6517SOL    HW231014   3.856   2.075   0.234  0.7271  0.1512 -0.3306
 6518SOL     OW31015   0.199   0.907   9.758  0.1971  0.9240 -0.0602
 6518SOL    HW131016   0.135   0.853   9.710 -0.6596  1.8481  0.0521
 6518SOL    HW231017   0.175   0.902   9.850 -0.0488  0.1349 -0.1612
 6519SOL     OW31018   2.529   1.107   6.374  0.2984 -0.4553  0.0552
 6519SOL    HW131019   2.489   1.062   6.300 -1.1741 -0.3009  0.7700
 6519SOL    HW231020   2.454   1.113   6.433 -0.0418  1.0540 -0.5362
 6520SOL     OW31021   3.561   3.649   8.055 -0.7575 -0.3358  0.0697
 6520SOL    HW131022   3.599   3.729   8.018  3.1021 -2.2152 -0.0892
 6520SOL    HW231023   3.541   3.607   7.971 -0.3753 -0.7650  0.1946
 6521SOL     OW31024   2.043   0.189  14.090 -0.3450  0.2691  0.2413
 6521SOL    HW131025   2.032   0.282  14.068 -2.5530 -0.2677 -1.0059
 6521SOL    HW231026   1.951   0.161  14.096 -0.2238  0.1199  1.5343
 6522SOL     OW31027   4.263   0.647   0.741 -0.4965 -0.0980  0.3818
 6522SOL    HW131028   4.348   0.626   0.780  0.6027  2.2602 -0.7323
 6522SOL    HW231029   4.231   0.710   0.806 -1.3350  0.3092 -0.4233
 6523SOL     OW31030   4.105   1.044   5.682  0.2934 -0.0296  0.2816
 6523SOL    HW131031   4.145   1.023   5.598  0.5422 -0.4193  0.4954
 6523SOL    HW231032   4.048   0.973   5.708 -1.1542  1.3383  0.8284
 6524SOL     OW31033   0.863   2.244   0.875 -0.3073  0.0614  0.0817
 6524SOL    HW131034   0.904   2.236   0.790  2.4140  3.5191  1.0675
 6524SOL    HW231035   0.928   2.196   0.926  0.6067  0.0981 -1.0479
 6525SOL     OW31036   2.182   4.027  13.669  0.6393 -0.2458  0.2516
 6525SOL    HW131037   2.136   3.960  13.720 -1.0188  0.9751  0.3829
 6525SOL    HW231038   2.112   4.065  13.615  0.0847 -0.1312  1.0465
 6526SOL     OW31039   4.441   1.369   5.812 -0.3945 -0.0311  0.2720
 6526SOL    HW131040   4.477   1.304   5.751 -0.4685  0.8410 -0.7025
 6526SOL    HW231041   4.527   1.402   5.841 -0.5226  1.0579 -0.5897
 6527SOL     OW31042   2.421   3.150   3.959 -0.7791  0.2966 -0.0509
 6527SOL    HW131043   2.473   3.192   4.027  2.5089 -0.3404 -2.1440
 6527SOL    HW231044   2.422   3.056   3.975  2.7707  0.7623  2.3786
 6528SOL     OW31045   4.373   2.917   2.466  0.0989  0.3754 -0.6697
 6528SOL    HW131046   4.299   2.978   2.473  0.2643  0.4576  0.4296
 6528SOL    HW231047   4.432   2.943   2.537 -0.1959 -3.5524  1.0302
 6529SOL     OW31048   2.970   0.041   6.625 -0.1322 -0.2467  0.6077
 6529SOL    HW131049   2.982   0.114   6.686  2.0202  1.3188 -1.6804
 6529SOL    HW231050   2.884   0.006   6.647  0.8057 -2.6636  0.3976
 6530SOL     OW31051   0.444   2.524   8.021 -0.4785  0.2333 -0.1325
 6530SOL    HW131052   0.518   2.558   7.972 -0.6500  0.9958  0.1441
 6530SOL    HW231053   0.374   2.539   7.958 -3.6242  1.4187  3.5945
 6531SOL     OW31054   1.987   0.642   8.392 -0.2989 -0.3772 -0.1647
 6531SOL    HW131055   2.022   0.637   8.304 -0.8470 -1.7431 -0.2942
 6531SOL    HW231056   1.917   0.577   8.395  0.3928 -1.0281  2.2108
 6532SOL     OW31057   2.918   3.765   9.744 -0.1389  0.0325  0.0647
 6532SOL    HW131058   2.823   3.772   9.740  0.0926  1.6711 -2.9848
 6532SOL    HW231059   2.945   3.813   9.822 -0.5245  0.9161 -0.3431
 6533SOL     OW31060   3.584   2.288   3.399 -0.4202  0.1777 -0.1570
 6533SOL    HW131061   3.637   2.298   3.320  0.0013 -0.8719 -0.0132
 6533SOL    HW231062   3.507   2.243   3.364 -1.3034  0.0126  2.0202
 6534SOL     OW31063   2.152   2.101   1.978 -0.0834 -0.2815 -0.9206
 6534SOL    HW131064   2.177   2.193   1.986  1.8148 -0.7945 -0.8882
 6534SOL    HW231065   2.238   2.066   1.953  0.0255 -0.6858  0.0472
 6535SOL     OW31066   1.425   0.964   6.670  0.6003 -0.8504 -0.2294
 6535SOL    HW131067   1.515   0.955   6.641  0.2571  0.2153 -1.6031
 6535SOL    HW231068   1.394   0.873   6.675 -0.9234 -0.4676 -2.5504
 6536SOL     OW31069   2.458   3.609   9.611 -0.4061 -0.8225  0.3188
 6536SOL    HW131070   2.491   3.559   9.536 -4.0358  0.1242 -1.9487
 6536SOL    HW231071   2.495   3.554   9.679  0.7971 -0.1663  0.1826
 6537SOL     OW31072   4.339   0.129   5.492  0.0630  0.4117 -0.5353
 6537SOL    HW131073   4.295   0.151   5.574  4.0167 -0.3181  1.7549
 6537SOL    HW231074   4.388   0.211   5.484 -0.0102  0.5007 -0.0799
 6538SOL     OW31075   0.247   4.167   4.692 -0.1501 -0.3932  0.5036
 6538SOL    HW131076   0.175   4.204   4.745 -0.3943 -1.5062  0.9539
 6538SOL    HW231077   0.302   4.194   4.766  0.4501 -0.7628  0.1858
 6539SOL     OW31078   3.656   4.309   5.167  0.1174 -0.4529  0.4360
 6539SOL    HW131079   3.625   4.237   5.223 -0.1333 -0.9708 -0.3742
 6539SOL    HW231080   3.581   4.368   5.170 -0.8506 -1.4860 -3.7002
 6540SOL     OW31081   0.646   1.633   9.358  0.1758 -0.0043  1.0133
 6540SOL    HW131082   0.696   1.614   9.278 -1.1113  0.5570  0.0770
 6540SOL    HW231083   0.569   1.582   9.334  0.7611  0.6922 -2.3159
 6541SOL     OW31084   1.731   0.998  16.722 -0.2530  0.2197 -0.7692
 6541SOL    HW131085   1.671   0.966  16.789 -1.1795  0.2446 -1.5842
 6541SOL    HW231086   1.763   0.916  16.684 -0.5216 -1.1655  2.0203
 6542SOL     OW31087   3.709   3.237  16.401  0.0941  0.2620  0.3188
 6542SOL    HW131088   3.676   3.324  16.380  2.0379  1.5291  2.5119
 6542SOL    HW231089   3.641   3.185  16.357  0.4951  1.9313 -2.2200
 6543SOL     OW31090   4.318   2.044   2.755  0.2728  0.4240 -0.0058
 6543SOL    HW131091   4.264   2.063   2.679 -0.1707 -1.4875 -0.1626
 6543SOL    HW231092   4.270   2.013   2.832 -0.9947  2.3606 -0.0176
 6544SOL     OW31093   2.715   3.741   9.285  0.0114  0.5486 -0.2511
 6544SOL    HW131094   2.653   3.780   9.346 -1.3315  0.1791 -1.3709
 6544SOL    HW231095   2.657   3.717   9.212 -0.7846  3.2134 -0.4654
 6545SOL     OW31096   4.136   1.591  11.927 -0.0031  0.2901 -0.2984
 6545SOL    HW131097   4.074   1.570  11.857 -0.7374  0.6947  0.2317
 6545SOL    HW231098   4.084   1.609  12.005 -0.1050  0.6965 -0.4599
 6546SOL     OW31099   0.147   4.062  10.575 -0.1410  0.0228 -0.4954
 6546SOL    HW131100   0.122   4.151  10.600  0.7890  0.9855 -3.0082
 6546SOL    HW231101   0.242   4.065  10.572 -0.0515 -2.5383 -0.2713
 6547SOL     OW31102   3.660   1.581   4.995  0.0044  0.5894 -0.0090
 6547SOL    HW131103   3.704   1.580   4.910  2.7725 -1.9932  1.4266
 6547SOL    HW231104   3.699   1.659   5.035  0.8327 -0.2541  0.8195
 6548SOL     OW31105   0.661   3.394   6.132 -0.0469 -0.1857 -0.1053
 6548SOL    HW131106   0.676   3.371   6.040 -1.0265  1.4303 -0.6610
 6548SOL    HW231107   0.587   3.455   6.126  0.0107 -0.1691 -0.6268
 6549SOL     OW31108   0.769   4.265  12.473 -0.2224  0.4843 -0.3223
 6549SOL    HW131109   0.811   4.179  12.467 -0.3376  0.5327 -1.9443
 6549SOL    HW231110   0.725   4.265  12.557  0.3102 -0.0441 -0.0475
 6550SOL     OW31111   2.083   0.061   8.948  0.3697  0.2215  0.0836
 6550SOL    HW131112   2.008   0.027   8.996  1.3488 -1.0478  0.7293
 6550SOL    HW231113   2.053   0.105   8.868 -0.2417  0.1238  0.2646
 6551SOL     OW31114   1.891   1.784   1.156  0.0993  0.4435 -0.1734
 6551SOL    HW131115   1.972   1.816   1.197 -0.1906 -0.3488  1.0466
 6551SOL    HW231116   1.864   1.860   1.105 -1.0731  0.6121  0.6930
 6552SOL     OW31117   1.598   3.041   2.579 -0.0680 -0.3463  0.1196
 6552SOL    HW131118   1.624   3.101   2.649  1.8151 -0.3055 -0.6114
 6552SOL    HW231119   1.518   3.079   2.543 -0.5507 -0.7161  0.7964
 6553SOL     OW31120   2.149   3.013   6.697 -0.5019 -0.1305 -0.1557
 6553SOL    HW131121   2.235   3.037   6.729  0.5907  0.4221 -3.5306
 6553SOL    HW231122   2.168   2.929   6.656  1.2935  0.4256 -0.4594
 6554SOL     OW31123   3.114   2.138  12.095  0.1139  0.0973 -0.0221
 6554SOL    HW131124   3.083   2.145  12.005 -0.4325 -0.1450  0.1500
 6554SOL    HW231125   3.208   2.158  12.103  0.4784 -1.3397 -0.8486
 6555SOL     OW31126   0.228   0.125   7.214  0.0063  0.6881  0.3473
 6555SOL    HW131127   0.203   0.048   7.162  0.6616  0.3327  0.5655
 6555SOL    HW231128   0.145   0.142   7.260 -0.6197  2.9755 -1.6064
 6556SOL     OW31129   1.368   4.379   3.609 -0.2263 -0.0648  0.5604
 6556SOL    HW131130   1.338   4.377   3.699  2.5779  0.1360  1.5053
 6556SOL    HW231131   1.361   4.471   3.584  0.7329 -0.5076 -1.3578
 6557SOL     OW31132   2.019   1.696   4.557  0.0145 -0.4118 -0.5223
 6557SOL    HW131133   1.956   1.623   4.558 -1.3379  0.7696 -0.3662
 6557SOL    HW231134   1.959   1.763   4.524 -0.7296 -0.9169 -0.1901
 6558SOL     OW31135   4.525   1.867  10.121 -0.0958  0.3501 -0.1416
 6558SOL    HW131136   4.543   1.901  10.033 -1.5685  1.9938  0.1785
 6558SOL    HW231137   4.605   1.880  10.172 -1.4807 -0.9221  2.3399
 6559SOL     OW31138   1.612   1.474  11.064  0.5913  0.4785  0.0297
 6559SOL    HW131139   1.616   1.525  11.145 -0.0076 -3.3580  2.5261
 6559SOL    HW231140   1.519   1.477  11.046  0.2446  0.4982  1.8351
 6560SOL     OW31141   3.749   2.175   7.116 -0.2826 -0.7086 -0.4372
 6560SOL    HW131142   3.811   2.246   7.130 -0.5605 -0.7119  0.8193
 6560SOL    HW231143   3.755   2.155   7.023  1.7528 -0.7571 -0.2793
 6561SOL     OW31144   1.427   4.600  14.889 -0.2308 -0.4177 -0.1363
 6561SOL    HW131145   1.459   4.575  14.803  2.9498 -4.1421  2.1283
 6561SOL    HW231146   1.461   4.531  14.945 -0.4185  0.9079  1.6275
 6562SOL     OW31147   1.399   4.392   5.685  0.2472  0.2632 -0.3375
 6562SOL    HW131148   1.373   4.395   5.777  1.8283 -1.2590  0.1516
 6562SOL    HW231149   1.417   4.298   5.682  2.7162  0.6650  2.1075
 6563SOL     OW31150   3.743   0.365   9.923  0.4362  0.3242 -0.5553
 6563SOL    HW131151   3.647   0.371   9.922  0.2874 -1.5846  0.9269
 6563SOL    HW231152   3.758   0.300   9.853  0.8829 -0.2924  0.1149
 6564SOL     OW31153   0.947   0.732   2.933 -0.6714 -0.4593  0.1002
 6564SOL    HW131154   0.934   0.638   2.940 -1.9699 -0.4070 -1.5866
 6564SOL    HW231155   0.856   0.759   2.919 -1.1336 -1.6510  0.8150
 6565SOL     OW31156   0.321   0.745   3.324  0.0910  0.0712 -0.1466
 6565SOL    HW131157   0.381   0.707   3.389  1.7205  2.1670 -0.3908
 6565SOL    HW231158   0.345   0.838   3.329  0.5415 -0.1208  1.4883
 6566SOL     OW31159   1.241   2.829   3.170 -0.0002 -0.0429 -0.1874
 6566SOL    HW131160   1.250   2.810   3.263  1.5643  0.1469 -0.2914
 6566SOL    HW231161   1.146   2.840   3.165 -0.0343 -1.9904 -3.8361
 6567SOL     OW31162   1.201   0.943   8.892 -0.5481  0.2016 -0.4387
 6567SOL    HW131163   1.189   0.953   8.987 -0.3929  0.7147 -0.4757
 6567SOL    HW231164   1.296   0.933   8.884 -0.4579  0.3411  0.3922
 6568SOL     OW31165   3.606   2.804   5.040 -0.8735 -0.2577  0.3231
 6568SOL    HW131166   3.640   2.888   5.070 -1.6561 -0.3634  1.5047
 6568SOL    HW231167   3.534   2.840   4.988 -0.6773  0.2405  0.3921
 6569SOL     OW31168   0.156   0.419   0.966  0.4391 -0.1682  0.2573
 6569SOL    HW131169   0.249   0.444   0.961  0.7522 -1.6338 -1.2655
 6569SOL    HW231170   0.145   0.337   0.916 -0.5444  1.6737 -2.5441
 6570SOL     OW31171   0.344   2.805   6.692  0.6906  0.2064 -0.0936
 6570SOL    HW131172   0.319   2.896   6.674  0.7932 -0.3090 -2.7536
 6570SOL    HW231173   0.274   2.755   6.649  0.8175  1.5114 -1.7955
 6571SOL     OW31174   0.460   1.136   0.183  0.3541  0.1364  0.6341
 6571SOL    HW131175   0.374   1.096   0.174  1.2151 -1.3184 -1.0328
 6571SOL    HW231176   0.511   1.056   0.190  0.3798 -0.0494 -1.5681
 6572SOL     OW31177   0.705   4.212   6.452 -0.2315 -0.1815  0.2148
 6572SOL    HW131178   0.655   4.281   6.408  0.9293 -0.7840 -2.0530
 6572SOL    HW231179   0.644   4.202   6.525  1.0851 -0.5997  1.2736
 6573SOL     OW31180   0.117   4.585   2.494 -0.3464 -0.3868  0.8099
 6573SOL    HW131181   0.123   4.530   2.415 -0.5201  1.3316 -0.4084
 6573SOL    HW231182   0.194   4.640   2.483 -1.3520  0.5841 -1.4660
 6574SOL     OW31183   1.724   1.683   3.501 -0.4899  0.7383 -0.4559
 6574SOL    HW131184   1.679   1.602   3.475 -0.4171 -0.0050  1.7204
 6574SOL    HW231185   1.690   1.697   3.590  0.9483  0.2607  0.1604
 6575SOL     OW31186   0.047   3.163   7.854  0.0154 -0.0226 -0.2024
 6575SOL    HW131187   0.040   3.209   7.938 -1.8015 -0.1899 -0.2541
 6575SOL    HW231188   0.082   3.081   7.890 -0.0505  0.2120  0.4080
 6576SOL     OW31189   2.518   4.498   6.565  0.1825 -0.0667  0.0446
 6576SOL    HW131190   2.544   4.411   6.536  0.2871 -0.2711  0.7403
 6576SOL    HW231191   2.429   4.494   6.600 -0.1792  0.9459 -0.7404
 6577SOL     OW31192   2.259   2.121  11.011  0.1047  0.1425  0.0943
 6577SOL    HW131193   2.203   2.060  10.964  1.4065 -0.1422 -1.0919
 6577SOL    HW231194   2.335   2.063  11.012 -1.1642 -1.5195 -2.6781
 6578SOL     OW31195   2.985   3.484   8.253 -0.5477 -0.3982 -0.2030
 6578SOL    HW131196   2.925   3.558   8.261  0.5594  0.6969 -1.9047
 6578SOL    HW231197   3.068   3.522   8.283 -1.1474  0.3629  0.4976
 6579SOL     OW31198   0.201   1.220   6.382 -0.0499  0.1213  0.7195
 6579SOL    HW131199   0.247   1.302   6.400 -0.8967  0.2717  2.1687
 6579SOL    HW231200   0.158   1.197   6.464  1.3668  1.6657  1.8849
 6580SOL     OW31201   3.233   2.620   7.162 -0.0983 -0.5715  0.4052
 6580SOL    HW131202   3.283   2.690   7.119 -1.6942  0.7093  0.6535
 6580SOL    HW231203   3.182   2.666   7.229  1.4079  0.6916  0.6857
 6581SOL     OW31204   3.369   1.088   6.157 -0.0620 -0.3477  0.1448
 6581SOL    HW131205   3.303   1.057   6.095 -1.8159  0.4720  1.6100
 6581SOL    HW231206   3.384   1.171   6.112 -0.3722 -1.2150 -1.5639
 6582SOL     OW31207   2.663   3.575  16.910 -0.2697  0.3679  0.2694
 6582SOL    HW131208   2.752   3.557  16.941 -0.4333 -0.6115  0.1495
 6582SOL    HW231209   2.650   3.501  16.851  3.0189 -0.8500  1.0688
 6583SOL     OW31210   3.561   0.934   2.777 -0.8388  0.3970 -0.1135
 6583SOL    HW131211   3.577   1.012   2.723  0.9071 -0.6846 -1.1902
 6583SOL    HW231212   3.587   0.855   2.728  0.1698 -0.6826  2.1706
 6584SOL     OW31213   3.440   0.461   3.791  0.0977 -0.2223 -0.3004
 6584SOL    HW131214   3.410   0.474   3.881  1.0223 -1.2596  0.1537
 6584SOL    HW231215   3.467   0.550   3.770  1.3406 -1.0821 -2.3931
 6585SOL     OW31216   4.040   1.023  15.629 -0.1758  0.1303 -0.1596
 6585SOL    HW131217   4.052   0.940  15.582  2.2438 -0.3045  1.2417
 6585SOL    HW231218   4.128   1.059  15.623 -0.5131  1.1782  1.1512
 6586SOL     OW31219   1.721   4.094   9.722 -0.3512  0.0506 -0.3509
 6586SOL    HW131220   1.772   4.014   9.710  2.1994  1.8842 -1.6656
 6586SOL    HW231221   1.635   4.053   9.728  0.0568 -0.6613  0.5728
 6587SOL     OW31222   4.136   1.949  11.759  0.7826  0.5690  0.5489
 6587SOL    HW131223   4.189   2.024  11.733  0.7416 -0.3271 -2.0824
 6587SOL    HW231224   4.123   1.965  11.853  0.5709 -0.7613  0.7452
 6588SOL     OW31225   1.167   1.668  17.025  0.3509  0.1636 -0.6062
 6588SOL    HW131226   1.157   1.714  16.942 -3.4128  1.1407  0.3792
 6588SOL    HW231227   1.157   1.577  16.997 -4.1740  0.7654 -0.9569
 6589SOL     OW31228   3.688   3.322  16.659  0.1332  0.6281  0.6396
 6589SOL    HW131229   3.675   3.231  16.685 -0.3405  0.6989  0.6585
 6589SOL    HW231230   3.704   3.305  16.566 -0.1738 -0.9051  0.8659
 6590SOL     OW31231   3.933   2.563   7.919  0.1434 -0.3802 -0.1878
 6590SOL    HW131232   3.938   2.650   7.959 -0.6219 -0.1814 -0.5265
 6590SOL    HW231233   3.855   2.563   7.863  0.6721  0.1899 -0.9181
 6591SOL     OW31234   2.517   3.052   5.123 -0.1165 -0.5300  0.1317
 6591SOL    HW131235   2.519   3.006   5.039  1.1523  1.1571 -0.7669
 6591SOL    HW231236   2.424   3.046   5.143 -0.2378  1.2097  0.0875
 6592SOL     OW31237   0.339   0.942   9.203 -0.0972 -0.2252 -0.0745
 6592SOL    HW131238   0.408   0.875   9.203 -0.2768 -0.4196 -1.1644
 6592SOL    HW231239   0.288   0.906   9.275 -0.0006 -0.5437 -0.1659
 6593SOL     OW31240   3.115   4.492   5.227  0.1259  0.1579  0.2836
 6593SOL    HW131241   3.110   4.489   5.323  0.6704 -2.5769  0.2327
 6593SOL    HW231242   3.110   4.398   5.210  0.5952  0.4786 -1.5733
 6594SOL     OW31243   0.530   4.589   5.330 -0.1145  0.4575 -0.1553
 6594SOL    HW131244   0.616   4.565   5.365  0.0760  1.7904  0.2712
 6594SOL    HW231245   0.552   4.637   5.250 -1.8795  1.0504 -0.2597
 6595SOL     OW31246   1.724   3.259   6.045 -0.1462 -1.0146  0.3511
 6595SOL    HW131247   1.645   3.261   6.098 -1.7306 -2.6753 -1.9626
 6595SOL    HW231248   1.679   3.237   5.963  0.8771 -1.1826 -0.1678
 6596SOL     OW31249   2.791   1.564  10.378 -1.0189  0.1877 -0.3579
 6596SOL    HW131250   2.702   1.530  10.363 -0.8165  0.4506 -2.1704
 6596SOL    HW231251   2.773   1.601  10.464  1.2531  1.8887 -0.6309
 6597SOL     OW31252   1.324   1.983   8.014  0.0411  0.1945 -0.2333
 6597SOL    HW131253   1.305   2.067   8.056  2.1188  0.9919 -0.9176
 6597SOL    HW231254   1.395   1.957   8.073  0.7278  1.1427 -0.6367
 6598SOL     OW31255   1.923   2.188   2.724  0.0887  0.0695  0.5513
 6598SOL    HW131256   1.862   2.156   2.790 -0.1153 -1.0046 -0.1687
 6598SOL    HW231257   1.974   2.257   2.767  0.6404  0.5524 -0.8655
 6599SOL     OW31258   0.453   3.774  15.006 -0.0841  0.5507 -0.3798
 6599SOL    HW131259   0.512   3.809  14.939  1.8896 -1.5546  0.2665
 6599SOL    HW231260   0.383   3.739  14.951  0.3319 -0.0091 -0.5542
 6600SOL     OW31261   4.162   1.885   3.105  0.3210  0.5412 -0.5049
 6600SOL    HW131262   4.250   1.849   3.113 -0.5619 -1.1394  1.5293
 6600SOL    HW231263   4.124   1.798   3.116  0.7972  0.2901 -0.8539
 6601SOL     OW31264   0.134   0.251   2.603  0.3216  0.2573 -0.0501
 6601SOL    HW131265   0.170   0.208   2.681 -1.8086  0.7830  1.2455
 6601SOL    HW231266   0.062   0.302   2.639  0.7376  1.4612 -0.9617
 6602SOL     OW31267   3.558   1.325   9.497 -0.3261 -0.3824 -0.3850
 6602SOL    HW131268   3.636   1.373   9.468  0.6837 -1.4250  0.5764
 6602SOL    HW231269   3.491   1.373   9.450 -2.1317 -1.1949  1.3592
 6603SOL     OW31270   4.052   1.500   8.723 -0.3678 -0.0953  0.5995
 6603SOL    HW131271   3.959   1.503   8.698  0.5360  1.0209 -2.6471
 6603SOL    HW231272   4.066   1.411   8.690  1.5195 -0.2440  1.8218
 6604SOL     OW31273   3.268   3.532   1.679 -0.0647 -0.2601 -0.8293
 6604SOL    HW131274   3.292   3.461   1.739 -1.9929  1.9900  2.5911
 6604SOL    HW231275   3.174   3.547   1.689 -0.3318 -3.4231  1.2953
 6605SOL     OW31276   1.114   2.082   9.987 -0.3101  0.1052 -0.0091
 6605SOL    HW131277   1.059   2.023  10.038  1.5700 -0.7836  0.9951
 6605SOL    HW231278   1.104   2.043   9.901 -1.0184 -1.2182  0.6729
 6606SOL     OW31279   0.712   0.402  11.338  0.1753 -0.2083  0.6497
 6606SOL    HW131280   0.797   0.442  11.324 -0.1382 -0.1150 -0.9217
 6606SOL    HW231281   0.702   0.349  11.260 -3.3442 -1.1239  1.6876
 6607SOL     OW31282   1.826   2.274   4.907 -0.3863 -0.4503  0.2209
 6607SOL    HW131283   1.806   2.181   4.922 -0.6713 -0.2367  1.2161
 6607SOL    HW231284   1.920   2.267   4.893 -0.3830 -2.9633  1.5275
 6608SOL     OW31285   0.386   2.559   9.114  0.4572 -0.7238  0.5518
 6608SOL    HW131286   0.384   2.653   9.134  1.2663 -0.5621 -0.1140
 6608SOL    HW231287   0.436   2.530   9.190 -1.1647 -0.0436  1.8948
 6609SOL     OW31288   3.817   3.124   8.466  0.5086 -0.5164 -0.8222
 6609SOL    HW131289   3.826   3.057   8.534 -1.9177  0.3926  0.3974
 6609SOL    HW231290   3.739   3.093   8.419 -0.3398  1.7531 -0.8829
 6610SOL     OW31291   1.963   2.549   2.161 -0.0066 -0.6332  0.3337
 6610SOL    HW131292   1.868   2.538   2.162 -0.1054  0.1973  1.0956
 6610SOL    HW231293   1.976   2.533   2.068  0.5340  0.5608  0.1915
 6611SOL     OW31294   3.056   3.094   2.984 -0.0141 -0.1822  0.0193
 6611SOL    HW131295   2.983   3.105   2.923 -1.7262 -0.9584  1.9359
 6611SOL    HW231296   3.006   3.079   3.065 -1.7506  1.1706 -0.7956
 6612SOL     OW31297   2.972   3.772  12.047 -0.2131  0.1975  0.2432
 6612SOL    HW131298   3.043   3.775  12.111  0.9421 -3.2164 -0.8439
 6612SOL    HW231299   3.011   3.705  11.990 -1.5037 -1.2422  1.0238
 6613SOL     OW31300   2.838   1.598   0.846 -0.5860  0.0851 -0.2179
 6613SOL    HW131301   2.791   1.529   0.893 -0.4689 -0.4428 -0.8808
 6613SOL    HW231302   2.809   1.670   0.902 -0.4403 -0.5316  0.6519
 6614SOL     OW31303   1.739   3.958   8.257  0.0282 -0.1722 -0.0882
 6614SOL    HW131304   1.818   3.991   8.300 -2.0801  1.5255  2.5094
 6614SOL    HW231305   1.672   3.992   8.316 -0.4637  1.0818 -1.3953
 6615SOL     OW31306   1.156   3.804   0.855  0.5473 -0.8760 -0.0121
 6615SOL    HW131307   1.080   3.794   0.913 -1.1704  1.7619 -1.8133
 6615SOL    HW231308   1.141   3.892   0.820 -0.5251 -0.9365  0.2752
 6616SOL     OW31309   4.710   1.935  10.366  0.5054 -0.1290 -0.1018
 6616SOL    HW131310   0.066   1.957  10.417 -0.5514  1.8805  0.6364
 6616SOL    HW231311   0.034   1.933  10.282 -1.8111 -0.8094 -1.3247
 6617SOL     OW31312   1.572   3.572   3.653 -0.1773 -0.3426  0.3140
 6617SOL    HW131313   1.560   3.521   3.734  1.6628 -0.2757  0.6496
 6617SOL    HW231314   1.563   3.491   3.603  2.9059 -0.0437 -0.7508
 6618SOL     OW31315   3.461   3.176   3.920 -0.1935  0.1655  0.2468
 6618SOL    HW131316   3.450   3.088   3.884  0.1705  0.6827 -1.1505
 6618SOL    HW231317   3.516   3.226   3.859 -0.2676  1.3562  1.1477
 6619SOL     OW31318   0.989   2.440   9.375 -0.2162 -0.2476  0.0546
 6619SOL    HW131319   0.995   2.348   9.400 -1.5352  0.2189  2.0847
 6619SOL    HW231320   0.948   2.477   9.453 -1.0005  0.7586 -0.8237
 6620SOL     OW31321   3.108   0.450   7.928  0.4600  0.3089 -0.2196
 6620SOL    HW131322   3.186   0.414   7.970 -0.5840 -2.1208 -0.4155
 6620SOL    HW231323   3.100   0.389   7.855 -1.7160  0.6008 -0.2292
 6621SOL     OW31324   3.317   3.473   1.026 -0.4890 -0.1290  0.1813
 6621SOL    HW131325   3.260   3.402   0.994 -0.0374 -0.3379 -0.1727
 6621SOL    HW231326   3.372   3.481   0.948  0.4772 -2.1368  0.6582
 6622SOL     OW31327   1.838   2.244   7.258  0.5838  0.5712 -0.2426
 6622SOL    HW131328   1.922   2.232   7.214 -0.3785 -2.7318 -1.2179
 6622SOL    HW231329   1.856   2.324   7.307 -1.0486  0.1460  1.0469
 6623SOL     OW31330   4.310   3.824  14.613  0.3309 -0.2235 -0.0234
 6623SOL    HW131331   4.260   3.785  14.685 -1.9455 -0.9594 -2.0165
 6623SOL    HW231332   4.384   3.864  14.658  0.3703 -0.6932  0.3250
 6624SOL     OW31333   1.033   1.489   8.006 -0.0032 -0.3735  0.3293
 6624SOL    HW131334   1.062   1.556   7.945  0.1183  0.2551  1.0721
 6624SOL    HW231335   0.941   1.511   8.020  0.8311  3.4142 -0.2927
 6625SOL     OW31336   2.414   1.932   4.334 -0.2082 -0.5204  0.2411
 6625SOL    HW131337   2.379   1.868   4.396  0.1400 -0.6744  0.2785
 6625SOL    HW231338   2.416   2.011   4.388 -0.1777 -1.0433  1.0174
 6626SOL     OW31339   4.630   2.095   8.192  0.0998 -0.2731  0.1661
 6626SOL    HW131340   4.564   2.064   8.254  1.0884  0.9433  1.8190
 6626SOL    HW231341   4.605   2.056   8.108 -1.8139 -0.2546  0.7406
 6627SOL     OW31342   2.878   0.318  13.798  0.5161  0.2760 -0.1822
 6627SOL    HW131343   2.884   0.379  13.724  0.1164 -1.3474 -1.5444
 6627SOL    HW231344   2.794   0.274  13.785 -0.3392  1.5228  1.2202
 6628SOL     OW31345   1.706   1.704   1.331  0.5489  0.9947  0.0709
 6628SOL    HW131346   1.677   1.632   1.275  1.6174  1.7426 -1.4513
 6628SOL    HW231347   1.789   1.712   1.285 -0.1291 -0.0569 -1.3405
 6629SOL     OW31348   2.238   2.628  14.296  0.4198  0.2906  0.3705
 6629SOL    HW131349   2.322   2.600  14.334  0.9031  0.2905 -0.6956
 6629SOL    HW231350   2.273   2.703  14.247 -0.4562 -0.0818 -0.7904
 6630SOL     OW31351   0.454   3.540   6.016  0.4123 -0.0915 -0.0866
 6630SOL    HW131352   0.395   3.603   6.056  0.3778 -2.6251  3.8408
 6630SOL    HW231353   0.418   3.456   6.044 -2.3124  0.8721 -0.6782
 6631SOL     OW31354   4.603   0.426  12.685  0.2847 -0.4009 -0.2601
 6631SOL    HW131355   4.510   0.406  12.679  0.2895  0.2394 -2.3283
 6631SOL    HW231356   4.630   0.415  12.594 -1.0872  1.7421 -0.9301
 6632SOL     OW31357   2.296   3.221  15.208  0.5584  0.1677  0.4115
 6632SOL    HW131358   2.221   3.163  15.224 -1.5966  3.2211  1.3881
 6632SOL    HW231359   2.253   3.279  15.146  0.6077  0.9676  1.1267
 6633SOL     OW31360   3.843   2.870   2.299  0.0507 -0.7603  0.1116
 6633SOL    HW131361   3.922   2.819   2.281 -0.6418 -1.0031 -2.2200
 6633SOL    HW231362   3.881   2.956   2.278 -0.0123 -0.9027 -0.5970
 6634SOL     OW31363   3.270   4.038   5.240  0.0137 -0.6125  0.0750
 6634SOL    HW131364   3.348   4.057   5.188 -1.6030  0.1415 -2.0537
 6634SOL    HW231365   3.286   4.105   5.307 -0.7118 -2.1276  1.7750
 6635SOL     OW31366   1.823   1.503  11.891  0.3177 -0.4933 -0.4292
 6635SOL    HW131367   1.751   1.525  11.951 -1.1409 -2.3482 -1.5081
 6635SOL    HW231368   1.797   1.542  11.808 -1.4528  0.6380  0.6413
 6636SOL     OW31369   2.854   3.616   4.763 -0.0125 -0.8934  0.2134
 6636SOL    HW131370   2.800   3.684   4.803  0.0960 -0.5210 -0.2717
 6636SOL    HW231371   2.881   3.668   4.687 -0.4132  1.1565  1.4726
 6637SOL     OW31372   1.643   0.103  14.544 -0.0745 -0.2369  0.7026
 6637SOL    HW131373   1.701   0.129  14.472  2.0744 -1.8427  1.8410
 6637SOL    HW231374   1.699   0.128  14.617  0.5599 -1.7166  0.7251
 6638SOL     OW31375   4.066   1.260   1.195 -0.0463  0.2048 -0.4055
 6638SOL    HW131376   4.057   1.341   1.244 -1.2334 -1.1886  1.6513
 6638SOL    HW231377   4.028   1.194   1.253 -0.4516  0.8133  0.0114
 6639SOL     OW31378   4.042   3.627   8.434  0.0447  0.5911 -0.1862
 6639SOL    HW131379   4.008   3.639   8.345  0.5377  1.2085 -0.2923
 6639SOL    HW231380   4.077   3.540   8.415 -0.9453 -0.2730  1.9239
 6640SOL     OW31381   1.984   2.568   9.979  0.6425  0.1774  0.3462
 6640SOL    HW131382   1.893   2.543   9.961  0.6123  0.9836 -0.5703
 6640SOL    HW231383   2.030   2.488   9.954 -0.2940 -0.2854  0.0866
 6641SOL     OW31384   2.106   4.713  15.281 -0.8473  0.2280  0.2838
 6641SOL    HW131385   2.022   4.670  15.293 -0.2076 -1.2241 -0.4915
 6641SOL    HW231386   2.075   0.064  15.226  0.1032  1.0604  0.8378
 6642SOL     OW31387   0.473   2.486   2.722  0.3550 -0.1622 -0.4947
 6642SOL    HW131388   0.488   2.555   2.657  1.0954  0.0381 -0.1227
 6642SOL    HW231389   0.558   2.492   2.767 -1.4265  0.5958  2.7355
 6643SOL     OW31390   1.354   4.180  16.821  0.4692  0.6119 -0.0595
 6643SOL    HW131391   1.411   4.229  16.761 -0.3297  2.3974  0.6470
 6643SOL    HW231392   1.278   4.238  16.825 -0.4589 -0.5303 -0.9645
 6644SOL     OW31393   3.591   1.511   0.592  0.0763  0.1615  0.2378
 6644SOL    HW131394   3.686   1.505   0.607  0.0729  0.6574  0.4686
 6644SOL    HW231395   3.568   1.495   0.684 -0.8645  3.4142  0.5808
 6645SOL     OW31396   0.631   1.018   3.496 -0.3538 -0.3894 -0.2133
 6645SOL    HW131397   0.544   0.980   3.510  0.7336 -2.0882  1.7774
 6645SOL    HW231398   0.618   1.071   3.417  0.7703  0.5249  0.2128
 6646SOL     OW31399   2.629   2.590   1.936 -0.3158 -0.3322 -0.2604
 6646SOL    HW131400   2.677   2.520   1.980 -0.5416  0.4667  1.2544
 6646SOL    HW231401   2.570   2.537   1.882  0.1529  0.4094 -1.4882
 6647SOL     OW31402   1.757   4.175   6.897  0.5773  0.3328 -0.0723
 6647SOL    HW131403   1.814   4.100   6.908  0.2455 -0.1497 -1.6688
 6647SOL    HW231404   1.747   4.163   6.803 -1.0286 -1.8273  0.3792
 6648SOL     OW31405   3.112   4.095   0.113 -0.9174 -0.2073  0.1605
 6648SOL    HW131406   3.067   4.085   0.197  0.0620 -1.3758  0.5464
 6648SOL    HW231407   3.197   4.056   0.133 -1.0323 -0.4580  0.1505
 6649SOL     OW31408   2.396   0.557  13.350 -0.4966  0.6480 -0.4181
 6649SOL    HW131409   2.314   0.607  13.351 -0.4296  0.7364  0.3273
 6649SOL    HW231410   2.429   0.597  13.269 -3.9853 -0.3928 -2.3314
 6650SOL     OW31411   3.017   2.056  13.206  0.2399  0.1037 -0.4141
 6650SOL    HW131412   3.102   2.097  13.191 -0.5003  1.5429 -0.6829
 6650SOL    HW231413   2.973   2.135  13.237  0.4955  0.5851 -1.2681
 6651SOL     OW31414   1.673   0.586  13.423  0.3549  0.2347 -0.6174
 6651SOL    HW131415   1.582   0.590  13.392  0.0601 -0.1492  0.1736
 6651SOL    HW231416   1.690   0.492  13.429  0.4011  0.3622  1.3027
 6652SOL     OW31417   1.169   2.442   8.366 -0.1828  0.5764  0.4408
 6652SOL    HW131418   1.080   2.455   8.399 -1.6669 -4.0517 -1.8074
 6652SOL    HW231419   1.226   2.468   8.439 -0.6334  1.5154  0.4587
 6653SOL     OW31420   0.335   1.111   6.145  0.5452  0.5453 -0.5541
 6653SOL    HW131421   0.382   1.028   6.149 -0.8409 -0.1443  1.6328
 6653SOL    HW231422   0.290   1.101   6.230  1.9192  0.9419  0.2209
 6654SOL     OW31423   0.469   1.486  16.296 -0.3968  0.3625  0.2762
 6654SOL    HW131424   0.545   1.449  16.252 -0.3996  0.8635 -0.1545
 6654SOL    HW231425   0.480   1.579  16.273  1.7922  0.4256  1.6101
 6655SOL     OW31426   4.172   3.723   0.340 -0.0204 -0.2737 -0.5686
 6655SOL    HW131427   4.131   3.778   0.273 -0.0961 -1.0992 -1.1988
 6655SOL    HW231428   4.265   3.728   0.316  0.2344 -0.6623  0.3264
 6656SOL     OW31429   0.306   2.872  12.194 -0.4001  0.0142 -0.4412
 6656SOL    HW131430   0.334   2.963  12.202 -0.0294  0.0227 -1.8882
 6656SOL    HW231431   0.216   2.869  12.163 -0.9248 -2.1868  1.2367
 6657SOL     OW31432   1.158   0.721   5.509  0.3916 -0.1976  0.0591
 6657SOL    HW131433   1.225   0.738   5.575 -0.9155  1.1083  1.0372
 6657SOL    HW231434   1.214   0.702   5.433  0.7268 -0.0765  0.2745
 6658SOL     OW31435   2.197   2.027   9.972  0.3570 -0.0312  0.0836
 6658SOL    HW131436   2.207   1.948   9.918  0.4630 -1.2430  1.8631
 6658SOL    HW231437   2.117   2.060   9.931  0.2412 -1.3433 -0.7495
 6659SOL     OW31438   3.105   1.591   0.818 -0.1306  0.5781  0.1678
 6659SOL    HW131439   3.011   1.587   0.839 -0.4014  1.4736 -0.8761
 6659SOL    HW231440   3.120   1.685   0.824  1.6903  0.2266  1.1555
 6660SOL     OW31441   1.790   2.623   6.373  0.3761 -0.3739 -0.2565
 6660SOL    HW131442   1.818   2.549   6.426  2.0337 -0.3197 -1.0598
 6660SOL    HW231443   1.698   2.600   6.361  0.8898 -2.4965 -0.1534
 6661SOL     OW31444   4.013   0.294  13.647  0.2433  0.1631  0.1786
 6661SOL    HW131445   4.029   0.200  13.654 -2.5682 -0.3782 -0.9135
 6661SOL    HW231446   3.925   0.289  13.609 -0.6903  2.2269  2.1029
 6662SOL     OW31447   1.322   3.080   7.336  0.2059 -0.0017 -0.2092
 6662SOL    HW131448   1.378   3.031   7.276  0.0370 -1.1001  0.5292
 6662SOL    HW231449   1.242   3.036   7.309 -0.0185  1.3247 -1.7030
 6663SOL     OW31450   3.024   4.543   4.207  0.2112  0.5496  0.1634
 6663SOL    HW131451   3.015   4.448   4.207  0.4138  0.5310 -1.0595
 6663SOL    HW231452   2.982   4.550   4.293 -1.5781  1.1727 -0.7550
 6664SOL     OW31453   4.483   2.566   2.892 -0.0137  0.2419 -0.1618
 6664SOL    HW131454   4.557   2.537   2.945  0.1194 -1.2422 -1.1362
 6664SOL    HW231455   4.504   2.512   2.815 -2.2642 -1.5033  0.4351
 6665SOL     OW31456   3.371   0.305   3.054  0.4424  1.0080 -0.4464
 6665SOL    HW131457   3.363   0.387   3.006  0.1599  1.4953  0.4219
 6665SOL    HW231458   3.382   0.337   3.144 -3.9675  0.2271  0.3909
 6666SOL     OW31459   4.260   4.595   3.276  0.0711  0.3813  0.1580
 6666SOL    HW131460   4.221   4.523   3.326  2.1094 -1.7928 -1.3564
 6666SOL    HW231461   4.316   4.545   3.217 -0.4373 -1.4938  1.2322
 6667SOL     OW31462   4.686   1.507   6.585  0.1069  0.0722  0.0738
 6667SOL    HW131463   0.028   1.577   6.597  1.1674 -0.6186 -1.4470
 6667SOL    HW231464   4.672   1.512   6.490 -0.5198 -0.9683  0.1073
 6668SOL     OW31465   3.566   0.136   4.465 -0.3774 -0.3780  0.0609
 6668SOL    HW131466   3.535   0.060   4.416  1.4166  1.5109 -3.9732
 6668SOL    HW231467   3.627   0.102   4.531 -0.3749 -0.3756  0.0597
 6669SOL     OW31468   2.781   4.629   7.180  0.0890 -0.1888 -0.4169
 6669SOL    HW131469   2.819   4.546   7.210 -1.7443  0.1297  2.8160
 6669SOL    HW231470   2.850   4.665   7.124  0.3862  2.3179  1.5809
 6670SOL     OW31471   2.076   2.369   2.883  0.0814  0.0641  0.6322
 6670SOL    HW131472   2.125   2.294   2.918  0.9530  0.5031  0.3602
 6670SOL    HW231473   2.018   2.380   2.958  2.0026 -0.3993  2.1962
 6671SOL     OW31474   2.686   3.200  10.418 -0.1988 -0.1813  0.3574
 6671SOL    HW131475   2.714   3.180  10.507  1.1018  1.6957  0.3674
 6671SOL    HW231476   2.757   3.162  10.367  1.9942  0.8841  2.6620
 6672SOL     OW31477   4.323   3.028   5.268 -0.0136  0.2566  0.2503
 6672SOL    HW131478   4.264   3.087   5.316  1.5459  0.5022  1.8472
 6672SOL    HW231479   4.342   2.954   5.327 -0.7833 -0.9543 -1.0080
 6673SOL     OW31480   0.160   4.414  16.306  0.5094 -0.0395  0.2033
 6673SOL    HW131481   0.073   4.449  16.287  0.2528  0.5978  2.4440
 6673SOL    HW231482   0.154   4.330  16.262  1.6003  0.3074 -0.6226
 6674SOL     OW31483   3.108   3.141  13.229 -0.1372 -0.3287  0.0036
 6674SOL    HW131484   3.053   3.068  13.203 -1.0850  0.1692  0.6362
 6674SOL    HW231485   3.043   3.200  13.266  2.1043  1.1964  1.5190
 6675SOL     OW31486   1.021   2.502   0.702  0.2499 -0.1550  0.3465
 6675SOL    HW131487   1.044   2.507   0.795  3.9813 -1.5598 -0.5065
 6675SOL    HW231488   1.047   2.413   0.678 -2.1539 -0.7750  0.0095
 6676SOL     OW31489   0.103   4.465  11.670 -0.3804 -0.2886  0.0363
 6676SOL    HW131490   0.160   4.444  11.596  0.9043  1.9252  0.3952
 6676SOL    HW231491   0.080   4.556  11.655  1.2545  0.0118 -0.6297
 6677SOL     OW31492   1.754   2.820  13.757 -0.3167  0.5560  0.0943
 6677SOL    HW131493   1.799   2.772  13.686 -2.1661  0.9134 -1.3101
 6677SOL    HW231494   1.703   2.883  13.706 -0.8950 -1.1599 -1.4739
 6678SOL     OW31495   0.908   0.899   2.673 -0.1909  0.1700 -0.0237
 6678SOL    HW131496   0.879   0.836   2.607  2.7174 -1.5510  0.3098
 6678SOL    HW231497   0.888   0.975   2.619  0.4248 -0.2294 -0.8172
 6679SOL     OW31498   3.136   0.693   9.338  0.1849 -0.1847  0.4336
 6679SOL    HW131499   3.143   0.620   9.399  0.2217  0.5467  1.2984
 6679SOL    HW231500   3.226   0.710   9.307  0.0235  0.0915  0.1188
 6680SOL     OW31501   1.808   1.321  16.473 -0.2631  0.5081 -0.6002
 6680SOL    HW131502   1.728   1.286  16.512  0.3186 -0.7480 -0.5435
 6680SOL    HW231503   1.842   1.244  16.428 -0.3737 -0.2402  0.6064
 6681SOL     OW31504   1.696   2.547  17.650  0.1035  0.2596  1.0644
 6681SOL    HW131505   1.603   2.529  17.664 -0.2820  2.0311  0.8445
 6681SOL    HW231506   1.694   2.586  17.563  1.5061 -0.0600  0.8915
 6682SOL     OW31507   2.836   3.688  15.726 -0.0336 -0.3228 -0.3254
 6682SOL    HW131508   2.760   3.686  15.784 -0.5824  2.4007 -0.9547
 6682SOL    HW231509   2.796   3.733  15.652 -0.7954 -1.0237 -0.3366
 6683SOL     OW31510   3.526   3.067   3.369 -0.3037  0.3563 -0.0660
 6683SOL    HW131511   3.577   3.124   3.310  0.0720  0.3496  0.2501
 6683SOL    HW231512   3.441   3.110   3.362 -0.1201  0.7365  0.0603
 6684SOL     OW31513   2.860   1.748   5.383 -0.0292  0.0849  0.0385
 6684SOL    HW131514   2.804   1.692   5.437  0.8011  0.5010  1.3284
 6684SOL    HW231515   2.940   1.696   5.377  0.6026  0.9179  1.3449
 6685SOL     OW31516   3.642   0.828   0.092 -0.1756 -0.3518  0.4601
 6685SOL    HW131517   3.564   0.872   0.059  0.9797  0.6546 -0.9569
 6685SOL    HW231518   3.706   0.899   0.095 -1.0365  0.5123 -2.1433
 6686SOL     OW31519   3.770   4.554   1.715 -0.2492 -0.0470  0.1775
 6686SOL    HW131520   3.789   4.635   1.763 -1.4490 -0.7560  1.8616
 6686SOL    HW231521   3.694   4.511   1.755  0.6995 -2.1741 -0.2681
 6687SOL     OW31522   2.010   4.493   4.804  0.6979 -0.5317 -0.2130
 6687SOL    HW131523   2.003   4.421   4.741  1.8555  2.1238 -3.3027
 6687SOL    HW231524   1.963   4.569   4.772  1.9867  0.0948 -0.6145
 6688SOL     OW31525   4.614   1.830   8.750  0.1161 -0.4503 -0.2516
 6688SOL    HW131526   4.545   1.826   8.815 -0.3414 -0.5650 -0.7454
 6688SOL    HW231527   4.667   1.752   8.767  2.4874  1.0353 -0.6955
 6689SOL     OW31528   2.822   4.363  15.503 -0.0158  0.1377 -0.4349
 6689SOL    HW131529   2.889   4.411  15.454  1.0917 -0.9100  0.0327
 6689SOL    HW231530   2.748   4.373  15.444 -0.3776  0.3434  0.0603
 6690SOL     OW31531   4.055   1.186   5.263  0.3131  0.0939  0.5103
 6690SOL    HW131532   4.125   1.250   5.251  1.0756 -0.9783 -0.7465
 6690SOL    HW231533   4.092   1.120   5.321  0.9886  1.0567  1.1701
 6691SOL     OW31534   0.241   0.414   1.462 -0.7509  0.2934 -0.0187
 6691SOL    HW131535   0.233   0.362   1.542  0.3387 -0.3630 -0.3356
 6691SOL    HW231536   0.206   0.496   1.497  3.1893  0.1914  4.2197
 6692SOL     OW31537   1.035   1.162   0.958  0.3963  0.0180 -0.9425
 6692SOL    HW131538   1.111   1.182   1.013 -0.3432  1.3829 -0.4151
 6692SOL    HW231539   1.082   1.135   0.880 -0.6707 -3.4352 -0.3715
 6693SOL     OW31540   4.380   0.485   4.055  0.1151  0.0109  0.2535
 6693SOL    HW131541   4.314   0.530   4.003  0.5062  1.3831  0.9468
 6693SOL    HW231542   4.455   0.511   4.002  0.7621  0.7301  1.5083
 6694SOL     OW31543   4.590   3.810   6.244 -0.1540  0.6246  0.0222
 6694SOL    HW131544   4.508   3.811   6.195  0.1295 -2.3283 -0.5158
 6694SOL    HW231545   4.646   3.768   6.178  0.8764 -0.1880  1.4056
 6695SOL     OW31546   0.067   0.095   0.582 -0.8821 -0.2083 -0.9231
 6695SOL    HW131547   0.095   0.168   0.638 -2.0480  0.1876 -0.8496
 6695SOL    HW231548   0.150   0.050   0.567  1.4197  3.9949 -0.9157
 6696SOL     OW31549   1.934   1.359   4.801  0.3731  0.7455  0.6914
 6696SOL    HW131550   1.892   1.391   4.722 -1.0359 -2.2554  0.2232
 6696SOL    HW231551   2.020   1.395   4.777  0.3897  0.7171  0.7079
 6697SOL     OW31552   2.459   1.306   5.317  0.1821 -0.0930  0.1146
 6697SOL    HW131553   2.547   1.343   5.324  0.3731 -0.4946 -0.1816
 6697SOL    HW231554   2.397   1.376   5.297 -0.0624  0.0893  1.5267
 6698SOL     OW31555   0.256   2.525  17.309  0.3373  0.2570  0.5205
 6698SOL    HW131556   0.192   2.557  17.373  0.3765 -1.5907  1.4901
 6698SOL    HW231557   0.198   2.543  17.235  1.5797  0.1516 -0.4756
 6699SOL     OW31558   1.101   0.941   2.381 -1.2634  0.7140 -0.5466
 6699SOL    HW131559   1.081   1.013   2.441 -0.5095  0.4200  0.0538
 6699SOL    HW231560   1.160   0.987   2.322  0.8872 -0.5112  0.6654
 6700SOL     OW31561   4.719   1.793   9.873 -0.5474  0.5184  0.2800
 6700SOL    HW131562   0.032   1.728   9.934 -0.9737 -0.0728 -0.1141
 6700SOL    HW231563   0.070   1.805   9.811 -0.1489 -0.6550  0.5317
 6701SOL     OW31564   1.922   0.511   6.789 -0.1082  0.1089 -0.2159
 6701SOL    HW131565   1.984   0.455   6.835 -0.5750  0.7282  1.1709
 6701SOL    HW231566   1.835   0.469   6.787 -0.6296  1.2367 -1.2346
 6702SOL     OW31567   0.207   3.105   3.079 -0.0571 -0.3911 -0.2748
 6702SOL    HW131568   0.287   3.053   3.076 -0.1933 -0.7020  1.7855
 6702SOL    HW231569   0.227   3.145   2.994 -0.5706  0.5660  0.0547
 6703SOL     OW31570   0.493   1.227   7.116 -0.0315  0.6101 -0.5662
 6703SOL    HW131571   0.582   1.198   7.131 -0.0214  1.0141  0.1238
 6703SOL    HW231572   0.467   1.245   7.206 -2.0818  1.3990 -1.2875
 6704SOL     OW31573   3.102   3.509  10.161 -0.0850 -0.1490 -0.0252
 6704SOL    HW131574   3.193   3.486  10.182  0.6508  1.4483 -1.5432
 6704SOL    HW231575   3.072   3.423  10.130  0.5869  0.3970 -2.1332
 6705SOL     OW31576   2.233   0.857   7.572  0.4528  0.1048 -0.4837
 6705SOL    HW131577   2.242   0.818   7.485  4.6662  0.3019 -0.1577
 6705SOL    HW231578   2.158   0.810   7.608  0.6811  0.5074  0.5114
 6706SOL     OW31579   2.104   0.352   7.549  0.3200 -0.5640 -0.1362
 6706SOL    HW131580   2.177   0.414   7.546  0.5161 -0.6649  3.8431
 6706SOL    HW231581   2.074   0.362   7.458  1.9319 -2.7773 -0.9310
 6707SOL     OW31582   1.370   1.237   5.857 -0.6669  0.3844  0.3874
 6707SOL    HW131583   1.315   1.248   5.779 -2.3003  1.5361  1.6764
 6707SOL    HW231584   1.321   1.277   5.929 -1.3353 -0.1195  0.2228
 6708SOL     OW31585   2.297   1.695   7.047 -0.0186 -0.3220  0.0580
 6708SOL    HW131586   2.309   1.705   7.141  0.8915 -0.4513 -0.0518
 6708SOL    HW231587   2.276   1.786   7.028  1.3463 -0.1581 -0.6123
 6709SOL     OW31588   1.435   1.733  14.007 -0.4789  0.7036 -0.4869
 6709SOL    HW131589   1.469   1.645  14.019  0.1560  1.1838  1.1237
 6709SOL    HW231590   1.341   1.713  14.004 -0.7851  2.0826  0.1959
 6710SOL     OW31591   0.880   2.260   3.876 -0.3551  0.0204  0.2949
 6710SOL    HW131592   0.853   2.215   3.796  2.2214  2.2591 -1.8443
 6710SOL    HW231593   0.959   2.305   3.845 -0.9724 -0.4747 -2.0107
 6711SOL     OW31594   0.320   0.342   5.935  0.0079  1.1275  0.3444
 6711SOL    HW131595   0.383   0.278   5.966  1.4953  2.0391 -0.8183
 6711SOL    HW231596   0.257   0.331   6.006 -0.4959  0.7411 -0.1582
 6712SOL     OW31597   3.123   3.719   3.762  0.3418 -0.2756  0.2107
 6712SOL    HW131598   3.068   3.695   3.687  0.1712  0.6299  0.0423
 6712SOL    HW231599   3.195   3.759   3.713 -0.8412  0.2254 -1.1281
 6713SOL     OW31600   1.551   3.953   4.222  0.3284  0.2037 -0.4824
 6713SOL    HW131601   1.502   4.005   4.285 -1.6180 -1.1291 -0.8739
 6713SOL    HW231602   1.484   3.891   4.193 -0.6909  1.0580  0.0765
 6714SOL     OW31603   4.528   2.327   9.490  0.6934  0.2528  0.3959
 6714SOL    HW131604   4.609   2.277   9.479  0.4731  0.1873 -1.0305
 6714SOL    HW231605   4.559   2.413   9.462  3.9500 -1.3281 -0.8268
 6715SOL     OW31606   2.829   3.349   7.743  0.0006 -0.0455  0.2357
 6715SOL    HW131607   2.752   3.394   7.779 -0.2036 -1.6604  1.8359
 6715SOL    HW231608   2.792   3.321   7.659  0.2019  1.4387 -0.3453
 6716SOL     OW31609   0.662   3.158   3.375  0.2586  0.4122 -0.5686
 6716SOL    HW131610   0.672   3.140   3.282 -0.7064 -0.6161 -0.4698
 6716SOL    HW231611   0.754   3.149   3.398 -0.0540 -1.0507  0.1311
 6717SOL     OW31612   0.821   3.529   5.400 -0.3412 -0.6347  0.2037
 6717SOL    HW131613   0.849   3.516   5.309 -2.8240  1.0779 -0.8089
 6717SOL    HW231614   0.738   3.578   5.395  0.4867  0.7964  0.6214
 6718SOL     OW31615   3.985   0.695   7.989 -0.0335 -0.5355 -0.0320
 6718SOL    HW131616   4.077   0.680   8.010  0.0411  0.0105  0.0432
 6718SOL    HW231617   3.936   0.631   8.040 -2.0699  0.6541 -0.4980
 6719SOL     OW31618   1.655   1.096   5.320  0.3407 -0.1688  0.1342
 6719SOL    HW131619   1.586   1.032   5.337  0.2828  0.2630  1.5544
 6719SOL    HW231620   1.679   1.120   5.410 -0.1255  2.1982 -0.3692
 6720SOL     OW31621   0.205   3.176   6.876  0.3847 -0.5443 -0.3946
 6720SOL    HW131622   0.125   3.149   6.922 -0.8790  1.7245 -1.2811
 6720SOL    HW231623   0.269   3.180   6.947  0.5569  2.4950 -0.7267
 6721SOL     OW31624   2.798   0.783   6.011 -0.7293  0.2850 -0.8451
 6721SOL    HW131625   2.796   0.873   6.044 -2.2726  0.2989 -0.9911
 6721SOL    HW231626   2.734   0.736   6.064 -0.8231  1.5311  0.1450
 6722SOL     OW31627   3.664   2.864   6.750 -0.3446  0.0682 -0.0747
 6722SOL    HW131628   3.707   2.908   6.824 -2.3823  0.4566  0.8757
 6722SOL    HW231629   3.613   2.943   6.730 -0.1340 -0.3096 -2.0453
 6723SOL     OW31630   2.725   1.069   9.433  0.3886  0.0731  0.3030
 6723SOL    HW131631   2.798   1.007   9.435  1.1164  0.8818 -1.5200
 6723SOL    HW231632   2.693   1.065   9.523  1.3129  1.3532  0.6845
 6724SOL     OW31633   4.372   0.806   3.913 -0.1011 -0.3052 -0.1834
 6724SOL    HW131634   4.348   0.725   3.869 -3.2884 -0.4990  1.9164
 6724SOL    HW231635   4.396   0.860   3.838  0.0028 -1.3304 -0.8832
 6725SOL     OW31636   0.304   0.887  14.712  0.0650  0.3993 -0.3749
 6725SOL    HW131637   0.309   0.861  14.620  0.3342 -0.1981 -0.1885
 6725SOL    HW231638   0.220   0.854  14.745  1.0671 -0.6411  1.0978
 6726SOL     OW31639   1.786   0.786   6.191 -0.1059 -0.1015 -0.1143
 6726SOL    HW131640   1.707   0.750   6.149  0.4621 -0.8870 -0.5040
 6726SOL    HW231641   1.831   0.704   6.211  1.3538  1.0771  1.3822
 6727SOL     OW31642   1.509   1.772   4.146  0.4540  0.2681  0.0729
 6727SOL    HW131643   1.561   1.699   4.113 -2.7689 -2.4797  1.0909
 6727SOL    HW231644   1.588   1.822   4.165 -1.8151  3.3999  1.3789
 6728SOL     OW31645   1.637   2.300   7.821 -0.5288  0.5226  0.2399
 6728SOL    HW131646   1.544   2.278   7.833 -0.6271  0.0346 -1.3889
 6728SOL    HW231647   1.634   2.384   7.775  2.4274 -0.8545 -2.4408
 6729SOL     OW31648   0.037   3.620   7.333  0.5547 -0.4131 -0.4890
 6729SOL    HW131649   0.002   3.545   7.285 -2.1202  1.8765 -2.0933
 6729SOL    HW231650   0.045   3.587   7.423  0.7547  0.1092 -0.3112
 6730SOL     OW31651   2.146   3.808   2.685 -0.0487  0.3218 -0.0079
 6730SOL    HW131652   2.115   3.740   2.626 -0.3307 -0.4267  1.0049
 6730SOL    HW231653   2.063   3.851   2.704 -0.3430  0.0750 -0.7660
 6731SOL     OW31654   3.579   2.892   3.894  0.1037  0.0631 -0.0714
 6731SOL    HW131655   3.517   2.820   3.905  0.9878 -0.8925 -1.2486
 6731SOL    HW231656   3.539   2.938   3.820  0.2738 -0.1621 -0.3036
 6732SOL     OW31657   2.817   0.434   1.909 -0.1220  0.3045  0.1811
 6732SOL    HW131658   2.723   0.425   1.895  0.0789  0.4185 -1.2358
 6732SOL    HW231659   2.830   0.529   1.907  1.9194  0.0094 -0.6524
 6733SOL     OW31660   4.618   4.649   4.942 -0.2550  0.0064 -0.3154
 6733SOL    HW131661   4.535   4.696   4.944  0.9151  2.0415  1.2220
 6733SOL    HW231662   4.679   4.720   4.919  0.4074 -0.5693 -0.3401
 6734SOL     OW31663   0.486   3.103   4.570  0.0755  0.0174  0.4356
 6734SOL    HW131664   0.572   3.082   4.533  0.0680 -2.2524  1.7587
 6734SOL    HW231665   0.506   3.087   4.662  1.2503 -1.6353 -0.1043
 6735SOL     OW31666   3.153   2.765   4.785  0.0878  0.2512  0.2881
 6735SOL    HW131667   3.081   2.775   4.848  0.7492 -0.9863  1.2313
 6735SOL    HW231668   3.107   2.719   4.715 -0.6254 -0.6852  1.3753
 6736SOL     OW31669   1.857   2.646   7.632 -0.2756 -0.3983 -0.6957
 6736SOL    HW131670   1.864   2.741   7.638  1.5160 -0.6940  2.0943
 6736SOL    HW231671   1.931   2.618   7.686 -0.7127  0.1696  0.1843
 6737SOL     OW31672   0.641   4.251   4.143 -0.0854  0.6306  0.5175
 6737SOL    HW131673   0.716   4.207   4.183 -0.1975  1.1591  1.3184
 6737SOL    HW231674   0.580   4.180   4.124 -0.7398  1.1648  0.6036
 6738SOL     OW31675   1.092   1.358   4.499 -0.0363  0.6400  0.2010
 6738SOL    HW131676   1.179   1.398   4.507  0.1465  0.5999 -1.7292
 6738SOL    HW231677   1.098   1.312   4.416  1.5905  0.4629  0.4208
 6739SOL     OW31678   3.997   0.171   1.911 -0.2049  0.0779  0.3931
 6739SOL    HW131679   4.026   0.221   1.835 -1.6475  1.7378  0.9320
 6739SOL    HW231680   4.050   0.092   1.899 -0.6322 -0.1706  0.1316
 6740SOL     OW31681   2.673   3.200  13.608  0.0454  0.0723 -0.1891
 6740SOL    HW131682   2.652   3.115  13.570  3.3306 -1.0898  0.5842
 6740SOL    HW231683   2.598   3.212  13.667 -0.7103  3.5632 -1.8061
 6741SOL     OW31684   1.893   1.776   8.982  0.4025 -0.0458  0.2335
 6741SOL    HW131685   1.905   1.866   9.012  0.6810 -0.2690  0.7868
 6741SOL    HW231686   1.972   1.763   8.928  0.1571 -1.5605  0.2331
 6742SOL     OW31687   0.755   0.596  14.641  0.9954  0.1611 -0.2211
 6742SOL    HW131688   0.804   0.674  14.615  0.5825 -0.1948 -2.0803
 6742SOL    HW231689   0.664   0.628  14.644 -0.2034 -3.3975  1.5130
 6743SOL     OW31690   2.657   2.996   6.916 -0.3654  0.1255  0.2177
 6743SOL    HW131691   2.746   3.030   6.919 -0.3264  0.0470 -0.1393
 6743SOL    HW231692   2.623   3.019   7.003  2.1507  0.4590  1.0900
 6744SOL     OW31693   2.820   0.547   1.408  0.5630 -0.2673  0.5920
 6744SOL    HW131694   2.783   0.595   1.482 -1.1964  1.2627 -1.2951
 6744SOL    HW231695   2.860   0.616   1.356  0.2606  1.1266  2.1944
 6745SOL     OW31696   2.563   0.402   5.247 -0.5011 -0.7723  0.3675
 6745SOL    HW131697   2.482   0.382   5.201 -1.3592 -0.3119  1.6458
 6745SOL    HW231698   2.619   0.364   5.180  1.8007  1.3388  1.0743
 6746SOL     OW31699   0.761   0.822   6.858  0.1897 -0.2305 -0.4869
 6746SOL    HW131700   0.667   0.835   6.861  0.1557 -0.1178 -1.9533
 6746SOL    HW231701   0.797   0.882   6.923  1.0977 -0.7929 -0.4619
 6747SOL     OW31702   3.121   2.564   0.986 -0.5645 -0.0963 -0.4900
 6747SOL    HW131703   3.215   2.572   1.000 -0.8087 -0.2212  1.2761
 6747SOL    HW231704   3.106   2.632   0.920 -3.2400 -0.3636 -0.1863
 6748SOL     OW31705   2.195   1.311  17.252  0.3412 -0.3388  0.5263
 6748SOL    HW131706   2.103   1.309  17.277  0.3393  0.3004  0.5728
 6748SOL    HW231707   2.198   1.225  17.211  1.6100 -0.8081  1.5979
 6749SOL     OW31708   4.192   0.868   8.984 -0.2044  0.3724  0.0158
 6749SOL    HW131709   4.173   0.946   8.931 -0.2738  0.9577  0.8964
 6749SOL    HW231710   4.128   0.809   8.944 -2.1132  1.5147  1.3818
 6750SOL     OW31711   1.097   1.336  11.065 -0.4505  0.4413 -0.3612
 6750SOL    HW131712   1.069   1.402  11.002  0.4642  2.1011  0.9541
 6750SOL    HW231713   1.013   1.293  11.072 -0.3563  0.0817 -1.5856
 6751SOL     OW31714   1.851   0.642   9.747 -0.3192  0.3188  0.2357
 6751SOL    HW131715   1.833   0.555   9.712  1.9302  1.3374 -3.3911
 6751SOL    HW231716   1.899   0.626   9.829  2.2577  2.3948 -0.8687
 6752SOL     OW31717   1.155   1.835   1.771  0.3275  0.0435  0.7430
 6752SOL    HW131718   1.246   1.816   1.753  1.5842  2.8119  4.0285
 6752SOL    HW231719   1.115   1.748   1.763 -0.1422  0.3440 -0.1861
 6753SOL     OW31720   2.222   1.065  10.593  0.4539 -0.4218 -0.5951
 6753SOL    HW131721   2.246   1.132  10.657 -0.9095  0.7104 -1.2766
 6753SOL    HW231722   2.304   1.043  10.548  0.2338 -4.0595  0.7697
 6754SOL     OW31723   4.422   3.340   7.935 -0.3374  0.1169 -0.0623
 6754SOL    HW131724   4.395   3.387   8.014 -3.4578 -0.7836 -0.5953
 6754SOL    HW231725   4.342   3.329   7.884 -0.1386 -0.8892 -0.1594
 6755SOL     OW31726   0.925   3.101  13.187 -0.7630  0.3202  0.3576
 6755SOL    HW131727   0.995   3.039  13.167 -0.1451  0.7939  1.0864
 6755SOL    HW231728   0.967   3.130  13.268 -2.0472 -1.3654  1.6347
 6756SOL     OW31729   3.956   1.214   3.837  0.6070 -0.0299  0.2031
 6756SOL    HW131730   4.044   1.245   3.817  0.6839 -0.6637 -0.4489
 6756SOL    HW231731   3.963   1.180   3.926 -0.1015  1.3664  0.7899
 6757SOL     OW31732   3.613   0.366   8.329 -0.3865 -0.4073 -0.0110
 6757SOL    HW131733   3.562   0.286   8.338  2.7040 -2.8218 -3.9152
 6757SOL    HW231734   3.549   0.423   8.372 -1.5022 -1.4970 -0.2298
 6758SOL     OW31735   1.197   1.527  11.709  0.0477 -0.3512  0.0905
 6758SOL    HW131736   1.165   1.584  11.639  0.5527 -1.0393 -0.7035
 6758SOL    HW231737   1.274   1.492  11.664 -0.3614  0.9100 -1.5864
 6759SOL     OW31738   0.586   0.713   3.708 -0.5427 -0.2810  0.7850
 6759SOL    HW131739   0.495   0.742   3.709 -0.0304  1.4190 -1.4827
 6759SOL    HW231740   0.614   0.731   3.798  0.5563 -1.4309  0.6713
 6760SOL     OW31741   1.703   0.570  15.208 -0.1293  0.3565  0.8652
 6760SOL    HW131742   1.795   0.598  15.203  0.1218 -0.6679 -0.1400
 6760SOL    HW231743   1.701   0.475  15.200  0.6630  0.3184  1.0827
 6761SOL     OW31744   1.563   0.651   7.834 -0.2632 -0.2588  0.0483
 6761SOL    HW131745   1.471   0.640   7.810 -0.1709  1.3694 -1.0231
 6761SOL    HW231746   1.555   0.737   7.875  0.4171 -0.9383  1.5941
 6762SOL     OW31747   4.592   4.139   8.781 -0.1594  0.1162 -0.4744
 6762SOL    HW131748   4.503   4.173   8.778 -0.3125 -0.3761 -1.3896
 6762SOL    HW231749   4.631   4.183   8.857 -1.4712  0.5529 -0.0607
 6763SOL     OW31750   0.811   0.077  11.634 -0.1785 -0.5353  0.1682
 6763SOL    HW131751   0.740   0.127  11.593  0.5288  0.5969  0.3373
 6763SOL    HW231752   0.827   0.135  11.709 -0.1412 -1.0541  0.5666
 6764SOL     OW31753   0.960   2.072   3.473  0.2497  0.4567 -0.2463
 6764SOL    HW131754   0.939   1.979   3.480 -1.0982  0.8993  1.7697
 6764SOL    HW231755   1.053   2.062   3.491 -0.1498 -2.4317  0.1125
 6765SOL     OW31756   1.081   0.515   8.872 -0.0209 -0.3247 -0.5078
 6765SOL    HW131757   1.169   0.533   8.906 -0.0291 -2.0163  0.4087
 6765SOL    HW231758   1.065   0.432   8.917  0.7674 -1.7781 -2.8957
 6766SOL     OW31759   4.183   4.395   2.615  0.1216  0.1533 -1.2362
 6766SOL    HW131760   4.169   4.328   2.681 -2.2989  1.6504 -0.2326
 6766SOL    HW231761   4.184   4.477   2.665  0.6710 -0.5212 -0.1229
 6767SOL     OW31762   1.116   0.740   6.979 -0.2078  0.3345  0.7839
 6767SOL    HW131763   1.033   0.698   6.955  1.1494 -1.4155 -0.7708
 6767SOL    HW231764   1.178   0.667   6.982  1.4680  1.7266 -0.0029
 6768SOL     OW31765   4.380   1.463   1.357 -0.3798  0.0974 -0.0763
 6768SOL    HW131766   4.461   1.437   1.401  1.0652  0.2983 -2.5980
 6768SOL    HW231767   4.384   1.556   1.379  1.7140  0.1718 -0.7577
 6769SOL     OW31768   0.676   4.200   8.028 -0.1964 -0.2775  0.1778
 6769SOL    HW131769   0.686   4.105   8.039 -2.0325 -0.5155 -0.1525
 6769SOL    HW231770   0.745   4.219   7.965 -1.1127 -1.4538 -1.1911
 6770SOL     OW31771   1.495   3.366   6.761  0.2682 -0.0818  0.5022
 6770SOL    HW131772   1.415   3.319   6.785 -0.8851  1.2745 -0.7546
 6770SOL    HW231773   1.467   3.388   6.673 -1.1750  0.2755  1.0457
 6771SOL     OW31774   0.167   3.815  14.036 -0.1676  0.0979  0.4945
 6771SOL    HW131775   0.256   3.850  14.028 -0.4671  1.0229  1.2249
 6771SOL    HW231776   0.190   3.727  14.005  1.2991  1.2913 -1.7874
 6772SOL     OW31777   3.069   2.445  17.084  0.1294  0.0133 -0.2190
 6772SOL    HW131778   3.151   2.396  17.078  1.4942  2.4187 -1.3849
 6772SOL    HW231779   3.091   2.525  17.131 -3.7836 -1.0078  3.4272
 6773SOL     OW31780   0.116   3.787  17.177  0.0893  0.8699 -0.1717
 6773SOL    HW131781   0.124   3.803  17.083  0.4654 -2.2698 -0.6792
 6773SOL    HW231782   0.037   3.841  17.181 -1.0522 -0.8914  0.9639
 6774SOL     OW31783   3.810   3.122  11.118 -0.8680  0.0933  0.3509
 6774SOL    HW131784   3.834   3.071  11.041  0.9187  1.1942  0.1758
 6774SOL    HW231785   3.902   3.145  11.135  0.0073 -2.5751 -0.6213
 6775SOL     OW31786   2.946   0.127   4.126 -0.1033  0.2144 -0.4985
 6775SOL    HW131787   2.933   0.194   4.193 -1.1191  0.9902 -1.4643
 6775SOL    HW231788   2.874   0.070   4.154 -0.4969 -0.1234 -2.2313
 6776SOL     OW31789   2.366   4.410   9.784  0.0333  0.1850 -0.6893
 6776SOL    HW131790   2.295   4.474   9.779  0.5993  0.9289  0.8233
 6776SOL    HW231791   2.312   4.332   9.788  1.5593 -0.6088  3.6881
 6777SOL     OW31792   2.539   0.793   4.436 -0.1199  0.0093 -0.1568
 6777SOL    HW131793   2.592   0.782   4.515 -0.1664 -2.2210 -0.4361
 6777SOL    HW231794   2.487   0.713   4.429  0.2480 -0.2797  0.3880
 6778SOL     OW31795   3.591   3.055   4.547  0.0930  0.0008  0.0882
 6778SOL    HW131796   3.563   3.105   4.471 -0.7566  0.1188  0.4739
 6778SOL    HW231797   3.624   3.121   4.608 -1.3150 -0.4743  1.3826
 6779SOL     OW31798   4.514   0.832   7.298 -0.7784 -0.3025  0.3507
 6779SOL    HW131799   4.508   0.739   7.275  1.3431  0.1950 -2.1896
 6779SOL    HW231800   4.467   0.842   7.381 -0.3868  2.1789  0.2568
 6780SOL     OW31801   3.686   3.704   9.241  0.3457  0.7307 -0.0262
 6780SOL    HW131802   3.655   3.782   9.197  0.1685 -0.3930 -1.8819
 6780SOL    HW231803   3.610   3.698   9.300  1.7905  2.1742  1.9539
 6781SOL     OW31804   0.054   1.838   5.167 -0.0787 -0.4248  0.5000
 6781SOL    HW131805   0.148   1.822   5.159 -0.4232 -1.7292 -1.0044
 6781SOL    HW231806   0.024   1.759   5.121 -1.8601  0.5133  0.0572
 6782SOL     OW31807   1.352   1.090  14.754 -0.2125 -0.1489  0.4206
 6782SOL    HW131808   1.406   1.106  14.676  0.3769 -0.4759  0.7681
 6782SOL    HW231809   1.284   1.156  14.739 -0.7270 -0.7046  0.2932
 6783SOL     OW31810   4.685   0.842   7.767 -0.2157 -0.8275  0.5257
 6783SOL    HW131811   0.024   0.774   7.736  2.6277  1.9504 -0.0060
 6783SOL    HW231812   4.686   0.899   7.690 -0.5945 -0.6761  0.6313
 6784SOL     OW31813   1.243   4.481   7.926 -0.0361  0.0001 -0.3422
 6784SOL    HW131814   1.292   4.458   8.005  0.8005  0.1083 -0.8428
 6784SOL    HW231815   1.241   4.398   7.878 -2.3224 -0.8881  1.2768
 6785SOL     OW31816   3.160   3.305  12.192  0.0123 -0.2699  0.2302
 6785SOL    HW131817   3.101   3.334  12.261  0.3866  0.3759  0.2894
 6785SOL    HW231818   3.238   3.283  12.244  0.8584 -0.6000 -1.1918
 6786SOL     OW31819   4.551   0.264  15.612  0.4170  0.4264 -0.2095
 6786SOL    HW131820   4.567   0.246  15.704  1.0411  0.9762 -0.2102
 6786SOL    HW231821   4.635   0.239  15.575 -0.8716 -1.6880 -1.7244
 6787SOL     OW31822   1.652   3.540  14.351 -0.1710 -0.3384 -0.1469
 6787SOL    HW131823   1.642   3.446  14.360 -0.2383  0.0012  3.4925
 6787SOL    HW231824   1.734   3.557  14.398 -0.1111 -2.5091  0.5389
 6788SOL     OW31825   2.027   1.848   8.552 -0.0750 -0.0682  0.5965
 6788SOL    HW131826   2.071   1.763   8.547  1.3468  0.5172  3.3221
 6788SOL    HW231827   2.067   1.890   8.476  0.2137  0.5844  1.1111
 6789SOL     OW31828   3.913   4.412   7.044  0.1439  0.0371  0.4810
 6789SOL    HW131829   3.946   4.327   7.071  0.4630 -0.0750 -0.2697
 6789SOL    HW231830   3.964   4.461   7.109  0.5305 -0.8366  0.8249
 6790SOL     OW31831   1.827   3.264   4.501 -0.0203  0.7061 -0.1413
 6790SOL    HW131832   1.844   3.285   4.593 -0.2890  1.1425 -0.1934
 6790SOL    HW231833   1.734   3.240   4.497 -0.1000  0.9941 -0.0584
 6791SOL     OW31834   3.165   4.622   7.679 -0.1321  0.4016  0.3379
 6791SOL    HW131835   3.192   4.539   7.718  0.0641 -1.1394 -3.1128
 6791SOL    HW231836   3.081   4.603   7.639 -0.0106 -1.3099  0.8964
 6792SOL     OW31837   2.720   1.800   0.187  0.5287 -0.3374 -0.1692
 6792SOL    HW131838   2.639   1.759   0.157 -0.4986  1.8526 -0.4151
 6792SOL    HW231839   2.694   1.883   0.228  1.0208  0.5380 -1.6325
 6793SOL     OW31840   3.898   1.750   1.381  0.2660  0.2210 -0.6908
 6793SOL    HW131841   3.990   1.730   1.401 -0.0700 -0.5849  0.0334
 6793SOL    HW231842   3.898   1.766   1.287  1.8872  1.7716 -0.4304
 6794SOL     OW31843   2.093   4.433   9.031  0.1708 -0.1474 -0.6613
 6794SOL    HW131844   2.182   4.459   9.051 -0.1146 -1.1289  1.7911
 6794SOL    HW231845   2.046   4.517   9.041 -2.9016 -1.8404 -0.7615
 6795SOL     OW31846   1.271   2.244   0.823 -0.0764 -0.1747  0.3705
 6795SOL    HW131847   1.241   2.289   0.902 -0.9254  0.1790 -0.1596
 6795SOL    HW231848   1.192   2.230   0.771 -0.4276  0.6692  0.6767
 6796SOL     OW31849   3.032   3.121  13.586 -0.1773 -0.3681 -0.2956
 6796SOL    HW131850   2.940   3.123  13.560 -0.2299 -2.0026 -0.2241
 6796SOL    HW231851   3.032   3.046  13.645 -1.3974 -0.7763 -0.8319
 6797SOL     OW31852   2.877   4.451   1.281 -0.4695  0.0552  0.2967
 6797SOL    HW131853   2.884   4.505   1.360 -0.9096  0.3063  0.1647
 6797SOL    HW231854   2.846   4.371   1.324 -2.4013 -0.3055 -1.7907
 6798SOL     OW31855   4.368   2.857  16.477  0.1662  0.3261  0.6493
 6798SOL    HW131856   4.343   2.835  16.567 -2.7471 -3.3675 -1.0826
 6798SOL    HW231857   4.370   2.953  16.482  0.7209  0.2913  0.9964
 6799SOL     OW31858   0.563   1.203   8.985  0.0053 -0.3773 -0.7781
 6799SOL    HW131859   0.576   1.291   8.950  1.4805 -1.0093 -1.8049
 6799SOL    HW231860   0.627   1.203   9.056  0.0544 -0.6397 -0.8206
 6800SOL     OW31861   2.059   2.301   6.777  0.1776 -0.7587 -0.6666
 6800SOL    HW131862   2.087   2.390   6.802 -2.3920  0.2556 -1.3938
 6800SOL    HW231863   2.089   2.288   6.687  0.5333  0.9596 -0.8131
 6801SOL     OW31864   4.497   0.479  11.490 -0.4438  0.1052  0.0454
 6801SOL    HW131865   4.418   0.465  11.439  1.2655 -0.1151 -2.5529
 6801SOL    HW231866   4.526   0.393  11.518  1.1911  1.6144  2.9971
 6802SOL     OW31867   1.898   1.909   7.000 -0.6916 -0.0594 -0.0624
 6802SOL    HW131868   1.892   1.975   6.930 -0.0134 -0.5492 -0.5812
 6802SOL    HW231869   1.925   1.831   6.953 -2.5221  0.3201 -1.7563
 6803SOL     OW31870   3.111   1.876   6.001  0.4296 -0.5818  0.4307
 6803SOL    HW131871   3.147   1.953   6.044 -0.1570 -0.9159  1.5075
 6803SOL    HW231872   3.041   1.845   6.058 -0.8154  1.6471  0.1155
 6804SOL     OW31873   3.791   0.192   8.905  0.2724 -0.3763 -0.0786
 6804SOL    HW131874   3.788   0.287   8.894 -3.1555 -0.6831 -1.7699
 6804SOL    HW231875   3.859   0.187   8.972  1.2130  2.9223 -0.7570
 6805SOL     OW31876   2.408   4.605   3.165  0.3121 -0.2495 -0.2301
 6805SOL    HW131877   2.348   4.625   3.237  0.7892  0.3301  0.0072
 6805SOL    HW231878   2.406   4.509   3.169  0.9694 -0.1389  2.4915
 6806SOL     OW31879   1.663   3.909  10.549 -0.0448 -0.5507  0.4891
 6806SOL    HW131880   1.627   3.986  10.504  0.2778 -0.1067  0.9815
 6806SOL    HW231881   1.692   3.953  10.629  1.7244 -1.1597  0.1752
 6807SOL     OW31882   3.248   0.592   4.942  0.0998  0.2496  0.1244
 6807SOL    HW131883   3.263   0.500   4.964 -0.6306 -0.2364 -1.3502
 6807SOL    HW231884   3.281   0.629   5.024  0.3300  0.2724  0.0210
 6808SOL     OW31885   4.525   1.666  14.333  0.6214  0.2393 -0.1489
 6808SOL    HW131886   4.539   1.738  14.272  0.2684  1.7788  1.5874
 6808SOL    HW231887   4.441   1.680  14.376  0.7769  0.1945  0.1708
 6809SOL     OW31888   3.223   2.863   2.526 -0.2586 -0.4766 -0.5058
 6809SOL    HW131889   3.130   2.841   2.522  0.1240 -2.1789 -0.2183
 6809SOL    HW231890   3.245   2.868   2.433  0.9991  1.7444 -0.0840
 6810SOL     OW31891   4.644   3.608   9.900 -0.7226 -0.1634  0.0799
 6810SOL    HW131892   4.590   3.640   9.972 -0.5238 -1.1700  0.6702
 6810SOL    HW231893   4.683   3.531   9.942  3.4567  0.7919 -2.0814
 6811SOL     OW31894   2.801   0.780  10.007  0.3673  0.4876  0.2419
 6811SOL    HW131895   2.858   0.717  10.052  2.4102  1.1135 -1.5103
 6811SOL    HW231896   2.736   0.792  10.076 -0.9971  2.4379 -1.3886
 6812SOL     OW31897   1.103   0.972   8.251 -0.3948 -0.4658  0.1709
 6812SOL    HW131898   1.026   0.920   8.276 -0.6968  0.5764  1.4304
 6812SOL    HW231899   1.060   1.053   8.279 -0.4555  0.7929 -3.6209
 6813SOL     OW31900   1.773   1.639   6.785  0.8702 -0.1019  0.8253
 6813SOL    HW131901   1.843   1.702   6.767 -0.3930  1.0214 -0.1536
 6813SOL    HW231902   1.828   1.560   6.786  0.0698 -0.7003 -2.3522
 6814SOL     OW31903   3.476   0.733   3.720  0.2650 -0.1831  0.6440
 6814SOL    HW131904   3.433   0.726   3.635 -1.6099 -1.4604  1.6716
 6814SOL    HW231905   3.527   0.814   3.718  0.3836 -0.2930 -0.4367
 6815SOL     OW31906   3.487   2.094   7.714  0.2455  0.1686 -0.1568
 6815SOL    HW131907   3.416   2.085   7.777 -1.3486  1.7415 -1.7101
 6815SOL    HW231908   3.490   1.999   7.711  1.1527  0.1978 -0.1792
 6816SOL     OW31909   1.175   1.290   6.843 -0.0956 -0.1199 -0.3313
 6816SOL    HW131910   1.123   1.211   6.833 -1.6480  1.2521 -3.0716
 6816SOL    HW231911   1.227   1.276   6.765  0.7132 -0.3384  0.2528
 6817SOL     OW31912   0.507   0.564   5.893  0.0008  0.1387 -0.5146
 6817SOL    HW131913   0.548   0.586   5.977  0.7457 -1.5362 -0.4568
 6817SOL    HW231914   0.462   0.484   5.918 -0.3779  0.3740 -0.4381
 6818SOL     OW31915   3.000   0.585   8.157  0.7290 -0.3350 -0.7500
 6818SOL    HW131916   3.030   0.538   8.080  0.7884  1.0465 -1.5704
 6818SOL    HW231917   2.922   0.536   8.183  0.6889  0.2166  0.1720
 6819SOL     OW31918   3.682   0.081  14.231  0.2969  0.7124  0.1333
 6819SOL    HW131919   3.712   4.713  14.221  0.9733  0.7064  2.1698
 6819SOL    HW231920   3.614   0.076  14.164 -0.0404 -0.6604  0.5898
 6820SOL     OW31921   4.216   0.347   6.152  0.5058  0.0907  0.3041
 6820SOL    HW131922   4.171   0.286   6.211 -2.4368  2.2466  0.2980
 6820SOL    HW231923   4.306   0.314   6.162  0.8357  0.2828 -2.1531
 6821SOL     OW31924   1.805   4.681   6.960  0.0238  0.6837  0.0212
 6821SOL    HW131925   1.771   4.684   6.871 -0.2936  0.7236  0.1460
 6821SOL    HW231926   1.737   4.635   7.008  1.2104 -2.2603 -1.1666
 6822SOL     OW31927   3.576   3.740   2.547  0.1160 -0.0980  0.2521
 6822SOL    HW131928   3.501   3.721   2.491  0.6354  1.1428 -0.8666
 6822SOL    HW231929   3.654   3.726   2.493  0.9330  3.0304  0.6295
 6823SOL     OW31930   3.710   2.900   8.175 -0.2236  0.4197 -0.4173
 6823SOL    HW131931   3.624   2.865   8.154 -0.0343  0.8285 -1.9115
 6823SOL    HW231932   3.729   2.848   8.253  3.0598 -1.8145 -2.7299
 6824SOL     OW31933   4.664   4.695   1.629 -0.4242  0.4081  0.0265
 6824SOL    HW131934   4.648   4.624   1.567  2.6742 -4.4855  4.7725
 6824SOL    HW231935   4.585   0.022   1.605  1.6426  3.8351  0.2481
 6825SOL     OW31936   1.275   3.567   8.130  0.1325  0.4448 -0.1567
 6825SOL    HW131937   1.194   3.531   8.166  0.4897 -1.5985 -1.4151
 6825SOL    HW231938   1.306   3.501   8.068 -1.6448 -2.3904  2.0035
 6826SOL     OW31939   3.567   4.654   3.393  0.4107 -0.4657  0.3779
 6826SOL    HW131940   3.633   4.595   3.356  1.7272  0.7793  0.7401
 6826SOL    HW231941   3.631   4.718   3.424  0.8428 -0.3388 -0.7642
 6827SOL     OW31942   0.752   4.005   1.913 -0.3130  0.6084  0.3999
 6827SOL    HW131943   0.666   4.015   1.954 -1.1992  0.6535 -1.4695
 6827SOL    HW231944   0.787   4.093   1.931 -0.1825  0.7168 -0.3846
 6828SOL     OW31945   1.517   4.337   4.409 -0.0873  0.2382  0.3039
 6828SOL    HW131946   1.467   4.405   4.455 -0.5803  0.5254 -0.6630
 6828SOL    HW231947   1.580   4.296   4.468 -0.5174 -0.1887  0.4686
 6829SOL     OW31948   2.230   3.993   6.932 -0.0789 -0.0319 -0.1292
 6829SOL    HW131949   2.276   3.977   6.849  0.5944 -0.3325  0.3005
 6829SOL    HW231950   2.147   3.950   6.911  0.6442 -1.5576  0.1533
 6830SOL     OW31951   3.054   4.081   3.684  0.2260 -0.6132  0.0165
 6830SOL    HW131952   3.006   4.110   3.761  2.1514  0.2607  0.9110
 6830SOL    HW231953   2.995   4.019   3.641 -2.2018  3.0409 -1.8887
 6831SOL     OW31954   4.223   2.445   4.486  0.4846 -0.3009 -0.4702
 6831SOL    HW131955   4.127   2.440   4.487  0.4878  0.2402  3.3703
 6831SOL    HW231956   4.242   2.509   4.555  1.2095 -0.6198 -0.3807
 6832SOL     OW31957   1.478   0.446  11.263  0.2933  0.2474  0.1805
 6832SOL    HW131958   1.489   0.517  11.326 -0.4315 -0.0677  0.6632
 6832SOL    HW231959   1.519   0.481  11.183 -0.5365 -0.8414 -0.7234
 6833SOL     OW31960   0.372   3.746   5.203 -0.5921 -0.1510  0.2971
 6833SOL    HW131961   0.365   3.662   5.248  2.9971 -1.7075 -2.0401
 6833SOL    HW231962   0.278   3.759   5.194 -0.1901  0.3088 -3.4618
 6834SOL     OW31963   1.612   2.460   5.827 -0.3234 -0.5694 -0.4963
 6834SOL    HW131964   1.707   2.460   5.841 -0.4385 -0.9260  0.2837
 6834SOL    HW231965   1.595   2.368   5.843 -1.3184 -0.0759  1.3218
 6835SOL     OW31966   4.677   3.149   2.417  0.0582  0.4883 -0.0630
 6835SOL    HW131967   4.628   3.121   2.493  0.6675 -1.9254 -0.5631
 6835SOL    HW231968   4.605   3.143   2.354 -0.4479 -1.1192  0.6852
 6836SOL     OW31969   2.621   4.045   8.186  0.1771  0.5850  0.4590
 6836SOL    HW131970   2.534   4.054   8.225 -0.9150  1.4411 -2.1753
 6836SOL    HW231971   2.602   3.973   8.126  1.7958 -0.9905  1.8153
 6837SOL     OW31972   0.720   4.469   7.649  0.1188 -0.2730 -0.6273
 6837SOL    HW131973   0.685   4.509   7.730 -1.1861  0.1697 -1.4031
 6837SOL    HW231974   0.754   4.539   7.593  1.6625  0.1758  0.8635
 6838SOL     OW31975   1.494   1.188  14.541  0.3476 -0.8805 -0.4889
 6838SOL    HW131976   1.503   1.251  14.470 -2.6320  0.0353 -0.0333
 6838SOL    HW231977   1.586   1.162  14.543  1.5898  3.6666  3.8435
 6839SOL     OW31978   0.055   3.717   6.024  0.1061 -0.2314 -0.3519
 6839SOL    HW131979   0.131   3.681   6.069 -0.7489  0.7009  1.8268
 6839SOL    HW231980   0.086   3.803   5.998  0.7107  0.0694  1.4013
 6840SOL     OW31981   1.018   3.867   4.736  0.0362  0.8065  0.3750
 6840SOL    HW131982   0.963   3.930   4.782  1.3849  2.4780 -0.2771
 6840SOL    HW231983   0.960   3.862   4.661 -0.2861  0.3320  0.6557
 6841SOL     OW31984   3.079   2.947   7.067  0.1025  0.4024  0.0158
 6841SOL    HW131985   3.010   2.991   7.116 -2.0217 -2.2427 -0.5644
 6841SOL    HW231986   3.050   2.856   7.077 -0.7625  0.5516 -1.1447
 6842SOL     OW31987   3.373   3.904   8.434 -0.4782 -0.4988  0.1614
 6842SOL    HW131988   3.366   3.889   8.528 -2.3026  0.3119  0.1469
 6842SOL    HW231989   3.469   3.905   8.426 -0.5475 -0.9219 -0.7484
 6843SOL     OW31990   0.788   2.509   7.355 -0.3397 -0.1862 -0.0968
 6843SOL    HW131991   0.755   2.592   7.322  1.4308  0.6712  0.2798
 6843SOL    HW231992   0.876   2.513   7.317 -0.5338  0.0345 -0.5262
 6844SOL     OW31993   1.864   0.348   3.305  0.3644  0.3893 -0.3718
 6844SOL    HW131994   1.840   0.347   3.212  0.4180 -0.7610 -0.3833
 6844SOL    HW231995   1.932   0.280   3.312 -1.5868 -1.5145  0.1059
 6845SOL     OW31996   2.925   0.388   4.226 -0.0275 -0.3150 -0.1698
 6845SOL    HW131997   3.002   0.437   4.197 -1.0983 -0.0403 -2.5222
 6845SOL    HW231998   2.907   0.401   4.319  0.9988 -0.6199  0.0641
 6846SOL     OW31999   3.060   1.110   7.027  0.1848 -0.0375  0.0996
 6846SOL    HW132000   3.074   1.194   7.070 -0.4041  0.1765 -0.1173
 6846SOL    HW232001   2.981   1.073   7.067 -0.0190  1.4020  1.0288
 6847SOL     OW32002   3.767   4.251   4.896 -0.0873 -0.3945  0.2469
 6847SOL    HW132003   3.712   4.317   4.853  1.7695  2.8771  2.8991
 6847SOL    HW232004   3.744   4.264   4.988 -1.1690 -0.4669 -0.0100
 6848SOL     OW32005   4.627   2.140   6.315 -0.4722 -0.5776 -0.4321
 6848SOL    HW132006   4.556   2.081   6.291 -2.4590  1.0932  1.3933
 6848SOL    HW232007   4.672   2.132   6.230 -2.4212  1.8897 -1.6884
 6849SOL     OW32008   4.236   0.261  12.310  1.0196  0.3134  0.8529
 6849SOL    HW132009   4.147   0.295  12.300  1.6607  1.5290 -0.8443
 6849SOL    HW232010   4.265   0.287  12.222 -1.4880 -1.3978 -0.5197
 6850SOL     OW32011   0.469   4.361   8.733  0.0786  0.0818  0.0090
 6850SOL    HW132012   0.412   4.322   8.667  1.8599  0.8757 -1.9820
 6850SOL    HW232013   0.556   4.332   8.704  0.8497  0.9849  1.3996
 6851SOL     OW32014   0.048   0.495   2.391 -0.4784 -0.4645 -0.5175
 6851SOL    HW132015   0.055   0.590   2.395  0.3994 -0.5412 -0.1630
 6851SOL    HW232016   4.687   0.487   2.344  0.7863 -0.3233 -2.7713
 6852SOL     OW32017   2.001   1.778   6.752  0.2857  0.1613  0.1997
 6852SOL    HW132018   2.033   1.841   6.687  0.4763 -2.3312 -2.1424
 6852SOL    HW232019   2.084   1.730   6.757 -0.6271 -1.3775  0.6030
 6853SOL     OW32020   2.910   0.250   3.848  0.2175 -0.0109  0.1511
 6853SOL    HW132021   2.816   0.259   3.862  0.4022  1.0945  0.6226
 6853SOL    HW232022   2.933   0.158   3.862  0.5089 -0.1814 -1.3780
 6854SOL     OW32023   3.491   2.910   6.441  0.0260  0.2769 -0.6749
 6854SOL    HW132024   3.437   2.987   6.422  0.8346  0.7512 -1.0529
 6854SOL    HW232025   3.432   2.854   6.492  1.6182 -0.5814  0.1919
 6855SOL     OW32026   2.758   3.668   6.484 -0.6000 -0.2447  0.1738
 6855SOL    HW132027   2.705   3.632   6.556 -1.7078 -0.1619 -0.6041
 6855SOL    HW232028   2.788   3.586   6.445  1.2769 -0.1190  1.3595
 6856SOL     OW32029   1.100   4.443   7.519 -0.3672  0.6137  0.8374
 6856SOL    HW132030   1.172   4.487   7.564 -0.3039  1.3354  0.0341
 6856SOL    HW232031   1.131   4.442   7.428 -0.6865  0.1688  0.7316
 6857SOL     OW32032   1.463   2.515   3.850  0.3054 -0.5231  0.5610
 6857SOL    HW132033   1.518   2.472   3.915  0.2215 -0.6292  0.5605
 6857SOL    HW232034   1.527   2.531   3.780  1.8561 -1.4739  1.7709
 6858SOL     OW32035   0.550   0.082   3.720  0.5584 -0.2870  0.1875
 6858SOL    HW132036   0.490   0.020   3.761 -1.1213  1.5889  0.5492
 6858SOL    HW232037   0.505   0.158   3.756  0.7836 -0.1038  0.0795
 6859SOL     OW32038   1.714   2.944   2.309  0.0239 -0.1358 -0.1805
 6859SOL    HW132039   1.808   2.948   2.328  0.0875 -1.4790 -0.1957
 6859SOL    HW232040   1.684   2.981   2.392  0.9947  1.2911 -0.4602
 6860SOL     OW32041   0.688   2.747   7.245  0.0698  0.2886 -0.2377
 6860SOL    HW132042   0.617   2.763   7.308  0.7133 -0.4459  0.6858
 6860SOL    HW232043   0.665   2.810   7.177 -1.4641  0.8979  0.8449
 6861SOL     OW32044   3.302   1.004   3.164 -0.3756 -0.1098  0.1126
 6861SOL    HW132045   3.230   1.058   3.133 -1.9699 -1.7132  1.0129
 6861SOL    HW232046   3.321   0.953   3.085 -0.0660  0.8960 -0.4641
 6862SOL     OW32047   2.114   4.064  11.839 -0.4482 -0.1545  0.5122
 6862SOL    HW132048   2.021   4.076  11.822 -0.0591  1.7660 -0.2191
 6862SOL    HW232049   2.131   3.980  11.797 -0.6588 -0.5457  1.2065
 6863SOL     OW32050   0.445   4.638  11.527  0.6225  0.4947 -0.9748
 6863SOL    HW132051   0.492   4.643  11.610  1.5254  0.9697 -1.5185
 6863SOL    HW232052   0.384   4.712  11.533 -0.0129  0.0016 -1.3964
 6864SOL     OW32053   0.095   1.364   0.678  0.1706 -0.3572  0.4345
 6864SOL    HW132054   0.082   1.334   0.768  0.8790  0.1590  0.7107
 6864SOL    HW232055   0.120   1.456   0.686  0.3556 -0.3258 -0.5240
 6865SOL     OW32056   0.362   2.031   5.667 -0.0458 -0.1747 -0.2350
 6865SOL    HW132057   0.289   2.079   5.626  1.3425  0.6694 -1.7338
 6865SOL    HW232058   0.433   2.093   5.650 -0.4954  0.0306 -1.4135
 6866SOL     OW32059   2.814   2.048   3.334 -0.1745  0.3250  0.0493
 6866SOL    HW132060   2.744   2.093   3.381 -0.4260  0.3116 -0.3127
 6866SOL    HW232061   2.897   2.074   3.374 -1.6593  1.7520  2.2217
 6867SOL     OW32062   3.746   3.906   8.620 -0.0528  0.2207 -0.2290
 6867SOL    HW132063   3.697   3.896   8.539  1.1907  0.0837 -0.9568
 6867SOL    HW232064   3.796   3.825   8.634  0.6059  0.6701  0.0056
 6868SOL     OW32065   3.827   1.580   3.585  0.0805  0.3790  0.5785
 6868SOL    HW132066   3.917   1.550   3.597 -0.5741 -1.4360  1.1115
 6868SOL    HW232067   3.781   1.512   3.635  0.0225 -1.1947 -1.6118
 6869SOL     OW32068   2.535   2.476   3.505  0.2748  0.1376  0.1855
 6869SOL    HW132069   2.550   2.396   3.456 -0.9137 -0.3998  0.7022
 6869SOL    HW232070   2.617   2.488   3.554  1.0836 -1.0051 -0.9037
 6870SOL     OW32071   0.658   4.483   5.902  0.3472 -0.0103 -0.1564
 6870SOL    HW132072   0.565   4.468   5.923  0.7661 -1.2139  0.8756
 6870SOL    HW232073   0.672   4.577   5.900 -0.9863  0.1910  0.0567
 6871SOL     OW32074   0.787   0.926  13.742  0.2863 -0.3329 -0.1096
 6871SOL    HW132075   0.723   0.966  13.683  0.6529 -1.8046 -1.5216
 6871SOL    HW232076   0.755   0.965  13.823 -0.1820 -0.4232 -0.2495
 6872SOL     OW32077   3.003   3.086   9.679  0.3847 -0.0587 -0.2836
 6872SOL    HW132078   3.041   3.046   9.756 -0.8059  1.5847  1.1545
 6872SOL    HW232079   2.982   3.019   9.613  0.5318  0.1056 -0.4967
 6873SOL     OW32080   4.324   2.773  17.570  0.1664 -0.0538  0.0025
 6873SOL    HW132081   4.244   2.805  17.528  1.1687  2.5877  0.1338
 6873SOL    HW232082   4.361   2.855  17.601  1.8625 -0.4581 -0.9820
 6874SOL     OW32083   0.048   3.087   6.648  0.0867 -0.1088  0.2136
 6874SOL    HW132084   0.043   3.173   6.607 -0.0791  1.2721  3.1362
 6874SOL    HW232085   0.111   3.112   6.715  1.0261 -0.0065 -0.7142
 6875SOL     OW32086   4.464   0.998  16.422 -0.7300 -0.6912 -0.2418
 6875SOL    HW132087   4.525   1.072  16.415  0.8734 -1.8086  2.1068
 6875SOL    HW232088   4.402   1.034  16.358 -0.1797  0.5995 -0.0455
 6876SOL     OW32089   1.844   3.310   4.044  0.2742  0.6017 -0.0551
 6876SOL    HW132090   1.868   3.323   3.953  0.8603  0.9854  0.1522
 6876SOL    HW232091   1.929   3.282   4.079 -0.4747 -1.2595  0.2766
 6877SOL     OW32092   2.401   2.985   2.127  0.0960 -0.1302  0.0696
 6877SOL    HW132093   2.494   2.972   2.109  0.4480  0.0469  1.7608
 6877SOL    HW232094   2.394   3.058   2.187  1.4026  1.1393 -1.3151
 6878SOL     OW32095   0.459   4.544   2.131  0.1287  0.2905 -0.1560
 6878SOL    HW132096   0.460   4.520   2.038  0.5809 -1.2932  0.2598
 6878SOL    HW232097   0.549   4.518   2.153 -0.0432 -2.1434 -2.3158
 6879SOL     OW32098   1.801   0.717   2.209 -0.3121 -0.0031  0.1441
 6879SOL    HW132099   1.745   0.787   2.175  0.7377  0.8151  0.0989
 6879SOL    HW232100   1.761   0.672   2.283  1.6288 -2.5290 -0.3258
 6880SOL     OW32101   0.414   2.839  12.462  0.1268 -0.3825  0.2300
 6880SOL    HW132102   0.361   2.811  12.387 -0.6067  1.0757  0.2069
 6880SOL    HW232103   0.407   2.934  12.457 -1.2365 -0.5542 -1.0886
 6881SOL     OW32104   1.176   4.003  14.402  0.4509 -0.3936  0.3790
 6881SOL    HW132105   1.144   4.008  14.312  1.6528 -3.1344 -0.2003
 6881SOL    HW232106   1.182   4.098  14.410 -1.4447 -0.3665  1.6691
 6882SOL     OW32107   1.231   2.860  14.727 -0.2491  0.1021 -0.3573
 6882SOL    HW132108   1.249   2.834  14.817 -0.2446  1.4703  0.0440
 6882SOL    HW232109   1.140   2.834  14.713  0.4847 -2.6065 -0.0211
 6883SOL     OW32110   3.111   3.657  11.469 -0.3097  0.7180  0.2511
 6883SOL    HW132111   3.036   3.600  11.486  0.9890 -1.7497 -2.4236
 6883SOL    HW232112   3.064   3.738  11.490 -1.3152  0.4011 -0.7991
 6884SOL     OW32113   4.681   1.075   9.140  0.5355 -0.6563  0.3978
 6884SOL    HW132114   4.620   1.140   9.107  1.2558 -0.2997 -0.2276
 6884SOL    HW232115   0.040   1.118   9.113  1.1552 -2.2406 -0.2599
 6885SOL     OW32116   4.370   4.331   4.161  0.5642 -0.1240 -0.3981
 6885SOL    HW132117   4.371   4.423   4.138 -2.4424  0.3046  1.2914
 6885SOL    HW232118   4.333   4.334   4.249 -2.0025  1.0873 -1.5507
 6886SOL     OW32119   1.161   0.395   3.011  0.5238  0.3395 -0.1872
 6886SOL    HW132120   1.244   0.437   3.033 -0.2639  1.3876  0.7511
 6886SOL    HW232121   1.203   0.316   2.975 -2.5039 -1.3818  0.0626
 6887SOL     OW32122   4.640   0.216  16.976  0.0729 -0.2736  0.1109
 6887SOL    HW132123   4.569   0.254  16.925 -0.9874 -1.1697  0.9225
 6887SOL    HW232124   4.669   0.148  16.915 -1.2331 -1.4992  0.8534
 6888SOL     OW32125   2.916   4.030   9.089  0.0597 -0.5455  0.1025
 6888SOL    HW132126   2.843   4.086   9.062 -0.3476 -0.0518  2.2293
 6888SOL    HW232127   2.973   4.086   9.142  1.8399  0.1693 -2.5419
 6889SOL     OW32128   2.766   2.440   4.820  0.4214 -0.2582  0.4997
 6889SOL    HW132129   2.801   2.528   4.808 -1.6314  0.7492  1.8423
 6889SOL    HW232130   2.673   2.459   4.810  0.6642  0.9623  0.5927
 6890SOL     OW32131   0.713   3.027  11.322  0.3585 -0.4686  0.3746
 6890SOL    HW132132   0.706   3.094  11.390  0.4297 -0.2618  0.1778
 6890SOL    HW232133   0.804   3.004  11.336  0.7496  0.1321 -1.1994
 6891SOL     OW32134   0.361   2.009   4.406  0.3045  0.2861 -0.3580
 6891SOL    HW132135   0.368   2.061   4.327 -1.6545 -0.4362 -1.0041
 6891SOL    HW232136   0.270   2.013   4.435  0.3166 -0.7737 -0.1454
 6892SOL     OW32137   1.047   0.910  10.804 -0.2766 -0.1862  0.6570
 6892SOL    HW132138   0.959   0.922  10.839 -0.3477  0.6968  0.1862
 6892SOL    HW232139   1.023   0.905  10.711  0.4151 -0.0534  0.4678
 6893SOL     OW32140   3.012   1.395  10.449  0.0626 -0.1213  0.1305
 6893SOL    HW132141   2.949   1.454  10.409  1.4070  0.2564 -1.4017
 6893SOL    HW232142   2.952   1.329  10.485  0.8045  0.4910  2.4719
 6894SOL     OW32143   3.541   1.168   3.259 -0.3867 -0.5385 -0.1705
 6894SOL    HW132144   3.458   1.198   3.295 -1.2696 -1.8854 -1.0613
 6894SOL    HW232145   3.510   1.129   3.177 -0.6675  1.0660 -0.8126
 6895SOL     OW32146   0.664   2.586   5.075  0.1926  0.1374 -0.2733
 6895SOL    HW132147   0.576   2.554   5.056 -0.0453 -0.2617  1.5040
 6895SOL    HW232148   0.705   2.555   4.994  0.3766 -1.4321  0.4192
 6896SOL     OW32149   1.828   2.455   1.408 -0.4153 -0.4306  0.3337
 6896SOL    HW132150   1.838   2.540   1.365 -0.0903 -0.7542 -0.2365
 6896SOL    HW232151   1.746   2.419   1.375 -0.4747 -0.5098  0.5729
 6897SOL     OW32152   1.187   1.511   8.734  0.9479 -0.7260  0.4769
 6897SOL    HW132153   1.280   1.528   8.753  1.8655 -5.5178  0.3859
 6897SOL    HW232154   1.141   1.583   8.776  2.8240 -0.5052  2.1507
 6898SOL     OW32155   1.057   2.730   8.324  0.3165 -0.1031 -0.2216
 6898SOL    HW132156   0.979   2.723   8.269  0.3161  3.9310 -0.7422
 6898SOL    HW232157   1.102   2.653   8.290 -0.3793 -0.3376 -0.6184
 6899SOL     OW32158   0.766   1.312  13.854  0.5364 -0.3703  0.0936
 6899SOL    HW132159   0.688   1.362  13.831  0.7210 -0.5851 -1.0373
 6899SOL    HW232160   0.728   1.245  13.911 -0.1196 -0.3204 -0.2840
 6900SOL     OW32161   2.657   4.300   6.302 -0.8478 -0.0460 -0.9407
 6900SOL    HW132162   2.705   4.320   6.221  0.1561  1.2707 -0.0110
 6900SOL    HW232163   2.567   4.285   6.273 -1.1934  2.9763 -1.4090
 6901SOL     OW32164   2.897   4.705  16.755  0.2243  0.1024 -0.1213
 6901SOL    HW132165   2.864   4.690  16.666  1.5854 -2.3614 -0.2172
 6901SOL    HW232166   2.918   4.620  16.794  0.2589 -0.3294 -1.0614
 6902SOL     OW32167   2.989   1.531   6.606  0.3066  0.5936  0.5017
 6902SOL    HW132168   2.957   1.482   6.531  0.5700 -0.6688  1.2150
 6902SOL    HW232169   3.008   1.620   6.575 -1.6691  1.2173  1.1010
 6903SOL     OW32170   0.453   0.665   4.794  0.2016  0.0089 -0.3191
 6903SOL    HW132171   0.446   0.572   4.771 -0.2055  0.9124 -3.8923
 6903SOL    HW232172   0.398   0.706   4.727  0.7100  0.2623 -0.5801
 6904SOL     OW32173   1.375   3.686  14.444 -0.7365  0.0710  0.2035
 6904SOL    HW132174   1.349   3.650  14.359 -0.5123 -0.6425  0.4334
 6904SOL    HW232175   1.466   3.715  14.434 -0.2521 -0.9242  1.7099
 6905SOL     OW32176   0.078   2.093   5.289  0.3676 -0.4432 -0.4310
 6905SOL    HW132177   0.037   2.087   5.375 -0.3555 -0.1387 -0.7565
 6905SOL    HW232178   0.116   2.007   5.274 -0.2562 -0.5118 -1.6706
 6906SOL     OW32179   2.266   2.999   4.563 -0.0172 -0.1647 -0.5741
 6906SOL    HW132180   2.319   2.993   4.484 -0.4551  0.9509 -0.9477
 6906SOL    HW232181   2.176   3.018   4.537 -0.4291 -0.2755  0.7618
 6907SOL     OW32182   3.817   4.313   8.980  0.3425  0.5259 -0.6524
 6907SOL    HW132183   3.747   4.247   8.977  0.6412  0.1521  0.3520
 6907SOL    HW232184   3.859   4.294   9.064 -1.8914  0.5218  0.4747
 6908SOL     OW32185   2.010   0.068   7.524  0.1082  0.1158  0.0101
 6908SOL    HW132186   2.034   0.057   7.432 -0.0656  2.2305 -0.3064
 6908SOL    HW232187   2.030   0.162   7.528 -0.1636  0.0395  3.4176
 6909SOL     OW32188   4.096   0.935   9.777  0.1659  0.4902 -0.2304
 6909SOL    HW132189   4.115   0.968   9.865 -0.4343 -2.1927  0.8958
 6909SOL    HW232190   4.003   0.918   9.790  0.4881 -1.3937 -0.4024
 6910SOL     OW32191   0.285   1.354  13.760 -0.2909 -0.2368  0.2221
 6910SOL    HW132192   0.283   1.392  13.672  1.8136  0.4820  0.5040
 6910SOL    HW232193   0.197   1.370  13.794 -0.5187 -1.4847  0.2299
 6911SOL     OW32194   4.705   2.606   4.087 -0.1159 -0.2289  0.1071
 6911SOL    HW132195   0.067   2.653   4.093 -0.4647  0.4385 -0.3185
 6911SOL    HW232196   4.689   2.611   4.181 -0.1620 -3.5179  0.2544
 6912SOL     OW32197   2.485   1.695   5.242  0.0397  0.0905  0.3423
 6912SOL    HW132198   2.556   1.685   5.179  0.0558 -0.1706  0.4038
 6912SOL    HW232199   2.434   1.621   5.208 -1.5931  2.1573 -1.7335
 6913SOL     OW32200   2.815   2.609   5.273  0.0360 -0.6801  0.5604
 6913SOL    HW132201   2.880   2.579   5.209 -1.4624 -0.1170 -1.2500
 6913SOL    HW232202   2.847   2.698   5.289 -1.1039  0.0237 -1.0208
 6914SOL     OW32203   4.471   2.986   4.219 -0.1623 -0.4950  0.4856
 6914SOL    HW132204   4.503   3.073   4.242 -0.2517 -0.2556 -0.2744
 6914SOL    HW232205   4.501   2.976   4.128 -0.3580  0.0991  0.3592
 6915SOL     OW32206   1.985   1.755   2.813 -0.1029  0.5947 -0.2874
 6915SOL    HW132207   1.972   1.679   2.756  0.3199 -1.0800  1.8368
 6915SOL    HW232208   2.074   1.743   2.847 -0.2676 -0.7940 -0.3324
 6916SOL     OW32209   2.180   1.394   5.798 -0.2459  0.0965 -0.0424
 6916SOL    HW132210   2.136   1.462   5.746  1.1772 -0.3708 -1.8643
 6916SOL    HW232211   2.145   1.401   5.887  2.4089 -0.8426  1.0646
 6917SOL     OW32212   3.515   0.157   1.837 -0.2708 -0.0737 -0.4986
 6917SOL    HW132213   3.472   0.072   1.845 -0.2815 -0.3539 -3.8169
 6917SOL    HW232214   3.606   0.131   1.856 -0.1147 -0.2555 -1.5098
 6918SOL     OW32215   3.636   3.548   3.334 -0.2070 -0.7148 -0.3493
 6918SOL    HW132216   3.560   3.553   3.392  0.8208 -0.0106  0.9423
 6918SOL    HW232217   3.587   3.563   3.253 -1.8431  0.0750  0.7836
 6919SOL     OW32218   4.236   2.936   5.542  0.6949 -0.0770 -0.3383
 6919SOL    HW132219   4.195   2.898   5.620  0.4461 -2.7683 -1.7790
 6919SOL    HW232220   4.165   2.988   5.503  0.1308  1.3473  2.5455
 6920SOL     OW32221   3.261   4.326  14.525  0.7326  0.4761  0.7452
 6920SOL    HW132222   3.258   4.295  14.434 -1.6291  2.7574  0.0443
 6920SOL    HW232223   3.200   4.271  14.574 -0.3230  0.0747 -1.0132
 6921SOL     OW32224   1.116   2.942   0.498 -0.3111  0.1246 -0.3874
 6921SOL    HW132225   1.149   2.852   0.503  0.3743  0.4576  1.0234
 6921SOL    HW232226   1.068   2.946   0.416  0.6409  2.3277 -0.8346
 6922SOL     OW32227   3.086   0.031   1.413 -0.3800 -0.4871 -0.4469
 6922SOL    HW132228   3.091   0.019   1.318 -0.2379 -2.0387 -0.2432
 6922SOL    HW232229   3.132   0.112   1.436  1.0130 -1.2268 -0.6755
 6923SOL     OW32230   4.039   0.715  10.187  0.3775 -0.4578  0.1106
 6923SOL    HW132231   4.085   0.782  10.137  2.4182 -0.4936  1.9339
 6923SOL    HW232232   3.999   0.679  10.107  0.3473 -1.2632  0.4816
 6924SOL     OW32233   0.645   4.259  11.385 -0.4695  0.1961 -0.5337
 6924SOL    HW132234   0.643   4.334  11.444 -2.8282  0.0396 -0.4267
 6924SOL    HW232235   0.553   4.233  11.386 -0.5180  0.3988  0.0500
 6925SOL     OW32236   2.924   3.663  17.563 -0.7081 -0.0510  0.3491
 6925SOL    HW132237   2.880   3.686  17.481 -1.4618  1.6580  1.2353
 6925SOL    HW232238   2.932   3.568  17.559  2.0384  0.1439  1.4726
 6926SOL     OW32239   0.521   0.852   8.231  0.1489  1.0268 -0.0408
 6926SOL    HW132240   0.486   0.901   8.157 -0.7866  1.5905  0.7721
 6926SOL    HW232241   0.519   0.916   8.302 -0.0977  0.7276  0.2253
 6927SOL     OW32242   2.813   4.322   9.416 -0.6434 -0.8591 -0.2897
 6927SOL    HW132243   2.766   4.269   9.481 -0.7598 -2.3167 -1.5449
 6927SOL    HW232244   2.860   4.260   9.360 -0.3314 -2.1723  1.4212
 6928SOL     OW32245   3.042   3.578   8.978  0.2014 -0.3756 -0.5651
 6928SOL    HW132246   2.975   3.604   8.914  0.8112 -1.0183 -1.4632
 6928SOL    HW232247   3.005   3.632   9.047  0.5726 -1.5144  0.5162
 6929SOL     OW32248   1.691   2.876   3.610  0.2108 -0.4171 -0.4488
 6929SOL    HW132249   1.659   2.799   3.657  0.0815 -0.2360 -0.2412
 6929SOL    HW232250   1.605   2.910   3.586  1.1346  2.3352  0.1481
 6930SOL     OW32251   1.237   3.046   2.039 -0.1920 -0.1104 -0.2426
 6930SOL    HW132252   1.330   3.070   2.034 -0.0918 -0.4702 -0.1450
 6930SOL    HW232253   1.209   3.099   1.966 -1.1469 -0.8846 -0.4365
 6931SOL     OW32254   1.315   0.542  10.426 -0.3225  0.0931 -0.5118
 6931SOL    HW132255   1.317   0.638  10.426  0.8434  0.0686 -1.7863
 6931SOL    HW232256   1.224   0.536  10.397 -0.3844 -0.2992 -0.2348
 6932SOL     OW32257   2.699   1.782   4.347 -0.3572  0.2495  0.2059
 6932SOL    HW132258   2.695   1.877   4.357  2.1130  0.6469 -2.6994
 6932SOL    HW232259   2.623   1.762   4.291 -0.0894  1.7623 -0.6969
 6933SOL     OW32260   2.595   1.559  11.115 -0.9436  0.0503 -0.3088
 6933SOL    HW132261   2.651   1.637  11.117 -0.1379 -0.5269 -0.0723
 6933SOL    HW232262   2.650   1.489  11.151 -0.6435  0.5828  0.2674
 6934SOL     OW32263   3.543   0.552   5.820  0.1526  0.1990 -0.1392
 6934SOL    HW132264   3.493   0.478   5.853  0.6540 -0.6031 -1.1897
 6934SOL    HW232265   3.482   0.609   5.774 -0.7597  0.0839  0.9310
 6935SOL     OW32266   2.315   0.589   5.294  0.6077 -0.0950  0.1214
 6935SOL    HW132267   2.281   0.588   5.205 -0.4022  1.6002  0.4883
 6935SOL    HW232268   2.401   0.632   5.289  1.0732 -0.6986  2.9039
 6936SOL     OW32269   3.621   1.065  11.329  0.6780 -0.3110 -0.8351
 6936SOL    HW132270   3.618   1.037  11.238  0.9101  0.3837 -1.0551
 6936SOL    HW232271   3.618   1.160  11.324  0.6766 -0.1727  1.9727
 6937SOL     OW32272   2.607   1.249   0.502 -0.2286 -0.0363 -0.1505
 6937SOL    HW132273   2.616   1.335   0.459 -1.6425  0.2363  0.0837
 6937SOL    HW232274   2.512   1.236   0.498 -0.4201  0.8937  1.5508
 6938SOL     OW32275   2.387   0.859   6.521 -0.1221 -0.2887  0.0744
 6938SOL    HW132276   2.442   0.886   6.594 -1.9778  0.2645  1.2462
 6938SOL    HW232277   2.461   0.828   6.469  0.6119  0.6372  0.5730
 6939SOL     OW32278   1.335   1.573   5.860  0.0071  0.0938  0.3798
 6939SOL    HW132279   1.373   1.496   5.903  0.9884  0.8780  0.9121
 6939SOL    HW232280   1.413   1.611   5.820  1.4236 -2.8574  0.3572
 6940SOL     OW32281   0.553   2.105   8.076 -0.3369 -0.7203 -0.0082
 6940SOL    HW132282   0.627   2.078   8.022 -2.1332  0.6134 -3.1554
 6940SOL    HW232283   0.556   2.033   8.139  0.3381  1.1811  2.1309
 6941SOL     OW32284   2.999   4.617  12.993  0.8139  0.0643 -0.1752
 6941SOL    HW132285   3.026   4.689  12.936  1.2775 -1.1505 -1.5011
 6941SOL    HW232286   2.982   4.660  13.077 -0.1792  0.7278 -0.7085
 6942SOL     OW32287   3.279   3.559  14.991 -0.1527 -0.4605  0.0260
 6942SOL    HW132288   3.348   3.571  14.925 -1.3404  0.6567 -1.0285
 6942SOL    HW232289   3.308   3.499  15.059  0.5848 -0.4540 -0.2794
 6943SOL     OW32290   3.813   3.926   6.411 -0.4189 -0.7120 -0.3514
 6943SOL    HW132291   3.903   3.893   6.403 -0.6828 -2.1504  2.5570
 6943SOL    HW232292   3.785   3.872   6.485 -0.4821  1.7822  1.4096
 6944SOL     OW32293   0.609   0.213   1.732 -0.3211  0.0515  0.1959
 6944SOL    HW132294   0.639   0.122   1.731  0.2081  0.2265  0.5984
 6944SOL    HW232295   0.635   0.224   1.823  0.4328 -0.4693  0.0388
 6945SOL     OW32296   0.666   4.366   4.454  0.2712  0.3325  0.6192
 6945SOL    HW132297   0.748   4.375   4.405  0.8870  0.1695  1.5906
 6945SOL    HW232298   0.637   4.284   4.415  0.5626  1.1288 -1.2384
 6946SOL     OW32299   3.845   0.447   8.004  0.2765 -0.1119 -0.6972
 6946SOL    HW132300   3.815   0.490   7.923  1.9235 -2.2491 -2.4648
 6946SOL    HW232301   3.885   0.367   7.969  1.3031 -1.2873  3.2514
 6947SOL     OW32302   2.128   3.277   6.654  0.1643  0.3182  0.2292
 6947SOL    HW132303   2.107   3.185   6.636  0.1079  0.0855  1.4946
 6947SOL    HW232304   2.053   3.328   6.621  0.2331  1.8639  2.4981
 6948SOL     OW32305   2.522   1.723  16.235 -0.3205  0.1129 -0.5470
 6948SOL    HW132306   2.492   1.637  16.207 -1.6183 -0.3483  2.2397
 6948SOL    HW232307   2.606   1.718  16.189  0.9120  1.1214  1.5998
 6949SOL     OW32308   3.883   0.158   8.237 -0.2835 -0.3504  0.0980
 6949SOL    HW132309   3.926   0.180   8.154  1.3072 -0.9519  0.7498
 6949SOL    HW232310   3.820   0.230   8.243 -0.7727 -0.8320  0.6837
 6950SOL     OW32311   0.007   4.604   7.461 -0.1407 -0.3164  0.4554
 6950SOL    HW132312   0.010   4.652   7.543 -1.6482 -1.0217  0.9362
 6950SOL    HW232313   0.097   4.615   7.429  0.1250 -0.5815  1.1171
 6951SOL     OW32314   2.981   1.482   7.313  0.0291 -0.6310  0.1725
 6951SOL    HW132315   3.002   1.560   7.364  3.2759 -1.5335  0.2354
 6951SOL    HW232316   2.896   1.456   7.348  1.1851 -1.8391  2.0949
 6952SOL     OW32317   1.258   0.759   8.293  0.2011 -0.0086 -0.0065
 6952SOL    HW132318   1.196   0.831   8.284  1.7819  1.2698 -0.8124
 6952SOL    HW232319   1.211   0.678   8.272 -2.2474  1.7505 -1.1917
 6953SOL     OW32320   3.973   2.830   6.059  0.0073  0.0864  0.3344
 6953SOL    HW132321   3.911   2.791   6.121 -1.0472  0.1181 -0.7008
 6953SOL    HW232322   3.995   2.743   6.024 -0.4699 -1.5131  3.9663
 6954SOL     OW32323   3.040   4.444   8.004 -0.5458  0.2702  0.0713
 6954SOL    HW132324   3.097   4.420   7.931  0.8634 -0.1210  1.3018
 6954SOL    HW232325   2.959   4.475   7.963  0.0783  2.7703  0.7302
 6955SOL     OW32326   2.293   2.256   7.783  0.3904  0.0587  0.2564
 6955SOL    HW132327   2.198   2.253   7.784  0.4237 -1.9708 -3.2751
 6955SOL    HW232328   2.313   2.164   7.763  2.6393  0.5924  0.0696
 6956SOL     OW32329   4.478   4.147   5.092 -0.1370 -0.0074 -0.6860
 6956SOL    HW132330   4.404   4.167   5.149  0.6750 -0.4324  0.4998
 6956SOL    HW232331   4.482   4.222   5.032  0.5112 -0.3809 -1.1064
 6957SOL     OW32332   2.952   3.403   7.972 -1.1299  0.5904  0.3062
 6957SOL    HW132333   3.007   3.481   7.969 -2.2045  1.3672  0.7598
 6957SOL    HW232334   2.939   3.382   7.879  1.3775  1.6035 -0.2668
 6958SOL     OW32335   1.912   3.859  14.206 -0.0888  0.3671  0.6312
 6958SOL    HW132336   1.941   3.785  14.152  2.1092  0.9092  1.0556
 6958SOL    HW232337   1.983   3.872  14.269 -0.7205 -1.2406  1.6922
 6959SOL     OW32338   3.791   2.078   2.679  0.7132 -0.1593  0.2581
 6959SOL    HW132339   3.755   1.991   2.696 -1.5221  0.2740 -2.1348
 6959SOL    HW232340   3.715   2.124   2.643  2.2947  2.4999  0.3661
 6960SOL     OW32341   2.748   3.867  14.338  0.1505  1.1657  0.2467
 6960SOL    HW132342   2.797   3.786  14.351 -0.5041  0.9447  1.3554
 6960SOL    HW232343   2.659   3.839  14.362  0.3848  1.7801  1.7752
 6961SOL     OW32344   1.552   3.870  13.484  0.3874  0.5101  0.1543
 6961SOL    HW132345   1.560   3.946  13.541  1.1031  0.2925  0.3449
 6961SOL    HW232346   1.506   3.908  13.410 -1.4657 -1.8481  0.0841
 6962SOL     OW32347   3.758   0.360  14.210 -0.4921  0.4613 -0.2220
 6962SOL    HW132348   3.722   0.274  14.230 -1.0805  0.9374  0.7735
 6962SOL    HW232349   3.769   0.392  14.300  0.8056 -1.2738  0.2419
 6963SOL     OW32350   0.815   1.542   4.922 -0.3938 -0.2000 -0.0949
 6963SOL    HW132351   0.882   1.501   4.867 -1.9272  0.4765 -2.4979
 6963SOL    HW232352   0.766   1.584   4.851  1.2469 -1.1589 -1.8143
 6964SOL     OW32353   2.907   2.223   7.114  0.5486 -0.6483 -0.4436
 6964SOL    HW132354   2.877   2.308   7.145 -0.6306 -1.0077 -0.5683
 6964SOL    HW232355   2.943   2.261   7.034 -0.3595  0.5606 -0.2721
 6965SOL     OW32356   3.316   0.316   4.641 -0.4652 -0.3950 -0.2146
 6965SOL    HW132357   3.294   0.408   4.622 -1.1194 -0.3134  0.9601
 6965SOL    HW232358   3.384   0.299   4.576 -0.1068  0.1371  0.0178
 6966SOL     OW32359   1.282   3.037   8.482 -0.0200  0.2426 -0.2270
 6966SOL    HW132360   1.293   3.101   8.552  2.2878 -1.5467  1.0311
 6966SOL    HW232361   1.374   3.014   8.484  0.0940  0.7828  0.8895
 6967SOL     OW32362   0.824   3.544  12.406  0.3669  0.0030 -0.3281
 6967SOL    HW132363   0.834   3.499  12.322  1.3907 -3.2259  1.4973
 6967SOL    HW232364   0.914   3.577  12.416  1.0332 -1.2447 -2.1113
 6968SOL     OW32365   1.936   2.975   6.542  0.4393 -0.4067  0.0714
 6968SOL    HW132366   1.923   2.891   6.586 -1.0789 -0.2411 -0.0322
 6968SOL    HW232367   2.017   3.001   6.585  1.2899 -1.4969 -0.8718
 6969SOL     OW32368   1.146   3.121   5.962  0.2023  0.1754 -0.4273
 6969SOL    HW132369   1.098   3.140   5.882 -1.3300 -1.8214  0.0222
 6969SOL    HW232370   1.103   3.185   6.019  1.7016  1.5251 -0.8143
 6970SOL     OW32371   0.116   3.234   1.832  0.0737  0.1311 -0.1420
 6970SOL    HW132372   0.039   3.181   1.854  0.1430 -0.5319 -1.5164
 6970SOL    HW232373   0.066   3.315   1.816 -0.1068  0.1429  0.4756
 6971SOL     OW32374   2.859   0.361   8.213  0.3519  0.3666 -0.3387
 6971SOL    HW132375   2.809   0.319   8.143 -1.0083 -0.8590  1.3709
 6971SOL    HW232376   2.812   0.337   8.293 -0.4962  1.0820 -0.6225
 6972SOL     OW32377   3.478   0.319   3.331  0.0203 -0.1184 -0.4528
 6972SOL    HW132378   3.525   0.238   3.310  1.6672  0.4133  1.1113
 6972SOL    HW232379   3.437   0.297   3.415  0.1199 -0.5062 -0.5021
 6973SOL     OW32380   0.403   0.720  12.248  0.7501 -0.5109  0.1419
 6973SOL    HW132381   0.485   0.741  12.293  0.4754  1.0147 -0.0913
 6973SOL    HW232382   0.435   0.660  12.180  0.1762  0.4150 -0.9224
 6974SOL     OW32383   3.591   1.167   4.990  0.5122  0.1093  0.3598
 6974SOL    HW132384   3.629   1.243   4.946  2.2396 -0.9043  0.0851
 6974SOL    HW232385   3.670   1.126   5.025  1.7845  1.4255 -0.9808
 6975SOL     OW32386   1.798   3.524   8.701  0.0671  0.5684  0.2076
 6975SOL    HW132387   1.799   3.504   8.794 -0.1148  0.7568  0.2508
 6975SOL    HW232388   1.888   3.500   8.679 -0.4669  1.0120 -2.5180
 6976SOL     OW32389   3.047   3.670   5.865  0.3743 -0.8449  0.5897
 6976SOL    HW132390   3.000   3.591   5.837 -1.6655  0.1766  1.0859
 6976SOL    HW232391   3.136   3.636   5.857  1.3349  1.2840  2.0619
 6977SOL     OW32392   2.003   3.255   4.790  0.2667  0.3886  0.2053
 6977SOL    HW132393   2.039   3.342   4.804  0.5501  0.8487 -3.3141
 6977SOL    HW232394   2.080   3.208   4.759 -1.6626 -2.4752 -0.2641
 6978SOL     OW32395   4.215   0.811   4.141 -0.3117  0.3338  0.3722
 6978SOL    HW132396   4.270   0.836   4.067 -0.3985 -0.9870 -0.1308
 6978SOL    HW232397   4.284   0.760   4.183 -0.2119  0.8636  0.8648
 6979SOL     OW32398   2.109   1.419  12.445  0.7750 -0.1289 -0.1831
 6979SOL    HW132399   2.084   1.489  12.505  0.9809 -1.4193  1.4093
 6979SOL    HW232400   2.023   1.422  12.405  0.5188 -0.7672  0.3324
 6980SOL     OW32401   1.755   0.963   4.714 -0.5232 -0.1733 -0.1763
 6980SOL    HW132402   1.660   0.954   4.712 -0.8503  3.2522 -1.0926
 6980SOL    HW232403   1.778   0.871   4.723  1.8398  0.4686  0.3480
 6981SOL     OW32404   0.713   0.375   1.303 -0.0225  0.0872 -0.6313
 6981SOL    HW132405   0.777   0.395   1.370  0.5559  1.1242 -1.5032
 6981SOL    HW232406   0.628   0.370   1.347 -1.2807 -0.5650 -3.1155
 6982SOL     OW32407   0.345   4.378   5.192  0.0967 -0.0274  0.2706
 6982SOL    HW132408   0.351   4.341   5.280 -1.4921 -2.7948 -0.7915
 6982SOL    HW232409   0.417   4.331   5.150  2.0124 -0.0190  3.5806
 6983SOL     OW32410   2.480   2.114  16.092 -0.1229 -0.4790  0.0987
 6983SOL    HW132411   2.534   2.076  16.023 -0.3310 -2.0019  0.7617
 6983SOL    HW232412   2.409   2.050  16.087  0.7427 -1.4248 -0.1024
 6984SOL     OW32413   3.795   0.617  10.059  0.4864 -0.2505 -0.0729
 6984SOL    HW132414   3.760   0.585  10.142 -0.6863  2.0753  0.3309
 6984SOL    HW232415   3.806   0.534  10.013  1.5798 -0.1649  0.0350
 6985SOL     OW32416   3.277   4.087   9.681  0.1170 -0.0957  0.0037
 6985SOL    HW132417   3.318   4.000   9.681 -1.2524 -0.7435 -1.3719
 6985SOL    HW232418   3.297   4.119   9.769 -1.3219 -0.0951  0.3301
 6986SOL     OW32419   0.185   3.076   2.791  0.3508  0.4138 -0.0363
 6986SOL    HW132420   0.141   2.998   2.758  0.7458 -0.2440  0.9865
 6986SOL    HW232421   0.168   3.133   2.717  0.4708  0.8681  0.2862
 6987SOL     OW32422   2.412   0.027   4.926  0.4858  0.3540  0.3356
 6987SOL    HW132423   2.480   4.682   4.925 -1.6523 -1.8302  1.2743
 6987SOL    HW232424   2.437   0.081   4.852  1.0734 -0.6156 -0.1706
 6988SOL     OW32425   4.271   3.069  14.905  0.3453  0.2472 -0.3096
 6988SOL    HW132426   4.240   3.030  14.987  1.3170  1.3827  0.5955
 6988SOL    HW232427   4.353   3.020  14.894  1.3550  1.5462  1.3319
 6989SOL     OW32428   4.467   4.377   4.945  0.0076  0.4028 -0.8982
 6989SOL    HW132429   4.393   4.380   4.884 -0.3786 -0.8680 -0.4815
 6989SOL    HW232430   4.447   4.436   5.018  0.2145 -1.2379  0.4758
 6990SOL     OW32431   0.456   0.851  11.945  0.2279  0.4744  0.1692
 6990SOL    HW132432   0.430   0.798  11.869  1.4234  0.4866 -0.2460
 6990SOL    HW232433   0.550   0.865  11.937  0.0145  2.0327  0.4453
 6991SOL     OW32434   0.818   2.437   8.864  0.5759  0.4645  0.3296
 6991SOL    HW132435   0.872   2.510   8.894  0.9434 -0.0580  0.9196
 6991SOL    HW232436   0.734   2.460   8.905 -0.0522 -2.5075  0.7302
 6992SOL     OW32437   1.215   0.710  13.383  0.2790  0.0828  0.4111
 6992SOL    HW132438   1.252   0.794  13.357 -1.1610  0.4898 -0.2940
 6992SOL    HW232439   1.124   0.736  13.397  1.1621  3.6683 -0.4790
 6993SOL     OW32440   1.825   4.452   9.623  0.1425  0.2724 -0.8343
 6993SOL    HW132441   1.839   4.546   9.613  3.1714 -0.1923 -0.9174
 6993SOL    HW232442   1.755   4.447   9.558 -0.6250  0.5988 -0.0198
 6994SOL     OW32443   2.832   4.094   5.161 -0.4235  0.4782  0.5558
 6994SOL    HW132444   2.815   4.030   5.230 -0.4431  1.4431  1.4483
 6994SOL    HW232445   2.920   4.128   5.178 -0.5420  1.4493 -0.8008
 6995SOL     OW32446   0.697   4.228   8.614  0.2345 -0.1465 -0.2251
 6995SOL    HW132447   0.714   4.244   8.521 -2.7562  1.7121 -0.4723
 6995SOL    HW232448   0.785   4.208   8.646  0.4324  3.3021  1.4545
 6996SOL     OW32449   3.786   0.958   9.623  0.5652  0.5725  0.1491
 6996SOL    HW132450   3.833   0.886   9.664  0.9283 -0.3418 -1.8859
 6996SOL    HW232451   3.759   0.911   9.544 -1.9373 -1.3871  2.1671
 6997SOL     OW32452   0.318   3.703   6.747  0.0713  0.4051  0.1310
 6997SOL    HW132453   0.225   3.689   6.768 -0.6124  2.1518 -1.7294
 6997SOL    HW232454   0.337   3.626   6.693 -0.3579  0.5470 -0.2229
 6998SOL     OW32455   2.470   0.975   6.071 -0.0065 -0.0055 -0.0370
 6998SOL    HW132456   2.515   0.892   6.080 -1.0947 -0.6530 -0.6087
 6998SOL    HW232457   2.443   0.976   5.979  2.2169  0.1146 -0.6940
 6999SOL     OW32458   1.531   0.888   8.251 -0.5359 -0.1208 -0.1901
 6999SOL    HW132459   1.455   0.836   8.278 -0.4484 -1.0767 -1.7870
 6999SOL    HW232460   1.492   0.973   8.229 -1.5916 -0.9085 -1.4287
 7000SOL     OW32461   3.667   4.164   1.956  0.0309 -0.6220  0.2427
 7000SOL    HW132462   3.607   4.185   1.885 -2.2646  0.7663  2.5968
 7000SOL    HW232463   3.677   4.242   2.011  0.0392 -1.9208  2.0828
 7001SOL     OW32464   4.087   2.775   4.151 -0.0582  0.8335 -0.0279
 7001SOL    HW132465   4.131   2.699   4.191 -2.5765 -0.7856 -0.3374
 7001SOL    HW232466   4.023   2.729   4.096 -0.4209  2.2492 -0.7940
 7002SOL     OW32467   1.366   2.100   1.319  0.0415  0.1861 -0.5887
 7002SOL    HW132468   1.432   2.030   1.318  1.0709  1.1560 -1.0559
 7002SOL    HW232469   1.327   2.090   1.406 -0.2189 -0.7426 -0.8115
 7003SOL     OW32470   1.495   3.719   5.890 -0.9066 -0.1766  0.0474
 7003SOL    HW132471   1.564   3.658   5.865 -0.5617  1.1620 -2.2873
 7003SOL    HW232472   1.446   3.662   5.950 -1.3390 -0.7789 -0.8908
 7004SOL     OW32473   2.755   2.118   2.283  0.0870 -0.3504  0.6377
 7004SOL    HW132474   2.848   2.125   2.305 -0.3938  1.4158  2.0633
 7004SOL    HW232475   2.732   2.029   2.307 -1.7864  0.1468  0.7004
 7005SOL     OW32476   0.171   0.704   8.393  0.2508  0.4511  0.7649
 7005SOL    HW132477   0.231   0.675   8.325 -0.8723  0.7691 -0.3796
 7005SOL    HW232478   0.151   0.619   8.430 -0.0588  0.3156  0.2930
 7006SOL     OW32479   3.955   0.038   9.088  0.3013  0.0968  0.5279
 7006SOL    HW132480   3.898   4.692   9.053  1.1141  0.6282 -1.7996
 7006SOL    HW232481   4.018   0.049   9.017  0.8562  0.3788  1.0557
 7007SOL     OW32482   3.186   1.996   9.131  0.1554 -0.2805  0.6060
 7007SOL    HW132483   3.255   1.975   9.068 -0.1008  0.7639 -0.0179
 7007SOL    HW232484   3.121   1.932   9.101  0.5504 -0.3656 -0.0702
 7008SOL     OW32485   4.239   1.532   8.948 -0.0641  0.1876 -0.3033
 7008SOL    HW132486   4.176   1.554   8.880 -2.9275  0.0648  2.3193
 7008SOL    HW232487   4.261   1.442   8.923  3.3361  1.1411 -0.8329
 7009SOL     OW32488   0.499   2.103   4.865 -0.5096  0.5075 -0.0144
 7009SOL    HW132489   0.557   2.057   4.925 -0.6441  0.1572 -0.1475
 7009SOL    HW232490   0.549   2.094   4.784 -0.9283  2.3357 -0.4702
 7010SOL     OW32491   3.546   2.042  16.895 -0.1128  0.5699 -0.0067
 7010SOL    HW132492   3.619   2.079  16.943 -0.6429  1.2806  0.2482
 7010SOL    HW232493   3.603   1.982  16.846  0.5042  1.3125 -0.1891
 7011SOL     OW32494   2.940   3.252   3.297 -0.0958 -0.3718 -0.1937
 7011SOL    HW132495   2.954   3.281   3.387 -1.7201  1.3655 -0.5022
 7011SOL    HW232496   2.898   3.330   3.262 -1.4540 -1.0161  0.0119
 7012SOL     OW32497   0.432   3.721   3.581  0.0646  0.5866  0.4147
 7012SOL    HW132498   0.467   3.690   3.498  0.9380 -0.3482  1.1381
 7012SOL    HW232499   0.511   3.710   3.634  0.4030  0.8719 -0.0330
 7013SOL     OW32500   2.607   0.882   5.711  0.0988 -0.6202  0.3133
 7013SOL    HW132501   2.664   0.862   5.637 -1.3914 -0.3930 -0.8965
 7013SOL    HW232502   2.622   0.801   5.760  1.3120  0.8012  2.3213
 7014SOL     OW32503   4.221   0.798   0.290  0.1957 -0.5339  0.2886
 7014SOL    HW132504   4.162   0.724   0.304  0.5300 -0.8776 -0.1058
 7014SOL    HW232505   4.301   0.750   0.268  0.9434  0.3798  1.0477
 7015SOL     OW32506   2.311   2.353   5.748 -0.0401  0.3476  0.1478
 7015SOL    HW132507   2.255   2.409   5.694 -2.2093 -0.0989  1.9373
 7015SOL    HW232508   2.393   2.403   5.747  0.4599 -0.4826 -0.0477
 7016SOL     OW32509   0.217   3.032   5.258  0.3487 -0.0632  0.1529
 7016SOL    HW132510   0.257   3.016   5.344  1.4538  0.9543 -0.1750
 7016SOL    HW232511   0.158   2.958   5.268  1.2944 -1.1834 -2.3700
 7017SOL     OW32512   2.460   3.009   4.352 -0.0023  0.0106 -0.3286
 7017SOL    HW132513   2.438   3.102   4.341 -0.6544 -0.0648  0.3865
 7017SOL    HW232514   2.541   3.008   4.404 -0.2247  0.8337  0.0366
 7018SOL     OW32515   3.011   0.251   6.800  0.1258  0.2782 -0.1628
 7018SOL    HW132516   3.102   0.222   6.813 -0.0935 -0.7159 -0.8674
 7018SOL    HW232517   3.017   0.328   6.743 -1.1933  0.3630 -0.1900
 7019SOL     OW32518   4.584   0.163   6.881 -0.0524  0.3797  0.0094
 7019SOL    HW132519   4.556   0.103   6.951 -0.5267 -0.5201 -0.9549
 7019SOL    HW232520   4.533   0.137   6.804  0.4488  0.7791 -0.4557
 7020SOL     OW32521   2.046   1.354  10.211  0.5605 -0.0227 -0.1320
 7020SOL    HW132522   2.113   1.306  10.163  0.4038  2.5859 -2.9815
 7020SOL    HW232523   1.985   1.289  10.244  0.6301  1.1625  2.3892
 7021SOL     OW32524   3.916   1.625   7.252  0.1729 -0.2683 -0.1708
 7021SOL    HW132525   3.861   1.695   7.287  1.4066  0.8762 -0.5237
 7021SOL    HW232526   3.875   1.547   7.288  0.9763 -0.4158  0.4164
 7022SOL     OW32527   2.657   3.778   9.747  0.1683 -0.6172 -0.0790
 7022SOL    HW132528   2.598   3.704   9.761  0.8745 -0.8177  1.9445
 7022SOL    HW232529   2.607   3.858   9.730 -0.3161 -0.5020  1.8803
 7023SOL     OW32530   4.639   2.643  14.688 -0.1215 -0.3656 -0.1780
 7023SOL    HW132531   4.622   2.551  14.667  2.0744 -1.4613  2.9308
 7023SOL    HW232532   4.683   2.643  14.773 -0.2166 -0.3450 -0.1292
 7024SOL     OW32533   3.909   4.346   2.561 -0.6491  0.2593 -0.1707
 7024SOL    HW132534   4.005   4.341   2.563 -0.6048  1.1736 -0.0209
 7024SOL    HW232535   3.882   4.255   2.549  1.8062 -0.3039 -1.5216
 7025SOL     OW32536   4.618   0.290   3.002 -0.2335 -0.0217  0.1113
 7025SOL    HW132537   4.583   0.208   2.968 -1.8468  0.8366 -0.2984
 7025SOL    HW232538   4.670   0.270   3.080  1.6430  2.4033 -0.5202
 7026SOL     OW32539   3.442   3.805   1.243 -0.4600 -0.4992  0.2307
 7026SOL    HW132540   3.439   3.790   1.149 -0.3532  0.0530  0.1355
 7026SOL    HW232541   3.385   3.735   1.276 -1.9294  1.0765  1.0436
 7027SOL     OW32542   4.670   4.266   9.307 -0.6545  0.5117  0.2334
 7027SOL    HW132543   0.004   4.191   9.327 -0.4243  0.4129 -0.7656
 7027SOL    HW232544   4.582   4.228   9.307 -1.6032  2.7102 -1.1800
 7028SOL     OW32545   4.701   1.307   2.845  0.0963  0.0593  0.5139
 7028SOL    HW132546   4.610   1.308   2.874  0.1339  0.2364  0.6211
 7028SOL    HW232547   4.712   1.383   2.788 -0.5350  0.8088  1.3971
 7029SOL     OW32548   3.857   1.086   8.971 -0.6023  0.3127  0.0395
 7029SOL    HW132549   3.794   1.073   9.042  1.5695 -1.1762  1.7090
 7029SOL    HW232550   3.812   1.154   8.921  1.7368 -0.4463 -3.0731
 7030SOL     OW32551   0.933   4.523  17.337  0.5466 -0.3921 -0.5612
 7030SOL    HW132552   0.952   4.430  17.327 -2.0910 -0.8051 -1.5651
 7030SOL    HW232553   1.023   4.550  17.317 -0.1814  3.3950  1.1806
 7031SOL     OW32554   0.270   0.028  14.436  0.0686 -0.4329 -0.0866
 7031SOL    HW132555   0.251   0.029  14.529 -2.7933  1.0660 -0.7105
 7031SOL    HW232556   0.182   0.010  14.402 -0.9355 -0.5394  2.6243
 7032SOL     OW32557   2.610   2.788  10.449 -0.0624  0.5733 -0.0755
 7032SOL    HW132558   2.653   2.703  10.436 -1.2914  0.1495 -1.4068
 7032SOL    HW232559   2.623   2.805  10.542 -0.8591  0.9794 -0.0374
 7033SOL     OW32560   0.324   1.031   1.733 -1.0137 -0.2012 -0.0507
 7033SOL    HW132561   0.296   1.018   1.823 -0.3209  0.2151  0.2180
 7033SOL    HW232562   0.354   0.943   1.706 -1.4828  0.0037 -1.2791
 7034SOL     OW32563   3.725   3.925   7.394 -0.0826 -0.0088 -0.2873
 7034SOL    HW132564   3.755   4.008   7.358  0.7356 -0.1509  0.0542
 7034SOL    HW232565   3.675   3.944   7.474 -0.0945  0.1130 -0.3241
 7035SOL     OW32566   0.965   4.115  10.672 -0.1712 -0.8366 -0.4959
 7035SOL    HW132567   0.890   4.160  10.632 -0.7536 -0.7926  0.6480
 7035SOL    HW232568   0.959   4.138  10.765  0.0639  0.1669 -0.7240
 7036SOL     OW32569   2.638   1.457  16.434  0.2045  0.4479  0.2783
 7036SOL    HW132570   2.618   1.544  16.470 -0.2963  0.3949  0.1346
 7036SOL    HW232571   2.598   1.458  16.347  2.0082  0.4936 -0.5378
 7037SOL     OW32572   3.185   1.509  15.197  0.2921 -0.1054 -0.1199
 7037SOL    HW132573   3.096   1.488  15.169 -0.7589  1.9263  1.8208
 7037SOL    HW232574   3.188   1.604  15.193  2.4667 -0.1229  0.9957
 7038SOL     OW32575   0.336   0.363   2.423 -0.4686  0.3627  0.5356
 7038SOL    HW132576   0.400   0.309   2.470  0.4527  2.5440  1.7991
 7038SOL    HW232577   0.249   0.344   2.459  0.1483 -1.1077  1.2692
 7039SOL     OW32578   4.524   0.658   9.058  0.3402 -0.0627 -0.7569
 7039SOL    HW132579   4.453   0.721   9.069  2.0272  2.6035 -5.1393
 7039SOL    HW232580   4.583   0.699   8.995 -2.0565  1.3787 -2.0443
 7040SOL     OW32581   4.603   1.756   6.338  0.3382  0.1423  0.6835
 7040SOL    HW132582   4.621   1.667   6.308 -0.2715 -0.0748  0.9547
 7040SOL    HW232583   4.544   1.794   6.273  2.2207  0.1467 -1.0304
 7041SOL     OW32584   0.589   3.404   4.717  0.0700 -0.6693 -0.0052
 7041SOL    HW132585   0.585   3.454   4.799  0.1937 -0.9040  0.1415
 7041SOL    HW232586   0.583   3.315   4.752  2.6772 -1.3303 -1.2553
 7042SOL     OW32587   3.040   1.974  12.279 -0.2109  0.5383 -0.2700
 7042SOL    HW132588   3.062   2.032  12.206  2.2785 -0.6919 -0.5122
 7042SOL    HW232589   3.016   2.027  12.355 -0.1981  0.3256 -0.1140
 7043SOL     OW32590   2.758   4.001   2.005 -0.3358  0.0954 -0.2512
 7043SOL    HW132591   2.678   3.951   1.991 -0.3559  0.1882 -0.4639
 7043SOL    HW232592   2.735   4.081   1.957 -0.0014 -0.7480 -1.7922
 7044SOL     OW32593   1.811   4.696   4.275 -0.5766  0.0408  0.3142
 7044SOL    HW132594   1.726   0.012   4.251 -0.0244  0.3859 -1.0995
 7044SOL    HW232595   1.790   4.603   4.280  3.1264 -0.8466 -0.5296
 7045SOL     OW32596   4.559   0.572   1.339  0.3770  0.0770  0.5042
 7045SOL    HW132597   4.473   0.531   1.340 -0.6773  2.2520  0.1431
 7045SOL    HW232598   4.614   0.495   1.325 -0.1618 -0.2384  0.1212
 7046SOL     OW32599   2.311   3.529   5.381 -0.1579  0.0976 -0.3544
 7046SOL    HW132600   2.399   3.561   5.399 -0.0976 -1.2805  1.7757
 7046SOL    HW232601   2.289   3.474   5.456 -1.7114  1.4249  0.1599
 7047SOL     OW32602   1.064   2.442   7.765  0.3932 -0.2244  0.4271
 7047SOL    HW132603   0.990   2.387   7.792 -0.6240  0.9917  0.1510
 7047SOL    HW232604   1.066   2.424   7.671 -0.2111 -0.9377  0.5520
 7048SOL     OW32605   2.246   2.334   7.407 -0.1270 -0.1066  0.4403
 7048SOL    HW132606   2.177   2.344   7.473  1.0223  0.5257  1.5618
 7048SOL    HW232607   2.318   2.354   7.467 -0.6762  0.8479  0.7849
 7049SOL     OW32608   3.537   4.533   9.648  0.2623 -0.3008 -0.1599
 7049SOL    HW132609   3.612   4.570   9.602 -1.2313  0.9546 -1.6206
 7049SOL    HW232610   3.583   4.489   9.719 -0.8568  0.2286  0.9086
 7050SOL     OW32611   2.805   0.400   6.301  0.0078 -0.0644  1.0149
 7050SOL    HW132612   2.740   0.330   6.293  0.0851  0.1894 -2.0114
 7050SOL    HW232613   2.817   0.400   6.396  2.1886 -1.9925  0.7651
 7051SOL     OW32614   0.026   3.973   7.999  0.3763  0.0505 -0.6027
 7051SOL    HW132615   0.021   3.924   8.081  2.9304  1.7519  0.5465
 7051SOL    HW232616   0.099   3.933   7.952 -0.4275 -2.4154  0.2615
 7052SOL     OW32617   4.600   0.766   6.682 -0.3560 -0.4604 -0.0618
 7052SOL    HW132618   4.545   0.836   6.647  0.3482  1.1203  2.0126
 7052SOL    HW232619   4.532   0.701   6.666  1.6297 -2.0601 -1.9870
 7053SOL     OW32620   2.477   3.437  16.519 -0.2831  0.0604 -0.6858
 7053SOL    HW132621   2.499   3.462  16.609  1.0728  0.3131 -1.0934
 7053SOL    HW232622   2.503   3.345  16.520 -0.0904  0.1498  1.3952
 7054SOL     OW32623   1.071   4.627  13.203  0.1358  0.1766  0.0382
 7054SOL    HW132624   1.140   4.573  13.164  0.9519  1.8095 -0.8211
 7054SOL    HW232625   1.108   4.629  13.291 -0.7133 -1.3304  0.4242
 7055SOL     OW32626   4.191   1.350  16.285 -0.0476 -0.5672  0.2567
 7055SOL    HW132627   4.189   1.389  16.373  0.6146  0.8214 -0.3433
 7055SOL    HW232628   4.201   1.255  16.296  1.9186 -0.8137 -3.6886
 7056SOL     OW32629   1.405   2.419   2.142  0.3393  0.0462 -0.0938
 7056SOL    HW132630   1.367   2.487   2.086 -2.1276 -2.3358 -1.3385
 7056SOL    HW232631   1.388   2.351   2.077 -3.5123  3.7233 -2.9526
 7057SOL     OW32632   3.298   2.632   8.702  0.2013  0.1277  0.1233
 7057SOL    HW132633   3.322   2.680   8.781 -0.6245 -1.3171  1.2445
 7057SOL    HW232634   3.345   2.683   8.636  0.6031  2.5114  2.2451
 7058SOL     OW32635   2.018   1.425  14.983  0.3204 -0.4517 -0.1724
 7058SOL    HW132636   2.112   1.435  14.969  0.0646  0.2406 -1.3843
 7058SOL    HW232637   1.976   1.364  14.922  0.4653  1.5638 -2.2699
 7059SOL     OW32638   0.295   3.421   3.096 -0.2090 -0.0543 -0.0519
 7059SOL    HW132639   0.303   3.361   3.171 -0.5712  0.2093  0.2007
 7059SOL    HW232640   0.348   3.370   3.035 -1.3154 -0.7372 -0.4537
 7060SOL     OW32641   0.636   1.022  15.858  0.3475 -0.4769 -0.7482
 7060SOL    HW132642   0.623   1.117  15.865 -2.5001 -0.6991 -2.9531
 7060SOL    HW232643   0.617   1.003  15.950  0.8489  3.6867  0.2349
 7061SOL     OW32644   2.066   1.560   7.649  0.0582  0.0596  0.3118
 7061SOL    HW132645   1.990   1.582   7.595 -0.0583  2.5273  1.4619
 7061SOL    HW232646   2.063   1.465   7.645 -0.5890  0.0842  0.2518
 7062SOL     OW32647   3.236   1.550   3.278  0.1646  0.4783  0.4436
 7062SOL    HW132648   3.181   1.610   3.227 -0.2891  0.2978  0.7147
 7062SOL    HW232649   3.313   1.606   3.278  1.0415 -0.7245  1.2084
 7063SOL     OW32650   2.553   4.080   4.986 -0.1575  0.0746  0.2775
 7063SOL    HW132651   2.505   4.147   5.035  0.9581  2.2064 -1.5407
 7063SOL    HW232652   2.638   4.096   5.027 -1.3675  1.5779  2.2293
 7064SOL     OW32653   1.912   3.558   6.548 -0.3067 -0.4728  0.3422
 7064SOL    HW132654   1.839   3.500   6.568  0.2782 -1.4987 -0.4647
 7064SOL    HW232655   1.926   3.612   6.626  0.6924 -0.8564  0.4383
 7065SOL     OW32656   0.995   4.635   4.738  0.3772 -0.0814  0.4917
 7065SOL    HW132657   0.905   4.650   4.768  0.5982  1.1954  0.5433
 7065SOL    HW232658   0.993   4.684   4.655  0.1564 -0.5342  0.2319
 7066SOL     OW32659   3.080   3.838   3.366  0.4000  0.3647  0.1208
 7066SOL    HW132660   3.014   3.905   3.384 -0.3874  0.1128 -1.7701
 7066SOL    HW232661   3.157   3.894   3.375  1.0381 -0.9377  2.6347
 7067SOL     OW32662   3.206   0.194  16.660 -0.2448  0.1105 -0.2928
 7067SOL    HW132663   3.289   0.147  16.657 -0.6963 -0.5986 -2.3407
 7067SOL    HW232664   3.224   0.268  16.602 -0.1325  1.2621  1.2402
 7068SOL     OW32665   0.354   1.019  14.032  0.1661 -0.0021 -0.3334
 7068SOL    HW132666   0.330   1.101  14.075 -1.3116  0.4453 -2.0532
 7068SOL    HW232667   0.400   0.975  14.104  1.4826 -0.5827 -1.5263
 7069SOL     OW32668   2.025   4.523   7.618 -0.6270  0.1120 -0.0129
 7069SOL    HW132669   2.050   4.560   7.702  0.0441  0.8250 -0.5374
 7069SOL    HW232670   2.035   4.600   7.562 -2.6194 -0.2143 -0.8372
 7070SOL     OW32671   3.547   2.939   3.106  0.2283  1.0213  0.4010
 7070SOL    HW132672   3.517   3.028   3.090  0.4464  0.9996 -0.1181
 7070SOL    HW232673   3.488   2.910   3.175 -0.2852  2.0582  0.3926
 7071SOL     OW32674   1.756   3.593   3.922  0.0436  0.2142  0.5242
 7071SOL    HW132675   1.829   3.553   3.875 -1.0132 -0.1740 -0.7785
 7071SOL    HW232676   1.744   3.541   4.002 -0.1497  1.2109  1.1345
 7072SOL     OW32677   4.431   4.524   2.574 -0.0280 -0.2057  0.7412
 7072SOL    HW132678   4.393   4.595   2.522  0.4737 -0.7887 -0.4103
 7072SOL    HW232679   4.359   4.463   2.591  0.8162 -1.2854  0.4350
 7073SOL     OW32680   2.657   2.712   9.341 -0.1213 -0.0875  0.1739
 7073SOL    HW132681   2.674   2.736   9.432  1.1405 -1.2569  0.2512
 7073SOL    HW232682   2.729   2.655   9.316 -1.0785 -1.7809  1.2885
 7074SOL     OW32683   0.044   1.560   3.998 -0.1878 -0.1806 -0.4556
 7074SOL    HW132684   0.062   1.643   3.953 -1.6972 -0.2072 -1.1061
 7074SOL    HW232685   4.708   1.603   4.061 -0.6119  1.4045 -1.9118
 7075SOL     OW32686   2.488   0.173   6.047 -0.0940 -0.0026  0.1103
 7075SOL    HW132687   2.465   0.101   5.988 -0.5306 -0.1341  0.4391
 7075SOL    HW232688   2.536   0.238   5.996  1.3477 -0.3612  1.0125
 7076SOL     OW32689   1.648   3.108  15.095  0.1192  0.2921  0.1699
 7076SOL    HW132690   1.599   3.150  15.025 -0.0114 -0.3053 -0.1019
 7076SOL    HW232691   1.647   3.017  15.064 -1.2383 -0.1035  1.4222
 7077SOL     OW32692   4.448   2.976   3.958 -0.4540  0.2613 -0.0119
 7077SOL    HW132693   4.452   2.881   3.944  1.5298  0.2776  0.3746
 7077SOL    HW232694   4.453   3.002   3.866 -1.3851 -1.6988 -0.6300
 7078SOL     OW32695   2.127   2.669   6.611 -0.8270 -0.5572 -0.0002
 7078SOL    HW132696   2.038   2.700   6.626  0.2035  1.7199  1.3611
 7078SOL    HW232697   2.144   2.630   6.697 -3.4078 -2.0861 -0.1638
 7079SOL     OW32698   0.203   1.685   9.705  0.1918  0.4458 -0.3808
 7079SOL    HW132699   0.286   1.668   9.751  1.1721 -2.5714 -3.2627
 7079SOL    HW232700   0.194   1.595   9.675 -2.7757  0.6959 -0.1576
 7080SOL     OW32701   0.778   0.635   9.556 -0.4046 -0.4427 -0.4816
 7080SOL    HW132702   0.828   0.562   9.521  1.8373  0.0375  1.6715
 7080SOL    HW232703   0.770   0.689   9.477 -1.1889  0.4899  0.2384
 7081SOL     OW32704   2.184   3.827   7.790 -0.1705 -0.3689  0.2299
 7081SOL    HW132705   2.137   3.866   7.864 -3.6345  0.5973 -2.4876
 7081SOL    HW232706   2.101   3.819   7.742  0.3377 -0.0190 -0.6996
 7082SOL     OW32707   0.276   4.411   3.263  0.2466  0.1206  0.2577
 7082SOL    HW132708   0.218   4.488   3.262  1.1632  0.8042 -1.0238
 7082SOL    HW232709   0.224   4.350   3.315  0.4738 -0.4490 -0.1829
 7083SOL     OW32710   4.110   0.792   7.300 -0.4219 -0.4630 -0.0052
 7083SOL    HW132711   4.101   0.697   7.307 -2.5212 -0.1920  1.0196
 7083SOL    HW232712   4.017   0.814   7.308 -0.2341  0.0212  0.8141
 7084SOL     OW32713   2.078   3.657  11.801 -0.1807  0.0346 -0.4513
 7084SOL    HW132714   2.150   3.654  11.737  0.3607  0.8596  0.1166
 7084SOL    HW232715   2.130   3.671  11.880  1.8139 -0.3859 -1.6862
 7085SOL     OW32716   0.699   3.192   8.528 -0.2857 -0.4902  0.3628
 7085SOL    HW132717   0.731   3.263   8.585  0.6851 -1.8344  1.4949
 7085SOL    HW232718   0.754   3.210   8.451 -1.1293 -0.5723 -0.2508
 7086SOL     OW32719   3.974   4.452   3.139 -0.3645 -0.4843 -0.4803
 7086SOL    HW132720   4.013   4.429   3.223 -0.8321  3.3453  0.8217
 7086SOL    HW232721   3.886   4.416   3.146 -0.9700  1.0908  0.0869
 7087SOL     OW32722   2.528   1.551   4.306  0.2682 -0.2263  0.1118
 7087SOL    HW132723   2.485   1.484   4.252  0.7145 -0.8853  0.5753
 7087SOL    HW232724   2.502   1.627   4.255  2.1981  1.2769  1.4225
 7088SOL     OW32725   1.557   2.250  16.240  0.4792  0.1743  0.0533
 7088SOL    HW132726   1.639   2.275  16.198  1.4248  0.0463  1.8405
 7088SOL    HW232727   1.554   2.320  16.305  0.1345  1.0384 -0.8796
 7089SOL     OW32728   1.923   3.069  16.069 -0.3223 -0.0184  0.2658
 7089SOL    HW132729   1.984   3.141  16.084  0.0761 -0.4549  0.7980
 7089SOL    HW232730   1.895   3.079  15.978 -1.0661 -1.5061  0.3271
 7090SOL     OW32731   2.746   1.139   7.054  0.1609  0.1261 -0.0508
 7090SOL    HW132732   2.710   1.058   7.019  1.1040  0.2475 -1.2821
 7090SOL    HW232733   2.781   1.102   7.136  1.5783  1.4715 -0.0584
 7091SOL     OW32734   3.739   3.172   7.436  0.1919  0.5861 -0.0022
 7091SOL    HW132735   3.810   3.227   7.468  0.1670  0.4944  0.2110
 7091SOL    HW232736   3.669   3.220   7.480  0.2483  2.7450 -2.3118
 7092SOL     OW32737   2.553   3.385   1.833  0.0359  0.0090 -0.6381
 7092SOL    HW132738   2.555   3.399   1.738 -0.1617  1.8637 -0.3699
 7092SOL    HW232739   2.542   3.290   1.842  1.4414  0.0840  1.7623
 7093SOL     OW32740   0.005   2.790   9.265 -0.5004 -0.1325 -0.4301
 7093SOL    HW132741   0.039   2.780   9.176 -2.1483 -0.7594 -0.9727
 7093SOL    HW232742   0.085   2.811   9.314 -2.4246  0.2188  2.5391
 7094SOL     OW32743   0.471   3.601   0.068 -0.5821  0.3015 -0.6478
 7094SOL    HW132744   0.475   3.563  17.669 -1.0039 -2.0420  0.3438
 7094SOL    HW232745   0.549   3.559   0.102 -1.8819 -1.5198  0.1138
 7095SOL     OW32746   1.561   1.814   4.853  0.6480 -0.1524  0.2309
 7095SOL    HW132747   1.534   1.731   4.814  0.5707 -0.3695  0.7344
 7095SOL    HW232748   1.519   1.805   4.939 -1.2899  0.8768 -0.6114
 7096SOL     OW32749   0.697   4.546  11.441  0.6835 -0.7439 -0.3280
 7096SOL    HW132750   0.604   4.569  11.444  1.7530  3.6939 -0.2243
 7096SOL    HW232751   0.731   4.601  11.371  0.2394 -1.0168 -0.7603
 7097SOL     OW32752   2.581   3.358  16.775  0.8462  0.2328 -0.2770
 7097SOL    HW132753   2.548   3.303  16.704 -2.3060  0.8060  0.7717
 7097SOL    HW232754   2.580   3.298  16.850 -0.1831 -0.7411 -1.0853
 7098SOL     OW32755   3.482   0.901   4.894  0.9562  0.4683 -0.2002
 7098SOL    HW132756   3.520   0.845   4.961  0.7666  0.9090  0.2712
 7098SOL    HW232757   3.515   0.985   4.924 -0.4155  1.8905 -2.7005
 7099SOL     OW32758   2.746   3.120   9.412 -0.7314  0.5029  0.3166
 7099SOL    HW132759   2.714   3.138   9.323 -0.8669 -0.7964  0.0987
 7099SOL    HW232760   2.794   3.202   9.424 -2.2010  1.4399 -0.1356
 7100SOL     OW32761   4.513   4.418   8.454 -0.2661  0.5912 -0.6084
 7100SOL    HW132762   4.437   4.389   8.403  0.1998 -1.9737  0.1555
 7100SOL    HW232763   4.473   4.477   8.519 -0.0105 -0.9655  0.9511
 7101SOL     OW32764   4.151   0.030  14.541 -0.3196  0.3137 -0.0702
 7101SOL    HW132765   4.095   0.096  14.502  0.8112  0.9963 -0.5500
 7101SOL    HW232766   4.119   4.677  14.490 -2.3118  0.2456  1.2791
 7102SOL     OW32767   0.507   2.288   8.764 -0.4587 -0.3036  0.0450
 7102SOL    HW132768   0.530   2.381   8.765  1.4327 -0.7542 -2.1239
 7102SOL    HW232769   0.485   2.272   8.856  1.8986  2.0605  1.0226
 7103SOL     OW32770   4.296   3.278   7.437 -0.3753 -0.1572  0.0051
 7103SOL    HW132771   4.363   3.252   7.373 -0.1771 -1.2840  0.6784
 7103SOL    HW232772   4.335   3.356   7.476 -1.5702  0.1449  0.5925
 7104SOL     OW32773   3.918   0.566  14.578 -0.1288 -0.3765 -0.7987
 7104SOL    HW132774   3.927   0.611  14.493 -1.5323  1.4874  0.0351
 7104SOL    HW232775   3.960   0.630  14.635 -0.7434  0.7195 -1.5625
 7105SOL     OW32776   4.030   1.622   4.600  0.6711 -0.1168  0.3082
 7105SOL    HW132777   3.940   1.626   4.634  1.4865 -0.7809  2.5519
 7105SOL    HW232778   4.021   1.610   4.505 -0.0358  0.6679  0.2804
 7106SOL     OW32779   1.413   1.733   1.154 -0.0037 -0.7107  0.1880
 7106SOL    HW132780   1.468   1.715   1.231  0.6601  1.0522  0.1124
 7106SOL    HW232781   1.359   1.654   1.145 -0.1456 -0.5599 -0.2789
 7107SOL     OW32782   0.031   1.691   9.194  0.0391  0.3142 -0.1039
 7107SOL    HW132783   0.001   1.735   9.274 -1.2407 -1.6500  0.4904
 7107SOL    HW232784   4.720   1.602   9.206  0.4164  0.1862 -0.0256
 7108SOL     OW32785   2.261   2.154   2.896  0.1586 -0.1243 -0.3545
 7108SOL    HW132786   2.263   2.065   2.862 -2.6441 -0.3894  0.1812
 7108SOL    HW232787   2.341   2.159   2.948  0.9806 -0.0175 -1.6234
 7109SOL     OW32788   2.403   2.653   2.768 -0.6355 -0.5212 -0.0784
 7109SOL    HW132789   2.386   2.718   2.700  0.9338  0.5751  0.5862
 7109SOL    HW232790   2.348   2.708   2.825 -0.6231 -0.2328 -0.3447
 7110SOL     OW32791   1.525   4.449   2.498  0.2020 -0.3380  0.8151
 7110SOL    HW132792   1.613   4.412   2.504  0.4242 -0.1440 -1.2578
 7110SOL    HW232793   1.525   4.518   2.433  1.3574  0.7021  1.9206
 7111SOL     OW32794   3.992   1.828  15.582 -0.3065 -0.4540  0.1383
 7111SOL    HW132795   3.980   1.829  15.487  2.1543  1.8821 -0.1472
 7111SOL    HW232796   4.005   1.915  15.621  0.3706 -0.5114  0.0372
 7112SOL     OW32797   1.375   2.770   0.191 -0.4918  0.3961 -0.3276
 7112SOL    HW132798   1.355   2.847   0.137 -1.3864  1.6603  1.8328
 7112SOL    HW232799   1.286   2.736   0.199 -0.4359  0.1543 -0.6792
 7113SOL     OW32800   4.121   2.097  12.653 -0.2540  0.0678  0.0096
 7113SOL    HW132801   4.106   2.091  12.558  0.7215  0.0262 -0.1414
 7113SOL    HW232802   4.216   2.087  12.659  0.0209  1.4101 -2.2374
 7114SOL     OW32803   0.185   1.253   9.054 -0.3553  0.6180  0.6719
 7114SOL    HW132804   0.276   1.250   9.084 -0.3743 -2.5742  0.3398
 7114SOL    HW232805   0.150   1.322   9.110 -0.3916 -0.0170  1.4174
 7115SOL     OW32806   4.068   2.164  16.210  0.1762 -0.0407  0.4306
 7115SOL    HW132807   4.017   2.225  16.157 -0.9631 -0.7924  0.6703
 7115SOL    HW232808   4.066   2.093  16.145  0.2994 -0.1038  0.4958
 7116SOL     OW32809   2.171   2.614   0.646 -0.5635  0.3482  0.2619
 7116SOL    HW132810   2.153   2.561   0.569  0.5815  0.5371 -0.1371
 7116SOL    HW232811   2.257   2.652   0.628 -0.4050  0.3843  1.0662
 7117SOL     OW32812   3.068   2.043   0.418 -0.0387 -0.5695  0.3861
 7117SOL    HW132813   3.048   2.135   0.438 -0.5161 -1.1336  2.5063
 7117SOL    HW232814   2.983   2.001   0.425 -0.1493 -0.5382 -0.8278
 7118SOL     OW32815   3.460   1.098  11.666  0.1109 -0.0510 -0.4092
 7118SOL    HW132816   3.411   1.070  11.589  1.5226 -0.4705 -1.1501
 7118SOL    HW232817   3.388   1.105  11.729  0.0111 -1.8035 -0.3217
 7119SOL     OW32818   2.354   2.937   5.757 -0.2593 -0.3035  0.6582
 7119SOL    HW132819   2.347   2.861   5.815  0.8786  0.4961  1.8489
 7119SOL    HW232820   2.403   3.000   5.811  1.5065  0.1246 -1.4353
 7120SOL     OW32821   1.923   4.366   3.358 -0.3431  0.1563 -0.0939
 7120SOL    HW132822   1.960   4.418   3.287 -0.9754  0.7531  0.0114
 7120SOL    HW232823   1.916   4.283   3.311  0.8272 -0.5345  0.9578
 7121SOL     OW32824   1.818   0.360   3.048  0.3632  0.5457  0.2660
 7121SOL    HW132825   1.774   0.441   3.023  0.5652  0.9142  1.1365
 7121SOL    HW232826   1.900   0.362   2.999  0.3835 -0.0256  0.2794
 7122SOL     OW32827   0.601   0.951   0.767  0.1099 -0.1376 -0.4117
 7122SOL    HW132828   0.612   0.991   0.681 -0.5324  1.9880  0.5095
 7122SOL    HW232829   0.666   0.997   0.820  0.8447 -0.9987 -0.5565
 7123SOL     OW32830   2.251   1.657   6.774  0.5808  0.3233 -0.2933
 7123SOL    HW132831   2.277   1.665   6.865  1.4439 -0.9199 -0.4305
 7123SOL    HW232832   2.311   1.725   6.741 -0.9431  3.0541  2.5453
 7124SOL     OW32833   4.277   3.080   9.042  0.0404  0.4722  0.0768
 7124SOL    HW132834   4.275   3.165   9.086 -0.3304  1.0473 -1.0328
 7124SOL    HW232835   4.371   3.062   9.038  0.0534  0.3733  0.8893
 7125SOL     OW32836   3.252   0.355   7.562  0.2684 -0.3515  0.3543
 7125SOL    HW132837   3.330   0.410   7.555  0.5166 -0.3126  3.3670
 7125SOL    HW232838   3.289   0.297   7.630 -1.0696  0.9246  2.1854
 7126SOL     OW32839   0.481   1.858   8.225 -0.3007 -0.1462  0.2087
 7126SOL    HW132840   0.433   1.789   8.179 -0.3605 -0.3861  0.6341
 7126SOL    HW232841   0.407   1.903   8.266 -0.9622  0.1184 -1.2881
 7127SOL     OW32842   0.950   2.480  16.284  0.2376  0.0364 -0.2326
 7127SOL    HW132843   0.943   2.570  16.253  2.0412  0.5243  0.7323
 7127SOL    HW232844   0.875   2.479  16.343 -1.8300 -0.5505 -2.8632
 7128SOL     OW32845   3.951   3.750   4.809  0.0012 -0.2204 -0.6457
 7128SOL    HW132846   3.936   3.844   4.803 -0.0733 -0.1151  1.2381
 7128SOL    HW232847   4.023   3.735   4.748  0.1432  0.4025 -0.6286
 7129SOL     OW32848   3.004   2.362   1.768 -0.3867  0.1594 -0.2889
 7129SOL    HW132849   3.000   2.308   1.847 -1.4770  0.1117 -0.3830
 7129SOL    HW232850   2.911   2.376   1.753 -1.0113 -0.4934  2.8654
 7130SOL     OW32851   1.100   4.248   6.058 -0.2977  0.3778 -0.0403
 7130SOL    HW132852   1.019   4.300   6.064  0.5138  1.3755  2.2669
 7130SOL    HW232853   1.062   4.161   6.048 -0.7496  0.3382  1.9158
 7131SOL     OW32854   1.074   2.940   2.736  0.0966  0.5438 -0.0913
 7131SOL    HW132855   1.056   2.860   2.785  0.5565  0.5970  0.1644
 7131SOL    HW232856   1.076   2.897   2.650 -0.3093  0.3636 -0.0136
 7132SOL     OW32857   0.813   3.486   6.659 -0.2561  0.8114  0.1049
 7132SOL    HW132858   0.825   3.521   6.571  2.4471  0.2487  0.2492
 7132SOL    HW232859   0.887   3.428   6.673 -0.2074  0.9829  0.5581
 7133SOL     OW32860   0.042   4.099   7.682  0.5304  0.5218 -0.0625
 7133SOL    HW132861   0.071   4.014   7.648 -0.4288  1.2453 -2.6807
 7133SOL    HW232862   0.059   4.162   7.613  0.4171 -2.9822 -3.3277
 7134SOL     OW32863   1.452   3.902   6.662 -0.0960 -0.0663 -0.2070
 7134SOL    HW132864   1.381   3.941   6.713  1.2196  2.0356  0.0413
 7134SOL    HW232865   1.452   3.814   6.698  0.9724 -0.9824 -2.4640
 7135SOL     OW32866   3.594   3.553   7.808 -0.1164  0.1630  0.6842
 7135SOL    HW132867   3.631   3.465   7.818  2.1420  0.8058 -1.9017
 7135SOL    HW232868   3.647   3.593   7.739 -0.0932  1.0307  1.2026
 7136SOL     OW32869   4.630   3.897  11.062 -0.2577  0.2665 -0.1139
 7136SOL    HW132870   4.720   3.866  11.060 -0.1224  0.6996 -1.0934
 7136SOL    HW232871   4.629   3.972  11.001  1.7089  0.4941  0.1307
 7137SOL     OW32872   0.175   0.602  10.971 -0.2031 -0.0275  0.1463
 7137SOL    HW132873   0.119   0.671  10.934  1.4157  2.1261  1.7050
 7137SOL    HW232874   0.192   0.641  11.056 -2.0129 -0.4207  0.6754
 7138SOL     OW32875   1.546   1.944   1.073  0.7339  0.0143  0.4856
 7138SOL    HW132876   1.639   1.948   1.096  0.2306  3.0264  2.0871
 7138SOL    HW232877   1.509   1.862   1.106  2.9195 -1.4613 -0.7873
 7139SOL     OW32878   1.865   1.642  15.062 -0.0864  0.7568 -0.1810
 7139SOL    HW132879   1.892   1.580  14.995 -2.7412  1.7316 -2.1700
 7139SOL    HW232880   1.770   1.630  15.071  0.3308 -1.5871  1.0641
 7140SOL     OW32881   1.070   2.870   1.049  0.6781  0.2570 -0.6167
 7140SOL    HW132882   1.076   2.956   1.008  3.2007  0.6860  0.6513
 7140SOL    HW232883   0.976   2.853   1.053  0.1749  2.2651 -3.4900
 7141SOL     OW32884   0.950   1.699   5.870 -0.0598 -0.0805 -0.0370
 7141SOL    HW132885   0.906   1.763   5.814  1.5317 -0.1201 -1.3130
 7141SOL    HW232886   0.915   1.619   5.832  1.1189 -0.4989 -0.2280
 7142SOL     OW32887   0.764   2.113  12.677  0.3545  0.0397  0.0706
 7142SOL    HW132888   0.763   2.201  12.715 -0.0476 -0.6911  1.7124
 7142SOL    HW232889   0.710   2.063  12.737 -0.2317 -0.3650 -0.7922
 7143SOL     OW32890   3.952   0.748  15.729 -0.0358 -0.2462  0.2807
 7143SOL    HW132891   3.986   0.835  15.750  0.4977  0.3727 -3.2213
 7143SOL    HW232892   3.878   0.756  15.669 -0.4571  1.1811  0.9913
 7144SOL     OW32893   1.803   0.781  10.306  0.0700 -0.7161 -0.2451
 7144SOL    HW132894   1.827   0.693  10.336  1.2701  0.4373  2.1428
 7144SOL    HW232895   1.753   0.769  10.225 -0.1652  0.7237 -0.3199
 7145SOL     OW32896   0.848   2.686   3.230  0.0903  0.1084 -0.2493
 7145SOL    HW132897   0.760   2.654   3.209 -0.1740  2.5126 -2.7863
 7145SOL    HW232898   0.861   2.694   3.325 -1.0501  0.3800 -0.1123
 7146SOL     OW32899   1.020   4.560  11.431  0.3290 -0.2107 -0.3429
 7146SOL    HW132900   0.977   4.538  11.349  0.6799  0.6387 -0.7486
 7146SOL    HW232901   1.104   4.521  11.405 -0.3814 -2.9710  1.4227
 7147SOL     OW32902   4.612   1.498   9.835  0.1766 -0.7690 -0.2125
 7147SOL    HW132903   4.616   1.593   9.820  1.5359 -1.1593 -2.3604
 7147SOL    HW232904   4.603   1.488   9.930  0.8721  0.2357 -0.0420
 7148SOL     OW32905   0.780   1.024   2.094 -0.4686 -0.3076  0.0359
 7148SOL    HW132906   0.809   1.115   2.102 -0.6832 -0.1853 -0.5605
 7148SOL    HW232907   0.737   1.012   2.009 -1.3681  1.6701  0.2121
 7149SOL     OW32908   2.551   4.008   6.521 -0.5790 -0.0159  0.1176
 7149SOL    HW132909   2.583   4.009   6.431  1.3854 -2.0629  0.8040
 7149SOL    HW232910   2.550   4.103   6.535 -0.8247  0.0541 -0.3668
 7150SOL     OW32911   2.401   4.461   7.661 -0.2090  0.1307  0.1658
 7150SOL    HW132912   2.313   4.448   7.626 -0.1807 -2.7215  1.1681
 7150SOL    HW232913   2.376   4.500   7.745  0.4386 -0.9982  0.8784
 7151SOL     OW32914   3.343   1.741   2.203  0.2494 -0.1014  0.6225
 7151SOL    HW132915   3.332   1.826   2.160  2.2539  0.3496  0.9857
 7151SOL    HW232916   3.283   1.689   2.149 -0.6123  1.1272  0.3901
 7152SOL     OW32917   3.912   0.934  13.751 -0.5119 -1.3887 -0.6153
 7152SOL    HW132918   3.881   0.900  13.835 -0.3090 -0.0170  0.0247
 7152SOL    HW232919   3.837   0.922  13.693  0.3462  0.3377 -2.0590
 7153SOL     OW32920   4.245   3.505   7.246 -0.4212 -0.0610  0.7950
 7153SOL    HW132921   4.224   3.455   7.325  1.4418 -0.4499  1.0450
 7153SOL    HW232922   4.164   3.549   7.218  0.3211 -0.7619 -2.4647
 7154SOL     OW32923   2.055   1.841  14.047  0.1058 -0.0517 -0.7024
 7154SOL    HW132924   2.147   1.821  14.029 -0.1368 -1.2021 -0.6651
 7154SOL    HW232925   2.034   1.921  14.000  0.8078 -0.9488 -2.5617
 7155SOL     OW32926   1.388   0.331   2.695 -0.4352  0.2768 -0.4580
 7155SOL    HW132927   1.400   0.407   2.752 -0.7538 -1.2651  1.6426
 7155SOL    HW232928   1.302   0.345   2.654  0.3774  1.0971 -1.8821
 7156SOL     OW32929   2.163   3.779   2.968  0.2718 -0.3844  0.5347
 7156SOL    HW132930   2.164   3.873   2.983 -0.7006 -0.5363  1.5329
 7156SOL    HW232931   2.144   3.776   2.874 -1.4261  0.6015  0.8503
 7157SOL     OW32932   0.726   2.147   9.590  0.2006 -0.7353 -0.2489
 7157SOL    HW132933   0.704   2.173   9.680  0.0918 -1.0525 -0.1834
 7157SOL    HW232934   0.689   2.060   9.576 -3.8133  1.1626 -1.3035
 7158SOL     OW32935   0.448   3.372   5.014  0.0543 -0.2276  0.6246
 7158SOL    HW132936   0.360   3.394   4.985  0.0059 -2.8456 -1.2754
 7158SOL    HW232937   0.444   3.296   5.073  2.7560  2.5856  4.4197
 7159SOL     OW32938   0.989   3.399  12.925 -0.3614  0.2358 -0.1137
 7159SOL    HW132939   1.064   3.448  12.891  0.5579 -1.2958 -0.3163
 7159SOL    HW232940   1.012   3.312  12.891 -3.6356 -0.8417  0.4196
 7160SOL     OW32941   3.280   2.434   8.379  0.0467  0.3589 -0.5407
 7160SOL    HW132942   3.231   2.446   8.297 -0.0803  1.5630 -0.2997
 7160SOL    HW232943   3.211   2.442   8.445 -0.5658  1.4373 -1.2955
 7161SOL     OW32944   4.642   1.303   4.723 -0.3479  0.3456 -0.4529
 7161SOL    HW132945   4.553   1.326   4.748 -0.2097 -0.0553  0.4174
 7161SOL    HW232946   4.680   1.391   4.719 -1.8089  0.9745 -0.4406
 7162SOL     OW32947   3.585   0.967   6.269 -0.5075  0.3970 -0.6110
 7162SOL    HW132948   3.651   1.033   6.249 -0.6812  0.2503 -1.6798
 7162SOL    HW232949   3.508   1.003   6.225 -0.3812  0.1748 -1.0090
 7163SOL     OW32950   3.478   3.971  13.347  0.1135  0.3279 -0.0501
 7163SOL    HW132951   3.402   3.922  13.316  0.8510  0.0724 -1.4755
 7163SOL    HW232952   3.547   3.938  13.289 -1.6968 -1.9640 -0.8826
 7164SOL     OW32953   2.023   4.438   8.773 -0.0461  0.0879 -0.0160
 7164SOL    HW132954   1.943   4.385   8.779 -0.3325  0.4256 -0.8190
 7164SOL    HW232955   2.046   4.458   8.864  0.0414 -1.0108  0.2031
 7165SOL     OW32956   4.455   0.076   7.326 -0.0964  0.4747 -0.0934
 7165SOL    HW132957   4.413   0.123   7.398  0.1276  1.9875 -0.9365
 7165SOL    HW232958   4.422   4.712   7.352 -0.7863  1.0648  0.9580
 7166SOL     OW32959   1.963   1.305  15.526  0.9109  0.0491  0.3098
 7166SOL    HW132960   1.967   1.316  15.431 -0.9143  2.2124  0.4815
 7166SOL    HW232961   1.918   1.383  15.558  1.0021 -0.1512  0.9150
 7167SOL     OW32962   0.671   0.666   9.892  0.5189  0.3932  0.4181
 7167SOL    HW132963   0.618   0.652   9.814 -2.3789 -1.0011  2.6683
 7167SOL    HW232964   0.672   0.581   9.937  1.3248 -0.0826 -0.4788
 7168SOL     OW32965   1.464   2.574  14.306  0.2297 -0.2699  0.0915
 7168SOL    HW132966   1.425   2.656  14.336  4.5491  1.9449 -0.3590
 7168SOL    HW232967   1.542   2.608  14.263  1.5990 -1.1752  1.8642
 7169SOL     OW32968   0.610   1.517   5.272  0.2586  0.8539 -0.3241
 7169SOL    HW132969   0.657   1.562   5.342 -1.2380  0.7631  0.7455
 7169SOL    HW232970   0.523   1.557   5.274 -0.2295 -0.2157 -0.1560
 7170SOL     OW32971   0.182   3.025   4.582 -0.0840 -0.3619 -0.1943
 7170SOL    HW132972   0.153   3.050   4.494  1.8303  0.0818 -0.6843
 7170SOL    HW232973   0.277   3.035   4.573 -0.0487 -0.6673 -0.1660
 7171SOL     OW32974   4.165   2.206   5.373 -0.1352 -0.1388  0.1553
 7171SOL    HW132975   4.198   2.116   5.366 -1.7967 -0.7483  0.2638
 7171SOL    HW232976   4.078   2.182   5.342 -0.4846 -1.0565  1.8633
 7172SOL     OW32977   4.104   4.417   9.032  0.0661 -0.0451 -0.4237
 7172SOL    HW132978   4.110   4.322   9.044  0.7078  0.3629  2.5104
 7172SOL    HW232979   4.044   4.443   9.102  0.4260  0.7372 -0.4136
 7173SOL     OW32980   0.695   4.094  13.308  0.8428  0.1427  0.3945
 7173SOL    HW132981   0.640   4.016  13.305 -0.2590  0.8184  3.1005
 7173SOL    HW232982   0.700   4.097  13.403  0.0238  0.4095  0.4300
 7174SOL     OW32983   2.957   1.107  14.764 -0.6448 -0.0028  0.0748
 7174SOL    HW132984   2.900   1.156  14.824  0.3689 -2.0844  2.7511
 7174SOL    HW232985   2.997   1.178  14.715  0.5312 -1.5686 -1.2042
 7175SOL     OW32986   3.164   0.607   2.445  0.2249 -0.4892  0.0292
 7175SOL    HW132987   3.256   0.581   2.447  0.3421  0.0644  2.0764
 7175SOL    HW232988   3.125   0.519   2.441 -0.7376 -0.0571 -0.0990
 7176SOL     OW32989   3.940   3.218  16.545  0.0446 -0.2860 -0.5920
 7176SOL    HW132990   4.004   3.276  16.504 -1.0109  2.3985  1.5462
 7176SOL    HW232991   3.871   3.224  16.479 -1.3156  3.5178  1.1392
 7177SOL     OW32992   3.727   1.348  11.512 -0.4455  0.2107 -0.4893
 7177SOL    HW132993   3.812   1.322  11.548 -1.3079 -2.7203 -0.5855
 7177SOL    HW232994   3.747   1.421  11.454  2.2585 -0.9599 -1.0106
 7178SOL     OW32995   3.228   2.826  16.642 -0.1175  0.1369  0.0289
 7178SOL    HW132996   3.252   2.800  16.731 -1.3666 -0.0821  0.3015
 7178SOL    HW232997   3.193   2.742  16.611  2.0538 -0.0051 -2.0447
 7179SOL     OW32998   2.906   0.039   5.631 -0.7361 -0.1268 -0.1472
 7179SOL    HW132999   2.964   0.027   5.706 -0.8537 -1.2489 -0.2401
 7179SOL    HW233000   2.963   0.102   5.588 -2.2275  3.1234  2.6474
 7180SOL     OW33001   4.060   1.467   7.545  0.0550  0.1769 -0.3181
 7180SOL    HW133002   4.096   1.476   7.634  1.0356  1.8927 -0.8932
 7180SOL    HW233003   4.116   1.393   7.520  0.7020 -0.5285  3.1511
 7181SOL     OW33004   4.504   1.019   4.801 -0.3897  1.2866  0.3220
 7181SOL    HW133005   4.581   1.034   4.745  0.3303 -1.0201  0.6759
 7181SOL    HW233006   4.435   1.001   4.738  0.3947 -0.4146 -0.0502
 7182SOL     OW33007   3.276   2.305   5.562  0.7041 -1.0159  0.2944
 7182SOL    HW133008   3.233   2.328   5.479 -1.7922  0.4142  1.9791
 7182SOL    HW233009   3.203   2.266   5.610  1.0239 -1.1569  0.6645
 7183SOL     OW33010   3.996   2.727   7.443  0.0546 -0.3229 -0.7886
 7183SOL    HW133011   3.918   2.760   7.489 -0.3199 -0.1094 -1.5699
 7183SOL    HW233012   4.042   2.807   7.418 -0.3549  0.3790  0.7342
 7184SOL     OW33013   3.041   1.730   1.401 -0.3624 -0.2499  0.5926
 7184SOL    HW133014   3.037   1.812   1.448  0.6935  1.4982 -2.3532
 7184SOL    HW233015   3.054   1.672   1.476  0.7242 -0.1682  0.4677
 7185SOL     OW33016   0.661   1.898  11.589  0.2230  0.0073 -0.0334
 7185SOL    HW133017   0.699   1.828  11.643 -1.6715  0.7553  2.2669
 7185SOL    HW233018   0.690   1.974  11.639  0.7263  1.7221 -2.9327
 7186SOL     OW33019   1.856   1.715  11.316  0.1414 -0.4357 -0.1327
 7186SOL    HW133020   1.919   1.754  11.377 -0.8583 -2.8595  2.4044
 7186SOL    HW233021   1.862   1.626  11.350 -1.9418  0.1052  1.6161
 7187SOL     OW33022   4.383   0.868   9.194 -0.3857  0.2404 -0.1432
 7187SOL    HW133023   4.306   0.875   9.139  1.5273  2.1693 -2.5452
 7187SOL    HW233024   4.354   0.919   9.269 -4.2499 -2.5173  0.2182
 7188SOL     OW33025   2.583   2.504   7.039 -0.6708  0.8780  0.3177
 7188SOL    HW133026   2.563   2.478   7.129  2.1570  1.3804  1.1118
 7188SOL    HW233027   2.674   2.533   7.044  0.5163 -2.1507 -2.9750
 7189SOL     OW33028   2.100   1.372   7.005  0.2036  0.0696 -0.2449
 7189SOL    HW133029   2.112   1.419   7.087  1.2746 -2.4915  1.0626
 7189SOL    HW233030   2.178   1.415   6.968  0.0617  1.7438  1.4097
 7190SOL     OW33031   3.693   1.720  13.306  0.4151  0.4459  0.2204
 7190SOL    HW133032   3.598   1.703  13.304  0.6054 -0.3831 -1.4905
 7190SOL    HW233033   3.685   1.789  13.371 -0.6471  0.0586  0.5069
 7191SOL     OW33034   2.334   0.380   1.544 -0.3436 -0.2661 -0.3766
 7191SOL    HW133035   2.244   0.349   1.530 -0.6674  1.7410 -2.7883
 7191SOL    HW233036   2.320   0.474   1.527  3.0471  0.1036 -1.0486
 7192SOL     OW33037   0.133   3.442   6.483 -0.0242 -0.0403  0.3317
 7192SOL    HW133038   0.207   3.447   6.543 -1.1852  1.2841  1.6493
 7192SOL    HW233039   0.145   3.526   6.439  2.5144 -0.0974  0.9028
 7193SOL     OW33040   0.718   2.467   7.634  1.0116  0.7854 -0.2175
 7193SOL    HW133041   0.702   2.549   7.587 -1.1146  0.2687 -0.3880
 7193SOL    HW233042   0.769   2.412   7.575 -1.7139 -2.8188  0.7979
 7194SOL     OW33043   2.833   0.162   1.900 -0.1465  0.4258 -0.0421
 7194SOL    HW133044   2.913   0.161   1.846 -0.0700 -0.3133  0.0893
 7194SOL    HW233045   2.832   0.257   1.912  0.5208  0.4038  0.2253
 7195SOL     OW33046   2.450   3.639  10.127 -0.2177 -0.2643 -0.6450
 7195SOL    HW133047   2.490   3.553  10.127 -0.1028 -0.2071  0.0791
 7195SOL    HW233048   2.507   3.705  10.168  1.0681 -2.0796  0.4626
 7196SOL     OW33049   0.569   0.780   2.938 -0.0832  0.4701 -0.1807
 7196SOL    HW133050   0.487   0.820   2.964 -1.4365  0.1051 -3.8872
 7196SOL    HW233051   0.602   0.857   2.892 -0.8767  0.6539 -0.4388
 7197SOL     OW33052   1.261   4.377   2.534 -0.5876 -0.4296 -0.3375
 7197SOL    HW133053   1.286   4.288   2.558  1.4977  0.3953  0.5861
 7197SOL    HW233054   1.346   4.397   2.496 -1.2078 -1.2119 -2.1346
 7198SOL     OW33055   3.644   4.648   7.905  0.8934  0.5352  0.1481
 7198SOL    HW133056   3.566   4.647   7.961  0.3827  0.4752 -0.5713
 7198SOL    HW233057   3.601   4.672   7.823 -0.0379  2.9537  1.3211
 7199SOL     OW33058   2.417   3.078   6.810  0.0186 -0.0159 -0.3329
 7199SOL    HW133059   2.500   3.037   6.836 -1.4022 -2.2396  0.6904
 7199SOL    HW233060   2.434   3.171   6.825 -0.0812  0.3276 -2.2944
 7200SOL     OW33061   1.799   0.105   8.727  0.1611  0.5238  0.3430
 7200SOL    HW133062   1.881   0.150   8.706  0.6398  1.3120  3.8246
 7200SOL    HW233063   1.747   0.176   8.765 -1.2618 -0.2507 -0.1967
 7201SOL     OW33064   3.114   3.216   9.375 -0.1756 -0.1213  0.4294
 7201SOL    HW133065   3.112   3.237   9.469 -1.5612 -0.3426  0.4551
 7201SOL    HW233066   3.120   3.303   9.336 -1.9290  1.1576  2.9452
 7202SOL     OW33067   0.072   4.074  13.916  0.5977 -0.0661  0.1389
 7202SOL    HW133068   0.134   4.088  13.987  1.3189  2.9090 -1.0750
 7202SOL    HW233069   0.116   4.010  13.859 -0.0742 -1.7017  1.4482
 7203SOL     OW33070   3.631   1.425  14.936  0.0763 -0.3167  0.1964
 7203SOL    HW133071   3.571   1.438  15.009  0.2115 -0.8724  0.4075
 7203SOL    HW233072   3.704   1.477  14.970 -0.0328  1.3128 -2.0436
 7204SOL     OW33073   1.772   3.159   3.207  0.3380 -0.1297 -0.3288
 7204SOL    HW133074   1.770   3.079   3.258 -3.0331  1.1226  1.4903
 7204SOL    HW233075   1.811   3.129   3.125  2.5994  0.7475  0.4235
 7205SOL     OW33076   2.621   3.972   3.520  0.2116 -0.0413 -0.1391
 7205SOL    HW133077   2.546   4.020   3.554 -0.1725 -1.9562  1.7189
 7205SOL    HW233078   2.685   4.043   3.519  0.9185 -0.6954 -3.1986
 7206SOL     OW33079   1.377   0.041  14.566  0.0770  0.4670 -0.0472
 7206SOL    HW133080   1.467   0.065  14.542 -0.0069  0.8009 -0.0250
 7206SOL    HW233081   1.375   0.090  14.648  1.0956  0.5038 -0.0481
 7207SOL     OW33082   2.621   0.189   5.502  0.3222  0.2639  0.1113
 7207SOL    HW133083   2.560   0.261   5.520 -0.6073 -0.3500 -0.6218
 7207SOL    HW233084   2.611   0.163   5.411 -2.0501 -0.6948  0.6346
 7208SOL     OW33085   2.969   0.632   8.601 -1.0599 -0.3733  0.0660
 7208SOL    HW133086   2.894   0.594   8.556 -1.0620 -0.0864 -0.1719
 7208SOL    HW233087   2.955   0.592   8.687 -1.3439  1.4386  0.8662
 7209SOL     OW33088   3.355   2.199   8.941  0.3687 -0.1883 -0.7007
 7209SOL    HW133089   3.287   2.263   8.922 -0.9354 -1.6073 -0.8307
 7209SOL    HW233090   3.403   2.253   9.004 -0.4907  0.1380 -0.3379
 7210SOL     OW33091   2.049   2.951   0.831 -0.1679 -0.2860 -0.0678
 7210SOL    HW133092   2.072   2.946   0.738  0.2594 -1.6253  0.1128
 7210SOL    HW233093   1.955   2.971   0.830 -0.2644 -0.7643 -0.5316
 7211SOL     OW33094   3.910   2.439   4.597 -0.0708  0.0580  0.2525
 7211SOL    HW133095   3.819   2.468   4.595  0.0372  0.2827 -0.9309
 7211SOL    HW233096   3.912   2.367   4.534 -3.5746  0.6757 -0.5235
 7212SOL     OW33097   2.601   1.294  10.189 -0.3524 -0.4291 -0.2719
 7212SOL    HW133098   2.537   1.224  10.201  0.4033 -1.2342 -0.9054
 7212SOL    HW233099   2.568   1.353  10.257 -1.5342  0.5680 -1.7028
 7213SOL     OW33100   2.655   3.965  17.047 -0.0733 -0.2504 -0.2460
 7213SOL    HW133101   2.681   3.883  17.005 -1.8920 -2.1672  2.3531
 7213SOL    HW233102   2.597   3.999  16.979 -0.4768 -0.0072  0.2150
 7214SOL     OW33103   2.373   0.056   4.498  0.0952  0.3503  0.3246
 7214SOL    HW133104   2.402   0.143   4.528 -0.2218  0.1677  1.1697
 7214SOL    HW233105   2.342   0.014   4.578 -0.7544 -0.7290 -0.5807
 7215SOL     OW33106   1.200   4.460   4.071  0.2599 -0.7234  0.0159
 7215SOL    HW133107   1.200   4.413   4.154  4.3050 -1.0437 -0.1358
 7215SOL    HW233108   1.203   4.552   4.096  0.8748 -0.2165 -1.9063
 7216SOL     OW33109   1.426   3.731   8.758  0.0578 -0.3705  0.0955
 7216SOL    HW133110   1.401   3.698   8.844 -0.1880 -2.4796 -0.7846
 7216SOL    HW233111   1.398   3.662   8.698  0.0419  0.4546 -0.8544
 7217SOL     OW33112   1.588   1.669   3.752 -0.8136 -0.5692  0.3221
 7217SOL    HW133113   1.615   1.658   3.844 -1.7213  0.8428  0.7618
 7217SOL    HW233114   1.525   1.598   3.741 -0.5644 -0.5185 -1.4019
 7218SOL     OW33115   4.573   0.687   0.518  0.4215 -0.0848  0.5365
 7218SOL    HW133116   4.633   0.742   0.467 -2.5462  0.1897 -2.7060
 7218SOL    HW233117   4.542   0.752   0.580  1.0030  0.7098 -0.0152
 7219SOL     OW33118   4.270   2.827   6.997  0.0577 -0.2473 -0.1128
 7219SOL    HW133119   4.177   2.814   6.977  0.5275  0.0891 -2.6242
 7219SOL    HW233120   4.315   2.795   6.918  1.8456 -0.9759  1.2033
 7220SOL     OW33121   3.758   1.833   5.089  0.0913 -0.1434 -0.2998
 7220SOL    HW133122   3.762   1.918   5.046  0.4705 -0.1014 -0.1875
 7220SOL    HW233123   3.829   1.848   5.153  0.1094  0.7308 -0.5181
 7221SOL     OW33124   3.435   2.904   7.774  0.0424 -0.3701 -0.1417
 7221SOL    HW133125   3.406   2.974   7.716 -1.7612 -2.6966 -2.0459
 7221SOL    HW233126   3.392   2.938   7.852  1.0460  1.0940 -0.2301
 7222SOL     OW33127   3.075   2.936   5.771  0.1988  0.0955  0.3890
 7222SOL    HW133128   3.008   2.876   5.805  2.7147 -2.1690  1.3887
 7222SOL    HW233129   3.126   2.869   5.726  0.5035  1.2052 -0.9032
 7223SOL     OW33130   2.786   3.475   7.255 -0.1424  0.2717  0.0115
 7223SOL    HW133131   2.814   3.546   7.313  0.2706  0.8039 -0.8315
 7223SOL    HW233132   2.735   3.415   7.309 -0.6987  0.6455 -0.0994
 7224SOL     OW33133   3.056   2.206   9.197  0.4512  0.4865  0.1727
 7224SOL    HW133134   3.131   2.266   9.197  2.0664 -1.5286 -1.3968
 7224SOL    HW233135   3.099   2.131   9.156 -0.6537  1.4498 -2.7460
 7225SOL     OW33136   0.791   3.830   8.273 -0.2887  0.2416  0.5215
 7225SOL    HW133137   0.735   3.795   8.342 -2.3721  0.5478 -1.0303
 7225SOL    HW233138   0.877   3.812   8.310  0.8323  2.5349 -0.9177
 7226SOL     OW33139   1.129   0.358   3.811 -0.2169 -0.5828  0.5584
 7226SOL    HW133140   1.188   0.433   3.825  1.8606 -2.3924  1.4547
 7226SOL    HW233141   1.170   0.327   3.730 -0.1609  1.5655 -0.2505
 7227SOL     OW33142   1.902   0.173   7.095  0.4899  0.4753 -0.8375
 7227SOL    HW133143   1.827   0.231   7.105 -0.8245 -0.9480 -2.3137
 7227SOL    HW233144   1.866   0.091   7.059 -0.9140  1.2266 -1.1364
 7228SOL     OW33145   0.391   4.565   2.740  0.4018 -0.5243 -0.0778
 7228SOL    HW133146   0.427   4.485   2.778  1.7087  0.7633  1.3959
 7228SOL    HW233147   0.377   4.607   2.825  1.6296 -2.2656  0.9974
 7229SOL     OW33148   0.583   0.121   3.438 -0.2719  0.6031 -0.3111
 7229SOL    HW133149   0.666   0.168   3.442  0.2192 -0.5642  3.1699
 7229SOL    HW233150   0.540   0.138   3.522  0.4607  1.1304 -0.0463
 7230SOL     OW33151   1.226   0.903  11.007  0.5664  0.1210 -0.0320
 7230SOL    HW133152   1.169   0.911  10.931 -0.1250  0.8731  0.5653
 7230SOL    HW233153   1.281   0.827  10.988 -0.1315 -0.7989  1.5984
 7231SOL     OW33154   0.244   2.370   2.325 -0.6111 -0.8087 -0.1853
 7231SOL    HW133155   0.296   2.409   2.255 -3.0360  2.4108 -0.2170
 7231SOL    HW233156   0.214   2.286   2.288  0.5233 -1.1637 -0.2812
 7232SOL     OW33157   1.457   3.005   3.512  0.4161  0.2238  0.1502
 7232SOL    HW133158   1.414   3.062   3.448  0.5869  2.9497  2.4804
 7232SOL    HW233159   1.395   2.934   3.525  2.2366 -1.3262  0.4195
 7233SOL     OW33160   3.511   4.239   9.207 -0.1747  0.7048  0.0665
 7233SOL    HW133161   3.529   4.331   9.226  1.5575  0.3952 -0.0535
 7233SOL    HW233162   3.418   4.241   9.230 -0.0754  1.1451  0.4277
 7234SOL     OW33163   3.232   0.829  14.408  0.1273 -0.5606  0.2664
 7234SOL    HW133164   3.275   0.811  14.491 -0.7392  0.3469  0.9228
 7234SOL    HW233165   3.287   0.783  14.345 -1.8447  0.8566 -2.5148
 7235SOL     OW33166   3.169   1.005   6.760 -0.6164 -0.0577 -0.1445
 7235SOL    HW133167   3.114   1.049   6.825  0.3786  1.5521 -0.3984
 7235SOL    HW233168   3.150   0.915   6.787  2.6451 -0.9635 -0.8911
 7236SOL     OW33169   4.074   4.355   6.765  0.1786  0.8456  0.7414
 7236SOL    HW133170   4.132   4.426   6.740  1.1515  0.2207  1.2486
 7236SOL    HW233171   4.087   4.351   6.859 -0.1534 -1.6303  0.6893
 7237SOL     OW33172   3.408   1.992   1.182  0.2262 -0.0913  0.1386
 7237SOL    HW133173   3.393   1.898   1.170  1.3978 -0.2935  0.2086
 7237SOL    HW233174   3.316   2.017   1.183  0.4348  0.6842 -1.2091
 7238SOL     OW33175   0.630   1.648   3.175 -0.1887 -0.0366  0.6492
 7238SOL    HW133176   0.660   1.739   3.174  1.2497 -0.5305 -0.9532
 7238SOL    HW233177   0.536   1.660   3.161 -0.4729 -1.5399  1.2157
 7239SOL     OW33178   3.066   2.176  13.995 -0.6394  0.2410 -0.6210
 7239SOL    HW133179   3.135   2.231  14.032 -0.8338  0.3159 -0.3749
 7239SOL    HW233180   2.985   2.202  14.039  1.5907  2.1064  2.3267
 7240SOL     OW33181   0.622   3.263   1.236 -0.2497 -0.0930  0.0372
 7240SOL    HW133182   0.562   3.262   1.310  0.7153 -2.0997  0.8009
 7240SOL    HW233183   0.620   3.168   1.220 -0.5842 -0.3270  1.4924
 7241SOL     OW33184   4.174   2.043   4.146  0.0272  0.0128  0.2516
 7241SOL    HW133185   4.082   2.018   4.150  0.6893 -2.3523  0.5441
 7241SOL    HW233186   4.215   1.965   4.108 -0.2030  0.3617 -0.7117
 7242SOL     OW33187   1.250   1.154  12.182  0.4859 -0.3649  0.6393
 7242SOL    HW133188   1.288   1.240  12.165  0.6670 -0.4579  0.5718
 7242SOL    HW233189   1.242   1.154  12.278 -0.0012 -0.4487  0.5983
 7243SOL     OW33190   0.640   2.544   3.097 -0.0422  0.0455 -0.0499
 7243SOL    HW133191   0.625   2.606   3.026 -0.7298 -2.0193 -1.7011
 7243SOL    HW233192   0.722   2.500   3.075  0.2286  0.4256  0.1952
 7244SOL     OW33193   3.039   3.012   4.324 -0.1274  0.2684 -0.1777
 7244SOL    HW133194   3.002   2.942   4.270  0.8768  0.4822 -1.1330
 7244SOL    HW233195   3.008   3.085   4.271 -0.6704 -0.8278 -1.3846
 7245SOL     OW33196   1.655   2.428   1.650 -0.6787 -0.2059 -0.2072
 7245SOL    HW133197   1.598   2.476   1.710  2.8366  1.9920  1.3633
 7245SOL    HW233198   1.678   2.493   1.583  0.5681 -0.4694 -0.0407
 7246SOL     OW33199   4.718   2.870   5.300 -0.5403  0.4981 -0.0777
 7246SOL    HW133200   4.695   2.889   5.391 -1.5885  1.2413 -0.5009
 7246SOL    HW233201   4.670   2.938   5.252 -0.5944 -0.3785 -1.2786
 7247SOL     OW33202   2.824   2.221   9.015 -0.3625 -0.3670  1.0248
 7247SOL    HW133203   2.884   2.200   9.086  1.3309  2.7346  0.4989
 7247SOL    HW233204   2.833   2.144   8.958  2.3242  0.5247  0.2254
 7248SOL     OW33205   1.587   4.464  13.190  0.3454 -0.1441 -0.7967
 7248SOL    HW133206   1.545   4.498  13.269  0.8783  0.4626 -0.7730
 7248SOL    HW233207   1.632   4.385  13.219  1.3033  0.3365 -0.9814
 7249SOL     OW33208   0.234   4.329   8.115  0.0117 -0.4241 -0.0095
 7249SOL    HW133209   0.199   4.306   8.029  1.3776 -0.5772 -0.5350
 7249SOL    HW233210   0.156   4.338   8.170  0.5432  1.3474  0.4541
 7250SOL     OW33211   4.009   0.365   3.786  0.1914  0.0636 -0.1761
 7250SOL    HW133212   3.993   0.339   3.695 -1.2624 -0.1575  0.1487
 7250SOL    HW233213   4.065   0.298   3.824 -0.6603 -1.0274 -0.8481
 7251SOL     OW33214   1.131   4.345  13.018  0.0949 -0.1918 -0.1436
 7251SOL    HW133215   1.216   4.371  13.053 -0.7178  0.1943  1.5124
 7251SOL    HW233216   1.132   4.369  12.925  0.7602  2.1619  0.4727
 7252SOL     OW33217   1.764   3.988  11.574  0.1187  0.2418  0.4193
 7252SOL    HW133218   1.805   3.901  11.579  0.6804  0.3255 -2.7344
 7252SOL    HW233219   1.712   3.972  11.495 -0.7263 -0.1224  1.0425
 7253SOL     OW33220   3.684   1.270   8.796 -0.4822  0.7161 -0.4208
 7253SOL    HW133221   3.642   1.345   8.754  0.5360  1.2472 -0.5145
 7253SOL    HW233222   3.701   1.212   8.722 -1.0977 -0.4606  0.3637
 7254SOL     OW33223   1.060   2.710   2.872  0.0036 -0.0288  0.5241
 7254SOL    HW133224   1.027   2.637   2.820 -0.6628 -0.5930  1.7364
 7254SOL    HW233225   1.124   2.657   2.921  0.1043 -0.4401 -0.0533
 7255SOL     OW33226   4.545   0.047  10.825  0.0946  0.3562 -0.4262
 7255SOL    HW133227   4.586   0.125  10.787 -1.0729  1.9971  1.6934
 7255SOL    HW233228   4.555   4.701  10.759  2.1141  0.4129 -0.1663
 7256SOL     OW33229   0.490   0.296   8.972 -0.4151  0.3910 -0.4667
 7256SOL    HW133230   0.539   0.378   8.961  1.3574 -0.4764  1.1017
 7256SOL    HW233231   0.412   0.324   9.021 -0.2674  0.4544 -0.2646
 7257SOL     OW33232   1.461   3.249  16.140  0.1751 -0.4879 -0.1016
 7257SOL    HW133233   1.452   3.315  16.209  1.4961  1.7009 -2.0459
 7257SOL    HW233234   1.456   3.307  16.064  0.4773 -1.0072 -0.5182
 7258SOL     OW33235   0.049   3.596   6.875  0.3444 -0.0515 -0.1595
 7258SOL    HW133236   0.042   3.528   6.808 -3.2170  0.2998 -0.1219
 7258SOL    HW233237   4.681   3.628   6.883  1.1831  1.8642  1.4891
 7259SOL     OW33238   1.659   1.921  17.333  0.1273  0.2951  0.2086
 7259SOL    HW133239   1.566   1.933  17.312  0.2189 -1.8530 -1.3956
 7259SOL    HW233240   1.671   1.851  17.269  1.9757  1.2347 -0.4492
 7260SOL     OW33241   4.400   2.927   4.838  0.6265  0.1496  0.4370
 7260SOL    HW133242   4.385   2.834   4.854 -0.8450  0.3806  0.4459
 7260SOL    HW233243   4.491   2.927   4.868  0.6835  0.3834  0.2597
 7261SOL     OW33244   2.714   3.183   9.145  0.4281  0.0126 -0.5533
 7261SOL    HW133245   2.808   3.173   9.135  0.5607  1.5251 -0.7658
 7261SOL    HW233246   2.696   3.255   9.084  0.7383 -0.0645 -0.7345
 7262SOL     OW33247   3.409   1.202   4.229  0.0755  0.1821  0.0377
 7262SOL    HW133248   3.401   1.289   4.267 -2.0915 -0.9468  2.2377
 7262SOL    HW233249   3.409   1.153   4.312  2.1568 -1.2335 -0.8045
 7263SOL     OW33250   3.190   1.322   8.543  0.3636 -0.0475  0.0197
 7263SOL    HW133251   3.145   1.321   8.627 -1.2478 -1.4283 -0.8628
 7263SOL    HW233252   3.278   1.336   8.576 -0.1317  1.0001  0.9079
 7264SOL     OW33253   2.922   4.554   7.601  0.0660  0.7274  0.8891
 7264SOL    HW133254   2.855   4.497   7.639 -1.9535  2.7162  0.3494
 7264SOL    HW233255   2.857   4.607   7.554  1.5471  0.3850 -1.5460
 7265SOL     OW33256   0.254   3.348  14.223  0.0153 -0.0826  0.3485
 7265SOL    HW133257   0.198   3.270  14.213 -0.2124  0.2874 -1.1745
 7265SOL    HW233258   0.226   3.362  14.314  1.3067 -0.3359  0.7819
 7266SOL     OW33259   3.155   2.520   9.370  0.2296 -0.8286 -0.0734
 7266SOL    HW133260   3.223   2.532   9.436 -0.3788 -1.0769  0.6106
 7266SOL    HW233261   3.085   2.500   9.433  0.4529 -1.9321 -0.1709
 7267SOL     OW33262   3.987   0.825  12.972  0.4252 -0.2909  0.4650
 7267SOL    HW133263   4.014   0.915  12.955 -0.5511 -0.0954 -0.0436
 7267SOL    HW233264   3.949   0.806  12.886  0.8714 -1.7026  0.5827
 7268SOL     OW33265   1.449   4.453   6.436  0.2107 -0.2747 -0.3432
 7268SOL    HW133266   1.386   4.405   6.382  1.9750 -1.5217 -1.2556
 7268SOL    HW233267   1.534   4.441   6.395  0.0181 -0.0146 -0.8125
 7269SOL     OW33268   3.218   0.136  10.535  0.6555 -0.0630 -0.1306
 7269SOL    HW133269   3.290   0.150  10.597  0.5089 -0.0925  0.0472
 7269SOL    HW233270   3.209   0.040  10.540 -1.4840  0.2590  2.4072
 7270SOL     OW33271   2.317   1.544  17.159 -0.3206  0.3063 -0.1677
 7270SOL    HW133272   2.257   1.495  17.214  0.9556 -2.7474 -1.5014
 7270SOL    HW233273   2.371   1.472  17.126  0.8263  0.7630  0.7163
 7271SOL     OW33274   2.803   0.172   6.953 -0.5500  0.0231 -0.3334
 7271SOL    HW133275   2.873   0.117   6.985  1.2793  2.2987 -0.4100
 7271SOL    HW233276   2.847   0.244   6.907 -0.3490  0.9715  1.3234
 7272SOL     OW33277   1.958   1.837   4.062  0.1347  0.0295  0.2115
 7272SOL    HW133278   1.941   1.825   3.969  2.0643  1.0010 -0.2671
 7272SOL    HW233279   2.019   1.765   4.080 -2.8606 -2.6060 -0.0951
 7273SOL     OW33280   4.095   4.244  13.656 -0.4041  0.2959 -0.3410
 7273SOL    HW133281   4.115   4.279  13.743  2.2158  2.5117 -1.8446
 7273SOL    HW233282   4.039   4.318  13.635  1.1259  1.2505 -1.0355
 7274SOL     OW33283   2.592   0.516   5.488 -0.2105  0.5499  0.5964
 7274SOL    HW133284   2.593   0.465   5.407  0.0547 -0.9541  1.5667
 7274SOL    HW233285   2.601   0.609   5.464 -1.8890  0.0979 -1.8056
 7275SOL     OW33286   2.251   0.244   0.381  0.5263  0.0910  0.2669
 7275SOL    HW133287   2.287   0.320   0.335 -2.1250  0.9215 -0.4465
 7275SOL    HW233288   2.324   0.221   0.438 -0.6575 -3.2079  0.4282
 7276SOL     OW33289   4.085   4.111   6.677  0.0233 -0.0919 -0.4397
 7276SOL    HW133290   4.078   4.201   6.709  1.2079  0.2814 -1.2200
 7276SOL    HW233291   4.040   4.115   6.592 -0.7457 -0.6132 -0.0512
 7277SOL     OW33292   0.303   1.432  17.582 -0.2139 -0.0170 -0.3613
 7277SOL    HW133293   0.332   1.434  17.491 -0.2617  1.4143 -0.3467
 7277SOL    HW233294   0.374   1.379  17.617  0.3408  1.6163  0.9877
 7278SOL     OW33295   3.982   2.129   4.929  0.3935  0.1440  0.0160
 7278SOL    HW133296   3.932   2.054   4.897  0.9667  0.3637 -1.3882
 7278SOL    HW233297   3.931   2.203   4.897 -0.2525  0.4019  1.6418
 7279SOL     OW33298   3.506   0.554  10.354  0.3333 -0.2189  0.0065
 7279SOL    HW133299   3.417   0.574  10.383  0.3794  1.6748 -1.1651
 7279SOL    HW233300   3.497   0.591  10.266 -2.4213  1.5362  1.0394
 7280SOL     OW33301   2.138   1.651   6.430  0.0076 -0.2058 -0.0263
 7280SOL    HW133302   2.058   1.617   6.391 -0.0960 -0.2933  0.2627
 7280SOL    HW233303   2.199   1.672   6.359  0.4288 -1.8216 -0.1668
 7281SOL     OW33304   3.051   3.645   7.719  0.2577  0.3059  0.3234
 7281SOL    HW133305   3.083   3.647   7.809 -0.7949 -1.0665  0.7255
 7281SOL    HW233306   3.121   3.697   7.681  1.0663 -0.4231  0.8213
 7282SOL     OW33307   0.838   3.670   6.128  0.2847  0.1852 -0.3156
 7282SOL    HW133308   0.889   3.612   6.072  1.0132  2.1865 -1.7202
 7282SOL    HW233309   0.786   3.604   6.175  0.6457 -0.3589 -0.6776
 7283SOL     OW33310   0.422   3.627  11.935  0.2800  0.1733 -0.1926
 7283SOL    HW133311   0.440   3.601  11.845 -2.4315  0.8935 -0.9500
 7283SOL    HW233312   0.511   3.608  11.964  0.3141  2.3549  1.1365
 7284SOL     OW33313   2.435   4.541   0.588 -0.2494 -0.4099 -0.0636
 7284SOL    HW133314   2.420   4.448   0.607  0.9490 -0.3888  0.9973
 7284SOL    HW233315   2.447   4.582   0.674 -1.3749  0.3244 -0.2604
 7285SOL     OW33316   3.791   0.218  12.430 -0.2090  0.4367  0.1039
 7285SOL    HW133317   3.809   0.149  12.367  4.6938  1.8049  0.0463
 7285SOL    HW233318   3.864   0.273  12.403 -2.7473  3.4109 -0.7887
 7286SOL     OW33319   4.156   3.307   7.835  0.7673  0.6188  0.4516
 7286SOL    HW133320   4.077   3.258   7.857  1.1143 -0.1692 -0.0616
 7286SOL    HW233321   4.131   3.367   7.765  1.4314 -0.4843 -0.7361
 7287SOL     OW33322   1.249   1.044   2.197 -0.1992 -0.4394  0.3776
 7287SOL    HW133323   1.343   1.050   2.179 -0.6474  0.1578 -1.8484
 7287SOL    HW233324   1.206   1.070   2.115  0.3536 -0.7506 -0.0069
 7288SOL     OW33325   0.249   0.933  12.187  0.9532 -0.5892  0.2754
 7288SOL    HW133326   0.230   0.847  12.226 -1.1114 -0.5334 -0.6094
 7288SOL    HW233327   0.342   0.923  12.169  1.6595  4.4359  1.2280
 7289SOL     OW33328   4.299   2.294   4.113  0.2718 -0.6599 -0.0149
 7289SOL    HW133329   4.312   2.263   4.203  0.9508  0.2537  0.1971
 7289SOL    HW233330   4.275   2.210   4.074 -0.4905 -0.8571  0.8688
 7290SOL     OW33331   2.369   3.741   7.449  0.9726 -0.0304 -0.1314
 7290SOL    HW133332   2.324   3.826   7.448  0.7271 -0.1650 -0.6668
 7290SOL    HW233333   2.319   3.698   7.519  0.2477  1.2085  0.1180
 7291SOL     OW33334   1.898   2.351   0.588  0.0869  0.1721  0.3689
 7291SOL    HW133335   1.820   2.298   0.574  1.5539 -1.8965  0.0746
 7291SOL    HW233336   1.925   2.373   0.499 -1.1390  1.4932  0.3219
 7292SOL     OW33337   4.179   3.356   1.106  0.3656  0.3466  0.1000
 7292SOL    HW133338   4.221   3.338   1.022 -0.0992  3.6708 -0.8303
 7292SOL    HW233339   4.095   3.394   1.082 -0.5647 -0.8519  1.4411
 7293SOL     OW33340   0.493   2.719   3.855 -0.3114 -0.6124  0.5533
 7293SOL    HW133341   0.406   2.703   3.820 -1.4247  1.0307  2.5400
 7293SOL    HW233342   0.482   2.774   3.933  0.1556  0.7303 -0.3095
 7294SOL     OW33343   0.857   1.210   1.652 -0.1275  0.1373  0.4813
 7294SOL    HW133344   0.921   1.278   1.670 -0.4172 -0.0282  2.0829
 7294SOL    HW233345   0.865   1.154   1.729 -2.5314  1.2969  1.5523
 7295SOL     OW33346   3.612   4.144   8.975  0.1624 -0.0387  0.7317
 7295SOL    HW133347   3.595   4.050   8.978  0.7488 -0.1902 -0.7842
 7295SOL    HW233348   3.563   4.178   9.050  1.3097  1.5349  0.7698
 7296SOL     OW33349   1.657   1.805  11.871  0.8464 -0.1498  0.0291
 7296SOL    HW133350   1.622   1.726  11.911 -1.5360  1.4506  1.0667
 7296SOL    HW233351   1.710   1.767  11.801 -0.4865 -0.1070 -0.9975
 7297SOL     OW33352   1.353   0.076  12.940 -0.6897 -0.0759 -0.0320
 7297SOL    HW133353   1.426   0.049  12.885 -1.6013  1.0299 -1.7823
 7297SOL    HW233354   1.295   0.118  12.877 -1.3576 -0.1812  0.5021
 7298SOL     OW33355   1.595   1.211   6.828 -0.2561 -0.1299 -0.0955
 7298SOL    HW133356   1.605   1.148   6.899  0.0930  1.1237  0.9608
 7298SOL    HW233357   1.563   1.149   6.763 -0.6297  0.5978 -0.6069
 7299SOL     OW33358   1.016   4.228  17.390 -0.1816  0.3469 -0.4799
 7299SOL    HW133359   1.107   4.242  17.364 -0.0124 -0.3409 -0.2503
 7299SOL    HW233360   0.983   4.200  17.304  2.7548  1.9163 -2.1445
 7300SOL     OW33361   4.448   0.688   7.827 -0.1454  0.2799 -0.1181
 7300SOL    HW133362   4.532   0.717   7.789  0.0138 -1.2212 -0.8840
 7300SOL    HW233363   4.390   0.654   7.760 -1.9040 -1.7170  2.4668
 7301SOL     OW33364   3.887   3.156   3.518 -0.1038 -0.5200  0.1133
 7301SOL    HW133365   3.868   3.197   3.434 -2.3416 -1.4166  0.1715
 7301SOL    HW233366   3.936   3.075   3.509 -0.6741 -1.1029  2.1898
 7302SOL     OW33367   0.116   0.724   5.089  0.3085 -0.2749  0.0187
 7302SOL    HW133368   0.086   0.695   5.003 -0.3715  0.4568  0.0094
 7302SOL    HW233369   0.210   0.707   5.087  0.7611  1.9544  2.3848
 7303SOL     OW33370   3.722   2.762  10.750 -0.5456  0.1451  0.0128
 7303SOL    HW133371   3.818   2.758  10.751 -0.6207 -1.3873  1.6547
 7303SOL    HW233372   3.702   2.678  10.792 -4.4660  0.0847 -2.0075
 7304SOL     OW33373   3.881   0.322   2.808  0.1948 -0.0926  0.3009
 7304SOL    HW133374   3.873   0.354   2.898 -2.7941 -0.3620  0.1077
 7304SOL    HW233375   3.916   0.397   2.760  2.0053 -0.4147  1.1106
 7305SOL     OW33376   4.668   2.214   8.609 -0.0514 -0.7126  0.2532
 7305SOL    HW133377   4.668   2.253   8.697  0.5902  1.1177 -0.5572
 7305SOL    HW233378   4.721   2.136   8.625  4.4295  2.2669  0.0285
 7306SOL     OW33379   1.837   1.228  16.890  0.1604  0.0995 -0.3842
 7306SOL    HW133380   1.807   1.175  16.817  1.5948 -1.2178 -0.0268
 7306SOL    HW233381   1.931   1.224  16.875 -0.0658 -2.0522 -1.1470
 7307SOL     OW33382   3.849   2.224  10.167  0.0023 -0.1906  0.2479
 7307SOL    HW133383   3.943   2.239  10.177  0.5992 -2.5426 -2.0378
 7307SOL    HW233384   3.844   2.263  10.080  1.7500 -0.9488 -0.1977
 7308SOL     OW33385   2.313   1.295   6.084  0.6599  0.7448  0.2600
 7308SOL    HW133386   2.228   1.300   6.129  0.3233  0.5822 -0.3510
 7308SOL    HW233387   2.376   1.338   6.142  1.6631  0.6885 -0.8142
 7309SOL     OW33388   3.580   4.505   6.432 -0.7180 -0.2215 -0.3392
 7309SOL    HW133389   3.506   4.565   6.440  1.3769  2.2824  0.3939
 7309SOL    HW233390   3.615   4.516   6.343  1.1729  0.5646  0.4888
 7310SOL     OW33391   0.053   1.539   3.559  0.0294  0.6104  0.0326
 7310SOL    HW133392   0.013   1.573   3.639  2.8991 -1.1869  2.2474
 7310SOL    HW233393   0.145   1.560   3.573  0.5392 -1.7934  0.2475
 7311SOL     OW33394   4.686   0.100   6.050 -0.6871  0.4076  0.2125
 7311SOL    HW133395   4.598   0.068   6.031 -1.5695  2.7723  0.3416
 7311SOL    HW233396   4.695   0.176   5.993  0.7641 -0.5779 -0.8606
 7312SOL     OW33397   3.498   2.154  17.298  0.1446 -0.2446 -0.2392
 7312SOL    HW133398   3.571   2.093  17.311  0.0054 -0.2748  0.3787
 7312SOL    HW233399   3.491   2.188  17.387  1.5215 -0.9538  0.1545
 7313SOL     OW33400   3.083   3.318   8.620  0.1823 -0.5538  0.0090
 7313SOL    HW133401   3.159   3.337   8.675 -0.6886  1.4559  0.4878
 7313SOL    HW233402   3.018   3.318   8.691 -0.0900 -1.2947 -0.2325
 7314SOL     OW33403   2.758   4.714   7.460  0.3827 -0.2261 -0.1093
 7314SOL    HW133404   2.668   4.684   7.446  0.8919 -1.6293 -0.3488
 7314SOL    HW233405   2.785   0.022   7.373  0.3494  0.9396  0.2875
 7315SOL     OW33406   1.728   2.483   8.801 -0.2432 -0.0895 -0.0646
 7315SOL    HW133407   1.689   2.490   8.714 -0.3357 -3.0083 -0.2453
 7315SOL    HW233408   1.820   2.470   8.780 -0.3309 -0.6220 -0.1175
 7316SOL     OW33409   1.900   1.438  12.665 -0.0940  0.2536 -0.0681
 7316SOL    HW133410   1.808   1.463  12.663 -0.7810 -2.2497  0.0831
 7316SOL    HW233411   1.897   1.394  12.580 -0.5516 -0.3047  0.2392
 7317SOL     OW33412   3.739   2.542   6.080 -0.5088 -0.3229  0.3114
 7317SOL    HW133413   3.750   2.469   6.141 -1.2082 -0.6142  0.0872
 7317SOL    HW233414   3.725   2.615   6.140 -4.1247  0.3380 -1.3138
 7318SOL     OW33415   4.138   2.804   5.787 -0.1982  0.3308 -0.0684
 7318SOL    HW133416   4.054   2.775   5.750 -1.7996  1.8449  2.3620
 7318SOL    HW233417   4.129   2.796   5.882 -0.2056  0.1681 -0.0840
 7319SOL     OW33418   2.082   4.290   5.729 -0.2203  0.6298  0.2452
 7319SOL    HW133419   2.036   4.326   5.805 -1.1130  1.5215 -0.7053
 7319SOL    HW233420   2.055   4.347   5.657  1.2110 -3.0408 -3.1912
 7320SOL     OW33421   1.007   2.587  10.776 -0.4329  0.2310 -0.1979
 7320SOL    HW133422   0.955   2.517  10.737 -1.0073  0.8417 -0.5145
 7320SOL    HW233423   1.084   2.541  10.810 -0.8358  0.2998  0.8130
 7321SOL     OW33424   4.114   0.001   1.144  0.2321  0.1598 -0.5069
 7321SOL    HW133425   4.187   0.058   1.170 -0.0779  1.2417 -1.9846
 7321SOL    HW233426   4.040   0.056   1.172 -0.0945 -1.0106  0.9079
 7322SOL     OW33427   4.622   3.372   7.748 -0.5437  0.5280  0.0528
 7322SOL    HW133428   4.556   3.374   7.818 -1.6881 -0.6895 -0.9856
 7322SOL    HW233429   4.673   3.293   7.766  3.6948  3.1253 -0.5555
 7323SOL     OW33430   2.418   4.632   8.838  0.1207 -0.1358 -0.3554
 7323SOL    HW133431   2.434   4.612   8.746 -2.9907  0.0035 -0.9267
 7323SOL    HW233432   2.494   4.690   8.848  0.0886 -0.6370  2.8602
 7324SOL     OW33433   1.999   3.877  13.787 -0.2984 -0.2483 -0.1766
 7324SOL    HW133434   1.939   3.896  13.715 -1.1586 -1.4647  0.2251
 7324SOL    HW233435   1.925   3.874  13.847 -1.2551 -0.6948 -1.4020
 7325SOL     OW33436   4.139   2.435   3.533  0.2887  0.5229  0.0156
 7325SOL    HW133437   4.056   2.480   3.550 -0.4574 -0.1927 -1.7429
 7325SOL    HW233438   4.137   2.425   3.438  0.7670 -0.7871  0.1467
 7326SOL     OW33439   0.252   4.386   7.071  0.1479 -0.4514  0.4180
 7326SOL    HW133440   0.344   4.372   7.094  0.6986 -0.8675 -2.0795
 7326SOL    HW233441   0.217   4.297   7.061  1.2128 -1.2364  3.7833
 7327SOL     OW33442   1.544   2.221   5.893  0.3060 -0.1491 -0.0226
 7327SOL    HW133443   1.488   2.246   5.967  1.5657  1.0020  0.5459
 7327SOL    HW233444   1.602   2.152   5.925  1.8072  1.5299  0.8719
 7328SOL     OW33445   4.129   4.029   3.960  0.5772 -0.1582  0.1801
 7328SOL    HW133446   4.224   4.024   3.972  0.6259 -1.6531 -0.8662
 7328SOL    HW233447   4.116   3.934   3.958  0.5538 -0.1551  0.1840
 7329SOL     OW33448   3.133   3.831   8.292  0.0055  0.6080  0.4528
 7329SOL    HW133449   3.111   3.895   8.224  1.4112  0.1528 -0.4395
 7329SOL    HW233450   3.219   3.855   8.326  1.1704 -1.2975 -1.1234
 7330SOL     OW33451   0.482   1.415   0.633 -0.2314  0.0523 -0.1830
 7330SOL    HW133452   0.543   1.423   0.706 -2.5913  1.0175  1.6688
 7330SOL    HW233453   0.512   1.336   0.589 -2.5971 -1.2027  0.4742
 7331SOL     OW33454   2.374   0.450  12.327  0.3829 -0.3367 -0.2882
 7331SOL    HW133455   2.384   0.446  12.422 -1.2240 -1.4059 -0.1585
 7331SOL    HW233456   2.415   0.370  12.296 -1.7303 -1.2291 -0.8313
 7332SOL     OW33457   1.069   2.150   0.995  0.3367  0.4866 -0.0867
 7332SOL    HW133458   1.063   2.167   1.090 -0.3448  1.8086 -0.3524
 7332SOL    HW233459   1.107   2.063   1.005 -0.4147  0.0668 -0.9724
 7333SOL     OW33460   2.788   2.086   4.132 -0.7021  0.4868 -0.2804
 7333SOL    HW133461   2.838   2.167   4.129 -0.4105  0.2218 -2.2653
 7333SOL    HW233462   2.773   2.068   4.225 -0.4974  0.2121 -0.3013
 7334SOL     OW33463   1.578   0.596   5.439 -0.0078  0.2937  0.6567
 7334SOL    HW133464   1.561   0.515   5.391 -2.3241  0.9820  0.2999
 7334SOL    HW233465   1.674   0.592   5.442  0.2060  2.6631 -2.1389
 7335SOL     OW33466   2.756   1.691   8.040  0.7978 -0.4049  0.0371
 7335SOL    HW133467   2.665   1.668   8.023  0.4331  0.8852  0.2635
 7335SOL    HW233468   2.759   1.783   8.014 -2.9859 -0.3169 -0.0012
 7336SOL     OW33469   2.309   0.961   9.455  0.1399  0.1245  0.1940
 7336SOL    HW133470   2.390   0.928   9.494  0.1459 -0.1875 -0.0857
 7336SOL    HW233471   2.268   1.004   9.530  1.5152  2.3426 -0.3443
 7337SOL     OW33472   3.923   1.139  15.396 -0.0595  0.2803  0.1020
 7337SOL    HW133473   3.865   1.215  15.401 -0.1874  0.1942 -0.0746
 7337SOL    HW233474   3.929   1.098  15.482 -1.3046  0.6498  0.3716
 7338SOL     OW33475   0.784   2.944   6.364  0.0799  0.2275  0.5479
 7338SOL    HW133476   0.699   2.968   6.399 -0.9285 -2.0225 -0.3752
 7338SOL    HW233477   0.776   2.950   6.269 -2.2421  1.6952  0.8361
 7339SOL     OW33478   3.026   4.053   0.394  0.4154  0.0224 -0.3648
 7339SOL    HW133479   2.951   4.098   0.433 -1.6357 -1.5706 -2.4467
 7339SOL    HW233480   3.042   3.991   0.466  1.1006  1.6308  0.8613
 7340SOL     OW33481   3.382   1.913   8.952 -0.2693  0.6999  0.0870
 7340SOL    HW133482   3.342   1.847   8.895 -0.7346  0.1577  1.0516
 7340SOL    HW233483   3.387   1.985   8.888  0.4656  1.0169  0.5139
 7341SOL     OW33484   2.301   0.757  16.350 -0.3823 -0.6278  0.4466
 7341SOL    HW133485   2.377   0.815  16.360 -0.5223 -0.2824 -0.4539
 7341SOL    HW233486   2.237   0.825  16.371 -1.2960 -1.3974  0.1508
 7342SOL     OW33487   3.301   3.964   0.780 -0.0220  0.7681  0.6218
 7342SOL    HW133488   3.305   3.984   0.686  0.0529 -0.7939  0.2971
 7342SOL    HW233489   3.226   4.013   0.814 -1.5034  0.0823 -1.6540
 7343SOL     OW33490   0.977   0.591   7.290 -0.2446 -0.7077  0.0206
 7343SOL    HW133491   0.891   0.556   7.315 -0.3488  0.0216  0.7047
 7343SOL    HW233492   1.014   0.517   7.243 -0.6421  0.1975 -1.7253
 7344SOL     OW33493   3.854   2.832  13.302  0.2653 -0.1558 -0.0513
 7344SOL    HW133494   3.819   2.915  13.336 -1.3275 -1.3170  1.1456
 7344SOL    HW233495   3.775   2.779  13.317  1.0962 -1.3041  0.2525
 7345SOL     OW33496   2.497   1.617   4.829  0.2824  0.6275  0.5028
 7345SOL    HW133497   2.517   1.605   4.736 -0.3157  1.9207  0.2067
 7345SOL    HW233498   2.406   1.644   4.828 -0.3067 -1.5136 -2.7544
 7346SOL     OW33499   0.983   0.775   3.800 -0.3330 -0.2917  0.0335
 7346SOL    HW133500   0.914   0.840   3.786  1.1845  1.5362  0.9522
 7346SOL    HW233501   1.010   0.743   3.714  0.1549 -0.2772  0.1794
 7347SOL     OW33502   0.731   3.616  16.377 -0.0407 -0.0562 -0.4416
 7347SOL    HW133503   0.714   3.608  16.471  1.1774  0.7409 -0.1422
 7347SOL    HW233504   0.708   3.708  16.364 -0.8354 -0.0455  1.0069
 7348SOL     OW33505   1.716   0.716   7.415  0.4737 -0.1220 -0.1559
 7348SOL    HW133506   1.735   0.625   7.437  2.1102  0.2424 -0.0257
 7348SOL    HW233507   1.621   0.711   7.420  0.4366  0.6521  0.0024
 7349SOL     OW33508   0.751   3.488   4.004 -0.4022  0.6299  0.2835
 7349SOL    HW133509   0.748   3.546   3.928  0.8894 -1.7414 -1.5559
 7349SOL    HW233510   0.783   3.552   4.067  0.5555 -1.6282  2.0603
 7350SOL     OW33511   2.026   1.340  13.229 -0.1363 -0.0175  0.0305
 7350SOL    HW133512   2.082   1.338  13.307 -0.9268  2.1337  0.6463
 7350SOL    HW233513   1.997   1.430  13.219 -0.5053 -0.1172  0.1868
 7351SOL     OW33514   1.421   0.040   2.479 -0.2720  0.6857 -0.3124
 7351SOL    HW133515   1.486   0.100   2.516 -0.8861  1.7503 -0.9511
 7351SOL    HW233516   1.385   4.719   2.557 -1.2723 -0.7637 -1.5662
 7352SOL     OW33517   1.877   0.707   5.279  0.6663  0.8158 -0.0105
 7352SOL    HW133518   1.914   0.791   5.305  0.4840  0.6065  0.9299
 7352SOL    HW233519   1.804   0.738   5.226 -0.3856 -1.6989 -0.0463
 7353SOL     OW33520   1.774   3.298   8.372  0.0070 -0.0329  0.1911
 7353SOL    HW133521   1.844   3.362   8.369 -0.9052  1.0463  2.1629
 7353SOL    HW233522   1.713   3.338   8.309  0.0380  3.2041  2.2575
 7354SOL     OW33523   3.502   0.510   9.515 -0.2783  0.0356  0.1578
 7354SOL    HW133524   3.589   0.512   9.556 -0.5029  1.3468  0.5679
 7354SOL    HW233525   3.474   0.601   9.503 -1.8325 -0.7186 -1.9318
 7355SOL     OW33526   2.137   1.996   7.462 -0.1242 -0.6983  0.0623
 7355SOL    HW133527   2.121   2.084   7.428 -0.8644 -0.7720  0.2171
 7355SOL    HW233528   2.220   1.979   7.418  0.2570  0.1946  0.4452
 7356SOL     OW33529   2.804   1.051   2.677  0.3933 -0.3781 -0.6022
 7356SOL    HW133530   2.788   1.145   2.672 -0.0234 -0.4512 -0.5851
 7356SOL    HW233531   2.719   1.018   2.647  0.2527  0.5874 -1.2607
 7357SOL     OW33532   3.244   1.354   8.877  0.7666 -1.0464  0.2618
 7357SOL    HW133533   3.173   1.418   8.885  1.2921 -0.7345  2.2525
 7357SOL    HW233534   3.247   1.307   8.960 -0.8218  2.2845  2.2203
 7358SOL     OW33535   3.538   1.582   2.188 -0.0088  0.3731  0.1046
 7358SOL    HW133536   3.561   1.637   2.113 -1.8906 -0.2680 -0.9351
 7358SOL    HW233537   3.473   1.645   2.219 -2.5305 -0.6434 -3.2039
 7359SOL     OW33538   2.645   3.015   1.480  0.6000  0.5355 -0.1984
 7359SOL    HW133539   2.712   3.083   1.470  0.9729  0.1617 -0.2176
 7359SOL    HW233540   2.615   2.999   1.390 -0.2425 -0.3516  0.2408
 7360SOL     OW33541   4.206   3.109   2.276 -0.0261  0.5289 -0.0387
 7360SOL    HW133542   4.227   3.177   2.213  0.0482 -0.8952 -1.5441
 7360SOL    HW233543   4.287   3.059   2.270  0.4685  1.4736 -1.1536
 7361SOL     OW33544   4.691   2.360   2.020 -0.5867  0.2874  0.1954
 7361SOL    HW133545   0.002   2.288   1.966  1.7658  1.8447 -0.4497
 7361SOL    HW233546   0.034   2.427   1.998 -0.3199 -0.7248 -2.1151
 7362SOL     OW33547   1.444   3.530   7.520 -0.3289  0.3483  0.1435
 7362SOL    HW133548   1.506   3.459   7.503 -0.6612 -0.2599  1.4516
 7362SOL    HW233549   1.357   3.490   7.521  0.0389 -0.4595 -0.2037
 7363SOL     OW33550   3.203   0.499   3.960  0.2020  0.2719  0.0740
 7363SOL    HW133551   3.196   0.408   3.990 -0.0713  0.4260  0.4772
 7363SOL    HW233552   3.250   0.536   4.035  0.2660  0.1629  0.0887
 7364SOL     OW33553   0.890   1.865   4.530 -1.1267 -0.0345 -0.7713
 7364SOL    HW133554   0.828   1.854   4.457 -1.4442 -0.6033 -0.4163
 7364SOL    HW233555   0.930   1.779   4.542  0.4770  0.8028 -0.1112
 7365SOL     OW33556   4.584   3.873   4.315  0.1129 -1.2469  0.1769
 7365SOL    HW133557   4.620   3.795   4.358  0.1490  0.6091  3.5001
 7365SOL    HW233558   4.507   3.838   4.270  0.1592 -2.2116  0.8401
 7366SOL     OW33559   4.425   1.433   6.555  0.1053 -0.5210  0.8153
 7366SOL    HW133560   4.520   1.444   6.553  0.1616 -1.0810  0.3491
 7366SOL    HW233561   4.409   1.356   6.501  0.8103  0.7093 -1.1322
 7367SOL     OW33562   3.381   2.737   8.930 -0.3982 -0.1300  0.1193
 7367SOL    HW133563   3.344   2.818   8.965  1.0074  0.4575  0.2433
 7367SOL    HW233564   3.340   2.676   8.991 -0.1523  0.4755  0.8939
 7368SOL     OW33565   3.554   1.928   7.127  0.2662  0.1979  0.1642
 7368SOL    HW133566   3.502   2.008   7.137  2.0024  1.0654  2.2844
 7368SOL    HW233567   3.615   1.940   7.055 -0.1363  0.8607 -0.0684
 7369SOL     OW33568   0.872   4.306   6.893 -0.0326 -0.5563 -0.3815
 7369SOL    HW133569   0.874   4.402   6.899 -1.5792 -0.5170 -0.3512
 7369SOL    HW233570   0.790   4.284   6.849 -1.5263  1.0719  1.5472
 7370SOL     OW33571   0.328   1.625  11.344  0.1925  0.8469 -0.1268
 7370SOL    HW133572   0.405   1.681  11.341  1.6433 -1.1728 -0.8801
 7370SOL    HW233573   0.350   1.557  11.408  0.5418 -0.1432 -1.2791
 7371SOL     OW33574   3.722   4.044   7.650 -0.3159 -0.4693 -0.0516
 7371SOL    HW133575   3.815   4.046   7.673 -0.4054 -0.5038  0.3165
 7371SOL    HW233576   3.701   4.138   7.647 -0.3719 -0.4433  0.8879
 7372SOL     OW33577   2.055   0.532  12.562  0.2631 -0.4677  0.2215
 7372SOL    HW133578   2.123   0.598  12.549 -1.2635  1.1782  0.7235
 7372SOL    HW233579   2.003   0.557  12.486  0.1213 -0.8279  0.2000
 7373SOL     OW33580   0.159   0.141   0.916 -0.5152 -0.4771  0.0046
 7373SOL    HW133581   0.175   0.161   1.008 -0.2997 -1.6382  0.2159
 7373SOL    HW233582   0.118   0.056   0.927  0.1020 -0.5070  1.9940
 7374SOL     OW33583   4.156   0.460  13.313  0.0084  0.4638  0.1210
 7374SOL    HW133584   4.249   0.482  13.308 -0.3800  2.1506  0.1201
 7374SOL    HW233585   4.117   0.492  13.232 -0.5211 -0.1245  0.1480
 7375SOL     OW33586   1.070   1.656   2.768  0.6061  0.8889 -0.1397
 7375SOL    HW133587   1.094   1.588   2.831  2.9232  1.1553 -0.7565
 7375SOL    HW233588   1.004   1.608   2.717 -0.5187  1.8335  0.4096
 7376SOL     OW33589   0.200   1.017  17.389  0.5047  0.3979  0.3919
 7376SOL    HW133590   0.132   0.958  17.357  0.4937  1.0441 -0.7970
 7376SOL    HW233591   0.144   1.081  17.433 -1.0718  0.1027 -1.1777
 7377SOL     OW33592   2.807   1.165  13.840 -0.1837  0.2613 -0.1845
 7377SOL    HW133593   2.813   1.258  13.820  2.0360  0.2667  0.5262
 7377SOL    HW233594   2.718   1.135  13.856  0.6491 -3.5520 -2.6741
 7378SOL     OW33595   0.478   2.532  11.979 -0.1501 -0.1965  0.7748
 7378SOL    HW133596   0.495   2.593  11.908 -0.9795 -2.3399 -1.2484
 7378SOL    HW233597   0.501   2.580  12.059  1.6111 -1.6638  1.1562
 7379SOL     OW33598   1.776   2.843   0.863 -0.4407 -0.3288 -0.4612
 7379SOL    HW133599   1.799   2.767   0.810  0.9809  0.6873 -1.2860
 7379SOL    HW233600   1.826   2.827   0.944  0.2266  1.3575 -0.5408
 7380SOL     OW33601   0.165   0.464   7.446  0.5107  0.0697 -0.6685
 7380SOL    HW133602   0.183   0.386   7.393  0.2376  0.7269 -1.7333
 7380SOL    HW233603   0.219   0.531   7.405 -0.9784  0.4358 -2.0123
 7381SOL     OW33604   2.733   2.651   1.652 -0.1945  0.9587 -0.0335
 7381SOL    HW133605   2.736   2.681   1.743  0.7370  0.0828  0.2162
 7381SOL    HW233606   2.662   2.704   1.615 -1.0820 -0.0550  0.1992
 7382SOL     OW33607   1.620   2.602   3.621  0.3266  0.1022 -0.4570
 7382SOL    HW133608   1.677   2.529   3.646  1.0889  0.2569 -1.7400
 7382SOL    HW233609   1.619   2.589   3.527 -0.5648 -0.3912 -0.3800
 7383SOL     OW33610   2.791   3.219  14.397  0.3701  0.3884  0.2367
 7383SOL    HW133611   2.786   3.284  14.327 -2.1456 -0.6511 -0.5612
 7383SOL    HW233612   2.793   3.140  14.342 -0.7866  1.8413 -1.9202
 7384SOL     OW33613   0.240   4.498  10.750  0.3391  0.0031 -0.2631
 7384SOL    HW133614   0.155   4.463  10.721 -0.6323  1.6956  0.5521
 7384SOL    HW233615   0.213   4.565  10.813 -1.0501 -1.9037  1.1604
 7385SOL     OW33616   3.824   4.662   0.564  0.2980 -0.0045  0.2269
 7385SOL    HW133617   3.912   4.623   0.568  1.1641  2.2122  2.5168
 7385SOL    HW233618   3.796   4.657   0.655 -1.9641  2.1848 -0.3399
 7386SOL     OW33619   2.821   4.435   2.600 -0.0580 -0.3424  0.7009
 7386SOL    HW133620   2.897   4.472   2.645  0.9146  0.0375 -1.2900
 7386SOL    HW233621   2.833   4.485   2.520 -0.8469 -0.5559  0.4518
 7387SOL     OW33622   0.789   1.423   3.058  0.0984 -0.5036  0.4691
 7387SOL    HW133623   0.769   1.437   2.966 -0.1440 -1.7196  0.3294
 7387SOL    HW233624   0.769   1.514   3.078 -1.2153 -0.3516 -1.6271
 7388SOL     OW33625   4.051   1.077  13.574 -0.4027  0.1919  0.1254
 7388SOL    HW133626   3.974   1.060  13.520  1.1466  2.2241 -2.7424
 7388SOL    HW233627   4.018   1.020  13.643  0.2517  0.0478  0.3274
 7389SOL     OW33628   0.275   1.072   7.063 -0.4321  0.4122 -0.4959
 7389SOL    HW133629   0.319   0.989   7.082  0.0368  0.0942 -2.8633
 7389SOL    HW233630   0.348   1.134   7.061 -1.4672  1.5889 -2.5522
 7390SOL     OW33631   4.306   3.774   3.119 -0.2806 -0.2581  0.1941
 7390SOL    HW133632   4.354   3.694   3.139  0.0508 -0.4568 -1.3378
 7390SOL    HW233633   4.290   3.752   3.027  0.4972 -0.6318  0.1474
 7391SOL     OW33634   1.301   2.447   0.267 -0.3891 -0.0152 -0.1079
 7391SOL    HW133635   1.344   2.420   0.186  0.7559  0.3139  0.3898
 7391SOL    HW233636   1.249   2.523   0.241  0.7120  0.1346 -1.8319
 7392SOL     OW33637   2.619   1.326  11.971  0.4599 -0.4510 -0.0611
 7392SOL    HW133638   2.635   1.379  11.893 -0.5607 -1.8674 -1.2232
 7392SOL    HW233639   2.688   1.260  11.966  1.9538  0.8484  3.0558
 7393SOL     OW33640   1.703   3.544   0.205 -0.4193  0.3637 -0.1693
 7393SOL    HW133641   1.734   3.559   0.115 -0.3549  0.3995 -0.1412
 7393SOL    HW233642   1.764   3.589   0.264 -0.0522 -0.9780  0.4605
 7394SOL     OW33643   2.580   0.808  10.181 -0.3877 -0.6305 -0.4624
 7394SOL    HW133644   2.495   0.807  10.225 -0.9302  0.3573 -1.4854
 7394SOL    HW233645   2.623   0.729  10.214 -1.2080 -1.0343 -0.3745
 7395SOL     OW33646   3.866   2.834  14.092  0.0817 -0.2873  0.4415
 7395SOL    HW133647   3.887   2.784  14.014 -2.3522  0.8230 -0.9077
 7395SOL    HW233648   3.953   2.870  14.113  1.0367 -2.2782 -0.0959
 7396SOL     OW33649   1.398   4.698   7.744 -0.3239 -0.2930 -0.5352
 7396SOL    HW133650   1.364   4.685   7.833  1.2465  0.6795  0.2181
 7396SOL    HW233651   1.410   0.071   7.747 -1.9187 -0.0804 -1.1015
 7397SOL     OW33652   1.923   0.336   7.757 -0.6105  0.6607  0.1346
 7397SOL    HW133653   1.986   0.316   7.688 -1.5360 -2.1157  0.0885
 7397SOL    HW233654   1.976   0.382   7.821 -0.4352 -0.3650  0.7241
 7398SOL     OW33655   0.931   2.132   2.333 -0.0655  0.3923 -0.8667
 7398SOL    HW133656   0.851   2.079   2.331 -0.7972  1.4589 -0.1414
 7398SOL    HW233657   1.002   2.068   2.337  1.9507  2.8116  2.7100
 7399SOL     OW33658   0.954   1.915   7.799 -0.5702 -0.1370  0.2870
 7399SOL    HW133659   0.990   1.989   7.750  1.7248 -1.7959 -0.5355
 7399SOL    HW233660   1.043   1.880   7.808 -0.5677 -0.3274 -0.5095
 7400SOL     OW33661   3.615   1.019   7.254 -0.3222  0.5251 -0.0365
 7400SOL    HW133662   3.573   1.064   7.181  1.6904  2.6338  0.1013
 7400SOL    HW233663   3.609   1.090   7.318 -0.9334 -0.3954  0.9260
 7401SOL     OW33664   0.338   4.710   7.808 -0.1102  0.1040 -0.4060
 7401SOL    HW133665   0.368   0.062   7.756  0.7464 -0.8284 -1.2194
 7401SOL    HW233666   0.273   0.036   7.861 -2.0461 -1.7742 -1.0950
 7402SOL     OW33667   1.632   1.011  11.736 -0.1594  0.3598 -0.0268
 7402SOL    HW133668   1.696   1.082  11.735  0.5720 -0.3248 -1.5822
 7402SOL    HW233669   1.561   1.047  11.684 -1.1408 -0.5272  0.7035
 7403SOL     OW33670   3.589   3.691   7.289 -0.3982 -0.1261  0.2815
 7403SOL    HW133671   3.500   3.717   7.266 -0.4061 -0.5121 -0.1250
 7403SOL    HW233672   3.627   3.771   7.324  0.8699 -0.8775  0.6318
 7404SOL     OW33673   4.441   2.228   7.597  0.1762  0.1086  0.1818
 7404SOL    HW133674   4.495   2.155   7.567 -0.4761 -0.1844 -0.2855
 7404SOL    HW233675   4.478   2.292   7.537 -0.0164  0.8911  0.8989
 7405SOL     OW33676   2.071   0.579   8.141  0.4337 -0.0278 -0.7171
 7405SOL    HW133677   2.069   0.535   8.056  0.7527 -0.5695 -0.4443
 7405SOL    HW233678   2.052   0.670   8.119 -2.0803 -0.6963 -1.3343
 7406SOL     OW33679   2.048   2.487  14.173 -0.2552 -0.0406  0.6486
 7406SOL    HW133680   2.059   2.406  14.222 -1.5918 -0.5286  0.1440
 7406SOL    HW233681   2.118   2.540  14.211 -1.1580  0.8497  1.0531
 7407SOL     OW33682   1.916   2.315   4.573 -0.4358  0.2351 -0.3746
 7407SOL    HW133683   1.826   2.311   4.605 -0.5323 -0.2326 -0.7164
 7407SOL    HW233684   1.913   2.324   4.478 -1.5374 -1.2912 -0.4751
 7408SOL     OW33685   1.037   4.153   3.711  0.6993  0.0696 -0.1447
 7408SOL    HW133686   1.056   4.063   3.738  0.9319 -0.2500 -1.3630
 7408SOL    HW233687   0.944   4.171   3.722  0.6944 -1.1421  1.8035
 7409SOL     OW33688   4.480   4.135   3.097  0.1614 -0.5849  0.1944
 7409SOL    HW133689   4.575   4.120   3.099  0.6822  2.4894 -0.8179
 7409SOL    HW233690   4.470   4.100   3.009  1.6681 -1.1049  0.2339
 7410SOL     OW33691   0.428   3.251   5.489  0.1055 -0.2905 -0.4017
 7410SOL    HW133692   0.449   3.275   5.579  0.4563  1.3358 -0.9141
 7410SOL    HW233693   0.396   3.161   5.494  0.3632 -0.3026  1.0081
 7411SOL     OW33694   4.242   2.069  15.068 -0.6857  0.1088  0.3446
 7411SOL    HW133695   4.296   2.140  15.034 -1.2769  1.1926  1.6358
 7411SOL    HW233696   4.307   2.007  15.099 -0.9076 -1.2154 -1.8639
 7412SOL     OW33697   1.119   1.653   6.055  0.1047  0.3555 -0.5203
 7412SOL    HW133698   1.059   1.681   5.986 -0.0946  0.1426 -0.4299
 7412SOL    HW233699   1.187   1.611   6.003 -0.2130 -0.7213 -0.0557
 7413SOL     OW33700   0.279   2.257   5.152  0.0160 -0.2857 -0.6572
 7413SOL    HW133701   0.198   2.216   5.183 -0.9184  2.3056  0.2883
 7413SOL    HW233702   0.343   2.226   5.216  0.3403  0.5118 -0.6045
 7414SOL     OW33703   4.070   3.229   4.231  0.0248  0.1702 -0.4718
 7414SOL    HW133704   3.985   3.251   4.193 -0.0774  1.0958  0.2917
 7414SOL    HW233705   4.079   3.135   4.213 -0.9773 -0.0406  0.1028
 7415SOL     OW33706   0.359   1.084  12.992 -0.6824 -0.0384  0.0782
 7415SOL    HW133707   0.369   1.081  13.088 -1.8372 -0.4685  0.1829
 7415SOL    HW233708   0.266   1.069  12.973 -0.7365  0.3240  0.0635
 7416SOL     OW33709   0.424   0.613   5.219  0.1870  0.4885 -0.4192
 7416SOL    HW133710   0.441   0.546   5.154  0.4521  1.5782 -1.4816
 7416SOL    HW233711   0.412   0.556   5.294  0.0258  1.0762  0.0028
 7417SOL     OW33712   1.722   1.472   5.801 -0.0604  0.2108  0.6513
 7417SOL    HW133713   1.744   1.494   5.710  2.7988 -0.8020  1.1146
 7417SOL    HW233714   1.806   1.438   5.832  0.4053  2.1979  1.5676
 7418SOL     OW33715   0.446   1.136  13.275  0.1297  0.2913  0.1499
 7418SOL    HW133716   0.497   1.163  13.352  0.0720 -1.5778  0.8325
 7418SOL    HW233717   0.500   1.189  13.217 -0.8245 -0.7925 -1.7089
 7419SOL     OW33718   0.770   1.110   0.920  0.5163 -0.0046  0.0141
 7419SOL    HW133719   0.763   1.179   0.986 -1.0580  1.2804 -1.4883
 7419SOL    HW233720   0.862   1.085   0.931  0.4256 -0.3773 -0.0734
 7420SOL     OW33721   0.710   4.205   7.230 -0.3866 -0.4569  0.1667
 7420SOL    HW133722   0.745   4.116   7.229 -0.8285 -0.6239 -0.0481
 7420SOL    HW233723   0.794   4.252   7.233 -1.6069  1.6526  0.6736
 7421SOL     OW33724   0.015   4.513   7.165 -0.0192 -0.3498 -0.4376
 7421SOL    HW133725   0.095   4.465   7.144 -0.0668 -0.4621 -0.3585
 7421SOL    HW233726   0.014   4.536   7.258 -0.2309  1.7191 -0.9505
 7422SOL     OW33727   3.694   1.015   3.010  0.3215 -0.7677 -0.0546
 7422SOL    HW133728   3.635   0.988   2.940 -0.9759 -2.9884  1.8782
 7422SOL    HW233729   3.777   1.007   2.964  0.5852  1.4876  0.0534
 7423SOL     OW33730   2.758   0.096  10.844  0.3496  0.0129 -0.4043
 7423SOL    HW133731   2.813   0.063  10.915 -0.3225  1.5266  0.8167
 7423SOL    HW233732   2.813   0.070  10.769  1.1395 -2.4153  1.0057
 7424SOL     OW33733   3.932   2.347  16.077  0.2265  0.7643  0.2763
 7424SOL    HW133734   3.913   2.440  16.094  0.0550  1.0425 -1.4553
 7424SOL    HW233735   3.991   2.345  16.002 -0.0935  0.3123  0.0385
 7425SOL     OW33736   4.212   2.154   3.468 -0.2892  0.2302  1.1462
 7425SOL    HW133737   4.182   2.228   3.521 -1.3285  0.7285 -0.1644
 7425SOL    HW233738   4.189   2.193   3.384 -0.7686 -0.4784  0.9543
 7426SOL     OW33739   0.075   3.726   5.185  0.2085 -0.0991  0.1326
 7426SOL    HW133740   0.000   3.741   5.242 -0.8790 -1.7559 -0.8550
 7426SOL    HW233741   0.057   3.791   5.117  2.0719  0.3814  0.0966
 7427SOL     OW33742   0.030   1.452  11.280 -0.6774  0.0605  0.3373
 7427SOL    HW133743   0.058   1.374  11.232 -0.2751  0.2036  0.3372
 7427SOL    HW233744   4.657   1.463  11.268 -0.7560 -0.8640  0.1140
 7428SOL     OW33745   1.850   0.163   6.232  0.1835  0.1174 -0.3564
 7428SOL    HW133746   1.857   0.254   6.204 -0.8356  0.1380 -0.5570
 7428SOL    HW233747   1.940   0.153   6.262  0.1112  0.6725  0.0461
 7429SOL     OW33748   2.859   3.422  14.210 -0.0579 -0.3835 -0.4089
 7429SOL    HW133749   2.822   3.443  14.125 -0.3202 -0.8464 -0.4093
 7429SOL    HW233750   2.953   3.424  14.190  0.3834  0.1688  1.7069
 7430SOL     OW33751   0.791   3.251  11.046  0.2147 -0.2088  0.5276
 7430SOL    HW133752   0.737   3.272  10.970  1.4583 -1.2771 -0.6429
 7430SOL    HW233753   0.784   3.156  11.049  3.2639 -0.4077  2.0380
 7431SOL     OW33754   1.062   4.257   8.755  0.0641 -0.2447  0.6523
 7431SOL    HW133755   1.036   4.237   8.844  0.7340 -1.7534  0.5060
 7431SOL    HW233756   1.142   4.206   8.749  0.7723  0.7145  2.1327
 7432SOL     OW33757   4.236   3.285   9.238 -0.2712 -0.9323  1.0178
 7432SOL    HW133758   4.167   3.284   9.304 -2.2206  2.4836 -0.9734
 7432SOL    HW233759   4.269   3.375   9.235 -0.5398 -0.9677 -2.5502
 7433SOL     OW33760   0.291   1.711   1.061  0.0212 -0.0207  0.1769
 7433SOL    HW133761   0.308   1.617   1.056  1.0992  0.1780  0.1707
 7433SOL    HW233762   0.340   1.745   1.135 -1.1411 -1.1826  1.4830
 7434SOL     OW33763   2.232   2.517   4.898  0.2390 -0.3111  0.3151
 7434SOL    HW133764   2.317   2.553   4.872 -0.4030 -0.6350 -2.2839
 7434SOL    HW233765   2.248   2.460   4.973 -1.2307 -1.5997 -0.3406
 7435SOL     OW33766   1.215   3.359   6.333 -0.3210 -0.0509  0.4199
 7435SOL    HW133767   1.142   3.418   6.353  1.1027  1.0071  2.4648
 7435SOL    HW233768   1.190   3.345   6.242  0.6396  1.4302 -0.0734
 7436SOL     OW33769   3.415   1.759  10.367 -0.0836  0.0368 -0.4877
 7436SOL    HW133770   3.440   1.697  10.436 -0.6337  0.3571 -0.0092
 7436SOL    HW233771   3.356   1.711  10.309  1.6710 -3.0931  0.3053
 7437SOL     OW33772   3.263   1.429   5.284 -0.5925  0.6150  0.4009
 7437SOL    HW133773   3.330   1.361   5.286  1.1995  2.3738 -0.2647
 7437SOL    HW233774   3.195   1.394   5.226 -0.7081 -1.1619  1.6057
 7438SOL     OW33775   1.936   3.754   7.512 -1.2644  0.1241  0.3270
 7438SOL    HW133776   1.844   3.729   7.526 -1.3313 -0.1120 -0.5479
 7438SOL    HW233777   1.959   3.700   7.588  0.8831 -0.2787 -0.6358
 7439SOL     OW33778   4.460   4.226  15.005 -0.5035  0.0383 -0.0820
 7439SOL    HW133779   4.550   4.197  15.018  0.1225  1.0010 -2.2983
 7439SOL    HW233780   4.471   4.265  14.918  0.6916 -2.5864 -1.0865
 7440SOL     OW33781   1.131   2.803   8.613 -0.6057  0.2332 -0.2708
 7440SOL    HW133782   1.186   2.864   8.563 -0.2170 -0.2704 -0.4641
 7440SOL    HW233783   1.085   2.765   8.537  0.8863 -0.4298 -0.8397
 7441SOL     OW33784   4.265   3.268  13.592 -0.0387 -0.7736 -0.0189
 7441SOL    HW133785   4.221   3.352  13.586  2.0614  0.4191  1.2204
 7441SOL    HW233786   4.230   3.206  13.528  0.4847 -1.6128  0.5058
 7442SOL     OW33787   1.309   3.665   3.696 -0.2274 -0.1032 -0.3937
 7442SOL    HW133788   1.260   3.640   3.618 -0.7377  1.0951 -0.4724
 7442SOL    HW233789   1.395   3.625   3.687 -0.0160  0.6756 -1.8441
 7443SOL     OW33790   2.155   1.234  14.792  0.2177  0.1664 -0.3943
 7443SOL    HW133791   2.147   1.144  14.824 -2.5292  0.9873  1.2284
 7443SOL    HW233792   2.225   1.270  14.847  0.0619  2.3461 -1.6176
 7444SOL     OW33793   2.988   4.174   1.964  0.1158 -0.0541 -0.6461
 7444SOL    HW133794   3.009   4.105   2.027 -0.1528  0.4790  0.0195
 7444SOL    HW233795   3.020   4.127   1.886  0.6296  1.4837 -1.3627
 7445SOL     OW33796   0.683   0.930   4.567  0.0894  0.3211 -0.0988
 7445SOL    HW133797   0.662   1.009   4.517  1.9259  1.0023  0.2033
 7445SOL    HW233798   0.708   0.969   4.651 -0.0733 -2.9163  1.4250
 7446SOL     OW33799   4.140   1.263   2.302  0.1286  0.2799  0.0025
 7446SOL    HW133800   4.071   1.270   2.235  0.7394 -0.2094 -0.6725
 7446SOL    HW233801   4.186   1.188   2.265 -0.0490  0.7599 -1.1999
 7447SOL     OW33802   3.781   1.352  15.575  0.7456 -0.3935  0.0891
 7447SOL    HW133803   3.852   1.407  15.606  1.2783 -1.0610  0.0458
 7447SOL    HW233804   3.718   1.416  15.542  0.1164 -1.7643 -1.3485
 7448SOL     OW33805   0.462   4.387  13.741  0.3118  0.4486  0.3690
 7448SOL    HW133806   0.525   4.458  13.740 -0.8523  1.5420  3.3931
 7448SOL    HW233807   0.435   4.396  13.649  1.7606  0.4674 -0.0422
 7449SOL     OW33808   0.146   2.825  14.252 -0.1910 -0.3987  0.5990
 7449SOL    HW133809   0.059   2.819  14.211  0.4299 -0.2675 -0.7195
 7449SOL    HW233810   0.150   2.732  14.274  0.4913 -0.4379  0.3018
 7450SOL     OW33811   3.341   3.113   6.417 -0.0849 -0.8089  0.2278
 7450SOL    HW133812   3.256   3.145   6.445 -0.5625 -1.2005 -0.7989
 7450SOL    HW233813   3.371   3.189   6.367  0.7259 -2.3858 -1.6516
 7451SOL     OW33814   1.940   2.597  13.060  0.3278  0.0413  0.9152
 7451SOL    HW133815   1.885   2.556  12.993  0.0942  1.2411  0.3708
 7451SOL    HW233816   2.016   2.619  13.007 -2.1669  0.7371 -2.3368
 7452SOL     OW33817   3.850   3.731  10.656 -0.2436 -0.2956  0.7860
 7452SOL    HW133818   3.795   3.653  10.655 -0.1462 -0.3451 -2.4633
 7452SOL    HW233819   3.791   3.785  10.602 -0.3799 -1.6731 -0.4670
 7453SOL     OW33820   3.844   2.838   1.470 -0.6118 -0.5672  0.0826
 7453SOL    HW133821   3.855   2.893   1.392  1.1600 -0.7097  0.2205
 7453SOL    HW233822   3.770   2.883   1.511  0.1805 -0.8549  1.8392
 7454SOL     OW33823   0.846   0.684  11.019  0.7078  0.3202  0.2989
 7454SOL    HW133824   0.859   0.776  10.995 -1.1438  0.7332  0.8684
 7454SOL    HW233825   0.899   0.650  10.947  0.6492 -2.4569  1.6064
 7455SOL     OW33826   0.729   0.208   8.111 -0.0041  0.0596  0.4592
 7455SOL    HW133827   0.646   0.165   8.134  0.2823 -0.7789 -0.0686
 7455SOL    HW233828   0.777   0.130   8.083 -0.7777 -0.6064  0.9681
 7456SOL     OW33829   1.974   2.621   3.882 -0.1227  0.7731  0.6336
 7456SOL    HW133830   2.039   2.613   3.952  0.4245  4.0620  0.5085
 7456SOL    HW233831   1.952   2.714   3.890 -3.2951  0.1850 -1.2609
 7457SOL     OW33832   4.133   3.447   4.942 -0.0361  0.0110 -0.1404
 7457SOL    HW133833   4.138   3.385   5.014 -0.5887  2.2512  1.8504
 7457SOL    HW233834   4.065   3.407   4.888 -0.4874 -0.4074  0.7541
 7458SOL     OW33835   2.792   4.707   5.203 -0.7337 -0.3751  0.2515
 7458SOL    HW133836   2.819   4.644   5.136 -0.1969  1.3051 -1.1101
 7458SOL    HW233837   2.791   4.656   5.283 -2.6066 -2.6833 -1.2418
 7459SOL     OW33838   1.701   4.700   6.713  0.1956 -0.2030 -0.1609
 7459SOL    HW133839   1.771   0.016   6.661 -0.9262  0.0833 -1.4618
 7459SOL    HW233840   1.622   4.710   6.659  0.0821  2.2771  0.4464
 7460SOL     OW33841   2.126   1.107   5.019 -0.0848 -0.2213  0.2972
 7460SOL    HW133842   2.067   1.037   5.045  1.8836 -1.4977  1.3379
 7460SOL    HW233843   2.114   1.172   5.088 -0.0969  0.3056 -0.1964
 7461SOL     OW33844   3.323   2.657  15.604 -0.1533  0.0314  0.2542
 7461SOL    HW133845   3.229   2.640  15.610 -0.4555  0.7769 -2.0128
 7461SOL    HW233846   3.332   2.701  15.689 -0.5825 -0.2315  0.4339
 7462SOL     OW33847   4.669   1.512  17.347  0.1227  0.3624 -0.3919
 7462SOL    HW133848   4.616   1.459  17.287  0.7557  3.0935 -3.4178
 7462SOL    HW233849   0.023   1.521  17.289  0.6603  1.7061  0.5141
 7463SOL     OW33850   3.579   0.569  11.358 -0.1624  0.2768 -0.4055
 7463SOL    HW133851   3.578   0.646  11.416 -0.5475  0.2944 -0.4374
 7463SOL    HW233852   3.665   0.590  11.320  1.0390 -0.8735  1.6790
 7464SOL     OW33853   0.646   1.307  12.559  0.0865  0.1216  0.6248
 7464SOL    HW133854   0.660   1.275  12.648 -0.3098  0.3348  0.7636
 7464SOL    HW233855   0.699   1.386  12.549  1.8943 -1.1044  0.5546
 7465SOL     OW33856   1.849   4.035   4.844  0.4240  0.2486  0.1045
 7465SOL    HW133857   1.768   4.027   4.894  0.2365 -3.3127 -0.7991
 7465SOL    HW233858   1.821   4.019   4.754 -0.3148 -0.9300  0.5509
 7466SOL     OW33859   1.472   3.043   0.991  0.6170 -0.2017  0.1400
 7466SOL    HW133860   1.416   3.118   1.013  1.4988  0.6619 -0.5401
 7466SOL    HW233861   1.502   3.076   0.906  0.5748  0.5361  0.4117
 7467SOL     OW33862   2.155   1.167   8.918 -0.4110 -0.0000 -0.1676
 7467SOL    HW133863   2.240   1.123   8.922  0.0976  1.1679  1.9971
 7467SOL    HW233864   2.105   1.105   8.865  0.8607 -1.9221  0.8833
 7468SOL     OW33865   2.011   0.211   1.344  0.6715  0.2992  0.0914
 7468SOL    HW133866   1.916   0.213   1.353  0.8195 -0.3480  1.9037
 7468SOL    HW233867   2.033   0.237   1.434 -0.8538  0.1170  0.5065
 7469SOL     OW33868   1.599   1.070   3.164  0.4219  0.2696 -0.0465
 7469SOL    HW133869   1.575   1.079   3.256  1.1279 -0.0876  0.1771
 7469SOL    HW233870   1.687   1.034   3.173  0.6033  1.1053  1.4505
 7470SOL     OW33871   0.631   2.892   5.448 -0.4501 -0.1733  0.1500
 7470SOL    HW133872   0.703   2.883   5.386  0.1516 -0.0393  0.8292
 7470SOL    HW233873   0.620   2.798   5.464 -1.5327  0.1032  1.0284
 7471SOL     OW33874   1.166   2.770   3.427 -0.7122 -0.0058  0.0038
 7471SOL    HW133875   1.085   2.758   3.477 -1.8904  2.7112 -1.2890
 7471SOL    HW233876   1.197   2.679   3.421 -2.1115 -0.5074  0.4203
 7472SOL     OW33877   0.903   1.021   6.356  0.3165 -0.1436  0.7839
 7472SOL    HW133878   0.911   0.994   6.447  0.6755  1.4343  1.2281
 7472SOL    HW233879   0.991   0.999   6.324 -0.0368 -0.2000 -0.1521
 7473SOL     OW33880   3.939   0.221   6.853 -0.3683  0.1436 -0.0525
 7473SOL    HW133881   3.914   0.221   6.946  0.1889  0.0541  0.0986
 7473SOL    HW233882   3.923   0.127   6.841 -1.8783 -0.0662  3.4149
 7474SOL     OW33883   2.002   4.676   1.275  0.0028  0.1506  0.6306
 7474SOL    HW133884   1.999   0.049   1.289 -0.8954  0.2248 -0.0999
 7474SOL    HW233885   1.907   4.663   1.276 -0.1178  1.0622  1.4003
 7475SOL     OW33886   0.550   2.211   5.838 -0.7342 -0.5186 -0.2619
 7475SOL    HW133887   0.555   2.243   5.928  0.2488 -1.3151 -0.0316
 7475SOL    HW233888   0.502   2.129   5.851 -3.3806  1.2981  1.3771
 7476SOL     OW33889   0.761   2.990   3.742  0.8035 -0.2782  0.2398
 7476SOL    HW133890   0.719   2.992   3.827 -0.8009 -1.5243 -0.5388
 7476SOL    HW233891   0.724   3.070   3.703  0.7032 -0.4205  0.0445
 7477SOL     OW33892   3.399   1.976   4.083 -0.1068 -0.6689  0.8262
 7477SOL    HW133893   3.319   2.026   4.095 -0.1629 -0.1524 -1.7385
 7477SOL    HW233894   3.371   1.916   4.014  0.6913 -1.3276  1.0629
 7478SOL     OW33895   3.683   1.836   7.883 -0.4745  0.7300 -0.3183
 7478SOL    HW133896   3.724   1.840   7.796 -0.8899 -0.0205 -0.5556
 7478SOL    HW233897   3.591   1.820   7.859 -0.7242  0.6603  0.6976
 7479SOL     OW33898   1.870   3.677   5.840 -0.7064  0.1696 -0.2983
 7479SOL    HW133899   1.922   3.598   5.826 -0.5199  0.6630 -2.3171
 7479SOL    HW233900   1.785   3.646   5.810 -1.8130  3.2316 -0.3570
 7480SOL     OW33901   4.417   1.784   6.936 -0.0319  0.4077 -0.2624
 7480SOL    HW133902   4.424   1.691   6.958  0.1837  0.1448 -1.4646
 7480SOL    HW233903   4.494   1.798   6.881  0.8235 -0.9943  0.5707
 7481SOL     OW33904   1.236   0.672  14.355  0.1751  0.2542 -0.3960
 7481SOL    HW133905   1.222   0.732  14.428 -0.4773 -0.5577  0.1589
 7481SOL    HW233906   1.242   0.593  14.409 -0.3906 -0.0617 -0.7927
 7482SOL     OW33907   2.281   2.639   8.985 -0.2904  0.1497 -0.3392
 7482SOL    HW133908   2.217   2.696   9.029  0.6386  1.6447 -0.9216
 7482SOL    HW233909   2.363   2.674   9.020 -0.6297  0.4086  0.1921
 7483SOL     OW33910   2.836   1.873   4.966  0.1283 -0.4845  0.2160
 7483SOL    HW133911   2.770   1.941   4.959 -1.7276 -2.0679  2.1893
 7483SOL    HW233912   2.787   1.800   5.005 -1.2082  0.0574 -0.4664
 7484SOL     OW33913   0.255   2.166   1.998 -0.1807 -0.1862 -0.2230
 7484SOL    HW133914   0.221   2.165   2.087  0.2253 -1.6886 -0.0910
 7484SOL    HW233915   0.329   2.108   2.014  2.1049  2.4636 -1.2817
 7485SOL     OW33916   0.880   4.520  12.869  0.7586 -0.0106  0.3868
 7485SOL    HW133917   0.795   4.477  12.859  0.8571 -0.3325  0.9149
 7485SOL    HW233918   0.924   4.504  12.786  0.6989  5.2016 -0.5831
 7486SOL     OW33919   1.480   2.198   5.011  0.2892 -0.1424  0.3263
 7486SOL    HW133920   1.558   2.247   5.038  1.6599 -1.9337 -0.4147
 7486SOL    HW233921   1.502   2.118   5.058  0.1427 -1.1528 -1.3313
 7487SOL     OW33922   3.647   0.895   9.084  0.5425  0.3757 -0.0525
 7487SOL    HW133923   3.589   0.971   9.084  0.6793  0.4985  2.4157
 7487SOL    HW233924   3.622   0.838   9.012  3.1218  0.1933 -0.7917
 7488SOL     OW33925   1.638   1.948   7.752  0.1181  0.5309 -0.1153
 7488SOL    HW133926   1.684   1.880   7.803 -1.1053 -0.4269 -0.2912
 7488SOL    HW233927   1.643   2.023   7.811 -3.2596  0.3048  0.4633
 7489SOL     OW33928   2.759   1.061   4.783 -0.6087  0.0184 -0.0366
 7489SOL    HW133929   2.776   1.152   4.758 -0.7297 -0.1712 -0.8342
 7489SOL    HW233930   2.847   1.024   4.789 -0.1112  0.8050 -2.3043
 7490SOL     OW33931   2.553   3.837  10.290  0.2507  0.0656  0.3525
 7490SOL    HW133932   2.628   3.798  10.336  0.2842 -0.9566 -0.5596
 7490SOL    HW233933   2.599   3.901  10.237  1.2930 -0.7487  0.2683
 7491SOL     OW33934   3.527   3.713  13.214  1.1465  0.3260  1.1862
 7491SOL    HW133935   3.613   3.714  13.256  1.0406  1.3985  1.3732
 7491SOL    HW233936   3.475   3.667  13.279  1.2918  0.6520  1.5299
 7492SOL     OW33937   2.729   0.241  17.277 -0.6164  0.4119 -0.1941
 7492SOL    HW133938   2.639   0.237  17.245 -0.2321  0.2439 -1.2559
 7492SOL    HW233939   2.780   0.196  17.209 -0.0697  1.3575 -0.4137
 7493SOL     OW33940   1.191   2.548   5.668  0.2908  0.2856  0.4190
 7493SOL    HW133941   1.283   2.536   5.644 -0.1260 -0.3212 -0.9275
 7493SOL    HW233942   1.171   2.455   5.677  4.0053 -0.4269  1.1882
 7494SOL     OW33943   0.348   2.323   2.987 -0.0408  0.3008 -0.4153
 7494SOL    HW133944   0.303   2.373   3.055 -0.1115 -0.0719 -0.1840
 7494SOL    HW233945   0.433   2.310   3.028 -1.0561  0.8862  1.8313
 7495SOL     OW33946   3.609   3.875   5.286  0.3448  0.5199 -0.7616
 7495SOL    HW133947   3.650   3.854   5.202 -1.1568 -2.2751 -0.8256
 7495SOL    HW233948   3.685   3.891   5.341 -0.1626 -2.4482  0.8155
 7496SOL     OW33949   2.233   1.600   3.434 -0.4394  0.1307 -0.0445
 7496SOL    HW133950   2.292   1.672   3.411 -0.7146  0.1369 -0.7204
 7496SOL    HW233951   2.305   1.537   3.448 -0.5186  0.1366  0.3675
 7497SOL     OW33952   2.076   2.652   4.137 -0.1660 -0.3633 -0.3746
 7497SOL    HW133953   2.059   2.745   4.148 -0.1658 -0.5479  1.1111
 7497SOL    HW233954   2.020   2.613   4.204  0.5401 -1.6085 -0.5157
 7498SOL     OW33955   1.069   0.484   8.615 -0.5339 -0.9198 -0.1343
 7498SOL    HW133956   1.074   0.500   8.710  2.7351  2.0261 -0.7910
 7498SOL    HW233957   1.009   0.550   8.580  0.7591  0.3993  0.0964
 7499SOL     OW33958   2.578   1.815   0.971  0.1033  0.4859 -0.3114
 7499SOL    HW133959   2.549   1.895   1.014 -0.3388 -0.1972  0.6577
 7499SOL    HW233960   2.665   1.803   1.010 -0.0251  1.2532  0.1984
 7500SOL     OW33961   0.748   2.034   7.917  0.6233  0.0531  0.1527
 7500SOL    HW133962   0.720   2.037   7.826  3.2694 -3.1171 -0.7492
 7500SOL    HW233963   0.830   1.991   7.892 -0.2905 -0.9339 -1.1134
 7501SOL     OW33964   3.392   2.087   5.873 -0.1144 -0.5189  0.2664
 7501SOL    HW133965   3.421   2.047   5.955 -2.4069 -2.5599  0.0588
 7501SOL    HW233966   3.348   2.006   5.846  1.7035 -1.4243  0.0245
 7502SOL     OW33967   3.445   4.262   3.636  0.4221  0.4459 -0.0449
 7502SOL    HW133968   3.432   4.181   3.687 -0.3396  0.6129  0.0182
 7502SOL    HW233969   3.353   4.281   3.617  0.8000  1.5257 -0.7652
 7503SOL     OW33970   2.371   3.567  10.414  0.3157 -0.5231  0.8828
 7503SOL    HW133971   2.279   3.582  10.437 -0.2829  0.5982 -2.2149
 7503SOL    HW233972   2.400   3.657  10.399 -2.4290  0.3753  0.9968
 7504SOL     OW33973   3.043   1.718   8.166 -0.6325 -0.5373 -0.3605
 7504SOL    HW133974   3.077   1.659   8.233 -0.5038 -0.1473 -0.0818
 7504SOL    HW233975   2.955   1.686   8.144 -0.9183 -1.0550  1.5124
 7505SOL     OW33976   4.098   4.531   8.120  0.1369  0.6394  0.4283
 7505SOL    HW133977   4.124   4.557   8.031 -1.6694 -1.3680 -0.6764
 7505SOL    HW233978   4.107   4.616   8.164  0.6990  0.7112  0.1817
 7506SOL     OW33979   1.182   0.493   9.484 -0.5761  0.0630  0.1150
 7506SOL    HW133980   1.203   0.506   9.576 -0.1243  0.7076 -0.0709
 7506SOL    HW233981   1.090   0.474   9.501 -0.9204  0.9112 -0.7385
 7507SOL     OW33982   1.595   0.246   8.037  0.0681  0.5115 -0.1992
 7507SOL    HW133983   1.606   0.288   8.123  0.8763  0.6593 -0.3711
 7507SOL    HW233984   1.664   0.181   8.051 -2.3527 -2.0071  0.0898
 7508SOL     OW33985   4.273   0.302  14.935 -0.8020 -0.7410  0.1105
 7508SOL    HW133986   4.218   0.355  14.993 -0.2104 -0.1438  0.1243
 7508SOL    HW233987   4.214   0.233  14.904  1.6341 -2.4902 -0.6152
 7509SOL     OW33988   3.562   1.188   9.061  0.5525 -0.3629  0.5784
 7509SOL    HW133989   3.547   1.259   9.124 -5.2573 -1.7339  0.7047
 7509SOL    HW233990   3.579   1.224   8.974  1.2958 -0.3023  0.7431
 7510SOL     OW33991   4.293   4.176   7.093  0.4452  0.2051  0.0521
 7510SOL    HW133992   4.356   4.246   7.072  1.0532 -1.0383 -2.2802
 7510SOL    HW233993   4.302   4.119   7.016 -0.5229  0.0721  0.0357
 7511SOL     OW33994   1.064   0.288  13.930  0.0056 -0.0447 -0.0322
 7511SOL    HW133995   1.060   0.383  13.943 -0.8077 -0.1554  0.5830
 7511SOL    HW233996   1.019   0.286  13.845 -2.6371 -1.3100  1.3862
 7512SOL     OW33997   4.213   3.796  10.413  0.2861  0.3379 -0.2348
 7512SOL    HW133998   4.260   3.767  10.335  1.4393  0.2967  0.4613
 7512SOL    HW233999   4.240   3.729  10.477  0.4652  1.3873  0.7918
 7513SOL     OW34000   4.388   2.623   8.096 -0.1481 -0.0527 -0.4794
 7513SOL    HW134001   4.456   2.557   8.080 -0.0903 -0.0091 -0.4148
 7513SOL    HW234002   4.351   2.603   8.182 -0.7120 -1.8084 -1.1388
 7514SOL     OW34003   2.818   3.334   5.299  0.1381  0.1330 -0.4194
 7514SOL    HW134004   2.753   3.385   5.250 -0.1899  0.6410  0.5398
 7514SOL    HW234005   2.898   3.372   5.262 -0.4755  1.8124 -0.0601
 7515SOL     OW34006   4.552   3.895   5.032 -0.6108  0.1300  0.4037
 7515SOL    HW134007   4.537   3.978   4.986 -0.4917 -0.1419 -0.1160
 7515SOL    HW234008   4.477   3.902   5.091 -1.4506 -0.4315 -0.6151
 7516SOL     OW34009   2.626   3.864   2.615  0.4662 -0.0176  0.4675
 7516SOL    HW134010   2.564   3.896   2.680  0.2282  0.3783  0.0429
 7516SOL    HW234011   2.666   3.794   2.666 -1.5739 -0.9481  0.7933
 7517SOL     OW34012   1.246   2.312   4.393 -0.1063 -0.3372 -0.6752
 7517SOL    HW134013   1.327   2.263   4.402  0.1515  0.0030 -1.1628
 7517SOL    HW234014   1.224   2.330   4.485  0.8685 -0.8759 -0.3399
 7518SOL     OW34015   2.771   2.321   3.204  0.1259 -0.5573  0.1323
 7518SOL    HW134016   2.722   2.403   3.212  0.0880 -0.7113  1.4530
 7518SOL    HW234017   2.712   2.258   3.244  0.6330 -0.7178  0.6367
 7519SOL     OW34018   2.785   0.646   6.747  0.3246 -0.0722  0.0870
 7519SOL    HW134019   2.822   0.657   6.835  0.4615  0.3650 -0.0257
 7519SOL    HW234020   2.743   0.731   6.731 -0.5847 -0.5350  0.0334
 7520SOL     OW34021   3.329   0.000  17.099 -0.0352 -0.1710  0.1662
 7520SOL    HW134022   3.379   4.700  17.178 -0.0664 -1.8897 -0.2808
 7520SOL    HW234023   3.378   0.070  17.055 -1.2142  1.4529  1.4394
 7521SOL     OW34024   0.158   4.578   2.035  0.4024  0.0020  0.1619
 7521SOL    HW134025   0.167   4.544   2.125  0.8333  1.8382  0.8038
 7521SOL    HW234026   0.078   4.629   2.049  1.8149  1.9784  0.9910
 7522SOL     OW34027   3.622   1.211   5.698 -0.2155 -0.5247  0.3540
 7522SOL    HW134028   3.575   1.275   5.643  2.0253  1.1748  0.4186
 7522SOL    HW234029   3.670   1.265   5.760 -2.9783 -0.6611  2.6156
 7523SOL     OW34030   2.301   3.351   1.999 -0.0024 -0.2419  0.1460
 7523SOL    HW134031   2.257   3.267   1.983  1.0674 -0.9486  0.9103
 7523SOL    HW234032   2.377   3.348   1.940 -0.5529 -2.5957 -0.4637
 7524SOL     OW34033   4.246   0.123   8.147 -0.1772 -0.2077  0.4745
 7524SOL    HW134034   4.257   0.176   8.226 -0.2329 -2.2877  1.8657
 7524SOL    HW234035   4.338   0.105   8.127 -0.8873 -1.4292 -1.6642
 7525SOL     OW34036   0.983   0.922   6.056 -0.3789  0.2375 -0.5179
 7525SOL    HW134037   1.057   0.898   6.000 -0.6054  0.8465 -1.0920
 7525SOL    HW234038   0.906   0.892   6.008  0.4364 -2.1848 -0.2977
 7526SOL     OW34039   1.180   0.637  15.380  0.5690 -0.3136  0.1064
 7526SOL    HW134040   1.100   0.643  15.327 -0.2673  1.3158  1.5811
 7526SOL    HW234041   1.230   0.703  15.331  0.6311  1.4088  2.5330
 7527SOL     OW34042   3.939   2.560  13.987  0.3392 -0.1922  0.2423
 7527SOL    HW134043   4.027   2.585  14.016  0.8793 -1.2163 -0.5014
 7527SOL    HW234044   3.927   2.487  14.047  1.3628  0.1995  0.9333
 7528SOL     OW34045   1.966   2.115  15.981 -0.5860  0.2729  0.0227
 7528SOL    HW134046   1.920   2.158  15.910  2.4856  1.7255 -1.0931
 7528SOL    HW234047   2.055   2.124  15.947  0.9586 -2.7257  3.1932
 7529SOL     OW34048   3.331   2.788   9.452  0.2259  0.3437  0.4261
 7529SOL    HW134049   3.355   2.697   9.467 -0.7719 -0.2693 -1.6036
 7529SOL    HW234050   3.391   2.835   9.510  1.3679  1.0227 -1.3185
 7530SOL     OW34051   0.914   1.520   1.354  0.1769 -0.0774 -0.2638
 7530SOL    HW134052   0.949   1.528   1.266  2.0797 -1.1702  0.3866
 7530SOL    HW234053   0.947   1.432   1.372  1.0652  0.2332 -0.4066
 7531SOL     OW34054   2.295   2.360  12.841  0.0452 -0.3808  0.3467
 7531SOL    HW134055   2.270   2.427  12.777  2.1971 -0.0825 -0.2064
 7531SOL    HW234056   2.221   2.349  12.900 -0.3215 -0.3430 -0.1120
 7532SOL     OW34057   2.593   3.079   3.222 -0.5248 -0.1661  0.2549
 7532SOL    HW134058   2.615   3.017   3.153  1.9729 -1.9200  2.6321
 7532SOL    HW234059   2.606   3.024   3.300  1.9222  1.2444  0.8303
 7533SOL     OW34060   1.887   1.689   3.828  0.0990  0.2325 -0.3413
 7533SOL    HW134061   1.952   1.692   3.758 -3.1002 -1.7896 -3.3644
 7533SOL    HW234062   1.886   1.599   3.860  0.7994 -0.4497 -2.2928
 7534SOL     OW34063   1.532   1.431   4.547  0.1459  0.2560  0.2124
 7534SOL    HW134064   1.513   1.459   4.637  0.1951  0.3700  0.1880
 7534SOL    HW234065   1.457   1.461   4.497  1.1389  0.1888 -1.3398
 7535SOL     OW34066   2.233   2.313   2.301  0.1027 -0.3249  0.0723
 7535SOL    HW134067   2.263   2.342   2.215 -1.5866 -1.2830 -0.8515
 7535SOL    HW234068   2.274   2.373   2.362 -0.4885 -0.7372  0.8809
 7536SOL     OW34069   4.240   0.982  13.412  0.1781 -0.4397  0.2093
 7536SOL    HW134070   4.187   1.030  13.475 -1.6206 -0.8853 -0.9702
 7536SOL    HW234071   4.220   1.027  13.330  0.2007  1.1123  1.0565
 7537SOL     OW34072   4.133   3.882   4.361 -0.2807 -0.2498  0.4676
 7537SOL    HW134073   4.204   3.939   4.334 -1.6619  1.4559  0.4091
 7537SOL    HW234074   4.077   3.871   4.284  1.9686  0.8732 -1.3154
 7538SOL     OW34075   3.064   3.895   4.011  0.5680 -0.1755  0.4016
 7538SOL    HW134076   3.042   3.826   3.949 -0.3117 -0.3216  0.8671
 7538SOL    HW234077   3.154   3.873   4.032  0.5944  0.6284  1.1158
 7539SOL     OW34078   4.464   0.226   6.171  0.3235 -0.1010  0.1870
 7539SOL    HW134079   4.537   0.251   6.227  1.4434  2.3764 -2.3789
 7539SOL    HW234080   4.497   0.237   6.082 -0.1065 -3.8026 -0.4364
 7540SOL     OW34081   4.701   1.906  15.577  0.3586 -0.8444 -0.1205
 7540SOL    HW134082   4.685   1.924  15.670  2.1098  1.8968 -0.3444
 7540SOL    HW234083   4.660   1.984  15.541 -0.2761 -0.4168  1.5168
 7541SOL     OW34084   2.303   1.137   7.544  0.1777  0.1872 -0.4216
 7541SOL    HW134085   2.281   1.044   7.551 -0.8328  0.3670 -1.1230
 7541SOL    HW234086   2.336   1.152   7.455 -1.9788 -1.1705 -1.4574
 7542SOL     OW34087   4.137   0.503   3.525  0.3309  0.0461  0.4635
 7542SOL    HW134088   4.163   0.459   3.444 -1.0171  1.7430 -0.8769
 7542SOL    HW234089   4.065   0.447   3.555  0.3797  1.0674  2.4713
 7543SOL     OW34090   3.185   4.369   7.013  0.1318  0.1150  0.7239
 7543SOL    HW134091   3.166   4.392   7.104 -2.8045  0.3734  0.0381
 7543SOL    HW234092   3.254   4.303   7.014  0.2258  0.1756 -0.8943
 7544SOL     OW34093   1.723   2.182  15.236 -0.1126  0.0203  0.5510
 7544SOL    HW134094   1.758   2.181  15.325 -0.0337 -2.3912  0.4905
 7544SOL    HW234095   1.786   2.120  15.199 -4.1136 -2.1104 -2.7695
 7545SOL     OW34096   2.694   3.704   0.804  0.3722  0.1453  0.2138
 7545SOL    HW134097   2.634   3.760   0.754  2.6372  1.0506 -1.5253
 7545SOL    HW234098   2.653   3.618   0.801 -1.0806  0.8467 -0.5098
 7546SOL     OW34099   3.115   1.570  11.131  0.1487 -0.0954 -0.2452
 7546SOL    HW134100   3.059   1.498  11.101 -0.1191  0.1604 -0.3573
 7546SOL    HW234101   3.050   1.634  11.160  2.6908  2.2002  0.4317
 7547SOL     OW34102   0.870   1.162   5.355  0.6777 -0.2175  0.1143
 7547SOL    HW134103   0.794   1.197   5.401  1.2535 -1.2415  1.8466
 7547SOL    HW234104   0.891   1.087   5.411  1.2217  0.6223  1.0343
 7548SOL     OW34105   4.509   3.600   2.573 -0.2912 -0.0113 -0.2698
 7548SOL    HW134106   4.517   3.545   2.651 -0.3901 -0.8930 -0.8896
 7548SOL    HW234107   4.513   3.531   2.507 -0.7546 -0.2799 -0.0178
 7549SOL     OW34108   2.491   3.527   0.846 -0.1832  0.4562  0.4720
 7549SOL    HW134109   2.482   3.565   0.933  0.6169 -1.1509  1.2578
 7549SOL    HW234110   2.416   3.569   0.804  2.0043  2.5664 -1.2616
 7550SOL     OW34111   3.306   3.595  10.959  0.1953  0.1743 -0.0393
 7550SOL    HW134112   3.268   3.642  10.885  2.7967 -1.2832 -2.3170
 7550SOL    HW234113   3.232   3.593  11.019 -0.0096  1.5243 -0.2609
 7551SOL     OW34114   1.927   3.609   7.038 -0.3410  0.6876 -0.3768
 7551SOL    HW134115   1.895   3.642   6.953 -0.6880  0.5382 -0.3045
 7551SOL    HW234116   1.864   3.540   7.057 -0.2703  0.0526 -2.4365
 7552SOL     OW34117   2.619   4.424  14.828  0.1221 -0.1128 -0.1011
 7552SOL    HW134118   2.614   4.401  14.735 -2.7432 -1.3684  0.3959
 7552SOL    HW234119   2.562   4.362  14.872 -0.2562  0.1559 -0.2148
 7553SOL     OW34120   3.993   1.894   7.202 -0.3202  0.3066 -0.3752
 7553SOL    HW134121   3.960   1.804   7.195  1.6255 -0.2679 -2.0819
 7553SOL    HW234122   3.976   1.923   7.112 -3.4358 -2.3271 -0.6397
 7554SOL     OW34123   2.283   1.066   3.834  0.2326 -0.4981  0.5204
 7554SOL    HW134124   2.207   1.115   3.804 -0.0312 -1.2422 -0.0175
 7554SOL    HW234125   2.331   1.064   3.752 -1.8782 -0.8992 -0.6943
 7555SOL     OW34126   4.096   4.018   4.856 -0.1995  0.3407  0.0546
 7555SOL    HW134127   4.070   4.036   4.946 -2.7788 -0.5012 -0.5255
 7555SOL    HW234128   4.173   3.971   4.887 -1.1567 -1.0156  0.3863
 7556SOL     OW34129   4.366   0.126  11.850  0.4421 -0.7362 -0.0037
 7556SOL    HW134130   4.405   0.212  11.864 -1.3539  0.3760 -1.9247
 7556SOL    HW234131   4.322   0.133  11.765  1.1285  2.9062 -0.0595
 7557SOL     OW34132   1.203   4.655   3.620 -0.5801 -0.1963 -0.2227
 7557SOL    HW134133   1.164   4.593   3.681  3.2132 -1.0901  1.2726
 7557SOL    HW234134   1.138   4.663   3.549 -2.1442 -1.6585  1.0406
 7558SOL     OW34135   3.199   2.471   6.304  0.0512 -0.5629  0.1072
 7558SOL    HW134136   3.160   2.555   6.280  1.7439  0.2572  0.2330
 7558SOL    HW234137   3.293   2.475   6.290 -0.1681  0.7025 -1.0282
 7559SOL     OW34138   3.344   1.377  11.099 -0.5806  0.2093 -0.7400
 7559SOL    HW134139   3.276   1.310  11.108  0.0064 -0.4677 -1.2844
 7559SOL    HW234140   3.288   1.454  11.109 -2.1625 -1.3054  2.0431
 7560SOL     OW34141   2.940   4.316  12.147  0.0718  0.3459  0.1451
 7560SOL    HW134142   2.950   4.226  12.179 -0.4687  0.4916  0.7067
 7560SOL    HW234143   3.032   4.334  12.127  0.1354  2.2146  2.1333
 7561SOL     OW34144   2.393   1.617  15.237 -0.1509  0.0105 -0.4067
 7561SOL    HW134145   2.305   1.606  15.202 -0.1190 -2.1633  0.2302
 7561SOL    HW234146   2.392   1.709  15.264 -0.9597  0.6829 -2.6737
 7562SOL     OW34147   2.967   1.397  12.099  0.3514 -0.3479 -0.0225
 7562SOL    HW134148   2.997   1.325  12.156  0.2263 -0.1931  0.2392
 7562SOL    HW234149   2.921   1.346  12.032 -3.6346 -1.4841  3.5731
 7563SOL     OW34150   1.826   2.479   8.139 -0.1592  0.6482 -1.1041
 7563SOL    HW134151   1.919   2.489   8.161 -0.4685 -1.5897  1.1817
 7563SOL    HW234152   1.837   2.412   8.073 -0.7827 -0.5519  0.0138
 7564SOL     OW34153   3.694   1.832   2.753  0.7310  0.2683 -0.5474
 7564SOL    HW134154   3.606   1.862   2.727 -0.2220 -1.8244  0.3022
 7564SOL    HW234155   3.694   1.744   2.715  1.3306 -0.2562  0.6700
 7565SOL     OW34156   2.993   2.313   7.934 -0.0756  0.2864  0.1302
 7565SOL    HW134157   2.898   2.319   7.947 -0.1644  1.1247 -0.8412
 7565SOL    HW234158   3.000   2.244   7.869 -1.5062  0.0627  0.2193
 7566SOL     OW34159   4.029   0.275   5.949 -0.1003 -0.4296  0.0196
 7566SOL    HW134160   4.045   0.328   5.870 -0.5980 -1.3832 -0.7215
 7566SOL    HW234161   4.115   0.285   5.988 -0.7137 -0.4501  1.3549
 7567SOL     OW34162   3.681   4.492   7.561  0.2608 -0.0615  0.1956
 7567SOL    HW134163   3.690   4.539   7.478  1.0698  0.6408  0.6756
 7567SOL    HW234164   3.637   4.413   7.529 -0.8777  1.3381 -1.7201
 7568SOL     OW34165   1.504   2.231  16.850  0.3587  0.0791  0.4688
 7568SOL    HW134166   1.523   2.181  16.929  2.7356 -0.2263 -0.2857
 7568SOL    HW234167   1.433   2.182  16.808  0.4019 -0.6126  1.2040
 7569SOL     OW34168   4.160   3.194  14.372  0.1766 -0.2067 -0.1820
 7569SOL    HW134169   4.175   3.278  14.416  2.2041  0.6519 -2.4435
 7569SOL    HW234170   4.225   3.146  14.423  0.8412  0.6767 -0.1805
 7570SOL     OW34171   0.063   1.019   4.637  0.0801  0.2906  0.0222
 7570SOL    HW134172   0.028   1.084   4.576 -1.8216 -0.0702  0.7392
 7570SOL    HW234173   0.153   1.051   4.632  0.0813  0.4758  1.2264
 7571SOL     OW34174   0.332   1.485   5.878  0.3362  0.3361  0.1095
 7571SOL    HW134175   0.366   1.420   5.940  0.9386 -0.1687 -0.7540
 7571SOL    HW234176   0.316   1.557   5.940 -0.5512 -1.6167  2.1608
 7572SOL     OW34177   0.445   3.985   5.316 -0.1081 -0.3628 -0.0494
 7572SOL    HW134178   0.438   3.901   5.271  3.1310 -1.2822  1.1186
 7572SOL    HW234179   0.380   3.979   5.386  0.1317  0.3546  0.2410
 7573SOL     OW34180   3.552   2.595  11.718 -0.2253  0.0084 -0.0836
 7573SOL    HW134181   3.568   2.522  11.778 -1.3989  0.0427  0.2827
 7573SOL    HW234182   3.552   2.666  11.782  2.8824  0.3514 -0.4907
 7574SOL     OW34183   3.081   0.181   1.776  0.2761 -0.1869 -0.1107
 7574SOL    HW134184   3.128   0.137   1.706  0.3835  1.2460 -0.9329
 7574SOL    HW234185   3.120   0.267   1.764  2.1997 -0.8696  1.1391
 7575SOL     OW34186   0.490   0.043   4.747  0.4235 -0.2432  0.3873
 7575SOL    HW134187   0.564   0.086   4.789 -0.5297  1.3552  0.4386
 7575SOL    HW234188   0.528   0.022   4.662 -1.6246 -1.7506 -0.1668
 7576SOL     OW34189   1.796   1.952   3.737  0.2916  0.2316 -0.0792
 7576SOL    HW134190   1.826   1.862   3.744 -1.4791 -0.4302 -0.9190
 7576SOL    HW234191   1.863   1.987   3.679  1.4525  0.9539  1.7171
 7577SOL     OW34192   1.824   3.436  15.892  0.4681 -0.6510  0.7216
 7577SOL    HW134193   1.751   3.483  15.851  1.6051  0.8890  0.4396
 7577SOL    HW234194   1.892   3.454  15.827  0.0440  0.2748  0.5321
 7578SOL     OW34195   0.685   2.618  10.542  0.2096  0.1991 -0.4868
 7578SOL    HW134196   0.628   2.694  10.536  0.7053  0.6788  1.0434
 7578SOL    HW234197   0.749   2.644  10.475  0.4087 -1.4125 -0.9337
 7579SOL     OW34198   1.121   1.062   0.293  0.0677 -0.0873 -0.2672
 7579SOL    HW134199   1.198   1.077   0.349 -0.2092  1.0060 -0.1889
 7579SOL    HW234200   1.147   1.121   0.223  0.2710 -1.0779 -1.0252
 7580SOL     OW34201   1.841   1.382   6.849 -0.4100  0.1917 -0.4513
 7580SOL    HW134202   1.795   1.309   6.890 -2.1400 -0.3683 -3.3231
 7580SOL    HW234203   1.924   1.384   6.896 -1.0522  1.3877  0.6104
 7581SOL     OW34204   4.614   2.931   4.606  0.4157  0.3172  0.3333
 7581SOL    HW134205   4.699   2.934   4.564 -0.1667  4.2898 -0.5705
 7581SOL    HW234206   4.644   2.909   4.694 -1.3255  0.4395  0.9710
 7582SOL     OW34207   0.637   2.843   2.362 -0.4097  0.0573 -0.0195
 7582SOL    HW134208   0.714   2.824   2.307 -1.1557  0.5478 -1.2415
 7582SOL    HW234209   0.672   2.925   2.396 -0.3974 -0.2747  0.7635
 7583SOL     OW34210   4.064   0.928  12.611  0.2046 -0.1236  0.6433
 7583SOL    HW134211   4.086   0.953  12.521 -1.7644  2.3147  0.8365
 7583SOL    HW234212   4.090   1.013  12.646 -1.0008  0.7335 -0.5596
 7584SOL     OW34213   2.752   1.899  10.145  0.1402 -0.0210 -0.3205
 7584SOL    HW134214   2.721   1.811  10.164  3.3324 -1.0048  0.3309
 7584SOL    HW234215   2.684   1.935  10.088 -1.2703 -1.0421  0.7270
 7585SOL     OW34216   1.683   3.343   2.680 -0.0568 -0.3935 -0.1381
 7585SOL    HW134217   1.705   3.421   2.630  0.5798 -1.4612 -1.4995
 7585SOL    HW234218   1.606   3.373   2.729 -0.1530  1.2615 -1.3260
 7586SOL     OW34219   1.310   1.145   7.151  0.1813  0.3726 -0.3084
 7586SOL    HW134220   1.374   1.202   7.109  1.5538 -0.0778  1.1531
 7586SOL    HW234221   1.275   1.092   7.080 -1.5925  0.2418  0.6766
 7587SOL     OW34222   0.906   0.338  15.353 -0.3333 -0.0560 -0.5872
 7587SOL    HW134223   0.903   0.434  15.353  0.0338 -0.0523  0.1719
 7587SOL    HW234224   0.908   0.327  15.258  1.7913  0.0361 -0.5595
 7588SOL     OW34225   1.527   3.432  13.605  0.5299 -0.0312 -0.2375
 7588SOL    HW134226   1.517   3.339  13.628  0.0048 -1.1938 -5.1264
 7588SOL    HW234227   1.602   3.441  13.664 -3.1052 -0.8600  4.5571
 7589SOL     OW34228   0.215   0.611   2.747 -0.0688 -0.4391  0.0321
 7589SOL    HW134229   0.266   0.577   2.820 -0.0810  1.0747  0.7351
 7589SOL    HW234230   0.148   0.543   2.745  0.3400 -0.8148 -0.9769
 7590SOL     OW34231   3.785   0.381  16.023  0.5288  0.1090 -0.5413
 7590SOL    HW134232   3.708   0.432  16.046  2.6758  3.1340 -0.0272
 7590SOL    HW234233   3.841   0.432  15.965  0.3323  1.9220  0.8862
 7591SOL     OW34234   1.031   3.419   8.446 -0.2081 -0.0147 -0.4404
 7591SOL    HW134235   0.981   3.476   8.505 -2.5045 -1.4598 -0.9917
 7591SOL    HW234236   1.055   3.486   8.381 -1.6359  1.3201  0.4106
 7592SOL     OW34237   1.401   0.462   6.659  0.0984 -0.4907  0.3492
 7592SOL    HW134238   1.486   0.482   6.621 -0.7208  0.1657 -1.1337
 7592SOL    HW234239   1.410   0.371   6.688  1.1295 -0.5004  0.0068
 7593SOL     OW34240   3.346   0.729   5.155 -0.2518 -0.2293 -0.1495
 7593SOL    HW134241   3.276   0.792   5.170  0.7580  0.9603 -0.4195
 7593SOL    HW234242   3.347   0.686   5.240  0.9365 -3.0832 -1.5790
 7594SOL     OW34243   2.707   2.010  12.742  0.7948 -0.3848  0.2792
 7594SOL    HW134244   2.673   1.978  12.826 -0.6690  1.9227  0.5563
 7594SOL    HW234245   2.795   2.043  12.762  0.7966  0.8044 -1.7414
 7595SOL     OW34246   4.192   2.943  15.156 -0.1057 -0.5779  0.2092
 7595SOL    HW134247   4.248   2.865  15.164 -1.6467 -1.7754 -0.6927
 7595SOL    HW234248   4.239   2.994  15.222 -1.7352  2.6229 -1.1237
 7596SOL     OW34249   3.485   0.368   9.881 -0.3032  0.0787 -0.4530
 7596SOL    HW134250   3.472   0.304   9.811  0.8755 -0.8422  0.1737
 7596SOL    HW234251   3.427   0.440   9.853  1.3235  1.1386 -1.1282
 7597SOL     OW34252   0.333   0.273   6.236  0.1118 -0.0319  0.0878
 7597SOL    HW134253   0.416   0.241   6.272  0.2663  1.4462  1.0684
 7597SOL    HW234254   0.331   0.353   6.289  0.6233  0.3692 -0.4998
 7598SOL     OW34255   0.360   2.746   1.020  0.3210  0.0104  0.6873
 7598SOL    HW134256   0.427   2.678   1.022 -0.8845 -1.1902  0.2000
 7598SOL    HW234257   0.390   2.798   1.095 -0.6585  0.1535  0.9939
 7599SOL     OW34258   0.051   0.520  11.679  0.4842  0.1705 -0.0654
 7599SOL    HW134259   0.140   0.484  11.684 -0.3624 -1.7113  1.4402
 7599SOL    HW234260   0.054   0.593  11.740 -0.1338  0.7890 -0.7748
 7600SOL     OW34261   3.858   3.093   5.650  0.2955 -0.3318 -0.0895
 7600SOL    HW134262   3.882   3.057   5.736  0.4924 -0.5990 -0.2549
 7600SOL    HW234263   3.910   3.036   5.593 -0.1903  0.2794 -1.1201
 7601SOL     OW34264   1.683   3.109   1.842  0.7791 -0.8958  0.2028
 7601SOL    HW134265   1.684   3.083   1.750 -2.5845 -0.1751 -0.0354
 7601SOL    HW234266   1.738   3.035   1.870  1.0755 -0.3233  1.1457
 7602SOL     OW34267   2.190   1.050  17.154  0.0186 -0.0833  0.6613
 7602SOL    HW134268   2.249   0.995  17.103 -2.7892 -2.8031  0.3652
 7602SOL    HW234269   2.163   0.987  17.221 -0.9129  1.2799  1.5569
 7603SOL     OW34270   4.414   3.217  16.679  0.4020  1.4374  0.7986
 7603SOL    HW134271   4.509   3.225  16.688  0.5918 -0.4019  0.4316
 7603SOL    HW234272   4.395   3.263  16.597  0.3694  1.0217  0.5754
 7604SOL     OW34273   0.309   1.924   5.376  0.6551 -0.1318 -0.1244
 7604SOL    HW134274   0.328   2.018   5.381 -3.2917  0.7221 -1.2057
 7604SOL    HW234275   0.366   1.886   5.309 -0.2375  0.4743 -1.2324
 7605SOL     OW34276   4.221   1.620   4.302  0.3270 -0.4914 -0.2088
 7605SOL    HW134277   4.139   1.598   4.347 -0.2393  1.6169 -0.2375
 7605SOL    HW234278   4.261   1.692   4.350  0.6281  1.0543 -2.8028
 7606SOL     OW34279   3.166   2.576  16.588 -0.1541  0.1449  0.0574
 7606SOL    HW134280   3.097   2.533  16.638 -0.9357 -1.5775 -2.5555
 7606SOL    HW234281   3.179   2.503  16.528 -0.0504 -0.9150  1.3612
 7607SOL     OW34282   3.359   3.808  15.254 -0.2945 -0.2498  0.4752
 7607SOL    HW134283   3.395   3.873  15.314 -3.8421  2.1082  0.0719
 7607SOL    HW234284   3.276   3.796  15.301 -0.8242  0.9884 -0.1457
 7608SOL     OW34285   2.643   2.074   2.609 -0.3396  0.2319  0.0469
 7608SOL    HW134286   2.597   2.040   2.533  0.3772 -1.5709  0.4077
 7608SOL    HW234287   2.710   2.007   2.622  0.0038  0.3987 -0.8370
 7609SOL     OW34288   0.884   4.284   7.574  0.1390  0.1901 -0.2135
 7609SOL    HW134289   0.832   4.358   7.607  0.0194 -0.5377  1.2056
 7609SOL    HW234290   0.953   4.333   7.530 -1.3327  1.7168 -0.8464
 7610SOL     OW34291   3.631   2.001   6.205 -0.3909  0.1061  0.1492
 7610SOL    HW134292   3.670   1.930   6.256  1.2764  1.8253  1.2172
 7610SOL    HW234293   3.697   2.069   6.198  0.9985 -1.3892 -1.1777
 7611SOL     OW34294   1.944   1.244  11.019 -0.2751  0.4481  0.5791
 7611SOL    HW134295   2.008   1.296  11.068 -0.7702  2.7221 -1.2292
 7611SOL    HW234296   1.958   1.160  11.064  1.5920  0.6117  0.3053
 7612SOL     OW34297   0.333   4.469   3.670 -0.0806 -1.0052  0.3980
 7612SOL    HW134298   0.268   4.404   3.696 -0.5187  0.2235  2.3509
 7612SOL    HW234299   0.330   4.525   3.747  0.5181 -1.0222  0.4347
 7613SOL     OW34300   3.984   4.091   7.618  0.2287  0.1050  0.1455
 7613SOL    HW134301   3.987   4.160   7.684 -1.0475  0.7668 -0.4802
 7613SOL    HW234302   4.057   4.035   7.643  1.4330  1.0444 -1.3041
 7614SOL     OW34303   0.686   1.181   3.097  0.2358 -0.2485 -0.4068
 7614SOL    HW134304   0.618   1.190   3.164  0.8400 -0.8794  0.2886
 7614SOL    HW234305   0.721   1.269   3.088 -0.7769 -0.1093 -2.9445
 7615SOL     OW34306   2.560   3.355   7.874  0.5501 -0.3410 -0.7353
 7615SOL    HW134307   2.482   3.389   7.832 -0.7569  0.0209  1.9883
 7615SOL    HW234308   2.538   3.268   7.909  1.0530 -1.3421 -2.8760
 7616SOL     OW34309   0.104   1.213   4.922  0.4065  0.3964 -0.3511
 7616SOL    HW134310   0.161   1.283   4.890 -0.2505  1.4091  0.7004
 7616SOL    HW234311   0.038   1.216   4.852 -0.6811 -0.6321  0.6374
 7617SOL     OW34312   3.285   2.366  16.455 -0.0521 -0.0730 -0.3912
 7617SOL    HW134313   3.307   2.309  16.381  0.9037  1.1869 -1.1046
 7617SOL    HW234314   3.362   2.350  16.509 -1.1898 -0.5178  1.0808
 7618SOL     OW34315   3.580   0.248   0.674 -0.4892 -0.3884  0.3257
 7618SOL    HW134316   3.659   0.287   0.636 -1.3533  1.9035  0.9083
 7618SOL    HW234317   3.512   0.300   0.632 -1.0755 -1.7716 -0.4567
 7619SOL     OW34318   2.239   0.970  16.073 -0.2906 -0.1079 -0.0572
 7619SOL    HW134319   2.234   0.933  15.985  0.0001 -2.8547  1.0947
 7619SOL    HW234320   2.216   0.893  16.124 -0.6056  0.8369  1.2131
 7620SOL     OW34321   0.183   4.103  17.248 -0.2284  0.0207  0.0123
 7620SOL    HW134322   0.101   4.106  17.199  0.5574 -1.7402 -1.4474
 7620SOL    HW234323   0.168   4.065  17.334 -1.0111 -1.0863 -0.6060
 7621SOL     OW34324   0.960   2.339   3.554 -0.8372  0.4418 -0.2459
 7621SOL    HW134325   1.034   2.322   3.613 -0.3571 -1.4537 -1.4086
 7621SOL    HW234326   0.938   2.250   3.529  1.1620 -0.1698  0.1079
 7622SOL     OW34327   4.157   1.676  13.198  0.0107  0.1850 -0.0705
 7622SOL    HW134328   4.147   1.663  13.104  1.7341 -0.7207 -0.1213
 7622SOL    HW234329   4.090   1.744  13.201  0.0270  0.2032 -0.1244
 7623SOL     OW34330   3.054   4.245   9.171 -0.0937 -0.2813 -0.1487
 7623SOL    HW134331   2.984   4.286   9.119  2.4710  3.5395 -0.5962
 7623SOL    HW234332   3.118   4.313   9.191 -1.3598  0.6511  0.7217
 7624SOL     OW34333   1.574   0.801  14.239  0.2871  0.6407 -0.6060
 7624SOL    HW134334   1.586   0.789  14.333  0.1132  1.1295 -0.5217
 7624SOL    HW234335   1.580   0.713  14.201 -1.9269  0.9217 -1.5860
 7625SOL     OW34336   4.514   3.864   1.905  0.0498 -0.5405 -0.0032
 7625SOL    HW134337   4.563   3.870   1.824 -0.8443 -0.6558 -0.5556
 7625SOL    HW234338   4.460   3.789   1.882  1.0378 -0.3949 -2.7243
 7626SOL     OW34339   3.228   2.751   5.651  0.6320  0.4884 -0.6487
 7626SOL    HW134340   3.173   2.679   5.684  0.8253  0.5228 -0.2568
 7626SOL    HW234341   3.239   2.730   5.559 -1.3250  1.2629 -1.0638
 7627SOL     OW34342   3.264   3.281   4.078 -0.2949 -0.1352 -0.1866
 7627SOL    HW134343   3.337   3.272   4.016 -0.1556  0.8550 -0.1600
 7627SOL    HW234344   3.183   3.269   4.029  0.5455  0.4285 -1.7344
 7628SOL     OW34345   3.564   0.770   5.480 -0.4450 -0.1023  0.5939
 7628SOL    HW134346   3.657   0.778   5.457 -0.0859 -1.1100  1.6743
 7628SOL    HW234347   3.532   0.855   5.450  0.1773 -0.6713 -1.6525
 7629SOL     OW34348   3.888   0.460   8.846 -0.1106 -0.1257 -0.1730
 7629SOL    HW134349   3.924   0.529   8.790 -0.0228 -0.6245 -0.7407
 7629SOL    HW234350   3.795   0.473   8.831 -0.4133 -0.3707  1.4983
 7630SOL     OW34351   1.123   3.630   5.763 -0.0879 -0.3873  0.6069
 7630SOL    HW134352   1.104   3.724   5.765 -0.2241 -0.4625  2.8935
 7630SOL    HW234353   1.099   3.611   5.672 -2.9557  0.8590  1.1175
 7631SOL     OW34354   4.410   2.732   8.384 -0.0541 -0.0013  0.6720
 7631SOL    HW134355   4.476   2.664   8.369  1.0834  1.3706 -0.5519
 7631SOL    HW234356   4.460   2.813   8.394  1.8482 -1.1971  0.7521
 7632SOL     OW34357   1.634   4.232  11.517 -0.1613 -0.1715  0.4705
 7632SOL    HW134358   1.681   4.153  11.541 -1.4736 -1.0606  0.1428
 7632SOL    HW234359   1.692   4.297  11.557  1.6044 -0.0039 -2.3417
 7633SOL     OW34360   3.402   3.363   7.423  0.5724 -0.3057 -0.6604
 7633SOL    HW134361   3.495   3.384   7.432  0.0930  1.7746 -0.7461
 7633SOL    HW234362   3.361   3.406   7.497  0.0531 -1.2729 -0.3803
 7634SOL     OW34363   0.784   4.110   4.843 -0.1450  0.8470 -0.0318
 7634SOL    HW134364   0.737   4.072   4.769  2.3449 -1.3959 -0.4386
 7634SOL    HW234365   0.765   4.204   4.832 -3.3411  0.2638  0.5261
 7635SOL     OW34366   0.210   1.722   4.848  0.5707 -0.3016  0.1017
 7635SOL    HW134367   0.285   1.721   4.789  1.1200  1.9523  0.7729
 7635SOL    HW234368   0.218   1.810   4.885  1.4142 -0.1554 -0.4526
 7636SOL     OW34369   1.465   3.057  13.968 -0.3043  0.7294  0.1587
 7636SOL    HW134370   1.380   3.016  13.981  0.1013 -0.5026 -1.0801
 7636SOL    HW234371   1.520   3.004  14.025  0.0013  1.6390  0.7144
 7637SOL     OW34372   0.503   3.643   3.313  0.4982 -0.5596 -0.4866
 7637SOL    HW134373   0.569   3.661   3.246  0.4413 -1.7810 -0.8707
 7637SOL    HW234374   0.460   3.566   3.276 -2.4008  1.3843 -1.1451
 7638SOL     OW34375   2.845   2.341   2.889  0.2981 -0.1465 -0.3005
 7638SOL    HW134376   2.805   2.332   2.976  2.1312 -1.0756  0.4561
 7638SOL    HW234377   2.785   2.291   2.833 -2.3184  0.6283  1.7844
 7639SOL     OW34378   4.165   3.174   6.799  0.2185 -0.3880 -0.1012
 7639SOL    HW134379   4.085   3.224   6.786 -0.3059 -1.1836  0.0612
 7639SOL    HW234380   4.128   3.086   6.808 -0.2911 -0.1371  0.2879
 7640SOL     OW34381   4.717   2.962   0.374 -0.5258  0.1567 -0.1501
 7640SOL    HW134382   0.028   2.875   0.397 -2.9693 -1.0929 -1.4060
 7640SOL    HW234383   0.040   2.976   0.291 -1.2049  3.0227 -0.0528
 7641SOL     OW34384   1.317   2.320   1.142  0.6916 -0.1650 -0.3491
 7641SOL    HW134385   1.312   2.256   1.213 -0.4491 -1.9143 -2.0132
 7641SOL    HW234386   1.224   2.342   1.132  1.3772  3.0834  0.3236
 7642SOL     OW34387   1.093   4.506   5.054  0.3211 -0.7790  0.0900
 7642SOL    HW134388   1.130   4.438   4.998  1.0529  1.8410 -2.5757
 7642SOL    HW234389   0.999   4.485   5.061 -0.2913  2.2889  1.1214
 7643SOL     OW34390   0.744   4.491   6.283  0.1701  0.4502  0.5302
 7643SOL    HW134391   0.805   4.485   6.357  0.8952  3.5704  0.1968
 7643SOL    HW234392   0.728   4.585   6.280  1.5841  0.6789  0.1559
 7644SOL     OW34393   0.935   0.440   6.119  0.3179 -0.8480  0.3422
 7644SOL    HW134394   0.855   0.387   6.123 -0.3961  0.3412  1.5342
 7644SOL    HW234395   0.996   0.366   6.128 -1.0502 -1.9264  0.8983
 7645SOL     OW34396   4.571   2.534  16.085  0.0271 -0.1908 -0.2611
 7645SOL    HW134397   4.487   2.489  16.083 -0.4150  0.7312 -2.0484
 7645SOL    HW234398   4.552   2.612  16.138  1.3348 -0.1828  0.2191
 7646SOL     OW34399   4.287   1.884  10.228  0.6623  0.2542 -0.1666
 7646SOL    HW134400   4.297   1.794  10.258  1.6443  0.0832 -1.0413
 7646SOL    HW234401   4.367   1.898  10.177  2.2415 -2.0552  1.6833
 7647SOL     OW34402   4.289   4.367   1.301 -0.6118 -0.1569  0.2815
 7647SOL    HW134403   4.196   4.383   1.319 -0.7024  1.6932 -1.8342
 7647SOL    HW234404   4.284   4.304   1.229 -0.2945 -1.3992  1.3334
 7648SOL     OW34405   2.326   0.541   8.229  0.5485 -0.0536 -0.2495
 7648SOL    HW134406   2.267   0.616   8.232  0.8375  0.2275 -1.2302
 7648SOL    HW234407   2.269   0.471   8.198  0.6089 -0.5140  0.6814
 7649SOL     OW34408   1.396   2.571  11.005  0.1972 -0.7327 -0.0367
 7649SOL    HW134409   1.308   2.545  11.031  0.2709 -0.6722  0.2779
 7649SOL    HW234410   1.411   2.644  11.065 -0.9339 -0.6493  0.1368
 7650SOL     OW34411   3.998   3.839  17.453  0.2549  0.0645 -0.3306
 7650SOL    HW134412   4.043   3.756  17.439  1.5536  0.5757  0.7746
 7650SOL    HW234413   4.046   3.885  17.384  0.3039 -0.5372 -0.6912
 7651SOL     OW34414   4.307   4.288   4.683 -0.2294 -0.4793 -0.1411
 7651SOL    HW134415   4.359   4.236   4.744  0.7217  0.9015  0.2154
 7651SOL    HW234416   4.220   4.282   4.723  0.0403  0.8689  0.6473
 7652SOL     OW34417   3.508   0.585   2.411  0.7803 -0.2350 -0.0429
 7652SOL    HW134418   3.603   0.576   2.420  0.5257 -1.6654  1.3597
 7652SOL    HW234419   3.496   0.587   2.317  0.2033  0.5335  0.0494
 7653SOL     OW34420   1.155   1.209   5.684  0.1881 -0.9258 -0.8583
 7653SOL    HW134421   1.167   1.197   5.590  1.1366 -2.1129 -0.5905
 7653SOL    HW234422   1.078   1.153   5.692 -0.4578  0.2490  1.1313
 7654SOL     OW34423   1.817   1.466   5.031  0.5641  0.4543 -0.0701
 7654SOL    HW134424   1.872   1.450   4.955 -1.1749  0.9466 -1.4390
 7654SOL    HW234425   1.865   1.411   5.094 -1.9398 -1.6369  0.0260
 7655SOL     OW34426   3.749   1.654  15.423 -0.5125 -0.8257  0.2425
 7655SOL    HW134427   3.825   1.694  15.381 -0.5320 -0.9815  0.0604
 7655SOL    HW234428   3.719   1.601  15.350  1.7499  0.6401 -1.7260
 7656SOL     OW34429   3.675   1.491   6.163 -0.0589 -0.2549 -0.1557
 7656SOL    HW134430   3.604   1.447   6.115 -2.3079  1.9381  1.1283
 7656SOL    HW234431   3.637   1.576   6.186 -1.3878 -1.1476  0.9430
 7657SOL     OW34432   0.360   1.267   8.122  1.0453 -0.4004 -0.1303
 7657SOL    HW134433   0.350   1.356   8.087 -0.2898 -0.7253 -0.5638
 7657SOL    HW234434   0.329   1.267   8.212 -1.6388 -1.2059 -1.0625
 7658SOL     OW34435   2.374   0.180   3.322  0.0701 -0.1831  0.2257
 7658SOL    HW134436   2.351   0.220   3.406 -1.9988  1.6435 -1.2311
 7658SOL    HW234437   2.469   0.192   3.321  0.0678 -0.1858  0.0614
 7659SOL     OW34438   0.616   4.526  12.768  0.4204 -0.6233  0.3591
 7659SOL    HW134439   0.595   4.598  12.826  0.7530 -0.0964 -0.1715
 7659SOL    HW234440   0.575   4.554  12.686 -0.5395  0.2840  1.1548
 7660SOL     OW34441   4.233   4.703   2.949  0.7079  0.5822 -0.6551
 7660SOL    HW134442   4.217   4.609   2.963  0.1137  0.2318 -3.7783
 7660SOL    HW234443   4.186   4.715   2.867 -0.7045  1.0391  0.2255
 7661SOL     OW34444   2.629   1.716  17.563 -0.4844  0.1241  0.0049
 7661SOL    HW134445   2.705   1.699  17.618 -1.2044 -0.6766  0.7672
 7661SOL    HW234446   2.604   1.626  17.538  0.8252 -0.0407 -0.6965
 7662SOL     OW34447   3.807   4.521  13.091  0.5752  0.2759  0.1488
 7662SOL    HW134448   3.721   4.479  13.089  0.9571 -0.5246  0.2998
 7662SOL    HW234449   3.853   4.437  13.084  2.1869  1.0235  1.7335
 7663SOL     OW34450   0.133   2.468   9.233 -0.3683  0.3287 -0.0072
 7663SOL    HW134451   0.145   2.388   9.285  1.1071 -0.8211 -2.0996
 7663SOL    HW234452   0.221   2.488   9.200 -0.3499 -0.1966 -0.2868
 7664SOL     OW34453   2.391   4.491  10.387  0.4561 -0.3420  0.0646
 7664SOL    HW134454   2.351   4.440  10.458 -1.1852 -0.7045 -1.1347
 7664SOL    HW234455   2.377   4.438  10.308  1.5936 -1.1975  0.4289
 7665SOL     OW34456   0.685   1.995   7.207  0.1104  0.0523  0.1507
 7665SOL    HW134457   0.677   2.090   7.198  2.5926  0.4591  2.4558
 7665SOL    HW234458   0.775   1.973   7.185 -0.1484  2.1301 -2.9940
 7666SOL     OW34459   2.244   2.792   1.967 -0.4622 -0.0693  0.3524
 7666SOL    HW134460   2.162   2.791   2.016  0.7069 -3.7294  2.2663
 7666SOL    HW234461   2.308   2.811   2.036  0.1650  1.7529 -0.7400
 7667SOL     OW34462   3.174   3.105   5.155  0.2614  0.2160 -0.0231
 7667SOL    HW134463   3.210   3.191   5.177  0.6065  0.3804 -1.2135
 7667SOL    HW234464   3.117   3.129   5.081  0.8358 -0.7897 -0.7853
 7668SOL     OW34465   3.470   4.516  13.840  0.0954  0.1744 -0.2803
 7668SOL    HW134466   3.387   4.559  13.862 -0.8944 -1.8400 -0.0974
 7668SOL    HW234467   3.464   4.494  13.747  0.7259 -0.1198 -0.2513
 7669SOL     OW34468   3.930   4.130   9.232  0.6301 -0.5251 -0.3722
 7669SOL    HW134469   3.873   4.152   9.306  1.7755  1.3019 -0.0406
 7669SOL    HW234470   4.019   4.149   9.262  0.4170  2.8358 -1.7976
 7670SOL     OW34471   2.305   3.343   8.113 -0.3425  0.0128  0.3969
 7670SOL    HW134472   2.287   3.391   8.193 -2.7309 -3.7286  2.1222
 7670SOL    HW234473   2.337   3.415   8.059 -0.8343 -0.0230  0.0570
 7671SOL     OW34474   0.621   2.097   4.603 -0.0003  0.7995 -0.4201
 7671SOL    HW134475   0.586   2.008   4.593 -0.1173  0.5950  1.6561
 7671SOL    HW234476   0.716   2.094   4.592 -0.0648 -3.0149 -0.1160
 7672SOL     OW34477   3.309   0.274  13.266 -0.8709 -0.0333  0.3755
 7672SOL    HW134478   3.356   0.344  13.221  1.7772 -2.4349 -0.6284
 7672SOL    HW234479   3.375   0.205  13.251  1.2493  2.5091 -2.0040
 7673SOL     OW34480   2.755   1.950  12.436 -0.3707  0.3580 -0.5255
 7673SOL    HW134481   2.751   1.937  12.531 -0.2989 -1.7194 -0.8020
 7673SOL    HW234482   2.777   1.859  12.415 -1.2650 -0.2030  0.9109
 7674SOL     OW34483   4.058   3.974  12.829 -0.0023 -0.3191 -0.7063
 7674SOL    HW134484   4.056   4.064  12.861  1.2261 -0.7079  0.4581
 7674SOL    HW234485   4.148   3.959  12.800  0.6708  4.1344 -0.8671
 7675SOL     OW34486   2.675   0.274   8.424  0.4211  0.0813 -0.5330
 7675SOL    HW134487   2.595   0.270   8.372  0.5248  2.8125 -0.8946
 7675SOL    HW234488   2.672   0.187   8.466  3.1255  0.8078  1.1487
 7676SOL     OW34489   0.257   4.180   2.839 -0.5791  0.6557 -0.1044
 7676SOL    HW134490   0.226   4.263   2.802 -1.5072 -0.0756 -0.9748
 7676SOL    HW234491   0.239   4.189   2.933 -0.9493  1.2176 -0.2295
 7677SOL     OW34492   4.341   0.241   0.737 -0.1145  0.0856 -0.5856
 7677SOL    HW134493   4.246   0.236   0.744 -0.1315  3.4100  1.2651
 7677SOL    HW234494   4.356   0.203   0.650 -1.0036 -2.0512  0.1875
 7678SOL     OW34495   1.291   3.151   3.364  0.3391  0.4892  0.4291
 7678SOL    HW134496   1.215   3.110   3.323 -0.1041  0.6894  1.0542
 7678SOL    HW234497   1.319   3.218   3.301  0.6301  0.7722  0.8594
 7679SOL     OW34498   0.280   1.462   2.237 -0.0514 -0.0447 -0.3663
 7679SOL    HW134499   0.342   1.389   2.228 -0.8033 -0.6832 -0.4133
 7679SOL    HW234500   0.218   1.435   2.306 -0.2259 -1.8034 -1.1952
 7680SOL     OW34501   4.381   2.062  11.425  0.3323 -0.2992 -0.2435
 7680SOL    HW134502   4.463   2.013  11.428  0.1821 -0.3361  2.8597
 7680SOL    HW234503   4.410   2.153  11.433  0.9344 -0.8165  3.6275
 7681SOL     OW34504   2.330   3.589   7.969  0.2114  0.5469 -0.2811
 7681SOL    HW134505   2.237   3.568   7.968 -0.1634  2.1909 -0.4877
 7681SOL    HW234506   2.346   3.631   7.885 -1.0074  2.1287  0.2787
 7682SOL     OW34507   2.415   0.742   2.546  0.2690 -0.2723 -0.1801
 7682SOL    HW134508   2.387   0.717   2.458 -0.2531  0.1051 -0.1176
 7682SOL    HW234509   2.356   0.687   2.596 -2.2921  3.8874  1.3331
 7683SOL     OW34510   0.957   3.605   7.106 -0.0530  0.0051  0.0860
 7683SOL    HW134511   0.994   3.637   7.189  0.1182 -1.0170  0.3943
 7683SOL    HW234512   0.867   3.631   7.127 -0.7692 -1.8401 -0.7893
 7684SOL     OW34513   1.575   0.830  16.905  0.4374 -0.3102  0.2771
 7684SOL    HW134514   1.586   0.771  16.831 -1.4911  0.8947 -1.0000
 7684SOL    HW234515   1.627   0.786  16.971 -3.1396 -2.2161  1.8304
 7685SOL     OW34516   3.524   4.067  13.619 -0.1467 -0.0441  0.1203
 7685SOL    HW134517   3.602   4.016  13.642 -0.2104  0.7580  2.1430
 7685SOL    HW234518   3.515   4.045  13.527  0.1420  0.2326  0.0274
 7686SOL     OW34519   3.753   1.285   4.191 -0.2192  0.0003 -0.0918
 7686SOL    HW134520   3.747   1.364   4.137  1.8554  0.3887  0.2049
 7686SOL    HW234521   3.743   1.223   4.119  1.1159  1.0258 -1.1604
 7687SOL     OW34522   4.301   2.578   7.413  0.5290  0.3396 -0.0787
 7687SOL    HW134523   4.325   2.500   7.362  0.2059  2.2602 -3.2238
 7687SOL    HW234524   4.260   2.537   7.489  2.5886  1.6494  1.7490
 7688SOL     OW34525   2.280   1.744   2.413  0.3334 -0.1586  0.1214
 7688SOL    HW134526   2.286   1.659   2.370 -0.2478 -0.3429  0.4127
 7688SOL    HW234527   2.196   1.773   2.379 -0.5771 -1.2468  1.4759
 7689SOL     OW34528   3.637   0.710   6.842  0.3074  0.1663 -0.6745
 7689SOL    HW134529   3.556   0.666   6.868 -0.3875  0.6411 -2.0222
 7689SOL    HW234530   3.664   0.747   6.926 -0.5591 -0.1593 -0.2456
 7690SOL     OW34531   4.015   0.737   2.926 -0.0330 -0.6474 -0.0715
 7690SOL    HW134532   3.977   0.735   2.838  0.4327 -0.2856 -0.2824
 7690SOL    HW234533   3.992   0.828   2.945  1.3075 -0.4757  0.7265
 7691SOL     OW34534   4.042   3.825   6.329  0.5721 -0.5164  0.2425
 7691SOL    HW134535   4.116   3.797   6.382  0.6480  1.5805  1.2698
 7691SOL    HW234536   4.080   3.873   6.255 -1.1765  0.8143  0.1898
 7692SOL     OW34537   0.201   0.557   6.854  0.3358  0.5653 -0.7296
 7692SOL    HW134538   0.201   0.465   6.827  0.8894  0.3344  0.0745
 7692SOL    HW234539   0.215   0.607   6.773 -2.1315 -1.0584 -2.1658
 7693SOL     OW34540   2.002   0.028   2.073 -0.1583 -0.2815  0.4536
 7693SOL    HW134541   2.005   4.664   2.115 -0.2728  1.3931  3.9110
 7693SOL    HW234542   1.945   0.077   2.133 -1.1354 -1.2157  0.2980
 7694SOL     OW34543   1.766   3.896   3.360  0.1984 -0.0004  0.0887
 7694SOL    HW134544   1.847   3.850   3.338 -0.5620 -1.0561 -0.4944
 7694SOL    HW234545   1.745   3.875   3.451  0.3219  0.4246  0.2155
 7695SOL     OW34546   0.175   3.187   0.006  0.0382  0.5421 -0.1448
 7695SOL    HW134547   0.163   3.188  17.600 -1.1809  1.5561  0.0165
 7695SOL    HW234548   0.086   3.209   0.034 -0.2149 -0.2391 -0.3442
 7696SOL     OW34549   3.133   3.719   6.613 -0.0251 -0.0600 -0.0926
 7696SOL    HW134550   3.077   3.714   6.691 -2.3587 -0.2992 -1.8033
 7696SOL    HW234551   3.087   3.666   6.548  0.5357 -0.9205  0.2159
 7697SOL     OW34552   2.591   0.861   4.704 -0.2165  0.2797  0.1384
 7697SOL    HW134553   2.517   0.905   4.662  0.0642  2.3542  1.8150
 7697SOL    HW234554   2.644   0.931   4.742  0.3109  0.5801 -1.1642
 7698SOL     OW34555   1.868   4.374   2.764  0.2876 -0.2295 -0.3520
 7698SOL    HW134556   1.812   4.409   2.833 -0.0077  1.7131 -1.5926
 7698SOL    HW234557   1.931   4.331   2.823  0.7771  2.1059  0.8006
 7699SOL     OW34558   0.013   2.591   2.280  0.0628 -0.4140 -0.4269
 7699SOL    HW134559   4.652   2.608   2.235  0.6124  0.8036 -0.9691
 7699SOL    HW234560   0.038   2.499   2.272  2.3538  0.1585  0.1322
 7700SOL     OW34561   4.224   3.194   0.878 -0.4154  0.3327  0.1078
 7700SOL    HW134562   4.216   3.273   0.824  2.2461 -0.7093 -1.8265
 7700SOL    HW234563   4.319   3.201   0.868 -0.1571 -1.2483  1.5718
 7701SOL     OW34564   1.077   1.994   8.160  0.1181  0.6729  0.2711
 7701SOL    HW134565   1.105   1.902   8.165 -1.7005  0.2330  2.0355
 7701SOL    HW234566   1.029   2.003   8.241 -1.4457  0.7213 -0.6637
 7702SOL     OW34567   4.427   3.444   5.907 -0.3688 -0.1539 -0.1447
 7702SOL    HW134568   4.522   3.437   5.898 -0.4683  0.7206 -1.9253
 7702SOL    HW234569   4.404   3.376   5.970  0.5617  0.0779  0.4459
 7703SOL     OW34570   1.993   2.815   2.071  0.3684 -0.3681  0.4715
 7703SOL    HW134571   1.930   2.831   2.000  1.1768  1.8669  0.2444
 7703SOL    HW234572   1.946   2.753   2.126 -0.3123 -1.0278 -0.8714
 7704SOL     OW34573   0.635   3.556   4.942 -0.0651  0.2695 -0.4985
 7704SOL    HW134574   0.716   3.589   4.982  0.1468  0.8393 -1.3754
 7704SOL    HW234575   0.603   3.493   5.006  0.1633 -0.3188 -0.9600
 7705SOL     OW34576   2.628   2.971  12.548 -0.1939 -0.2538  0.5850
 7705SOL    HW134577   2.671   2.935  12.470 -0.0309 -2.5496  1.7277
 7705SOL    HW234578   2.710   3.009  12.580 -0.4260  0.2585  0.5679
 7706SOL     OW34579   0.760   3.787   6.732  1.0106  0.5684  0.2041
 7706SOL    HW134580   0.717   3.784   6.646 -0.5413 -1.2463  1.0476
 7706SOL    HW234581   0.760   3.692   6.739  0.5413  0.4751 -1.0615
 7707SOL     OW34582   1.082   2.168   6.661 -0.3571  0.1632 -0.5737
 7707SOL    HW134583   1.054   2.076   6.662  1.4042 -0.3876 -0.8344
 7707SOL    HW234584   1.014   2.199   6.720 -0.6894  0.1412 -0.9471
 7708SOL     OW34585   1.003   4.009   0.257  0.5763  0.8291 -0.3074
 7708SOL    HW134586   0.992   3.918   0.283  2.0630  1.0588  1.0777
 7708SOL    HW234587   1.093   4.014   0.226  0.5777 -1.5125 -0.7046
 7709SOL     OW34588   3.246   1.257   5.960 -0.5153  0.2574 -0.1315
 7709SOL    HW134589   3.289   1.188   5.911  0.8763  1.2269 -0.2768
 7709SOL    HW234590   3.202   1.292   5.882 -0.6072  1.1838  0.3349
 7710SOL     OW34591   3.273   4.307   3.212  0.5160  0.3388  0.0772
 7710SOL    HW134592   3.273   4.309   3.116  0.5739  0.1318  0.0715
 7710SOL    HW234593   3.356   4.262   3.226  1.0070  0.5763 -2.0580
 7711SOL     OW34594   4.350   0.496  12.804  0.3528 -1.1063  0.0973
 7711SOL    HW134595   4.277   0.548  12.770  0.5776 -0.2438  0.9719
 7711SOL    HW234596   4.402   0.565  12.843  2.1249 -0.6821 -3.0413
 7712SOL     OW34597   3.447   3.659   5.587 -0.3536  0.5065  0.1265
 7712SOL    HW134598   3.418   3.720   5.519 -1.0065  1.5976  1.3837
 7712SOL    HW234599   3.535   3.689   5.607 -0.1915 -0.3604  0.7349
 7713SOL     OW34600   0.521   2.550   8.831  0.0242  0.4358 -0.3102
 7713SOL    HW134601   0.514   2.622   8.768  1.4977  1.1288  0.3125
 7713SOL    HW234602   0.427   2.536   8.841  0.6076 -1.9229  1.8369
 7714SOL     OW34603   2.376   0.189   6.581 -0.1141  0.3513  0.1004
 7714SOL    HW134604   2.380   0.280   6.607  1.2122  0.5446 -0.7480
 7714SOL    HW234605   2.468   0.171   6.562  0.5835  1.5577  2.4379
 7715SOL     OW34606   0.975   0.034   8.294  0.4172 -0.1669  0.3636
 7715SOL    HW134607   0.980   0.092   8.369 -4.3180 -0.7001  1.0881
 7715SOL    HW234608   1.001   4.670   8.329 -0.3852 -0.8262 -0.6512
 7716SOL     OW34609   1.730   1.853   1.880  0.2246  0.2462  0.0977
 7716SOL    HW134610   1.806   1.859   1.938  0.3590  1.1249 -0.1643
 7716SOL    HW234611   1.776   1.833   1.799 -0.6731 -1.7579  0.0852
 7717SOL     OW34612   3.766   3.915  13.355  0.4656 -0.2334  0.4419
 7717SOL    HW134613   3.745   3.834  13.401  2.1613 -0.4378  0.8432
 7717SOL    HW234614   3.813   3.956  13.427  1.7074  0.2887 -0.6706
 7718SOL     OW34615   2.900   4.527   5.045  0.0824 -0.2788 -0.9929
 7718SOL    HW134616   2.961   4.504   5.114  0.0438  2.3982 -0.0386
 7718SOL    HW234617   2.844   4.450   5.053  0.1537 -0.2090  0.1789
 7719SOL     OW34618   1.091   0.898  16.366 -0.2114 -0.1522 -0.1257
 7719SOL    HW134619   1.076   0.805  16.355  2.6139 -0.5576 -0.6293
 7719SOL    HW234620   1.106   0.901  16.460  0.0988 -1.0574 -0.1476
 7720SOL     OW34621   0.420   0.750   0.798 -0.6957  0.5617  0.3304
 7720SOL    HW134622   0.456   0.834   0.770 -0.3467  0.0756 -0.6826
 7720SOL    HW234623   0.489   0.719   0.856 -0.1065 -0.8944 -1.1299
 7721SOL     OW34624   1.244   0.306  13.365 -0.6027  0.3688 -0.8252
 7721SOL    HW134625   1.284   0.276  13.283 -2.7878  3.0823 -2.9181
 7721SOL    HW234626   1.154   0.275  13.361  0.3995 -2.7236  0.6531
 7722SOL     OW34627   3.123   2.526   2.398 -0.5161 -0.3236 -0.3052
 7722SOL    HW134628   3.158   2.563   2.479  0.1765  0.9396 -1.1732
 7722SOL    HW234629   3.060   2.463   2.433  0.2148 -1.5710 -1.2077
 7723SOL     OW34630   4.469   4.452   7.692  0.3835  0.0201 -0.3996
 7723SOL    HW134631   4.518   4.534   7.697 -0.6514  0.5888  0.4397
 7723SOL    HW234632   4.400   4.470   7.629 -0.8884  1.1186  1.3204
 7724SOL     OW34633   4.622   2.581   8.408 -0.5892 -0.0131  0.2081
 7724SOL    HW134634   4.623   2.486   8.398 -1.6131 -0.2099  1.9588
 7724SOL    HW234635   4.698   2.582   8.466 -0.5908 -0.9585  0.2234
 7725SOL     OW34636   0.661   2.913   8.505 -0.2323  0.0012  0.1036
 7725SOL    HW134637   0.685   2.995   8.549  0.3594 -1.4335  2.4584
 7725SOL    HW234638   0.671   2.943   8.414 -0.4706 -1.0249 -0.2561
 7726SOL     OW34639   2.539   0.975   4.246  0.1348 -0.3200 -0.0990
 7726SOL    HW134640   2.547   0.908   4.314  0.9639  0.4388  0.5621
 7726SOL    HW234641   2.632   0.995   4.239 -0.0517  0.4068 -0.5482
 7727SOL     OW34642   1.354   1.878   0.882 -0.3282  0.1770  0.0605
 7727SOL    HW134643   1.438   1.878   0.836  0.6171 -2.6587  1.8094
 7727SOL    HW234644   1.388   1.883   0.972 -1.4027 -0.2400  0.4993
 7728SOL     OW34645   0.656   3.133   2.224  0.0625  0.2549  0.4702
 7728SOL    HW134646   0.676   3.151   2.316  0.5327  1.9800  0.0409
 7728SOL    HW234647   0.724   3.067   2.216  0.3552  0.8064 -1.7451
 7729SOL     OW34648   3.399   4.125   2.592  0.8870  0.4351 -0.0612
 7729SOL    HW134649   3.431   4.211   2.620 -1.3234  1.5181 -0.8871
 7729SOL    HW234650   3.466   4.064   2.624 -0.1892 -1.9940 -2.3780
 7730SOL     OW34651   1.353   3.339   3.172 -0.5194 -0.0140  0.3177
 7730SOL    HW134652   1.361   3.434   3.161  3.6021 -0.4952 -1.1480
 7730SOL    HW234653   1.311   3.323   3.087  0.0015 -0.0061  0.0575
 7731SOL     OW34654   4.496   2.302   5.756 -0.2520  0.6967  0.0062
 7731SOL    HW134655   4.508   2.397   5.745 -0.6983  0.8041  0.4284
 7731SOL    HW234656   4.556   2.269   5.689 -0.3943 -0.6733  0.5547
 7732SOL     OW34657   2.064   1.943  13.680  0.1021  0.0788 -0.6615
 7732SOL    HW134658   2.043   1.981  13.765  0.0435  0.5906 -0.9033
 7732SOL    HW234659   2.105   2.018  13.638  1.1501 -0.1265 -0.0011
 7733SOL     OW34660   3.282   1.783   6.257  0.1491 -0.1152  0.4927
 7733SOL    HW134661   3.370   1.781   6.219  0.3943  0.7864  1.0045
 7733SOL    HW234662   3.239   1.853   6.207 -1.3032 -0.3452  1.4292
 7734SOL     OW34663   3.853   1.008  15.144 -0.3273 -0.2769  0.4634
 7734SOL    HW134664   3.831   0.991  15.236  0.9139  0.6920  0.9361
 7734SOL    HW234665   3.897   1.093  15.150 -0.2222 -0.6388  4.7675
 7735SOL     OW34666   3.521   2.261   3.958 -0.0114 -0.3676 -0.4112
 7735SOL    HW134667   3.473   2.255   4.041 -0.0093 -1.6197 -0.4980
 7735SOL    HW234668   3.450   2.241   3.897 -0.1443 -0.0999 -0.3459
 7736SOL     OW34669   0.945   3.407   9.175  0.1084  0.5745  0.0448
 7736SOL    HW134670   0.926   3.440   9.087  2.8107 -0.3668 -0.8843
 7736SOL    HW234671   1.040   3.393   9.177  0.1178  0.5132 -1.2210
 7737SOL     OW34672   4.344   4.067   3.716 -0.2409 -0.2251  0.1994
 7737SOL    HW134673   4.360   3.982   3.675  2.4411 -0.4042  1.6157
 7737SOL    HW234674   4.373   4.125   3.646  0.6205 -0.2340  0.5476
 7738SOL     OW34675   4.242   0.213   3.120  0.1048  0.3202 -0.5884
 7738SOL    HW134676   4.243   0.120   3.096 -2.9664  0.3280 -0.8187
 7738SOL    HW234677   4.261   0.258   3.038  1.9921 -1.4488 -1.1220
 7739SOL     OW34678   0.414   3.372   5.755  0.4084 -0.1761 -0.6766
 7739SOL    HW134679   0.403   3.368   5.850 -1.2470 -0.0217 -0.8587
 7739SOL    HW234680   0.492   3.426   5.745 -0.6401  1.3237 -0.7871
 7740SOL     OW34681   2.631   1.327   3.937 -0.1948 -0.1654 -0.3733
 7740SOL    HW134682   2.675   1.325   4.022 -0.9626 -0.5462  0.0162
 7740SOL    HW234683   2.648   1.242   3.897  0.3011 -0.0611 -0.3873
 7741SOL     OW34684   3.243   1.823   1.621 -0.4175 -0.2152  0.5448
 7741SOL    HW134685   3.180   1.894   1.636 -1.7229 -1.3603  0.4328
 7741SOL    HW234686   3.286   1.855   1.541 -1.3780  0.2309  0.2137
 7742SOL     OW34687   0.878   2.522   8.193  0.3832 -0.4804  0.5840
 7742SOL    HW134688   0.897   2.550   8.104 -2.5809 -1.7098 -0.4357
 7742SOL    HW234689   0.869   2.428   8.180  0.3435 -0.3559 -0.2646
 7743SOL     OW34690   4.593   1.412   0.403 -0.4119 -0.6523 -0.1343
 7743SOL    HW134691   4.530   1.457   0.459 -1.7958 -0.0382 -2.2002
 7743SOL    HW234692   4.582   1.454   0.318  0.1703  0.9017  0.5514
 7744SOL     OW34693   4.176   0.295   0.344 -0.1783 -0.2897  0.0255
 7744SOL    HW134694   4.228   0.242   0.405 -0.4393  0.2042  0.6843
 7744SOL    HW234695   4.170   0.373   0.400 -3.0363  0.9966 -2.0555
 7745SOL     OW34696   0.073   0.771   7.250 -0.3911  0.0739  0.0064
 7745SOL    HW134697   0.016   0.703   7.215  0.8507 -0.9921  0.0476
 7745SOL    HW234698   0.006   0.836   7.268 -1.6282 -1.3805  0.6557
 7746SOL     OW34699   0.064   1.319   9.970  0.5100  0.1357 -0.4869
 7746SOL    HW134700   0.025   1.391   9.920 -2.2676  0.2225  1.8110
 7746SOL    HW234701   0.111   1.266   9.905  0.2489 -1.4138  0.5968
 7747SOL     OW34702   2.021   2.891   1.619 -0.3942 -0.4637 -0.5588
 7747SOL    HW134703   2.053   2.929   1.537 -1.7409  1.6458 -0.1099
 7747SOL    HW234704   2.003   2.800   1.595  0.3767 -0.9089  0.5557
 7748SOL     OW34705   2.008   1.486   2.364  0.1456  0.2743  0.1643
 7748SOL    HW134706   2.067   1.506   2.291  2.1757 -0.9434  1.4555
 7748SOL    HW234707   1.964   1.568   2.387  1.7926  1.7711 -2.0153
 7749SOL     OW34708   1.302   0.186  14.059  0.0577 -0.2777  0.3578
 7749SOL    HW134709   1.295   0.282  14.061 -2.3026 -0.4834  1.3698
 7749SOL    HW234710   1.210   0.177  14.037  0.3320 -2.3827  0.0465
 7750SOL     OW34711   3.260   0.375   5.765 -0.0195  0.3485 -0.4175
 7750SOL    HW134712   3.330   0.333   5.815 -1.0071 -0.1109  0.5695
 7750SOL    HW234713   3.183   0.353   5.818  0.3543 -1.6373 -0.7025
 7751SOL     OW34714   3.914   0.048   2.813 -0.8626  0.0057 -0.4493
 7751SOL    HW134715   3.902   0.141   2.832 -1.7593 -0.2741  0.3502
 7751SOL    HW234716   3.919   0.012   2.902  0.3456 -2.5063 -1.5251
 7752SOL     OW34717   2.769   4.452  13.761 -0.0883 -0.2097 -0.3540
 7752SOL    HW134718   2.727   4.374  13.724 -0.0822  0.0341 -0.8708
 7752SOL    HW234719   2.756   4.435  13.855  1.7868 -2.8730 -0.5869
 7753SOL     OW34720   0.702   1.678   9.653  0.0572  0.0298  0.3919
 7753SOL    HW134721   0.760   1.615   9.696  1.5768  1.1160 -0.0624
 7753SOL    HW234722   0.698   1.643   9.564  1.2779  0.4994  0.1466
 7754SOL     OW34723   0.087   2.082   7.258  0.2742  0.1675 -0.0784
 7754SOL    HW134724   0.079   2.004   7.203  3.8755 -0.1888 -0.0651
 7754SOL    HW234725   0.154   2.050   7.319 -1.7976 -1.2690  1.4412
 7755SOL     OW34726   3.236   1.529   5.631  0.0280  0.3015 -0.1261
 7755SOL    HW134727   3.180   1.548   5.706  0.9236 -1.6356  1.0382
 7755SOL    HW234728   3.215   1.436   5.644  2.1070 -0.2549 -0.7526
 7756SOL     OW34729   3.748   0.032   1.924 -0.8328  0.2652 -0.2257
 7756SOL    HW134730   3.726   0.006   2.014 -1.1737 -1.0469 -0.6886
 7756SOL    HW234731   3.823   0.089   1.943  0.7783 -1.6899 -0.7152
 7757SOL     OW34732   4.480   3.676   3.377 -0.0744 -0.0113  1.0979
 7757SOL    HW134733   4.491   3.582   3.395 -0.1792 -0.5881 -1.8470
 7757SOL    HW234734   4.549   3.682   3.310 -3.6630 -0.3336 -2.6349
 7758SOL     OW34735   0.342   3.054   9.018 -0.1693 -0.0222 -0.5195
 7758SOL    HW134736   0.247   3.061   9.028 -0.0618  1.2988 -0.3607
 7758SOL    HW234737   0.361   3.126   8.957  0.7680  1.3800  1.4473
 7759SOL     OW34738   1.720   1.219   2.598  0.6268 -0.2958 -0.8674
 7759SOL    HW134739   1.733   1.284   2.667  1.0189 -1.1573 -0.1265
 7759SOL    HW234740   1.654   1.163   2.640 -0.1116  1.2280  0.0002
 7760SOL     OW34741   3.081   2.055   4.378 -0.2746  0.0353 -0.2582
 7760SOL    HW134742   3.114   2.092   4.297 -1.3504  0.6792 -0.4048
 7760SOL    HW234743   3.084   2.131   4.436  0.8652  0.4847 -0.9275
 7761SOL     OW34744   1.491   0.669   9.077  0.0268  0.2141  0.4976
 7761SOL    HW134745   1.531   0.749   9.110 -0.9565  0.6840  0.5723
 7761SOL    HW234746   1.495   0.623   9.161  2.0183 -1.8025 -0.7023
 7762SOL     OW34747   2.862   3.391  13.753  0.5426 -0.1620  0.4128
 7762SOL    HW134748   2.808   3.331  13.701  0.8704 -1.1123  1.1735
 7762SOL    HW234749   2.872   3.330  13.826 -1.6755 -3.5751 -2.1535
 7763SOL     OW34750   4.696   1.441  15.714 -0.2276 -0.1580 -0.8988
 7763SOL    HW134751   0.047   1.475  15.767  0.0677  0.9913 -2.0477
 7763SOL    HW234752   4.644   1.520  15.701 -0.8059 -0.2364  0.8216
 7764SOL     OW34753   2.936   2.256   5.069  0.4114  0.2997  0.1140
 7764SOL    HW134754   2.975   2.340   5.045 -2.9346  1.5914 -0.8260
 7764SOL    HW234755   2.976   2.192   5.010 -0.6109 -0.3543  0.1144
 7765SOL     OW34756   2.865   1.461   8.545  0.4273  0.4811  0.3646
 7765SOL    HW134757   2.791   1.423   8.592 -0.1061  0.1326 -0.7547
 7765SOL    HW234758   2.826   1.474   8.458  0.3539 -1.3062  0.1370
 7766SOL     OW34759   2.305   4.595   9.510 -0.1672 -0.0488  0.1931
 7766SOL    HW134760   2.258   4.522   9.470 -0.0125 -0.2167  0.3163
 7766SOL    HW234761   2.387   4.611   9.463 -1.3730 -0.2077 -1.9534
 7767SOL     OW34762   3.854   1.118   5.081 -0.1585 -0.0765  0.3488
 7767SOL    HW134763   3.901   1.149   5.159  1.1780  1.0687 -0.9131
 7767SOL    HW234764   3.922   1.160   5.028  0.4139  1.0439  1.9426
 7768SOL     OW34765   0.755   1.990   5.799 -0.1481  0.8532 -0.1598
 7768SOL    HW134766   0.783   2.057   5.736  0.1294  1.6320  0.8061
 7768SOL    HW234767   0.710   1.927   5.742  0.6282  1.3209 -1.2979
 7769SOL     OW34768   4.179   0.470  13.771  0.5723  0.2869  0.3052
 7769SOL    HW134769   4.114   0.415  13.727  0.0467  0.2332  1.1557
 7769SOL    HW234770   4.120   0.528  13.820  0.3119  0.4732 -0.2319
 7770SOL     OW34771   1.850   0.781   9.451 -0.1754 -0.2618 -0.8004
 7770SOL    HW134772   1.913   0.772   9.523 -0.7431  0.0015 -0.2680
 7770SOL    HW234773   1.773   0.757   9.503  1.3582 -2.7539  0.3293
 7771SOL     OW34774   2.706   1.400   7.363 -0.4423 -0.4041 -0.4852
 7771SOL    HW134775   2.618   1.375   7.390 -0.6393 -1.0030 -1.7053
 7771SOL    HW234776   2.695   1.464   7.293  0.4585 -0.0839 -0.3343
 7772SOL     OW34777   2.234   3.147   0.857  0.3390  0.2669  0.5312
 7772SOL    HW134778   2.177   3.071   0.865  0.6172  0.1896  1.7519
 7772SOL    HW234779   2.204   3.207   0.926  0.7178  0.9813  0.0815
 7773SOL     OW34780   4.065   4.083   5.099  0.6761  0.2375  0.5634
 7773SOL    HW134781   3.992   4.098   5.159  0.5888 -0.7153  0.7024
 7773SOL    HW234782   4.100   4.172   5.102 -1.0355  0.8358  3.4269
 7774SOL     OW34783   2.629   4.144  16.041  0.2734 -0.5861 -0.4967
 7774SOL    HW134784   2.626   4.239  16.054  0.8138 -0.7642  0.9733
 7774SOL    HW234785   2.626   4.112  16.132 -1.4817  0.0474 -0.3350
 7775SOL     OW34786   2.381   3.315   3.704 -0.2601 -0.4751 -0.7390
 7775SOL    HW134787   2.427   3.261   3.768 -0.3825 -1.2512 -1.3042
 7775SOL    HW234788   2.301   3.265   3.686 -0.8350  0.6651 -1.4033
 7776SOL     OW34789   2.606   0.634   3.786  0.0882 -0.0775  0.2194
 7776SOL    HW134790   2.646   0.562   3.835 -2.4407 -1.4599  0.2492
 7776SOL    HW234791   2.671   0.657   3.720 -1.2998 -2.3426 -1.9671
 7777SOL     OW34792   0.021   0.988   5.498  0.2810 -0.2831  0.1824
 7777SOL    HW134793   0.070   0.906   5.509 -0.5593 -1.0083 -1.4640
 7777SOL    HW234794   0.008   0.979   5.404  1.0564 -0.4341  0.0925
 7778SOL     OW34795   3.016   0.421   7.636  0.2264  0.5866  0.0394
 7778SOL    HW134796   2.963   0.342   7.626  1.3451 -0.1936  0.3392
 7778SOL    HW234797   3.100   0.398   7.596 -0.1868 -1.4344  0.3277
 7779SOL     OW34798   1.662   1.230   0.599 -0.1456 -0.0686 -0.1330
 7779SOL    HW134799   1.579   1.266   0.567 -1.0628 -1.8658  0.2533
 7779SOL    HW234800   1.663   1.147   0.552  1.7679 -0.0769 -0.0828
 7780SOL     OW34801   0.125   1.258  15.568 -0.7715 -0.0107 -0.3427
 7780SOL    HW134802   0.195   1.320  15.588 -0.1541 -0.5971 -0.6883
 7780SOL    HW234803   0.057   1.298  15.621 -1.9314 -0.2394 -1.6597
 7781SOL     OW34804   0.833   2.789  14.971  0.1565  0.1716  0.4141
 7781SOL    HW134805   0.904   2.794  15.035 -0.0479 -0.3936  0.6938
 7781SOL    HW234806   0.890   2.812  14.898  0.1499 -2.5428 -0.4467
 7782SOL     OW34807   3.412   2.139   1.713 -0.9164  0.4163 -0.2649
 7782SOL    HW134808   3.405   2.221   1.662 -1.7493  0.8385  0.5302
 7782SOL    HW234809   3.379   2.087   1.640 -0.4485  1.6531 -1.3626
 7783SOL     OW34810   2.293   0.796  10.309 -0.0281  0.7693 -0.3452
 7783SOL    HW134811   2.211   0.845  10.299 -0.3606 -0.1037 -1.8678
 7783SOL    HW234812   2.276   0.732  10.378  1.1560 -0.9094 -1.6275
 7784SOL     OW34813   1.448   2.070  13.026 -0.2107 -0.6892  0.2355
 7784SOL    HW134814   1.535   2.030  13.016 -1.0847 -2.8365  1.2249
 7784SOL    HW234815   1.428   2.087  12.934  2.4903  1.3715  0.0397
 7785SOL     OW34816   2.839   3.512   3.288 -0.4960  0.1003  0.2212
 7785SOL    HW134817   2.894   3.529   3.365  0.0179 -1.0882  0.1250
 7785SOL    HW234818   2.805   3.600   3.275  1.0323  0.7581  0.6858
 7786SOL     OW34819   0.396   2.437   1.810  0.2156 -0.2551  0.5060
 7786SOL    HW134820   0.341   2.371   1.767 -1.3469  2.0342 -0.9856
 7786SOL    HW234821   0.469   2.382   1.838  0.0946 -0.8011 -0.2350
 7787SOL     OW34822   1.009   0.442   3.239  0.1450 -0.0100  0.1550
 7787SOL    HW134823   1.057   0.438   3.157  1.5811 -2.3555  1.0999
 7787SOL    HW234824   1.073   0.405   3.300  0.4238 -1.8415 -1.2454
 7788SOL     OW34825   1.487   1.224  10.756  0.2156  0.4194 -0.9399
 7788SOL    HW134826   1.404   1.177  10.756 -0.1086  0.9839 -0.0025
 7788SOL    HW234827   1.535   1.191  10.832 -0.7772  2.2643  0.4963
 7789SOL     OW34828   0.177   2.744   9.806  0.0002 -0.0896 -0.2914
 7789SOL    HW134829   0.165   2.668   9.749 -1.2627 -1.5255  1.8888
 7789SOL    HW234830   0.254   2.704   9.847 -1.1509  0.3438  2.3252
 7790SOL     OW34831   3.729   1.363   3.763  0.0896  0.1255  0.1139
 7790SOL    HW134832   3.810   1.316   3.787  1.1971  1.8476 -0.2866
 7790SOL    HW234833   3.670   1.288   3.752 -1.7271  1.4575  0.9563
 7791SOL     OW34834   2.455   3.333  10.514 -0.1133  0.1038 -0.0712
 7791SOL    HW134835   2.541   3.301  10.486 -0.5812 -0.1981 -1.1664
 7791SOL    HW234836   2.432   3.409  10.461 -0.8086 -0.0106  0.0695
 7792SOL     OW34837   3.472   1.902  14.635 -0.2506  0.4400  0.8432
 7792SOL    HW134838   3.560   1.921  14.604 -0.9662  3.2181  0.4811
 7792SOL    HW234839   3.444   1.841  14.566  0.1419  0.3138  0.7958
 7793SOL     OW34840   1.613   1.189  11.007  0.4937 -0.9886  0.0393
 7793SOL    HW134841   1.702   1.157  11.026  0.9435  1.1839  1.6003
 7793SOL    HW234842   1.630   1.281  10.988 -0.7223 -0.6792  0.4406
 7794SOL     OW34843   4.704   2.924  11.769 -0.1553  0.1630 -0.4947
 7794SOL    HW134844   4.647   3.000  11.757 -0.7349 -0.0985  0.6008
 7794SOL    HW234845   0.064   2.970  11.750  0.6389 -0.7889  0.6074
 7795SOL     OW34846   0.925   4.415  16.977  0.3591 -0.3200  0.0254
 7795SOL    HW134847   0.871   4.347  17.016 -0.9860 -0.5263 -2.1562
 7795SOL    HW234848   0.865   4.487  16.957  1.6932  0.7787 -0.0444
 7796SOL     OW34849   2.464   4.224   5.201  0.4024 -0.0545 -0.4343
 7796SOL    HW134850   2.384   4.277   5.192  0.0903 -0.4773 -0.1546
 7796SOL    HW234851   2.498   4.261   5.283 -0.0195 -0.3182 -0.1426
 7797SOL     OW34852   1.132   3.119   4.771 -0.7320  0.4557 -0.3314
 7797SOL    HW134853   1.223   3.142   4.789 -1.1753 -0.5856  3.1615
 7797SOL    HW234854   1.145   3.031   4.734 -0.4051 -0.0692  1.0392
 7798SOL     OW34855   2.651   0.212   3.338  0.5937 -0.3240  0.0319
 7798SOL    HW134856   2.672   0.134   3.286 -0.3077 -0.2708 -0.4178
 7798SOL    HW234857   2.717   0.196   3.406  1.1696  1.4235 -0.1026
 7799SOL     OW34858   0.398   2.375   4.932  0.4039  0.0004 -0.1947
 7799SOL    HW134859   0.330   2.350   4.994  1.5156 -2.4739  0.0267
 7799SOL    HW234860   0.417   2.288   4.895 -1.0947 -0.3342 -0.2019
 7800SOL     OW34861   1.661   3.920   7.988 -0.2149 -0.3762 -0.5835
 7800SOL    HW134862   1.637   4.013   7.984 -1.9189 -0.8154 -0.3248
 7800SOL    HW234863   1.670   3.920   8.083  0.7517 -0.3345 -0.6696
 7801SOL     OW34864   0.060   0.282   3.245  0.1057  0.3915 -0.2925
 7801SOL    HW134865   0.098   0.368   3.261 -2.3908  1.1923  1.1849
 7801SOL    HW234866   0.142   0.233   3.258  1.4404  2.7018 -0.0632
 7802SOL     OW34867   4.059   1.859  17.620 -0.1087 -0.2859  0.7583
 7802SOL    HW134868   4.082   1.952  17.624  0.3217 -0.3424 -0.3385
 7802SOL    HW234869   4.093   1.844  17.532 -0.1721  2.0368  0.3385
 7803SOL     OW34870   0.308   3.539   4.203  0.4637 -0.1290  0.4823
 7803SOL    HW134871   0.388   3.492   4.228 -1.1391 -1.8996  2.2998
 7803SOL    HW234872   0.284   3.567   4.291 -1.0250 -1.1577  0.4021
 7804SOL     OW34873   4.554   3.304   6.288 -0.1676 -0.0671  0.1474
 7804SOL    HW134874   4.470   3.297   6.244 -0.0903 -0.3284  0.0383
 7804SOL    HW234875   4.573   3.211   6.302  0.5934 -0.3598 -2.8344
 7805SOL     OW34876   3.226   0.719   6.582  0.4858  0.1836 -0.0217
 7805SOL    HW134877   3.312   0.758   6.568  0.9613 -0.0856  2.2059
 7805SOL    HW234878   3.202   0.711   6.674 -0.3602 -0.4652 -0.3008
 7806SOL     OW34879   1.916   4.336   5.973  0.2076 -0.2430  0.0481
 7806SOL    HW134880   1.930   4.257   6.025  0.8909 -2.3599 -3.4047
 7806SOL    HW234881   1.908   4.411   6.033  1.7446  0.2787 -0.3865
 7807SOL     OW34882   0.018   2.854   5.907 -0.1151  0.0056  0.3696
 7807SOL    HW134883   4.697   2.913   5.969 -0.3633 -0.3544  0.5468
 7807SOL    HW234884   4.661   2.812   5.873  0.0912  0.1473 -0.2813
 7808SOL     OW34885   0.197   4.293   1.791  0.0045  0.2923  0.1321
 7808SOL    HW134886   0.140   4.229   1.833  0.9548 -0.1048  0.8049
 7808SOL    HW234887   0.133   4.358   1.764 -0.9172 -1.1035 -1.0515
 7809SOL     OW34888   2.941   3.222   8.210  0.1370 -0.7240  0.2209
 7809SOL    HW134889   2.962   3.314   8.223 -0.3836 -0.7669  1.3780
 7809SOL    HW234890   2.901   3.232   8.123  1.5104 -0.5535 -0.3909
 7810SOL     OW34891   2.336   3.982  10.206 -0.1265 -0.0731 -0.4066
 7810SOL    HW134892   2.261   3.923  10.214 -2.1293  2.4206 -1.0886
 7810SOL    HW234893   2.403   3.937  10.258  0.3513  1.0152 -0.0953
 7811SOL     OW34894   2.430   4.269   9.548 -0.0854  0.2056  0.2260
 7811SOL    HW134895   2.523   4.261   9.567  0.2032 -1.8510 -2.1771
 7811SOL    HW234896   2.413   4.344   9.606  3.2474 -0.6729  2.3352
 7812SOL     OW34897   4.062   4.513   1.631  0.1141  0.3070 -0.2059
 7812SOL    HW134898   3.967   4.497   1.632  0.0042  1.0656  0.7298
 7812SOL    HW234899   4.100   4.425   1.634 -0.0177  0.3520  2.3037
 7813SOL     OW34900   0.759   0.044   6.279 -0.1460  0.4842 -0.6143
 7813SOL    HW134901   0.825   0.063   6.346 -1.1716 -1.8302  1.0464
 7813SOL    HW234902   0.688   0.100   6.309  1.0339  1.5445  0.2497
 7814SOL     OW34903   2.001   0.355   5.278 -0.2416 -0.3848  0.3732
 7814SOL    HW134904   1.962   0.345   5.365  1.1860  0.3921  1.1161
 7814SOL    HW234905   1.952   0.432   5.248 -1.2525 -0.6682  1.3177
 7815SOL     OW34906   3.663   4.393   4.245 -0.7520  0.5792 -0.4096
 7815SOL    HW134907   3.708   4.309   4.242  0.2195  1.0150  1.9606
 7815SOL    HW234908   3.733   4.455   4.263 -1.0468  0.8723 -0.2639
 7816SOL     OW34909   1.343   0.228  15.552 -0.6361 -0.0624  0.2899
 7816SOL    HW134910   1.364   0.307  15.503  0.9616 -1.7706 -1.8053
 7816SOL    HW234911   1.258   0.256  15.586 -0.2776  2.1054 -0.6466
 7817SOL     OW34912   3.509   4.040  11.182 -0.1829  0.5709 -0.0446
 7817SOL    HW134913   3.494   3.960  11.232 -1.3926  0.6708 -0.2397
 7817SOL    HW234914   3.443   4.102  11.214 -0.9523  1.0281 -2.4563
 7818SOL     OW34915   2.165   2.520   6.888 -0.2497 -0.1784 -0.2441
 7818SOL    HW134916   2.254   2.553   6.872 -0.4221 -0.9550 -2.8869
 7818SOL    HW234917   2.163   2.517   6.983  3.2454  0.2647 -0.1571
 7819SOL     OW34918   1.642   4.318  13.515  0.6137  0.6276 -0.5929
 7819SOL    HW134919   1.709   4.385  13.527  1.8103 -0.4860 -1.1442
 7819SOL    HW234920   1.663   4.277  13.431 -1.4501  0.6661 -1.1177
 7820SOL     OW34921   3.996   3.002   5.145 -0.0013 -0.2527 -0.1438
 7820SOL    HW134922   3.936   3.062   5.101 -0.2352 -0.3387  0.0536
 7820SOL    HW234923   4.067   2.997   5.081  0.2720  0.6934  0.0864
 7821SOL     OW34924   1.532   3.330  10.569 -0.0513 -0.3986 -1.0748
 7821SOL    HW134925   1.615   3.324  10.522 -0.4279 -3.5780 -1.3815
 7821SOL    HW234926   1.505   3.242  10.598  0.4939 -0.7834 -1.7306
 7822SOL     OW34927   2.454   3.092   6.355 -0.2008 -0.2769 -0.8166
 7822SOL    HW134928   2.500   3.168   6.319  0.4982  1.0058  2.8186
 7822SOL    HW234929   2.440   3.113   6.447 -0.1327  3.2984 -1.5978
 7823SOL     OW34930   4.477   3.094  11.473  0.4170  0.6596  0.1533
 7823SOL    HW134931   4.558   3.051  11.446  0.0999 -0.7998  1.5731
 7823SOL    HW234932   4.479   3.112  11.567 -0.8280  0.9804  0.1177
 7824SOL     OW34933   3.369   4.006   2.182 -0.0200 -0.1537  0.2290
 7824SOL    HW134934   3.357   4.101   2.180  1.3973 -0.0077 -0.7438
 7824SOL    HW234935   3.323   3.978   2.103  1.7241 -2.7722  0.1744
 7825SOL     OW34936   0.053   1.214  15.305  0.2717 -0.4646  0.1269
 7825SOL    HW134937   0.122   1.280  15.307 -0.3456  0.1933 -0.0321
 7825SOL    HW234938   0.054   1.196  15.399  1.9065  0.9894  0.3883
 7826SOL     OW34939   4.369   3.116   4.628  0.1445  0.1390  0.1376
 7826SOL    HW134940   4.409   3.076   4.706 -0.1347 -1.4497 -0.5450
 7826SOL    HW234941   4.279   3.086   4.641  0.1821 -0.0756 -0.1256
 7827SOL     OW34942   3.432   4.426   5.462 -0.0804  0.3938 -0.3201
 7827SOL    HW134943   3.514   4.467   5.491 -0.7903  0.3071  1.8628
 7827SOL    HW234944   3.427   4.446   5.369 -0.4155  1.0300 -0.1665
 7828SOL     OW34945   3.588   0.207   1.108  0.3028 -0.3774  0.1795
 7828SOL    HW134946   3.534   0.164   1.041  1.4539  1.2251 -1.7674
 7828SOL    HW234947   3.675   0.172   1.086  0.3054  0.7917 -1.6936
 7829SOL     OW34948   4.588   0.785   0.815  0.4858  0.6234 -0.5539
 7829SOL    HW134949   4.678   0.768   0.787  1.1420 -1.9930  3.1125
 7829SOL    HW234950   4.559   0.698   0.842  0.5187  0.6430 -0.4568
 7830SOL     OW34951   1.374   0.356   0.692  0.0602  0.1390 -0.3115
 7830SOL    HW134952   1.432   0.280   0.686 -2.1316 -1.3945 -2.0695
 7830SOL    HW234953   1.292   0.308   0.707 -0.1878  1.1708  1.6226
 7831SOL     OW34954   4.310   0.339  12.059  0.0964  0.2287  0.2630
 7831SOL    HW134955   4.373   0.312  11.992  1.0439 -0.5777  1.4806
 7831SOL    HW234956   4.292   0.425  12.019 -1.2984  0.0915  0.5966
 7832SOL     OW34957   0.712   2.304   2.552 -0.3855  0.0320  0.8793
 7832SOL    HW134958   0.633   2.269   2.592 -0.5663  1.5837  1.8394
 7832SOL    HW234959   0.780   2.259   2.604  0.2808 -2.0193 -1.7600
 7833SOL     OW34960   1.004   1.178  12.623  0.1474  0.3623 -0.0886
 7833SOL    HW134961   0.959   1.187  12.707  1.2274 -2.5370  0.8055
 7833SOL    HW234962   1.057   1.099  12.637  0.9836  1.1860  1.4488
 7834SOL     OW34963   3.028   0.116   0.121 -0.4484 -1.2084  0.0722
 7834SOL    HW134964   3.048   0.031   0.081  1.2938 -0.7455 -0.0009
 7834SOL    HW234965   2.985   0.154   0.044 -1.0286  0.0360  0.9968
 7835SOL     OW34966   0.347   3.563   1.975 -0.3076  0.4926 -0.0590
 7835SOL    HW134967   0.310   3.503   2.040 -1.6633  1.3609 -0.0368
 7835SOL    HW234968   0.402   3.507   1.921  0.4137  1.3044 -0.1739
 7836SOL     OW34969   3.717   2.172  12.001 -0.2405  0.2734 -0.3837
 7836SOL    HW134970   3.707   2.086  11.960  2.6156 -0.7632  1.0353
 7836SOL    HW234971   3.798   2.165  12.052  0.8764 -0.0651 -2.2044
 7837SOL     OW34972   0.769   3.791  13.244 -0.0675 -0.5304 -0.3371
 7837SOL    HW134973   0.694   3.836  13.205 -0.0904  1.8117  2.4404
 7837SOL    HW234974   0.814   3.774  13.162 -0.6437 -2.3956 -0.2679
 7838SOL     OW34975   1.307   1.853   6.045  0.3245 -0.5943  0.5936
 7838SOL    HW134976   1.242   1.783   6.056 -0.7640 -0.0347 -2.2707
 7838SOL    HW234977   1.392   1.810   6.050  0.1063 -0.9164  1.5373
 7839SOL     OW34978   4.240   4.553   4.819  0.1628 -0.1931  0.0360
 7839SOL    HW134979   4.229   4.593   4.733  0.6945  0.7707  0.4234
 7839SOL    HW234980   4.153   4.553   4.860  0.3586 -2.5675  0.4849
 7840SOL     OW34981   3.144   3.836   2.516 -0.6110 -0.1829  0.0650
 7840SOL    HW134982   3.064   3.882   2.544  0.3920  0.7550  1.3915
 7840SOL    HW234983   3.135   3.760   2.573 -1.7019  0.3866  0.6634
 7841SOL     OW34984   0.943   4.494   9.026  0.1479  0.4720 -0.5210
 7841SOL    HW134985   0.916   4.514   8.936  0.0497 -1.2880 -0.8815
 7841SOL    HW234986   0.935   4.399   9.017 -0.8738  0.4363  0.8747
 7842SOL     OW34987   0.906   0.744   8.358  0.4481 -0.1588 -0.4444
 7842SOL    HW134988   0.885   0.658   8.322 -1.4214  1.1371 -2.4464
 7842SOL    HW234989   0.912   0.722   8.451 -1.2881 -1.5387 -0.6653
 7843SOL     OW34990   1.357   0.611  15.742  1.1894  0.0481  0.0268
 7843SOL    HW134991   1.423   0.547  15.717 -0.4207 -0.7185 -2.2555
 7843SOL    HW234992   1.414   0.663  15.798  0.9600  0.2352  0.0874
 7844SOL     OW34993   1.651   3.214   4.840 -0.5225  0.1174  0.1974
 7844SOL    HW134994   1.729   3.163   4.815 -0.2176  0.8700 -0.3741
 7844SOL    HW234995   1.684   3.255   4.920  1.5299 -0.1296 -0.5097
 7845SOL     OW34996   3.073   2.053  11.579 -0.2647 -0.2300  0.7424
 7845SOL    HW134997   3.156   2.062  11.625 -0.0543 -0.9631  0.5125
 7845SOL    HW234998   3.041   2.142  11.593 -1.1548 -0.2417 -1.1568
 7846SOL     OW34999   1.816   2.663   6.030  0.3420  0.0367  0.0861
 7846SOL    HW135000   1.729   2.703   6.035 -0.3709 -1.1053 -3.1116
 7846SOL    HW235001   1.880   2.727   6.061 -2.2182  2.2155  0.8369
 7847SOL     OW35002   0.556   1.893  16.569  0.5739  0.0157  0.0754
 7847SOL    HW135003   0.461   1.904  16.563  0.3040 -1.5101  1.6636
 7847SOL    HW235004   0.586   1.984  16.567 -1.0955  0.6443  4.5638
 7848SOL     OW35005   2.471   4.083   0.483 -0.6454 -0.3901  0.1106
 7848SOL    HW135006   2.467   4.106   0.390 -2.3588  3.0459  1.0238
 7848SOL    HW235007   2.565   4.089   0.500 -1.0220  2.2614  1.3046
 7849SOL     OW35008   1.453   1.939  16.217 -0.1953  0.0035 -0.3016
 7849SOL    HW135009   1.520   1.961  16.152 -1.2829 -0.2151 -1.4983
 7849SOL    HW235010   1.472   1.848  16.240 -1.7955 -0.0758  0.6698
 7850SOL     OW35011   4.325   0.033  12.121  0.0956 -0.0992 -0.4328
 7850SOL    HW135012   4.341   0.025  12.027  2.0188 -1.2257 -0.0002
 7850SOL    HW235013   4.357   0.120  12.145 -1.8534  0.1840  1.2153
 7851SOL     OW35014   2.406   1.118   4.688 -0.1853 -0.6259 -0.3205
 7851SOL    HW135015   2.397   1.104   4.782 -0.4594  1.2651 -0.0646
 7851SOL    HW235016   2.382   1.210   4.684 -0.0742 -0.6629 -1.9318
 7852SOL     OW35017   3.298   0.940  15.922 -0.0958 -0.0259 -0.0852
 7852SOL    HW135018   3.267   1.015  15.872 -0.1289  0.6816  0.9968
 7852SOL    HW235019   3.309   0.990  16.003 -1.0361  2.1404 -1.2889
 7853SOL     OW35020   0.386   1.269  12.716  0.2673 -0.2898 -0.5579
 7853SOL    HW135021   0.444   1.257  12.641 -0.3714 -1.7911 -0.8341
 7853SOL    HW235022   0.315   1.209  12.692 -0.8208  0.2969  1.2180
 7854SOL     OW35023   1.445   4.508   5.343  0.0317 -0.1232 -0.4737
 7854SOL    HW135024   1.440   4.443   5.273  2.1967 -0.2968 -0.4532
 7854SOL    HW235025   1.355   4.505   5.378  0.1796 -1.1749 -0.1828
 7855SOL     OW35026   2.163   3.240   3.943 -0.0179  0.4602 -0.6019
 7855SOL    HW135027   2.256   3.221   3.939 -0.2425 -0.8768  0.5323
 7855SOL    HW235028   2.123   3.156   3.922 -1.6654  0.8680  0.8404
 7856SOL     OW35029   0.930   4.260   1.655 -0.0388 -0.4057 -0.0701
 7856SOL    HW135030   0.922   4.284   1.562  1.7153 -2.6121 -0.7873
 7856SOL    HW235031   0.925   4.339   1.708 -0.7210 -0.4529 -0.0629
 7857SOL     OW35032   1.964   0.400   9.394 -0.4788  0.0265 -0.0273
 7857SOL    HW135033   2.034   0.344   9.361  0.0915  0.2398  0.8386
 7857SOL    HW235034   1.921   0.433   9.315  0.0910 -1.9267 -1.1421
 7858SOL     OW35035   2.179   3.775   3.413  0.3376  0.0654 -0.3283
 7858SOL    HW135036   2.168   3.855   3.465  1.3935  0.2677 -0.4174
 7858SOL    HW235037   2.097   3.773   3.364 -0.9804 -0.9116  1.8919
 7859SOL     OW35038   3.828   0.238   0.875  0.1985 -0.7068  0.0702
 7859SOL    HW135039   3.913   0.282   0.868 -1.0226  1.6665  0.1315
 7859SOL    HW235040   3.770   0.314   0.865  0.2368 -0.6695  0.1285
 7860SOL     OW35041   2.611   1.894   5.584 -0.0076 -0.5528 -0.5671
 7860SOL    HW135042   2.545   1.953   5.620  1.8154  0.2234  1.5113
 7860SOL    HW235043   2.589   1.811   5.626  1.3112 -1.2214 -1.1994
 7861SOL     OW35044   1.481   0.462  10.634 -0.1884 -0.5967 -0.2442
 7861SOL    HW135045   1.428   0.494  10.561 -1.1409 -1.2239  0.1648
 7861SOL    HW235046   1.414   0.408  10.677 -2.0524  2.4014  0.6333
 7862SOL     OW35047   0.818   0.982   3.740  0.2701  0.2888 -0.7402
 7862SOL    HW135048   0.798   1.074   3.759  0.8305  0.3460 -0.4191
 7862SOL    HW235049   0.781   0.989   3.652  3.1900 -0.7649 -2.0517
 7863SOL     OW35050   2.013   2.190   7.813  0.4349  0.2201  0.3293
 7863SOL    HW135051   1.958   2.191   7.891 -0.1975 -1.1372 -0.1006
 7863SOL    HW235052   1.992   2.107   7.772  1.3255  0.4371 -0.5752
 7864SOL     OW35053   4.630   3.279   4.745 -0.2208 -0.0265  0.3295
 7864SOL    HW135054   4.638   3.241   4.657  0.0903  1.0450 -0.0935
 7864SOL    HW235055   4.537   3.264   4.765 -0.1126 -0.2662  0.6614
 7865SOL     OW35056   2.742   4.039   6.289 -0.5558  0.2104  0.0783
 7865SOL    HW135057   2.773   4.005   6.373  0.3263 -0.5247 -0.5466
 7865SOL    HW235058   2.744   4.134   6.306 -1.4305  0.5790 -1.9158
 7866SOL     OW35059   3.376   4.643   1.804  0.2773  0.2766 -0.4806
 7866SOL    HW135060   3.365   4.690   1.722  0.9115  3.0908  1.0504
 7866SOL    HW235061   3.288   4.607   1.809  0.0777  0.7730 -0.4855
 7867SOL     OW35062   1.718   1.697  17.190 -0.3524 -0.1727 -0.3797
 7867SOL    HW135063   1.734   1.609  17.158 -0.8717 -1.4443  2.9436
 7867SOL    HW235064   1.802   1.729  17.222  0.2189 -2.2990  0.2201
 7868SOL     OW35065   3.642   0.825   3.440  0.1693 -0.3168  0.0950
 7868SOL    HW135066   3.605   0.897   3.491  1.7751  0.1498  0.6129
 7868SOL    HW235067   3.562   0.775   3.422  1.3695 -2.4177  0.6142
 7869SOL     OW35068   1.322   3.307  14.456  0.2225  0.1387  0.6208
 7869SOL    HW135069   1.349   3.255  14.531 -1.6296 -0.9339  0.5569
 7869SOL    HW235070   1.405   3.347  14.430 -1.0416  1.6443 -1.0530
 7870SOL     OW35071   3.157   0.642   1.530 -0.0973 -0.3304 -0.3744
 7870SOL    HW135072   3.203   0.711   1.577 -0.6992  0.6638 -1.2386
 7870SOL    HW235073   3.127   0.680   1.447  0.2082  0.0085 -0.3290
 7871SOL     OW35074   4.695   0.461   8.514  0.3482  0.5896  0.6406
 7871SOL    HW135075   0.064   0.447   8.488  0.5881  4.1840 -0.5431
 7871SOL    HW235076   4.657   0.378   8.486  1.1530  0.6765 -0.7005
 7872SOL     OW35077   1.671   0.364  10.456 -0.2105 -0.1308  0.4491
 7872SOL    HW135078   1.629   0.422  10.519 -1.6687 -2.0871  1.2733
 7872SOL    HW235079   1.610   0.361  10.382  0.2429  1.2159  0.0110
 7873SOL     OW35080   0.718   4.122   3.739  0.6133  0.9289 -0.3300
 7873SOL    HW135081   0.670   4.094   3.661 -0.4297 -0.1125  0.6705
 7873SOL    HW235082   0.679   4.209   3.745  1.8364  1.5379 -1.2723
 7874SOL     OW35083   3.651   3.359   4.115  0.5059  0.5025  0.6148
 7874SOL    HW135084   3.679   3.294   4.180 -2.3857 -1.7528 -0.4146
 7874SOL    HW235085   3.611   3.303   4.049 -0.9076  2.3915 -0.1207
 7875SOL     OW35086   0.557   3.213  15.550  0.0727  0.3584 -0.1153
 7875SOL    HW135087   0.571   3.301  15.515 -1.5073  0.5385 -0.3271
 7875SOL    HW235088   0.467   3.220  15.581 -0.5440 -1.4705 -1.4896
 7876SOL     OW35089   0.398   4.303  13.980 -0.0632 -0.0871  0.0212
 7876SOL    HW135090   0.319   4.357  13.976 -0.0263 -0.0789 -0.7144
 7876SOL    HW235091   0.434   4.334  13.897 -1.6954 -0.1251 -0.7052
 7877SOL     OW35092   2.648   0.930   9.071 -0.4577 -0.3195  0.2337
 7877SOL    HW135093   2.586   0.904   9.140 -1.0153 -0.8693 -0.4867
 7877SOL    HW235094   2.660   0.848   9.024 -3.0212  0.5194 -1.8641
 7878SOL     OW35095   3.335   1.423  15.440  0.1829 -0.5175 -0.7601
 7878SOL    HW135096   3.394   1.482  15.486 -1.1151  0.1347  0.0707
 7878SOL    HW235097   3.282   1.477  15.382 -2.4443 -2.7934 -0.5176
 7879SOL     OW35098   0.667   2.756   9.359  0.1123  0.2496  0.3515
 7879SOL    HW135099   0.595   2.716   9.310 -0.8442  1.0299  1.1065
 7879SOL    HW235100   0.652   2.850   9.348 -2.9917 -0.2698  0.1721
 7880SOL     OW35101   3.176   2.454  15.433 -0.3867  0.0061 -0.0605
 7880SOL    HW135102   3.143   2.510  15.504 -0.2049 -0.5120  0.4259
 7880SOL    HW235103   3.165   2.371  15.479 -0.6904 -0.6725 -1.3704
 7881SOL     OW35104   3.408   3.296  17.024  0.8795 -0.4579 -0.2138
 7881SOL    HW135105   3.415   3.314  16.930  0.1766 -0.6963 -0.3131
 7881SOL    HW235106   3.499   3.318  17.043  0.3338  1.5612  0.0542
 7882SOL     OW35107   0.611   2.244   6.092 -0.0390 -0.5511 -0.0361
 7882SOL    HW135108   0.574   2.188   6.161 -0.8513 -0.8170 -0.6830
 7882SOL    HW235109   0.684   2.184   6.078  0.4865 -0.1258  0.8573
 7883SOL     OW35110   2.097   1.281   7.641  0.3225  0.4934 -0.5330
 7883SOL    HW135111   2.148   1.228   7.580  3.0802  0.5625  1.7306
 7883SOL    HW235112   2.156   1.270   7.716  1.1209 -0.2369 -1.2667
 7884SOL     OW35113   4.516   1.615   7.845  0.3880  0.0245 -0.1602
 7884SOL    HW135114   4.442   1.672   7.824 -0.1418  0.1101  1.9245
 7884SOL    HW235115   4.576   1.621   7.771  1.1666  0.5896  0.5092
 7885SOL     OW35116   3.404   4.086   4.616  0.0327 -0.2321 -0.2600
 7885SOL    HW135117   3.477   4.060   4.560  1.8152  1.3284  1.3674
 7885SOL    HW235118   3.353   4.009   4.590 -0.5164  0.2180 -0.5452
 7886SOL     OW35119   1.495   4.181   2.771  0.2569  0.0079  0.2203
 7886SOL    HW135120   1.522   4.260   2.723 -1.1122  1.1631  1.3315
 7886SOL    HW235121   1.436   4.229   2.830  2.5174  1.2685  1.5130
 7887SOL     OW35122   4.138   2.680   8.357  0.1606 -0.1575 -0.3202
 7887SOL    HW135123   4.226   2.713   8.375 -0.3392  0.7045  0.5322
 7887SOL    HW235124   4.105   2.765   8.331  1.4937  0.5282  0.2144
 7888SOL     OW35125   1.202   1.819  15.716 -0.0675  0.3340  0.0402
 7888SOL    HW135126   1.143   1.755  15.676  0.8320 -0.7790  0.5010
 7888SOL    HW235127   1.222   1.782  15.802  1.9309  0.0855 -0.5240
 7889SOL     OW35128   3.605   2.577  10.574  0.1641 -0.2465 -0.3612
 7889SOL    HW135129   3.593   2.560  10.668 -0.6336  3.2457  0.1744
 7889SOL    HW235130   3.633   2.668  10.560 -1.6849  0.1250 -1.6336
 7890SOL     OW35131   0.802   0.672  15.615 -0.1167  0.0806 -0.0899
 7890SOL    HW135132   0.729   0.673  15.552 -1.1906 -0.4820  1.1562
 7890SOL    HW235133   0.841   0.753  15.582 -0.5562  0.6106  0.6985
 7891SOL     OW35134   4.339   0.651   3.394  0.6240 -0.1429 -0.4181
 7891SOL    HW135135   4.334   0.558   3.372  0.2665 -0.1900 -0.1366
 7891SOL    HW235136   4.265   0.660   3.454  0.0470  0.9347 -1.2825
 7892SOL     OW35137   0.394   1.594   8.416 -0.4864 -0.2246 -0.1959
 7892SOL    HW135138   0.421   1.525   8.478 -0.3370 -0.3693 -0.4239
 7892SOL    HW235139   0.363   1.656   8.482 -1.4157 -1.5139  0.5931
 7893SOL     OW35140   1.939   2.582   1.645 -0.1399 -0.6806 -0.1399
 7893SOL    HW135141   1.914   2.494   1.616  0.6359 -1.1076  0.4742
 7893SOL    HW235142   1.861   2.637   1.642  0.2023 -0.2195 -0.6267
 7894SOL     OW35143   3.399   1.328   4.765 -0.3248 -0.3312 -0.0398
 7894SOL    HW135144   3.372   1.369   4.847 -1.0509 -1.4356  0.2650
 7894SOL    HW235145   3.440   1.248   4.797  0.1051  0.2910  0.9373
 7895SOL     OW35146   1.653   2.351   0.328  0.1487  0.1109 -0.1855
 7895SOL    HW135147   1.728   2.292   0.332  0.2861  0.1718 -2.0776
 7895SOL    HW235148   1.700   2.433   0.317 -1.9810  1.5493  1.4891
 7896SOL     OW35149   3.709   2.866  17.244 -0.5072  0.2677 -0.1201
 7896SOL    HW135150   3.775   2.933  17.262 -1.0267  0.9325 -0.6926
 7896SOL    HW235151   3.638   2.903  17.295 -2.3598 -2.9116 -0.3731
 7897SOL     OW35152   2.248   4.182   9.871  0.3393  0.3673  0.5249
 7897SOL    HW135153   2.325   4.131   9.895 -0.6421 -0.6326  1.5157
 7897SOL    HW235154   2.191   4.187   9.949 -2.7940  1.5478 -1.8185
 7898SOL     OW35155   2.619   0.069   8.806  0.1170  0.1823  0.2494
 7898SOL    HW135156   2.595   0.161   8.816 -0.7681  0.1168 -1.1783
 7898SOL    HW235157   2.683   0.067   8.877  0.8158 -0.1636 -0.3800
 7899SOL     OW35158   0.575   0.742  15.850  0.2027 -0.3832 -0.2101
 7899SOL    HW135159   0.505   0.778  15.904  1.7711  1.3171  0.6576
 7899SOL    HW235160   0.593   0.823  15.803  3.6498 -0.3578  1.1217
 7900SOL     OW35161   0.461   0.643  14.701  0.2203  0.4120 -0.2247
 7900SOL    HW135162   0.444   0.550  14.716  0.2659  0.5438  0.6385
 7900SOL    HW235163   0.389   0.684  14.750 -0.5627 -2.0815  0.6957
 7901SOL     OW35164   1.638   0.333  10.908  0.4459  0.4244 -0.2854
 7901SOL    HW135165   1.643   0.395  10.835 -1.0587  0.5908 -0.2537
 7901SOL    HW235166   1.604   0.392  10.976  1.4272 -1.3824  1.7705
 7902SOL     OW35167   2.587   3.591   4.550 -0.3151  0.2032 -0.0377
 7902SOL    HW135168   2.575   3.686   4.553 -1.8647  0.0336 -0.3628
 7902SOL    HW235169   2.520   3.556   4.609 -1.1008  0.4005 -0.8088
 7903SOL     OW35170   3.937   1.530   2.129  0.1616 -0.1714 -0.3759
 7903SOL    HW135171   3.879   1.553   2.057 -1.6739 -2.8978  0.2076
 7903SOL    HW235172   3.873   1.549   2.198  1.1887 -0.2963  0.6224
 7904SOL     OW35173   4.310   3.495   3.171 -0.1805 -1.0040  0.0003
 7904SOL    HW135174   4.290   3.456   3.086  0.7985 -0.8091 -0.3130
 7904SOL    HW235175   4.247   3.465   3.237 -1.1830 -2.2904 -1.5490
 7905SOL     OW35176   0.654   4.124  13.602 -0.4931 -0.0046 -0.3348
 7905SOL    HW135177   0.628   4.123  13.694  3.4078 -1.8469  0.7565
 7905SOL    HW235178   0.615   4.045  13.566 -0.7837 -1.2371  2.6443
 7906SOL     OW35179   3.616   1.275   8.113 -0.4620  0.6132 -0.3553
 7906SOL    HW135180   3.664   1.325   8.047  0.5786  0.0981  0.0152
 7906SOL    HW235181   3.593   1.335   8.184 -0.6785  0.2646 -0.1336
 7907SOL     OW35182   3.245   3.470  15.461 -0.0226 -0.1874  0.4618
 7907SOL    HW135183   3.198   3.544  15.423  0.8646 -0.2530 -0.7698
 7907SOL    HW235184   3.297   3.511  15.530  0.2456 -0.3904  0.3809
 7908SOL     OW35185   3.238   3.620   9.482  0.2121  0.4106 -0.4849
 7908SOL    HW135186   3.200   3.705   9.460  0.1983 -0.1500 -2.6415
 7908SOL    HW235187   3.326   3.639   9.514 -0.5420  1.3901  0.9817
 7909SOL     OW35188   1.538   0.005   5.229  0.3223 -0.8842  0.5826
 7909SOL    HW135189   1.465   4.669   5.252 -2.2073  2.2630  0.4212
 7909SOL    HW235190   1.568   0.025   5.317  2.1973  0.9370 -0.4893
 7910SOL     OW35191   0.586   3.405   7.931 -0.6918  0.1641 -0.1530
 7910SOL    HW135192   0.525   3.477   7.946 -0.4068 -0.0199  1.9553
 7910SOL    HW235193   0.634   3.395   8.013 -0.0029  1.4057 -0.4028
 7911SOL     OW35194   4.616   3.920   7.482 -0.5910  0.4712  0.3225
 7911SOL    HW135195   4.561   3.995   7.459 -2.0261  0.2797  3.1575
 7911SOL    HW235196   4.691   3.931   7.423  0.7034 -0.7398  1.7420
 7912SOL     OW35197   2.454   4.188   7.329 -0.1208 -0.2782  0.3876
 7912SOL    HW135198   2.389   4.152   7.390 -0.3418 -0.1989  0.1995
 7912SOL    HW235199   2.412   4.176   7.243  3.4733  0.8287 -1.5028
 7913SOL     OW35200   3.576   2.686   2.634 -0.5144 -0.1823 -0.3731
 7913SOL    HW135201   3.637   2.690   2.560  1.4176  0.8421  1.2991
 7913SOL    HW235202   3.636   2.640   2.693 -2.1693 -1.3554  0.3819
 7914SOL     OW35203   2.789   2.899  12.346  0.2851 -0.0423 -0.5648
 7914SOL    HW135204   2.805   2.808  12.322  2.4683  0.1882  0.0696
 7914SOL    HW235205   2.870   2.946  12.327  0.0641  0.3043 -0.6677
 7915SOL     OW35206   0.421   2.967   6.255  0.7286 -0.3333  0.0122
 7915SOL    HW135207   0.460   2.884   6.226  0.1931 -0.9029  0.9431
 7915SOL    HW235208   0.374   2.998   6.178 -0.9901  4.1007  2.8394
 7916SOL     OW35209   0.458   0.216  14.490 -1.0102 -0.3526 -0.1043
 7916SOL    HW135210   0.404   0.145  14.455 -0.6446  0.7900 -3.0254
 7916SOL    HW235211   0.398   0.290  14.486  2.0737  2.2637  2.9059
 7917SOL     OW35212   0.874   3.800   4.502 -0.3451  0.0858 -0.8209
 7917SOL    HW135213   0.937   3.731   4.480 -2.1498 -1.2312 -1.8070
 7917SOL    HW235214   0.787   3.767   4.480 -0.6148  1.2198 -1.4453
 7918SOL     OW35215   4.124   3.356   3.604 -0.0741  0.2570  0.5347
 7918SOL    HW135216   4.035   3.359   3.639 -0.5794  0.3048 -0.7279
 7918SOL    HW235217   4.172   3.423   3.653  1.8295 -1.4896  1.0754
 7919SOL     OW35218   3.536   2.315   4.841  0.5725 -0.4604  0.1092
 7919SOL    HW135219   3.495   2.230   4.856 -0.6114  0.2005  0.6482
 7919SOL    HW235220   3.515   2.332   4.750  0.3335  1.1638  0.4624
 7920SOL     OW35221   0.231   3.454  12.096  0.0451 -0.1700  0.7217
 7920SOL    HW135222   0.196   3.465  12.184 -0.4729 -1.5220  0.6808
 7920SOL    HW235223   0.228   3.543  12.060 -0.7763 -0.0530  1.0882
 7921SOL     OW35224   2.290   0.232  11.378 -0.1899 -0.6929 -0.0791
 7921SOL    HW135225   2.356   0.281  11.329 -1.5263  0.4442 -0.7512
 7921SOL    HW235226   2.315   0.232  11.471 -3.1109 -0.0185  0.7026
 7922SOL     OW35227   4.364   4.402   3.526 -0.3426  0.6332 -0.4563
 7922SOL    HW135228   4.439   4.459   3.544  0.3088 -0.8158  1.3738
 7922SOL    HW235229   4.409   4.317   3.517  1.9804  1.6604  1.4660
 7923SOL     OW35230   3.362   3.973   8.147 -0.1482 -0.1905  0.5392
 7923SOL    HW135231   3.387   3.981   8.239  0.6085  2.0386  0.1485
 7923SOL    HW235232   3.340   4.066   8.140  0.9314 -0.2133 -2.8908
 7924SOL     OW35233   3.373   4.348   2.959 -0.0773 -0.2744 -0.3696
 7924SOL    HW135234   3.462   4.383   2.961  0.1701 -0.8066 -2.5499
 7924SOL    HW235235   3.343   4.368   2.870 -2.3113 -1.2512  0.1543
 7925SOL     OW35236   2.073   3.328   8.402  1.1503 -0.2042  0.2532
 7925SOL    HW135237   2.058   3.388   8.476  0.0858  0.9056 -0.8506
 7925SOL    HW235238   2.144   3.365   8.350  0.7729 -0.4208 -0.4185
 7926SOL     OW35239   2.444   3.098   8.079 -0.0564  0.3451  0.2622
 7926SOL    HW135240   2.397   3.053   8.150 -0.3346 -0.1691 -0.2569
 7926SOL    HW235241   2.401   3.184   8.085  0.3239  0.6729 -2.0293
 7927SOL     OW35242   4.289   0.275   4.744 -0.0643 -0.4478 -0.6222
 7927SOL    HW135243   4.271   0.362   4.780  2.1233 -0.1984 -0.0976
 7927SOL    HW235244   4.328   0.295   4.659  0.2956  1.3828 -0.0219
 7928SOL     OW35245   4.386   2.926   1.860  0.1989  0.1545 -0.3904
 7928SOL    HW135246   4.441   2.995   1.824  0.6633 -1.6329 -3.1609
 7928SOL    HW235247   4.412   2.859   1.796  1.1282  0.7546 -0.6391
 7929SOL     OW35248   4.209   1.617   2.121 -0.1966 -0.0215  0.3046
 7929SOL    HW135249   4.240   1.560   2.191  0.1724  1.3376  1.2417
 7929SOL    HW235250   4.119   1.583   2.121 -0.8585  1.7312 -0.0106
 7930SOL     OW35251   4.070   2.640   6.791  0.1063  0.2174 -0.1241
 7930SOL    HW135252   4.155   2.670   6.759  0.1929  4.2790  3.8961
 7930SOL    HW235253   4.076   2.545   6.804 -0.5327  0.4105  1.6050
 7931SOL     OW35254   2.757   4.206   4.501  0.4490 -0.1408 -0.3159
 7931SOL    HW135255   2.699   4.262   4.449 -0.8758 -1.0507  0.1889
 7931SOL    HW235256   2.832   4.199   4.441  0.0369  0.6349 -0.9196
 7932SOL     OW35257   3.333   0.371   2.071  0.4774 -0.1373  0.5027
 7932SOL    HW135258   3.244   0.365   2.038  1.3882 -2.9552 -1.3967
 7932SOL    HW235259   3.373   0.314   2.006  0.2108 -0.9940  1.0967
 7933SOL     OW35260   0.327   1.599   2.905  0.0437  0.3263 -0.1146
 7933SOL    HW135261   0.260   1.661   2.934 -2.6316 -0.6705 -4.2154
 7933SOL    HW235262   0.304   1.530   2.967  0.1936 -0.1318 -0.5763
 7934SOL     OW35263   4.411   0.334  13.818 -0.2518  0.2029 -0.2822
 7934SOL    HW135264   4.497   0.343  13.778 -0.4872  0.2745 -0.7671
 7934SOL    HW235265   4.356   0.395  13.770 -0.0602 -1.4665 -2.6218
 7935SOL     OW35266   3.891   1.888   6.958  0.3931 -0.0448 -0.3187
 7935SOL    HW135267   3.875   1.811   6.903 -1.6803  0.4306 -0.3906
 7935SOL    HW235268   3.897   1.961   6.896  1.5288 -2.2524 -2.8430
 7936SOL     OW35269   1.843   2.790   9.103 -0.1573  0.5816 -0.0085
 7936SOL    HW135270   1.791   2.753   9.173  1.3340  1.5036  1.5796
 7936SOL    HW235271   1.931   2.760   9.127 -0.5932  1.0084  2.0829
 7937SOL     OW35272   3.874   0.435   7.211 -0.0955  0.5654  0.1084
 7937SOL    HW135273   3.853   0.478   7.128 -0.4322  1.7410  0.7928
 7937SOL    HW235274   3.867   0.341   7.197  2.0887  0.7450 -2.3079
 7938SOL     OW35275   3.960   3.160  10.160 -0.2583  0.5823  0.5067
 7938SOL    HW135276   3.932   3.071  10.139  1.8878 -0.1617  0.8201
 7938SOL    HW235277   4.054   3.154  10.177 -0.0654 -0.9895 -1.0008
 7939SOL     OW35278   1.722   0.083   3.970  0.0603  0.0452 -0.4544
 7939SOL    HW135279   1.709   4.718   4.009  4.1151  0.0984  0.9907
 7939SOL    HW235280   1.707   0.134   4.049 -0.0375 -0.9854  0.2008
 7940SOL     OW35281   2.488   0.623   9.869  0.2803 -0.4031 -0.2954
 7940SOL    HW135282   2.470   0.534   9.899  1.6155 -0.4338  0.4182
 7940SOL    HW235283   2.412   0.645   9.815 -0.2243  0.3270  0.7150
 7941SOL     OW35284   2.580   2.327   9.194  0.5340 -0.2882 -0.2976
 7941SOL    HW135285   2.586   2.365   9.106 -1.3642  2.4230  0.7404
 7941SOL    HW235286   2.670   2.323   9.224  0.7102  5.6492 -0.0663
 7942SOL     OW35287   0.833   0.625   6.681 -0.1037 -0.2252  0.1546
 7942SOL    HW135288   0.773   0.551   6.687  2.1411 -1.9662  0.9653
 7942SOL    HW235289   0.803   0.670   6.760 -1.5537  2.1755 -1.7631
 7943SOL     OW35290   0.005   4.215   9.851 -0.8031  0.0238 -0.6659
 7943SOL    HW135291   0.003   4.279   9.922  0.1538 -0.8266  0.1141
 7943SOL    HW235292   4.653   4.160   9.879  0.1636 -1.6246 -1.4175
 7944SOL     OW35293   2.632   1.164   8.838  0.1819  0.0213 -0.4359
 7944SOL    HW135294   2.641   1.237   8.899 -2.8811 -2.1529  2.6137
 7944SOL    HW235295   2.681   1.102   8.893 -0.3099 -2.7594 -3.1413
 7945SOL     OW35296   0.950   3.756   3.849  0.2874  0.2915 -0.2823
 7945SOL    HW135297   0.924   3.770   3.758  0.9298  1.2519 -0.3221
 7945SOL    HW235298   0.903   3.828   3.892 -1.0380 -0.5484 -0.3175
 7946SOL     OW35299   0.016   0.390   6.579  0.0354  0.1687  0.2618
 7946SOL    HW135300   4.675   0.420   6.644  1.1802  1.1543  0.9228
 7946SOL    HW235301   0.097   0.374   6.630  0.9927  0.5532 -1.1538
 7947SOL     OW35302   1.335   0.226   8.462 -0.4854  0.2066 -0.2087
 7947SOL    HW135303   1.272   0.170   8.508 -0.6661  1.3814  0.9674
 7947SOL    HW235304   1.356   0.281   8.538  2.7623 -0.7110 -0.4267
 7948SOL     OW35305   0.752   1.731   1.819 -0.2558 -0.3203 -0.0171
 7948SOL    HW135306   0.697   1.654   1.814  0.4739 -0.8409  0.0222
 7948SOL    HW235307   0.716   1.769   1.738  0.3872  0.5713  0.1135
 7949SOL     OW35308   3.865   1.400   2.503  0.0563  0.0385  0.1097
 7949SOL    HW135309   3.862   1.315   2.461  1.2773 -0.9542  2.0410
 7949SOL    HW235310   3.781   1.436   2.471  0.7722  1.4493 -0.2004
 7950SOL     OW35311   4.602   3.788   3.904  0.3618  0.3240  0.2624
 7950SOL    HW135312   4.554   3.708   3.926 -0.5009  1.1948  1.5708
 7950SOL    HW235313   4.674   3.743   3.861  1.1571  0.8470  1.0542
 7951SOL     OW35314   0.589   2.837   9.796 -0.0985 -0.4540  0.3059
 7951SOL    HW135315   0.653   2.905   9.815 -2.6085  2.2001 -0.6824
 7951SOL    HW235316   0.508   2.871   9.835 -0.5190 -1.6304  0.4671
 7952SOL     OW35317   3.539   0.406   6.454 -0.2378 -0.2865  0.0143
 7952SOL    HW135318   3.510   0.435   6.368  0.5050  0.3247 -0.0327
 7952SOL    HW235319   3.553   0.488   6.503 -0.7501 -0.5144  0.5366
 7953SOL     OW35320   4.401   0.799   5.142  0.0568 -0.1860 -0.2200
 7953SOL    HW135321   4.457   0.758   5.208  1.2234 -0.3636 -1.3194
 7953SOL    HW235322   4.452   0.873   5.108  0.9450 -0.8892 -0.4255
 7954SOL     OW35323   3.531   3.883  10.945 -0.0522  0.3077  0.8309
 7954SOL    HW135324   3.568   3.807  10.991  0.2817 -0.8362 -1.3209
 7954SOL    HW235325   3.507   3.947  11.012 -0.8646  0.0265  0.8134
 7955SOL     OW35326   1.914   2.693  10.348  0.1639  0.4483 -0.4471
 7955SOL    HW135327   1.925   2.615  10.402  0.7798  1.4577  0.8792
 7955SOL    HW235328   1.891   2.756  10.416 -1.2579  1.1348 -1.5504
 7956SOL     OW35329   3.632   0.915   5.971  0.0524  0.1616 -0.1265
 7956SOL    HW135330   3.568   0.878   5.911 -1.2601  1.5622  0.4275
 7956SOL    HW235331   3.594   0.877   6.050 -0.0702  0.8916  0.1685
 7957SOL     OW35332   4.563   2.101   3.059 -0.3267 -0.5211 -0.0535
 7957SOL    HW135333   4.545   2.116   2.966  0.2199 -0.2014 -0.1068
 7957SOL    HW235334   4.646   2.147   3.069  0.1090 -1.3215 -0.0794
 7958SOL     OW35335   4.620   3.599   5.599 -0.5813  0.4119  0.0254
 7958SOL    HW135336   4.633   3.681   5.551 -0.0463 -0.6124 -1.5951
 7958SOL    HW235337   4.526   3.588   5.590 -0.1205 -2.3933 -1.3990
 7959SOL     OW35338   0.612   4.388   3.739 -0.0877  0.3866  0.0754
 7959SOL    HW135339   0.522   4.404   3.713  0.8179  0.9699 -2.6512
 7959SOL    HW235340   0.670   4.435   3.679  3.8347 -3.2986  0.9571
 7960SOL     OW35341   1.950   3.931   0.686  0.1312 -0.1310  0.0619
 7960SOL    HW135342   1.940   3.846   0.643  0.4237  0.9251 -2.0508
 7960SOL    HW235343   1.902   3.989   0.627 -1.4766  0.1726  1.6414
 7961SOL     OW35344   4.034   0.361   5.667  0.1003 -0.0469  0.1967
 7961SOL    HW135345   3.978   0.291   5.632  0.9457 -0.2901 -0.6653
 7961SOL    HW235346   4.041   0.412   5.586 -1.8789 -0.7029 -0.4092
 7962SOL     OW35347   2.978   1.132   8.750 -0.3856  0.2671  0.4892
 7962SOL    HW135348   2.897   1.127   8.701 -0.2210 -0.5262  0.3002
 7962SOL    HW235349   2.950   1.184   8.825  0.9661 -0.2349  1.3402
 7963SOL     OW35350   0.711   2.831   0.337 -0.1381  0.0674 -0.6576
 7963SOL    HW135351   0.717   2.804   0.428 -0.1916 -0.0949 -0.7016
 7963SOL    HW235352   0.617   2.817   0.323 -0.3223 -1.0912  1.8394
 7964SOL     OW35353   3.470   0.901   8.273 -0.5238 -0.6415  0.3531
 7964SOL    HW135354   3.543   0.925   8.215 -0.2760 -0.6419  0.6632
 7964SOL    HW235355   3.493   0.816   8.309  0.0916 -0.9455 -0.7873
 7965SOL     OW35356   3.651   2.616   6.614  0.2720 -0.2379  0.0126
 7965SOL    HW135357   3.721   2.682   6.618 -1.6842  1.7312  2.2542
 7965SOL    HW235358   3.597   2.649   6.686  2.9974  0.1473  1.9108
 7966SOL     OW35359   0.740   2.717  14.106  0.4907  0.1476 -0.0755
 7966SOL    HW135360   0.757   2.639  14.159  3.4264  0.7911 -0.0764
 7966SOL    HW235361   0.646   2.728  14.122  0.5284  0.6964 -0.2503
 7967SOL     OW35362   0.720   3.687   7.140  0.2438  0.2253  0.2941
 7967SOL    HW135363   0.680   3.732   7.215  0.7749  1.8691 -0.4181
 7967SOL    HW235364   0.650   3.694   7.074 -0.0357  1.4142  0.7127
 7968SOL     OW35365   2.738   4.553   9.482 -0.1361  0.3566 -0.2218
 7968SOL    HW135366   2.762   4.462   9.465 -2.2446  0.2959 -2.7470
 7968SOL    HW235367   2.780   4.559   9.568  0.2227  1.0640 -0.4396
 7969SOL     OW35368   3.582   0.361   7.864  0.4651 -0.1934 -0.1451
 7969SOL    HW135369   3.611   0.298   7.930  1.0354 -0.1772 -0.3825
 7969SOL    HW235370   3.529   0.414   7.923 -1.1345 -0.9607 -0.8792
 7970SOL     OW35371   3.333   1.740  16.803  0.3519  0.3758 -0.4737
 7970SOL    HW135372   3.428   1.745  16.789  0.2103  1.4753 -1.0385
 7970SOL    HW235373   3.320   1.689  16.723  0.0846  2.3259 -1.6416
 7971SOL     OW35374   4.174   1.446   6.832  0.0597 -0.4065 -0.6534
 7971SOL    HW135375   4.152   1.498   6.755 -1.6646  2.8056  2.0023
 7971SOL    HW235376   4.119   1.485   6.900 -0.6686 -1.1763 -0.8060
 7972SOL     OW35377   0.202   0.635   1.714  0.2979  0.0589  0.3905
 7972SOL    HW135378   0.217   0.540   1.719 -2.0546 -0.2828  1.1120
 7972SOL    HW235379   0.157   0.653   1.632  1.1857  2.6305  0.4830
 7973SOL     OW35380   3.252   0.260  14.234  0.3604 -0.5445 -0.0034
 7973SOL    HW135381   3.204   0.184  14.268 -0.8750  0.2884  0.1315
 7973SOL    HW235382   3.330   0.209  14.216 -1.4823 -3.4060  0.1095
 7974SOL     OW35383   0.481   4.243   2.688 -0.1609 -0.0540  0.2484
 7974SOL    HW135384   0.408   4.211   2.742 -0.3803 -0.4617 -0.2857
 7974SOL    HW235385   0.533   4.164   2.699 -1.1207 -0.7882 -0.4282
 7975SOL     OW35386   0.256   4.271   6.541  0.5430 -0.0138 -0.0821
 7975SOL    HW135387   0.218   4.345   6.589  0.1431  0.5259 -1.2370
 7975SOL    HW235388   0.185   4.210   6.559  0.4742  0.4337  1.1610
 7976SOL     OW35389   4.311   0.738  13.163  0.1631 -0.2406  0.5009
 7976SOL    HW135390   4.258   0.773  13.235 -0.5996 -0.1533 -0.1105
 7976SOL    HW235391   4.398   0.741  13.205  1.6016  0.4778 -2.5423
 7977SOL     OW35392   1.397   2.758   3.691 -0.1460  0.1006 -0.1857
 7977SOL    HW135393   1.459   2.685   3.695  1.5986  1.6786  1.8425
 7977SOL    HW235394   1.318   2.709   3.715  0.2034  1.0708  3.0566
 7978SOL     OW35395   1.511   2.806   3.210 -0.2366 -0.3465  0.3377
 7978SOL    HW135396   1.543   2.831   3.123  2.3279 -3.6633  0.3262
 7978SOL    HW235397   1.434   2.863   3.217 -1.5255 -2.0262 -0.1761
 7979SOL     OW35398   0.026   3.803   8.217  0.5034 -0.2680 -0.7715
 7979SOL    HW135399   4.708   3.717   8.203 -2.9321  1.2078  0.0422
 7979SOL    HW235400   0.091   3.780   8.284 -0.1026  0.5301  0.0784
 7980SOL     OW35401   3.119   0.154  10.107 -0.1790 -0.0567 -1.0538
 7980SOL    HW135402   3.107   0.143  10.202  2.1738 -1.0534 -0.8728
 7980SOL    HW235403   3.209   0.185  10.098 -0.1016 -0.0196 -0.1857
 7981SOL     OW35404   1.122   0.184   0.624 -0.1593 -0.1137 -0.2634
 7981SOL    HW135405   1.062   0.252   0.655  1.3241  1.4977 -0.8995
 7981SOL    HW235406   1.061   0.142   0.563  1.1609 -1.3700 -0.7019
 7982SOL     OW35407   3.733   4.212  14.521 -0.3039  0.1455 -0.5734
 7982SOL    HW135408   3.665   4.200  14.455 -0.5026  0.8459 -0.5036
 7982SOL    HW235409   3.804   4.236  14.461 -0.2040  0.4605 -0.3297
 7983SOL     OW35410   3.797   1.158   2.396 -0.0036 -0.9287  0.0370
 7983SOL    HW135411   3.849   1.111   2.331  2.5179  0.8212  0.7743
 7983SOL    HW235412   3.707   1.133   2.375 -0.7578  1.5220  0.3449
 7984SOL     OW35413   1.014   2.868  11.610  0.4910  0.5177 -0.3451
 7984SOL    HW135414   1.025   2.917  11.691  0.7056  1.0581 -0.6957
 7984SOL    HW235415   1.085   2.805  11.622  0.8730  0.7949 -1.1124
 7985SOL     OW35416   2.734   1.536   3.718  0.2967  0.3316  0.4279
 7985SOL    HW135417   2.741   1.485   3.799  1.7599 -0.0004  0.0896
 7985SOL    HW235418   2.822   1.574   3.720 -0.2318  1.5388  0.8978
 7986SOL     OW35419   0.259   0.756   7.025 -0.4843  0.6487  0.2002
 7986SOL    HW135420   0.254   0.667   6.990  0.3045  1.2041 -1.2967
 7986SOL    HW235421   0.197   0.755   7.099 -0.1464 -1.4357  0.4786
 7987SOL     OW35422   3.319   1.135  10.321  0.4485  0.0586  0.3288
 7987SOL    HW135423   3.290   1.160  10.409  1.6064 -1.2429  1.0630
 7987SOL    HW235424   3.254   1.172  10.262 -0.8069  0.6918  2.1093
 7988SOL     OW35425   1.578   3.409  16.694  0.1869  0.1652 -0.4064
 7988SOL    HW135426   1.576   3.479  16.630  2.2703  0.2585 -0.3528
 7988SOL    HW235427   1.659   3.433  16.739  0.6208 -0.4097 -0.8893
 7989SOL     OW35428   0.493   0.500  16.185 -0.2492  0.1941 -0.1401
 7989SOL    HW135429   0.583   0.499  16.154 -0.0542  1.3815  0.4040
 7989SOL    HW235430   0.441   0.556  16.127 -1.0020 -0.2175  0.1294
 7990SOL     OW35431   4.689   1.934   6.530 -0.2527 -0.1573  0.2044
 7990SOL    HW135432   4.652   1.873   6.466  1.9040  0.3935 -1.5344
 7990SOL    HW235433   4.714   1.997   6.463  0.8177 -1.4694 -0.6182
 7991SOL     OW35434   2.544   2.213  12.916  0.4122  0.0702  0.0151
 7991SOL    HW135435   2.624   2.265  12.915 -0.1494  0.9469  0.9452
 7991SOL    HW235436   2.476   2.274  12.888  0.5645  0.8351  1.3399
 7992SOL     OW35437   1.618   0.183   4.188 -0.2419  0.5815  0.0382
 7992SOL    HW135438   1.537   0.157   4.143 -0.5698 -1.8011  1.9936
 7992SOL    HW235439   1.592   0.272   4.210 -2.6659  0.0168 -0.5220
 7993SOL     OW35440   2.390   1.010   8.872 -0.9627 -0.3225  0.7673
 7993SOL    HW135441   2.465   1.063   8.846 -0.9182 -1.4700 -1.4799
 7993SOL    HW235442   2.435   0.951   8.932  0.7812 -0.0725 -0.2953
 7994SOL     OW35443   2.231   0.176  17.597 -0.1870  0.2243 -0.9531
 7994SOL    HW135444   2.258   0.140  17.512 -2.0867  1.0222 -1.8862
 7994SOL    HW235445   2.263   0.266  17.601  0.9630 -0.0958 -2.7537
 7995SOL     OW35446   2.718   2.263   7.875 -0.0546  0.3485  0.2340
 7995SOL    HW135447   2.688   2.173   7.861 -2.0560  1.4376 -2.3590
 7995SOL    HW235448   2.757   2.294   7.793 -1.1132 -0.4829 -0.5846
 7996SOL     OW35449   3.601   0.692  16.819 -0.8224 -0.9496  0.9869
 7996SOL    HW135450   3.610   0.718  16.727 -0.0972  1.3644  1.7177
 7996SOL    HW235451   3.661   0.754  16.861  0.6188 -1.1343 -0.8009
 7997SOL     OW35452   3.589   3.047  16.675  0.2194 -0.0521  0.3542
 7997SOL    HW135453   3.537   3.095  16.610  1.3461 -1.0886 -1.3378
 7997SOL    HW235454   3.646   2.990  16.623 -1.9826 -0.7084 -1.3668
 7998SOL     OW35455   2.200   2.549  12.653 -0.3621  0.0102 -0.0126
 7998SOL    HW135456   2.234   2.620  12.599  0.2880 -1.2005 -1.2033
 7998SOL    HW235457   2.164   2.491  12.587 -2.8266 -0.8951  2.1232
 7999SOL     OW35458   2.929   4.700   3.601  0.3408 -0.0998 -0.0014
 7999SOL    HW135459   2.886   4.678   3.684  2.4054 -2.9130  0.3304
 7999SOL    HW235460   3.015   4.673   3.634  0.4025 -2.3291 -1.9911
 8000SOL     OW35461   1.608   3.327  12.190  0.1225  0.0636 -0.0474
 8000SOL    HW135462   1.655   3.269  12.130  1.7774 -1.1935  2.4398
 8000SOL    HW235463   1.568   3.253  12.234 -0.8669  0.1884 -0.7432
 8001SOL     OW35464   1.312   3.904   3.182 -0.1610  0.3405 -0.1827
 8001SOL    HW135465   1.252   3.867   3.248  1.3825 -0.0858  0.9755
 8001SOL    HW235466   1.268   3.988   3.166  0.7671  0.7791 -0.4405
 8002SOL     OW35467   4.137   0.360  10.851 -0.2298  0.0608  1.0308
 8002SOL    HW135468   4.120   0.409  10.770  0.7216 -0.1348  0.6994
 8002SOL    HW235469   4.128   0.428  10.917 -0.7347  0.5478  0.4560
 8003SOL     OW35470   3.307   3.019  17.059 -0.2656 -0.4349  0.1314
 8003SOL    HW135471   3.388   2.992  17.017 -0.3658  0.5955 -0.7545
 8003SOL    HW235472   3.340   3.108  17.068 -0.3494  0.0586 -4.3501
 8004SOL     OW35473   3.992   3.689   8.707 -0.3238 -0.4505  0.0331
 8004SOL    HW135474   4.071   3.741   8.718  0.6244 -1.5402 -1.6093
 8004SOL    HW235475   4.007   3.653   8.619 -0.1258  0.7591 -0.4287
 8005SOL     OW35476   3.994   4.041   2.334  0.2998 -0.0742 -0.0866
 8005SOL    HW135477   4.074   4.028   2.283  0.2118  1.1073 -0.5150
 8005SOL    HW235478   3.963   4.120   2.291  0.3517  0.5412  0.9920
 8006SOL     OW35479   2.253   1.675   1.056  0.1816 -0.2654 -0.3816
 8006SOL    HW135480   2.261   1.580   1.066 -0.4805 -0.0728  1.8948
 8006SOL    HW235481   2.337   1.705   1.090 -0.7451 -0.0288  1.7188
 8007SOL     OW35482   2.828   1.771   7.041 -0.0038 -0.0512 -0.2402
 8007SOL    HW135483   2.889   1.810   7.104  2.1972 -2.7862 -0.6955
 8007SOL    HW235484   2.895   1.719   6.996  0.0166  1.2550 -1.7339
 8008SOL     OW35485   2.384   3.910   4.705 -0.0425 -0.5157 -0.0117
 8008SOL    HW135486   2.291   3.891   4.694 -0.5167  2.3849 -1.2134
 8008SOL    HW235487   2.374   3.994   4.751  0.8132 -0.6269  0.3578
 8009SOL     OW35488   1.754   2.432   5.445 -0.1162 -0.4238  0.2238
 8009SOL    HW135489   1.739   2.424   5.351  1.9905  2.2181 -0.3571
 8009SOL    HW235490   1.696   2.363   5.476 -1.2038  0.6785  0.6691
 8010SOL     OW35491   4.721   4.317   5.809 -0.1951 -0.1712 -0.0711
 8010SOL    HW135492   4.680   4.357   5.885  0.9046 -0.1987  0.5304
 8010SOL    HW235493   4.694   4.377   5.739  2.3846  0.6939 -0.3135
 8011SOL     OW35494   2.851   1.169   7.474 -0.3678 -0.3812 -0.2181
 8011SOL    HW135495   2.878   1.193   7.562 -3.4535 -3.0179  1.4582
 8011SOL    HW235496   2.797   1.244   7.449 -1.9506 -0.9834  1.4003
 8012SOL     OW35497   1.617   2.547   7.685  0.1069  0.3721  0.2893
 8012SOL    HW135498   1.705   2.584   7.689 -0.0195  0.5917  1.1529
 8012SOL    HW235499   1.563   2.621   7.714  0.3515  1.1072 -1.1024
 8013SOL     OW35500   2.999   3.560  15.089  0.2074 -0.4347 -0.1694
 8013SOL    HW135501   2.945   3.484  15.068 -0.6823  0.3179 -0.6436
 8013SOL    HW235502   3.075   3.553  15.032  1.4542 -2.3278  1.7628
 8014SOL     OW35503   1.908   2.709   0.446  0.4092  0.0889  0.1295
 8014SOL    HW135504   1.973   2.654   0.402  1.8058  1.3069  0.6407
 8014SOL    HW235505   1.833   2.701   0.387  1.5500  0.9153 -1.4741
 8015SOL     OW35506   0.967   1.507   2.245  0.5551 -0.0331 -0.7847
 8015SOL    HW135507   1.048   1.510   2.194  0.5763 -1.4950 -0.8278
 8015SOL    HW235508   0.917   1.437   2.203 -0.0313 -0.2386  0.2467
 8016SOL     OW35509   1.741   0.049   9.427 -0.5989  0.3253  0.2426
 8016SOL    HW135510   1.826   0.007   9.415 -0.4889  0.4430  0.6421
 8016SOL    HW235511   1.711   0.079   9.341 -3.2317 -0.2909  0.9240
 8017SOL     OW35512   1.655   2.181   0.585 -0.0358  0.1735  0.3858
 8017SOL    HW135513   1.609   2.151   0.664  0.0393 -1.2160 -0.0959
 8017SOL    HW235514   1.582   2.235   0.554  0.9698  1.0581 -0.4034
 8018SOL     OW35515   0.374   3.579  15.474 -0.1214  0.1025 -0.5799
 8018SOL    HW135516   0.307   3.579  15.542 -0.7886 -0.2351 -1.2431
 8018SOL    HW235517   0.442   3.635  15.512 -0.6523  1.2010 -1.2471
 8019SOL     OW35518   1.193   1.447   2.069 -0.3603  0.0469  0.1822
 8019SOL    HW135519   1.239   1.530   2.066  0.2085 -0.1790  2.8247
 8019SOL    HW235520   1.264   1.389   2.097  1.5216  2.4015  0.2412
 8020SOL     OW35521   1.102   3.672  15.311 -0.2221  0.6219  0.8015
 8020SOL    HW135522   1.007   3.670  15.306 -0.2766  1.1649  1.7060
 8020SOL    HW235523   1.110   3.620  15.230  0.5388 -0.6253  1.6838
 8021SOL     OW35524   3.119   4.670   9.283 -0.2164  0.1430  0.5554
 8021SOL    HW135525   3.148   0.025   9.234 -2.5430  0.2296 -0.6964
 8021SOL    HW235526   3.034   4.650   9.243  0.2905  0.9142 -0.8780
 8022SOL     OW35527   1.945   3.829   7.230  0.4606  0.1630 -0.2519
 8022SOL    HW135528   1.910   3.751   7.188 -1.2703  0.5844  0.3963
 8022SOL    HW235529   1.942   3.801   7.322 -0.8415 -2.6017 -1.1582
 8023SOL     OW35530   3.093   3.837   9.435  0.1726  0.3068 -0.7314
 8023SOL    HW135531   3.033   3.790   9.376  1.7731 -2.0353 -0.4919
 8023SOL    HW235532   3.036   3.905   9.472 -1.5026 -2.6387  2.1286
 8024SOL     OW35533   0.847   2.292  16.039 -0.0741  0.3751 -0.2346
 8024SOL    HW135534   0.817   2.206  16.009 -3.8410  2.0444 -1.2861
 8024SOL    HW235535   0.775   2.310  16.099  1.2080  2.0923  0.7962
 8025SOL     OW35536   4.029   0.138   9.333  0.1402  0.3721 -0.0804
 8025SOL    HW135537   4.007   0.101   9.247  0.3816 -0.1566  0.0863
 8025SOL    HW235538   4.099   0.200   9.311  1.1961 -1.1639 -1.0183
 8026SOL     OW35539   2.341   3.921  17.024  0.6222 -0.0154  0.2520
 8026SOL    HW135540   2.337   3.957  16.935  3.4091  1.7317  0.7915
 8026SOL    HW235541   2.313   3.998  17.074 -2.1627 -0.4736 -0.6131
 8027SOL     OW35542   2.400   0.220   7.897 -0.5297  0.1243 -0.1453
 8027SOL    HW135543   2.389   0.208   7.802  2.1339 -2.1757 -0.1883
 8027SOL    HW235544   2.483   0.268   7.902  0.1696 -1.1586  0.6154
 8028SOL     OW35545   3.645   1.486   2.942 -0.7870  0.6333 -0.1177
 8028SOL    HW135546   3.573   1.437   2.982  1.1948 -2.2249 -0.0239
 8028SOL    HW235547   3.612   1.527   2.863 -0.0522  2.0290  0.3007
 8029SOL     OW35548   0.068   0.205  15.474 -0.5170  0.0241  0.6088
 8029SOL    HW135549   0.132   0.233  15.409  1.2159 -1.4750  1.6614
 8029SOL    HW235550   0.119   0.144  15.528  0.6474 -0.1432 -0.6988
 8030SOL     OW35551   3.888   4.138   5.325 -0.3229 -0.0646  0.2678
 8030SOL    HW135552   3.912   4.132   5.417 -0.1850 -0.8996  0.1793
 8030SOL    HW235553   3.793   4.133   5.334 -0.2184 -0.8240  0.9692
 8031SOL     OW35554   4.159   0.636  12.215 -0.6144  0.1918 -0.1042
 8031SOL    HW135555   4.226   0.663  12.279  0.3809 -1.4382 -0.4454
 8031SOL    HW235556   4.206   0.602  12.139 -0.6421 -0.4527  0.1603
 8032SOL     OW35557   0.935   3.507   5.939  0.4915  0.1361  0.6685
 8032SOL    HW135558   0.896   3.440   5.883  1.7510  0.5178 -0.6678
 8032SOL    HW235559   1.000   3.539   5.876 -0.5196 -1.3695 -1.1655
 8033SOL     OW35560   2.250   2.318   3.810  0.8077 -0.4651  0.1317
 8033SOL    HW135561   2.189   2.380   3.769  1.0589 -1.3282 -1.5535
 8033SOL    HW235562   2.295   2.279   3.734 -0.1734 -1.9429  0.3029
 8034SOL     OW35563   3.006   0.453  10.371 -0.3837  0.0692  0.0086
 8034SOL    HW135564   3.100   0.438  10.377 -0.5803 -0.8450  0.8417
 8034SOL    HW235565   2.981   0.387  10.436 -0.1781  0.2383  0.2563
 8035SOL     OW35566   0.643   1.216   2.603  0.1975  0.0660  0.0564
 8035SOL    HW135567   0.560   1.177   2.633  0.4924  2.1543  3.5539
 8035SOL    HW235568   0.611   1.304   2.585  3.2032  1.3739  1.1342
 8036SOL     OW35569   4.255   1.083   9.349  0.1200 -0.2438  0.2922
 8036SOL    HW135570   4.161   1.084   9.331  0.4072  0.7143 -1.1390
 8036SOL    HW235571   4.255   1.087   9.445  0.2065  1.6048  0.2264
 8037SOL     OW35572   3.455   1.195  15.430  0.4629  0.3680  0.0732
 8037SOL    HW135573   3.397   1.151  15.368  0.2665 -0.6290  0.9724
 8037SOL    HW235574   3.420   1.284  15.427  0.0079  0.1716 -0.4017
 8038SOL     OW35575   2.529   1.318   1.530 -0.1097 -0.1087 -0.3763
 8038SOL    HW135576   2.505   1.238   1.483 -0.4745  0.8849 -1.8634
 8038SOL    HW235577   2.511   1.294   1.621  1.0801  1.5265  0.3126
 8039SOL     OW35578   3.476   0.852   2.430 -0.2077 -0.2972  0.8230
 8039SOL    HW135579   3.495   0.758   2.430 -0.6902 -0.3947  0.4836
 8039SOL    HW235580   3.540   0.896   2.374 -1.3717 -1.1003 -1.1381
 8040SOL     OW35581   0.293   1.784  10.325 -0.4766 -0.0598 -0.4769
 8040SOL    HW135582   0.258   1.841  10.393 -0.1256 -0.0101 -0.3363
 8040SOL    HW235583   0.327   1.843  10.258  0.5677  0.2090  0.3003
 8041SOL     OW35584   4.067   0.682   1.865 -0.6069  0.4234  0.0632
 8041SOL    HW135585   4.156   0.717   1.857 -0.8053  1.0068  0.4688
 8041SOL    HW235586   4.075   0.647   1.954 -0.1165 -2.4392 -1.1064
 8042SOL     OW35587   4.359   3.519   5.592  0.4292 -0.3217 -0.4218
 8042SOL    HW135588   4.298   3.448   5.615 -1.7776 -0.3071 -6.2812
 8042SOL    HW235589   4.297   3.590   5.577  1.6922  0.7259 -0.6963
 8043SOL     OW35590   2.091   4.066   4.552  0.1750  0.3060 -0.4054
 8043SOL    HW135591   2.162   4.111   4.596 -0.4729 -0.1332  1.0655
 8043SOL    HW235592   2.094   3.985   4.603 -0.8067  0.5341  0.0095
 8044SOL     OW35593   4.499   0.087   2.873  0.4272 -0.5124  0.1661
 8044SOL    HW135594   4.502   0.005   2.824  1.0126 -0.1404 -0.4217
 8044SOL    HW235595   4.409   0.091   2.905  0.1475  5.0613 -1.3775
 8045SOL     OW35596   4.131   0.006   4.243 -0.4611  0.1493  0.1276
 8045SOL    HW135597   4.174   0.028   4.325  1.2137  1.8646 -1.2139
 8045SOL    HW235598   4.115   0.091   4.201 -2.7610 -0.4935 -0.3370
 8046SOL     OW35599   0.749   0.310   8.860  0.7916  0.2236  0.0399
 8046SOL    HW135600   0.729   0.403   8.869 -0.2003 -0.2383  2.5984
 8046SOL    HW235601   0.666   0.280   8.898  1.2583  0.4420  1.2246
 8047SOL     OW35602   1.944   1.319   8.136  0.5111 -0.4848  0.6439
 8047SOL    HW135603   1.848   1.322   8.143  0.3197 -1.1530 -1.7130
 8047SOL    HW235604   1.953   1.408   8.102 -0.2799 -1.3778 -1.9452
 8048SOL     OW35605   2.992   1.946   8.409  0.2621 -0.2168  0.3169
 8048SOL    HW135606   3.086   1.928   8.418  0.4414  1.2095  1.1695
 8048SOL    HW235607   2.987   2.038   8.383 -1.2688 -0.0601  1.1615
 8049SOL     OW35608   4.672   1.639   5.403  0.5051  0.0514 -0.5658
 8049SOL    HW135609   0.014   1.632   5.332 -0.0214  2.4430 -1.2708
 8049SOL    HW235610   4.710   1.717   5.442  0.8088 -1.3502  1.9935
 8050SOL     OW35611   0.062   1.243   5.187  0.6587  0.0634  0.2723
 8050SOL    HW135612   0.103   1.170   5.235  0.7629  0.3989  0.6927
 8050SOL    HW235613   0.075   1.214   5.097 -2.9335 -0.0774 -0.2194
 8051SOL     OW35614   1.247   4.254  14.491  0.2761  0.8164  0.9720
 8051SOL    HW135615   1.255   4.302  14.409 -1.1221  0.2207  0.5028
 8051SOL    HW235616   1.263   4.319  14.560  0.9602  2.3250 -0.6053
 8052SOL     OW35617   2.808   4.595  16.511  0.0078  0.1954 -0.1076
 8052SOL    HW135618   2.771   4.583  16.424 -0.4406  1.9175 -0.1681
 8052SOL    HW235619   2.736   4.555  16.560 -1.2351 -1.2047 -3.0657
 8053SOL     OW35620   3.565   1.954  13.923 -0.1883  0.6389 -0.1620
 8053SOL    HW135621   3.503   1.900  13.874 -1.5753  0.4135  1.8537
 8053SOL    HW235622   3.510   2.028  13.950  0.1134  0.4578  0.9672
 8054SOL     OW35623   2.836   3.417   9.402 -0.9106  0.2734  0.0244
 8054SOL    HW135624   2.882   3.449   9.479 -2.2831  0.4056  0.7829
 8054SOL    HW235625   2.907   3.422   9.337  0.0597  1.1585  1.1629
 8055SOL     OW35626   3.856   1.450   0.732  0.4033 -0.8562  0.3717
 8055SOL    HW135627   3.840   1.504   0.809  0.9597 -1.4156  0.8901
 8055SOL    HW235628   3.869   1.369   0.782 -0.6843 -0.9784  0.4536
 8056SOL     OW35629   0.700   0.467   2.535  0.2276  1.0480  0.7548
 8056SOL    HW135630   0.682   0.486   2.627  0.9019  1.4176  0.8117
 8056SOL    HW235631   0.647   0.388   2.526 -1.0289  1.9039  0.5785
 8057SOL     OW35632   0.593   2.866   7.030 -0.1490  0.0333 -0.3216
 8057SOL    HW135633   0.510   2.828   7.002 -0.8433  0.0290  1.7056
 8057SOL    HW235634   0.576   2.960   7.026  3.3172  0.7353  1.4277
 8058SOL     OW35635   3.127   3.022  10.267  0.4569 -0.0934 -0.0401
 8058SOL    HW135636   3.200   3.031  10.327 -0.6121 -1.9434  1.5346
 8058SOL    HW235637   3.124   2.927  10.256  1.6288  0.0281 -1.2733
 8059SOL     OW35638   2.858   1.740   9.317 -0.3789  0.1727 -0.3161
 8059SOL    HW135639   2.895   1.655   9.342 -0.1801  0.5024  0.5117
 8059SOL    HW235640   2.852   1.792   9.397 -0.6953  0.2923 -0.4184
 8060SOL     OW35641   1.944   2.892   5.814 -0.0334 -0.2325  0.0124
 8060SOL    HW135642   2.002   2.949   5.764  0.8043 -1.1683 -0.0977
 8060SOL    HW235643   1.949   2.929   5.903 -0.3524  0.2138 -0.1532
 8061SOL     OW35644   1.621   3.562   2.431  0.3107  0.3181  0.4740
 8061SOL    HW135645   1.594   3.594   2.345  0.6794 -0.4712  0.0616
 8061SOL    HW235646   1.715   3.576   2.420  0.1915  1.6452  1.0526
 8062SOL     OW35647   0.698   1.237   0.545  0.7232 -0.4078  0.7572
 8062SOL    HW135648   0.621   1.200   0.503 -0.1271  0.4614  1.5596
 8062SOL    HW235649   0.757   1.161   0.542  0.5021 -0.6245  1.7022
 8063SOL     OW35650   1.627   3.641   8.045  0.2687 -0.7146  0.0018
 8063SOL    HW135651   1.586   3.606   7.966  1.0344  1.5719 -1.4142
 8063SOL    HW235652   1.623   3.735   8.030  0.0642 -0.5748  0.9649
 8064SOL     OW35653   2.406   0.961   0.431 -0.0822  0.3999  0.1472
 8064SOL    HW135654   2.401   1.052   0.403 -1.4501 -0.0657 -1.1359
 8064SOL    HW235655   2.402   0.983   0.524  1.3427  2.1721 -0.2254
 8065SOL     OW35656   1.345   0.556   7.054  0.2967  0.2271 -0.1421
 8065SOL    HW135657   1.382   0.470   7.035  0.8959  0.1511  1.3676
 8065SOL    HW235658   1.409   0.612   7.009 -0.4178  0.0973 -1.3167
 8066SOL     OW35659   4.428   0.377   6.543  0.1744  0.1213 -0.0951
 8066SOL    HW135660   4.367   0.304   6.553  0.2622 -0.1028 -1.1585
 8066SOL    HW235661   4.493   0.357   6.609 -1.7585 -0.6384  1.5750
 8067SOL     OW35662   2.937   4.296   5.877  0.4065  0.6202 -0.2179
 8067SOL    HW135663   2.994   4.373   5.881 -0.3328  1.2523 -1.8210
 8067SOL    HW235664   2.997   4.246   5.821  1.7341  0.6921  1.1399
 8068SOL     OW35665   2.991   2.382   3.354  1.0540 -0.7896  0.2066
 8068SOL    HW135666   2.927   2.352   3.289 -1.1667  2.3646  0.9117
 8068SOL    HW235667   2.946   2.415   3.432  0.5512  0.8264 -0.7690
 8069SOL     OW35668   2.320   0.028   5.470 -0.2137  0.2725 -0.2203
 8069SOL    HW135669   2.390   4.712   5.524  1.5987  3.9926  0.0547
 8069SOL    HW235670   2.365   0.054   5.390  3.3698 -2.0689  1.0502
 8070SOL     OW35671   0.329   0.147   1.477  0.6219  0.7548 -0.1636
 8070SOL    HW135672   0.300   0.096   1.553 -0.7886  1.3476 -0.2971
 8070SOL    HW235673   0.411   0.107   1.449 -0.4240 -0.7479 -1.0628
 8071SOL     OW35674   2.895   0.617   7.305  1.0486 -0.4808 -0.0360
 8071SOL    HW135675   2.974   0.571   7.334  1.4984  0.0786 -0.3668
 8071SOL    HW235676   2.914   0.711   7.304  0.4655 -0.3631 -0.0944
 8072SOL     OW35677   3.539   1.665  10.608 -0.0670  0.1916 -0.4774
 8072SOL    HW135678   3.592   1.744  10.599 -0.3832  0.4765  0.1473
 8072SOL    HW235679   3.476   1.712  10.664  0.3976 -0.0047  0.2177
 8073SOL     OW35680   4.584   0.425   6.785 -0.2037 -0.6937  0.1165
 8073SOL    HW135681   4.605   0.494   6.847 -0.9828  0.5145 -0.9682
 8073SOL    HW235682   4.547   0.350   6.831  0.4413 -0.7589  0.5346
 8074SOL     OW35683   0.419   4.081   3.847 -0.1463 -0.5132 -0.0428
 8074SOL    HW135684   0.409   4.107   3.939 -0.5195 -0.6310 -0.0498
 8074SOL    HW235685   0.433   3.986   3.856 -1.0187 -0.7336 -0.9663
 8075SOL     OW35686   1.862   1.680  13.441 -0.1346 -0.1003 -0.4594
 8075SOL    HW135687   1.790   1.635  13.487 -0.7762  0.4905 -0.8822
 8075SOL    HW235688   1.934   1.666  13.502  0.8998 -0.6747 -1.8242
 8076SOL     OW35689   4.420   4.548   6.333 -0.2230 -0.2479  0.2754
 8076SOL    HW135690   4.356   4.612   6.303  0.4112 -0.9318 -2.5630
 8076SOL    HW235691   4.385   4.464   6.303  0.0883  0.9756 -3.4415
 8077SOL     OW35692   0.150   0.539  17.517  0.3612  0.1599 -0.6098
 8077SOL    HW135693   0.143   0.590  17.598 -0.2706  1.7693 -1.6874
 8077SOL    HW235694   0.244   0.527  17.502  0.2337  0.4767 -1.6011
 8078SOL     OW35695   1.791   1.088   4.493  0.2882 -0.1072 -0.4643
 8078SOL    HW135696   1.817   1.040   4.572 -0.1556  0.7639  0.2178
 8078SOL    HW235697   1.838   1.169   4.513 -0.6135  0.9131 -2.5446
 8079SOL     OW35698   2.441   2.085   5.662 -0.2242  0.4135 -0.1819
 8079SOL    HW135699   2.432   2.131   5.578  1.5347  1.7851  0.3590
 8079SOL    HW235700   2.443   2.159   5.723 -2.9685  0.8801 -0.6902
 8080SOL     OW35701   3.484   1.409   5.578 -0.3688 -0.0730 -0.4192
 8080SOL    HW135702   3.534   1.490   5.567  0.2206 -0.8369 -3.4306
 8080SOL    HW235703   3.402   1.439   5.539 -1.3453 -2.4051 -0.1007
 8081SOL     OW35704   1.976   1.972   7.670 -0.0190  0.0687 -0.2456
 8081SOL    HW135705   1.955   1.881   7.649  0.8975 -0.4570  1.0788
 8081SOL    HW235706   2.045   1.983   7.605  0.2514  0.3806  0.0930
 8082SOL     OW35707   3.230   3.236   7.751 -0.2362 -0.3555 -0.0340
 8082SOL    HW135708   3.271   3.322   7.744 -1.4186  0.1452 -0.7297
 8082SOL    HW235709   3.287   3.189   7.812 -0.4533 -0.8212 -0.1861
 8083SOL     OW35710   2.932   3.133   1.706 -0.5422 -0.1033 -0.2185
 8083SOL    HW135711   2.963   3.198   1.643  2.2481  0.6791  1.9720
 8083SOL    HW235712   2.927   3.186   1.786 -0.4549 -1.2293  0.5395
 8084SOL     OW35713   3.082   2.763   7.922 -0.7244 -0.3601 -0.2738
 8084SOL    HW135714   3.137   2.693   7.887  1.4793  0.5801  1.2960
 8084SOL    HW235715   2.994   2.733   7.904 -0.2835 -2.7075  1.4759
 8085SOL     OW35716   2.484   2.724   4.460  0.3396  0.1552  0.4007
 8085SOL    HW135717   2.526   2.708   4.545  0.0329  1.7125  0.8553
 8085SOL    HW235718   2.559   2.734   4.402  0.0128  1.0546  0.1332
 8086SOL     OW35719   1.130   3.530  14.532 -0.4435  0.3557 -0.4583
 8086SOL    HW135720   1.195   3.482  14.480  3.4684  2.0737  2.8654
 8086SOL    HW235721   1.144   3.620  14.502  1.9370  0.3892  0.7147
 8087SOL     OW35722   1.555   3.979   7.696 -0.3923 -0.0090 -0.6346
 8087SOL    HW135723   1.636   3.993   7.745 -0.1947 -1.7595 -0.4435
 8087SOL    HW235724   1.543   4.054   7.638 -1.2455 -1.8792 -2.8548
 8088SOL     OW35725   2.518   2.633  16.372 -0.5797  0.0050 -0.5541
 8088SOL    HW135726   2.544   2.566  16.435  1.3023  2.5130  1.3605
 8088SOL    HW235727   2.500   2.587  16.290  0.3838  0.1964 -0.8814
 8089SOL     OW35728   1.329   1.117  11.911  0.0762 -0.5616 -0.4527
 8089SOL    HW135729   1.298   1.102  12.000  1.1661  2.6068  0.4906
 8089SOL    HW235730   1.406   1.171  11.929  1.1016 -1.6427 -1.5575
 8090SOL     OW35731   0.581   3.837   4.966  0.0040 -0.0363  0.5791
 8090SOL    HW135732   0.544   3.751   4.944 -0.2449 -0.1544  1.4500
 8090SOL    HW235733   0.501   3.881   4.995 -0.0176  0.6790 -0.5845
 8091SOL     OW35734   2.477   2.774   1.557 -0.2151  0.5069  0.2953
 8091SOL    HW135735   2.482   2.867   1.533  1.5084  0.4605  0.4891
 8091SOL    HW235736   2.425   2.790   1.635 -1.1663  1.3763 -0.5149
 8092SOL     OW35737   2.187   1.394  12.186 -0.4529 -0.0606 -0.0034
 8092SOL    HW135738   2.106   1.363  12.145  0.5363 -1.9721 -0.5059
 8092SOL    HW235739   2.150   1.409  12.274 -1.0648  1.0990 -0.4585
 8093SOL     OW35740   4.137   3.593   7.920  0.3994 -0.0958  0.1360
 8093SOL    HW135741   4.213   3.551   7.958  1.6735  0.7339 -1.5089
 8093SOL    HW235742   4.141   3.576   7.826 -0.2246 -1.0911  0.2908
 8094SOL     OW35743   1.611   3.532   9.419 -0.2840 -0.2277 -0.3785
 8094SOL    HW135744   1.627   3.576   9.336  1.8008 -1.4722 -0.6217
 8094SOL    HW235745   1.537   3.582   9.455  0.6083  1.8035 -1.3586
 8095SOL     OW35746   2.497   0.221   6.945 -0.5227  0.2302  0.5534
 8095SOL    HW135747   2.531   0.149   6.999 -0.5332  0.8160  1.3442
 8095SOL    HW235748   2.580   0.249   6.907 -0.7320 -0.5250 -0.4624
 8096SOL     OW35749   1.664   0.309   3.759 -0.0038 -0.5267 -0.3719
 8096SOL    HW135750   1.651   0.382   3.820  1.0425  0.5081 -1.3831
 8096SOL    HW235751   1.677   0.236   3.820  1.8047 -0.5524 -0.7621
 8097SOL     OW35752   1.586   2.839   2.915  0.6832  0.4804 -0.1355
 8097SOL    HW135753   1.528   2.904   2.875  0.7169 -0.6196 -1.9874
 8097SOL    HW235754   1.574   2.769   2.851 -1.5158  0.9384 -0.2310
 8098SOL     OW35755   1.114   1.609   6.336 -0.2868 -0.3218 -0.0877
 8098SOL    HW135756   1.120   1.606   6.240 -2.6066  0.3792 -0.2526
 8098SOL    HW235757   1.043   1.673   6.345 -1.1550 -1.5402  1.7394
 8099SOL     OW35758   0.439   3.096   5.092 -0.0003 -0.4180  0.0361
 8099SOL    HW135759   0.476   3.031   5.153 -1.8831 -1.5585 -0.0540
 8099SOL    HW235760   0.347   3.069   5.096 -0.1290 -0.3760 -2.6633
 8100SOL     OW35761   2.239   1.373   4.800  0.3341 -0.1531  0.1698
 8100SOL    HW135762   2.237   1.465   4.770  1.0895 -0.1394  0.1757
 8100SOL    HW235763   2.331   1.360   4.821  0.6968 -1.8746 -2.4223
 8101SOL     OW35764   3.669   2.063   0.634  0.2462  0.6171  0.3956
 8101SOL    HW135765   3.670   2.037   0.726  1.0061 -0.1576  0.1708
 8101SOL    HW235766   3.696   2.153   0.648  2.3765 -0.2672  1.9071
 8102SOL     OW35767   3.099   1.554   8.415 -0.3312 -0.4665 -0.6819
 8102SOL    HW135768   3.127   1.476   8.463 -1.5117  1.3704  2.9942
 8102SOL    HW235769   3.008   1.548   8.443  0.1666 -1.5266  0.7124
 8103SOL     OW35770   0.333   0.265   3.249  0.0537  0.2779  0.8379
 8103SOL    HW135771   0.388   0.191   3.275 -0.1654 -0.4331 -0.7543
 8103SOL    HW235772   0.396   0.336   3.254  1.2720 -0.6825 -1.1122
 8104SOL     OW35773   1.692   2.560  14.899  0.2868 -0.3248  0.4973
 8104SOL    HW135774   1.701   2.485  14.958  0.7496  1.2862  2.4628
 8104SOL    HW235775   1.730   2.527  14.817 -1.7306 -2.2406  0.3096
 8105SOL     OW35776   1.416   3.427  11.805  0.3047 -0.3017  0.2805
 8105SOL    HW135777   1.324   3.446  11.784  0.9219  1.0511 -1.2271
 8105SOL    HW235778   1.458   3.499  11.758  0.6358 -1.3761 -1.0396
 8106SOL     OW35779   0.382   2.461   2.097 -0.4522 -0.1044  0.1440
 8106SOL    HW135780   0.369   2.554   2.078 -0.2184  0.1247  1.1120
 8106SOL    HW235781   0.382   2.431   2.006  0.0527  0.5977 -0.0866
 8107SOL     OW35782   1.829   4.522  16.807 -0.0388  0.3276 -0.2955
 8107SOL    HW135783   1.738   4.550  16.805  0.0570  0.7487  1.3173
 8107SOL    HW235784   1.850   4.513  16.714  2.5511 -1.5945  0.4636
 8108SOL     OW35785   2.093   1.023   3.602  0.2872 -0.0067  0.2980
 8108SOL    HW135786   2.141   1.056   3.526  0.8923 -0.7574  0.3487
 8108SOL    HW235787   2.067   0.934   3.576 -0.3571  0.1332  0.4830
 8109SOL     OW35788   3.063   0.345   2.459 -0.3451 -0.6326 -0.2546
 8109SOL    HW135789   3.142   0.310   2.417 -0.8070  0.2950 -1.8785
 8109SOL    HW235790   3.054   0.284   2.532 -1.3413 -0.6466 -0.3955
 8110SOL     OW35791   1.195   2.755   5.824  0.1112 -0.3223  0.1635
 8110SOL    HW135792   1.198   2.672   5.776  2.0476  0.8818 -1.7424
 8110SOL    HW235793   1.174   2.730   5.914  0.0295  3.4814  1.1919
 8111SOL     OW35794   1.752   0.612  12.549  0.1269 -0.1598  0.1148
 8111SOL    HW135795   1.726   0.565  12.469  0.4119  1.4151 -0.8967
 8111SOL    HW235796   1.676   0.668  12.562  0.0439  0.2859 -2.3120
 8112SOL     OW35797   4.205   2.509   9.413  0.2022  0.2702  0.5997
 8112SOL    HW135798   4.190   2.570   9.486 -0.6926  2.5133 -1.4673
 8112SOL    HW235799   4.132   2.536   9.357  2.6551 -1.5148 -3.4389
 8113SOL     OW35800   1.823   4.222   9.939 -0.0564 -0.4842 -0.1961
 8113SOL    HW135801   1.770   4.154   9.981 -0.2443 -0.3804 -0.2668
 8113SOL    HW235802   1.799   4.205   9.848  1.1411  1.0977 -0.7977
 8114SOL     OW35803   1.783   1.053   8.637 -0.4835 -0.7967 -0.3972
 8114SOL    HW135804   1.764   1.129   8.582  0.0159 -0.7913 -0.5635
 8114SOL    HW235805   1.785   0.987   8.568  2.2974  0.8929 -1.9242
 8115SOL     OW35806   1.685   2.610  17.385  0.0901  0.3161  0.5713
 8115SOL    HW135807   1.676   2.532  17.331  1.0440  0.4457  0.2219
 8115SOL    HW235808   1.685   2.682  17.322  0.8493  2.3794  2.9488
 8116SOL     OW35809   1.923   1.067  11.729  0.2639  0.1336 -0.4758
 8116SOL    HW135810   2.014   1.054  11.703 -0.3328 -0.8143 -2.0425
 8116SOL    HW235811   1.905   0.987  11.778  0.4972 -0.7126 -1.7841
 8117SOL     OW35812   1.436   2.369   3.315  0.3413 -0.0912 -0.5257
 8117SOL    HW135813   1.488   2.437   3.358  0.3681  0.6234 -1.7037
 8117SOL    HW235814   1.354   2.417   3.318  0.1623 -0.4202 -0.1541
 8118SOL     OW35815   4.504   3.159   8.162 -0.0338  0.4918  0.4074
 8118SOL    HW135816   4.537   3.205   8.085 -2.3591 -0.8082 -1.3459
 8118SOL    HW235817   4.423   3.127   8.122  0.8564 -1.7753  0.4218
 8119SOL     OW35818   2.135   0.828   6.161 -0.2795 -0.3149  0.0658
 8119SOL    HW135819   2.118   0.756   6.100 -1.3551 -1.5618  1.8424
 8119SOL    HW235820   2.146   0.904   6.104 -1.1315 -0.8050 -0.7696
 8120SOL     OW35821   1.240   2.202  11.680 -0.2621 -0.1086  0.1942
 8120SOL    HW135822   1.245   2.212  11.584  0.0670 -1.3346  0.0925
 8120SOL    HW235823   1.156   2.243  11.702  0.4417  0.7989  1.2201
 8121SOL     OW35824   1.952   1.446   2.006  0.7770 -0.2887  0.0827
 8121SOL    HW135825   2.038   1.420   1.974 -0.2746 -0.0505 -2.9998
 8121SOL    HW235826   1.920   1.476   1.920  2.3690 -1.1358 -0.7941
 8122SOL     OW35827   3.920   3.880   9.685 -0.3720 -0.3709 -0.4331
 8122SOL    HW135828   3.842   3.825   9.691 -0.4382 -0.2934 -0.5862
 8122SOL    HW235829   3.984   3.818   9.720  0.4298  0.5993 -0.1913
 8123SOL     OW35830   3.767   3.967  13.694  0.0368  0.4087  0.5554
 8123SOL    HW135831   3.795   3.886  13.737  0.0445  0.1870  0.1348
 8123SOL    HW235832   3.850   4.000  13.658  0.6908 -0.2541  1.4573
 8124SOL     OW35833   3.699   2.821  15.251 -0.3054  0.2697 -0.2451
 8124SOL    HW135834   3.784   2.816  15.207  0.0145  2.1948  0.1719
 8124SOL    HW235835   3.708   2.855  15.340 -1.5481 -1.2449  0.4650
 8125SOL     OW35836   1.914   2.385   6.478 -0.2331  0.2752  0.0744
 8125SOL    HW135837   1.864   2.328   6.536  2.7044 -1.4961  0.8338
 8125SOL    HW235838   2.005   2.391   6.505  0.2718  0.3716 -1.6363
 8126SOL     OW35839   1.545   4.297   8.165 -0.1072 -0.2415 -0.1561
 8126SOL    HW135840   1.496   4.233   8.217  1.6196  0.2375  2.0789
 8126SOL    HW235841   1.519   4.380   8.206  0.3157  0.9604 -2.3418
 8127SOL     OW35842   2.184   0.032   5.741  0.1119 -0.0461 -0.0002
 8127SOL    HW135843   2.231   0.112   5.718 -1.2058  1.0642  1.1735
 8127SOL    HW235844   2.255   4.691   5.753  0.2230  0.1948  0.5998
 8128SOL     OW35845   2.262   2.807   2.919 -0.5658 -0.5478  1.1251
 8128SOL    HW135846   2.224   2.889   2.887 -1.7499 -1.0406  1.2768
 8128SOL    HW235847   2.194   2.742   2.908  0.0247 -0.8392 -0.8639
 8129SOL     OW35848   2.627   1.737  11.623  0.0779  0.4472 -0.1996
 8129SOL    HW135849   2.657   1.826  11.643 -0.1479  0.3739  0.4684
 8129SOL    HW235850   2.552   1.745  11.564  0.4972 -0.1295 -0.8066
 8130SOL     OW35851   4.213   3.976  14.431  0.0147  0.4674 -0.1504
 8130SOL    HW135852   4.258   3.934  14.504  0.2245 -1.4744 -1.4192
 8130SOL    HW235853   4.127   3.944  14.460  1.0339 -1.3479  0.7931
 8131SOL     OW35854   3.136   1.012  17.112 -0.0723 -0.2477  0.5444
 8131SOL    HW135855   3.210   1.073  17.113 -0.1253 -0.1816  0.4598
 8131SOL    HW235856   3.188   0.932  17.109 -0.3619 -0.4484  1.0252
 8132SOL     OW35857   3.393   1.361   7.365 -0.2368 -0.5518 -0.3479
 8132SOL    HW135858   3.395   1.267   7.383 -0.3952 -0.7342 -1.2817
 8132SOL    HW235859   3.351   1.381   7.449 -1.5516  1.5233 -1.5120
 8133SOL     OW35860   1.682   2.189   4.181 -0.3902  0.5173 -0.1314
 8133SOL    HW135861   1.601   2.165   4.137 -0.8236  2.9986 -0.6894
 8133SOL    HW235862   1.731   2.107   4.173  1.7043  1.7318  0.1703
 8134SOL     OW35863   2.715   1.088   3.883  0.5576 -0.3835  0.0672
 8134SOL    HW135864   2.748   1.050   3.801  0.4462  0.5602 -0.4102
 8134SOL    HW235865   2.665   1.019   3.926  0.9187 -1.0059 -0.4894
 8135SOL     OW35866   3.654   2.760   2.919  0.5276  0.1606  0.4330
 8135SOL    HW135867   3.614   2.811   2.989  3.4418  1.7661  0.9246
 8135SOL    HW235868   3.719   2.816   2.876  0.0865  2.1081  2.3431
 8136SOL     OW35869   4.419   3.929  15.884 -0.0248 -0.1642  0.5972
 8136SOL    HW135870   4.436   3.986  15.958 -2.0180  0.7446  0.3730
 8136SOL    HW235871   4.324   3.936  15.869  0.4393  2.1847 -1.2359
 8137SOL     OW35872   1.304   4.115   2.567 -0.0437 -0.8051  0.7381
 8137SOL    HW135873   1.396   4.090   2.557  0.0998  0.7184 -1.6292
 8137SOL    HW235874   1.251   4.060   2.510 -1.4262  2.1626 -0.8382
 8138SOL     OW35875   1.734   3.667   3.063 -0.0500  0.6069 -0.2847
 8138SOL    HW135876   1.700   3.577   3.073  0.5717  0.1149 -2.6417
 8138SOL    HW235877   1.659   3.719   3.090 -0.4985 -0.2851  0.1929
 8139SOL     OW35878   3.634   2.189  14.784 -0.1992  0.2907  0.0657
 8139SOL    HW135879   3.702   2.184  14.716 -0.5561 -0.5148 -0.2314
 8139SOL    HW235880   3.581   2.260  14.749 -2.1549 -1.2342 -0.0362
 8140SOL     OW35881   0.453   4.713  13.186  0.4556  0.2147  0.5915
 8140SOL    HW135882   0.462   0.055  13.257  1.7090 -0.6583  1.2226
 8140SOL    HW235883   0.362   4.686  13.196  0.2279  0.1974 -1.6536
 8141SOL     OW35884   1.766   2.705   0.156 -0.0955  0.2925  0.0835
 8141SOL    HW135885   1.794   2.772   0.094 -0.1258 -1.2977 -1.6506
 8141SOL    HW235886   1.771   2.626   0.102 -1.3279 -0.5307  1.1757
 8142SOL     OW35887   4.628   2.264  14.143  0.0693  0.5380 -0.2717
 8142SOL    HW135888   4.656   2.350  14.172 -0.1961 -0.2664  2.3981
 8142SOL    HW235889   4.677   2.258  14.061 -1.2109  0.2779 -1.0053
 8143SOL     OW35890   3.279   3.594   1.268  0.8443 -0.0779  0.4977
 8143SOL    HW135891   3.233   3.518   1.304  1.2830 -0.7973 -0.4565
 8143SOL    HW235892   3.315   3.557   1.187  0.5913  2.5966 -0.8194
 8144SOL     OW35893   0.046   2.837  12.053 -0.5976 -0.3170  0.0572
 8144SOL    HW135894   4.705   2.843  11.981  0.8367 -0.6942 -1.2092
 8144SOL    HW235895   0.026   2.750  12.086 -2.7374 -0.2898 -1.1418
 8145SOL     OW35896   0.691   1.454   0.839  0.4292 -0.6351 -0.2383
 8145SOL    HW135897   0.673   1.408   0.921 -0.3462  0.3120  0.1155
 8145SOL    HW235898   0.644   1.536   0.852  2.0013  0.2136  0.0640
 8146SOL     OW35899   2.964   1.408   2.757  0.0376  0.2973 -0.1418
 8146SOL    HW135900   2.882   1.368   2.727  0.5566 -1.1091  0.2863
 8146SOL    HW235901   2.947   1.501   2.745 -0.1866  0.2240 -0.3905
 8147SOL     OW35902   1.251   0.053   4.725  0.0194 -0.5534 -0.2505
 8147SOL    HW135903   1.188   4.712   4.761 -1.6583  0.8831 -0.7282
 8147SOL    HW235904   1.209   0.101   4.654  1.7364  0.0649 -0.8610
 8148SOL     OW35905   0.748   1.513   0.488  0.0758 -0.1888 -0.2857
 8148SOL    HW135906   0.732   1.427   0.526 -1.4819  0.1920 -0.0710
 8148SOL    HW235907   0.695   1.572   0.542  2.0850  1.7675 -0.4456
 8149SOL     OW35908   3.064   0.149  11.201  0.2480  0.2348  0.2257
 8149SOL    HW135909   3.041   0.091  11.274 -0.3643 -0.3543 -0.4380
 8149SOL    HW235910   3.159   0.144  11.216 -0.0884  1.2170  2.7418
 8150SOL     OW35911   4.057   3.148   0.381 -0.1499 -0.9796 -0.0602
 8150SOL    HW135912   3.997   3.159   0.454 -0.0011 -0.0678 -0.0689
 8150SOL    HW235913   4.111   3.080   0.421 -0.2431 -1.4773 -0.7788
 8151SOL     OW35914   2.697   0.029  15.998 -0.6001  0.1010  0.2584
 8151SOL    HW135915   2.627   0.078  15.955 -0.0040  0.9627  0.2750
 8151SOL    HW235916   2.774   0.080  15.972  0.1970 -1.2652 -0.0345
 8152SOL     OW35917   2.634   1.210   2.943  0.1624  0.1945 -0.0952
 8152SOL    HW135918   2.647   1.289   2.890 -0.9672 -0.3894 -1.2560
 8152SOL    HW235919   2.539   1.215   2.949  0.3195  0.7391  1.7425
 8153SOL     OW35920   4.364   3.464  16.554 -0.1340  0.4631  0.1156
 8153SOL    HW135921   4.268   3.470  16.550 -0.2513 -0.6354  1.1685
 8153SOL    HW235922   4.378   3.533  16.619 -2.5569 -0.3405  1.4915
 8154SOL     OW35923   2.709   2.584  14.977 -0.4352 -0.4585  0.1647
 8154SOL    HW135924   2.792   2.615  15.014 -0.5385 -0.5006  0.4366
 8154SOL    HW235925   2.664   2.566  15.060  2.2298  1.5468  2.0210
 8155SOL     OW35926   4.110   0.759   6.873 -0.1585  0.3620  0.1523
 8155SOL    HW135927   4.159   0.841   6.870 -0.8005  0.7046 -1.1005
 8155SOL    HW235928   4.100   0.749   6.778  1.8604 -0.8916  0.0687
 8156SOL     OW35929   1.740   0.258  15.580 -0.2193 -0.0922  0.3526
 8156SOL    HW135930   1.714   0.167  15.598 -0.5052 -0.2275 -0.7373
 8156SOL    HW235931   1.833   0.254  15.599 -0.4498 -0.8324  1.3773
 8157SOL     OW35932   0.395   2.762  17.426  0.4091  0.1589 -0.0968
 8157SOL    HW135933   0.365   2.671  17.426 -2.7730  1.2154 -1.3187
 8157SOL    HW235934   0.483   2.753  17.388 -0.3614  2.1490 -2.3881
 8158SOL     OW35935   1.335   1.061   8.167 -0.0482  0.1405  0.2388
 8158SOL    HW135936   1.252   1.052   8.215  1.0281 -4.0345  1.3315
 8158SOL    HW235937   1.323   0.993   8.100  3.5080  0.5594 -0.8185
 8159SOL     OW35938   1.532   2.701   5.965  0.5738  0.0714 -0.3434
 8159SOL    HW135939   1.505   2.744   5.884  2.1549  1.4864 -0.1117
 8159SOL    HW235940   1.574   2.622   5.932 -0.0884 -0.0300 -0.9469
 8160SOL     OW35941   4.498   4.555   8.967  0.0851 -0.2369 -0.2107
 8160SOL    HW135942   4.504   4.610   9.045  2.6599  1.5797 -1.7004
 8160SOL    HW235943   4.581   4.507   8.964  1.3232  1.9404 -1.3917
 8161SOL     OW35944   0.424   2.996   2.514 -0.3745  0.4876  0.0939
 8161SOL    HW135945   0.477   2.933   2.464 -1.2260  0.5790 -0.9328
 8161SOL    HW235946   0.394   3.053   2.443 -0.4998  0.8904  0.4716
 8162SOL     OW35947   1.792   4.345  10.208 -0.0267  0.0351 -0.5038
 8162SOL    HW135948   1.862   4.395  10.250 -0.7955  0.7342 -0.0589
 8162SOL    HW235949   1.825   4.350  10.118  0.4035  0.9929 -0.2907
 8163SOL     OW35950   4.470   4.133   6.711  0.5520 -0.1831  0.6090
 8163SOL    HW135951   4.450   4.166   6.623 -2.0047 -1.1607  0.8336
 8163SOL    HW235952   4.560   4.161   6.727  0.0303  1.2351  0.9972
 8164SOL     OW35953   2.542   0.969   2.601  0.0986 -0.0076 -0.0311
 8164SOL    HW135954   2.507   0.884   2.573  1.5991 -1.4928  2.5534
 8164SOL    HW235955   2.519   0.977   2.694  1.7229 -2.6506  0.5995
 8165SOL     OW35956   0.769   0.869   5.094  0.4802  0.1026  0.3152
 8165SOL    HW135957   0.718   0.834   5.021  0.7862  1.6164 -0.6129
 8165SOL    HW235958   0.692   0.891   5.147  0.6011 -4.6256  2.4326
 8166SOL     OW35959   4.494   2.319   6.072  0.0531  0.2795  0.4593
 8166SOL    HW135960   4.454   2.243   6.115  0.2550  0.0684  0.2750
 8166SOL    HW235961   4.496   2.288   5.982  1.3514  2.7481 -0.3545
 8167SOL     OW35962   1.445   0.832  17.382 -0.0656  0.0047 -0.3694
 8167SOL    HW135963   1.424   0.892  17.310  0.3197 -1.5818 -1.8284
 8167SOL    HW235964   1.368   0.853  17.434 -0.0144 -0.9114  0.0840
 8168SOL     OW35965   4.239   3.101   8.057 -0.1675 -0.3482  0.5061
 8168SOL    HW135966   4.227   3.181   8.005  3.4377  0.6408  1.2055
 8168SOL    HW235967   4.191   3.133   8.133  0.4731  0.9746  0.3517
 8169SOL     OW35968   4.555   3.149  11.766  0.1943  0.3709  0.1615
 8169SOL    HW135969   4.616   3.219  11.789 -1.0173  1.6483 -0.4721
 8169SOL    HW235970   4.472   3.192  11.786  0.3182 -0.2674  2.1001
 8170SOL     OW35971   3.545   4.277  12.427  0.0128 -0.9453 -0.3741
 8170SOL    HW135972   3.452   4.256  12.431 -0.4898  1.5569  1.0675
 8170SOL    HW235973   3.542   4.304  12.335 -2.0248  1.0272  0.2731
 8171SOL     OW35974   0.997   4.237   7.200  0.1728 -0.0965  0.0842
 8171SOL    HW135975   1.052   4.176   7.249  0.0662 -2.3500 -2.5961
 8171SOL    HW235976   1.016   4.203   7.113  0.1172  0.7299 -0.2499
 8172SOL     OW35977   1.261   0.323   8.194  0.1698 -0.4192 -0.6542
 8172SOL    HW135978   1.263   0.252   8.130  1.9877  0.5573 -1.6649
 8172SOL    HW235979   1.277   0.276   8.276  0.8331  0.7751 -0.0875
 8173SOL     OW35980   3.257   3.457   8.817 -0.0187  0.2030  0.1987
 8173SOL    HW135981   3.207   3.538   8.810  1.7976  1.3860  0.8067
 8173SOL    HW235982   3.339   3.487   8.777  0.0364  0.5193  0.5438
 8174SOL     OW35983   0.937   1.451   0.778 -0.0515  0.2306  0.5260
 8174SOL    HW135984   0.943   1.377   0.717 -0.7439  1.5519 -1.1556
 8174SOL    HW235985   0.845   1.444   0.800 -0.3191 -1.2634 -1.0376
 8175SOL     OW35986   3.497   3.752   5.925 -0.6219  0.0374  0.0473
 8175SOL    HW135987   3.454   3.837   5.916  0.1261  0.0923 -3.3435
 8175SOL    HW235988   3.438   3.709   5.862 -0.7142 -1.0042  0.8632
 8176SOL     OW35989   2.022   1.134  10.397 -0.0600 -0.0495  0.4037
 8176SOL    HW135990   2.081   1.087  10.456 -0.7437 -1.1661  0.2096
 8176SOL    HW235991   1.985   1.199  10.456 -0.3148  0.9618 -0.8658
 8177SOL     OW35992   0.426   1.987   9.772 -0.2486  0.2244 -0.3207
 8177SOL    HW135993   0.436   1.937   9.852  2.2842  1.2415 -0.0171
 8177SOL    HW235994   0.451   2.075   9.800  0.2618 -1.0066  3.0126
 8178SOL     OW35995   3.019   0.372  13.274  0.5541 -0.2965 -0.0266
 8178SOL    HW135996   3.105   0.331  13.283  0.8284  0.3822  0.4602
 8178SOL    HW235997   3.046   0.445  13.218  1.3487 -0.5603  0.0144
 8179SOL     OW35998   2.147   2.343   5.346 -0.4707  0.7315  0.3222
 8179SOL    HW135999   2.130   2.365   5.255 -0.3145  0.4179  0.2158
 8179SOL    HW236000   2.237   2.372   5.360  0.1642 -0.9704 -0.1266
 8180SOL     OW36001   0.228   0.445   8.382  0.0728  0.1842 -0.1952
 8180SOL    HW136002   0.258   0.355   8.371  1.0395  0.4179  0.5998
 8180SOL    HW236003   0.295   0.491   8.332  1.4819  1.4991  2.9670
 8181SOL     OW36004   1.832   1.333  10.577  0.3222 -0.1793 -0.3436
 8181SOL    HW136005   1.787   1.358  10.657 -0.4543  0.4130 -0.9716
 8181SOL    HW236006   1.760   1.350  10.516 -0.2714 -1.5724 -0.0284
 8182SOL     OW36007   1.263   4.134  17.097 -0.0342  0.2851 -0.0045
 8182SOL    HW136008   1.249   4.216  17.144 -0.2664  0.9732 -1.2824
 8182SOL    HW236009   1.191   4.079  17.125 -0.8297  1.3213 -0.0261
 8183SOL     OW36010   3.893   4.003   6.902  0.0414 -0.2258  0.1624
 8183SOL    HW136011   3.938   4.050   6.972 -0.4265  1.4404 -0.6610
 8183SOL    HW236012   3.951   4.025   6.830  1.2957  1.2863  1.6339
 8184SOL     OW36013   3.071   1.780  16.937  0.7055 -0.2562  0.7974
 8184SOL    HW136014   3.024   1.859  16.962 -0.1294 -0.8304  1.0560
 8184SOL    HW236015   3.085   1.788  16.843  2.6090  0.2095  1.1138
 8185SOL     OW36016   0.560   4.524   8.980  0.3765  0.0326 -0.2581
 8185SOL    HW136017   0.535   4.483   8.897  1.1661 -0.2162 -0.3723
 8185SOL    HW236018   0.474   4.562   8.996 -0.5438 -2.8948  1.7176
 8186SOL     OW36019   4.007   3.055   5.418  0.0370  0.4782  1.0377
 8186SOL    HW136020   3.996   3.147   5.393  1.6146  0.1512 -0.8741
 8186SOL    HW236021   3.976   3.010   5.340  0.0024  0.4356  1.0762
 8187SOL     OW36022   4.454   3.291  10.229  0.4815  0.3904 -0.0207
 8187SOL    HW136023   4.508   3.306  10.306  0.1292 -1.4493  0.5747
 8187SOL    HW236024   4.508   3.228  10.181 -1.6842  0.6496 -2.7970
 8188SOL     OW36025   3.619   2.634   6.342  0.0621  0.5177 -0.1219
 8188SOL    HW136026   3.557   2.568   6.313 -1.0639  0.9971  1.2270
 8188SOL    HW236027   3.618   2.629   6.438 -1.5980  0.2908 -0.1569
 8189SOL     OW36028   2.163   0.051  12.300  0.4417 -0.2269 -0.0668
 8189SOL    HW136029   2.132   0.132  12.341 -0.5523  0.0701 -1.3912
 8189SOL    HW236030   2.234   0.086  12.246  1.9910  0.5989  2.4981
 8190SOL     OW36031   2.570   0.050   2.819  0.4340 -0.2580 -0.4770
 8190SOL    HW136032   2.607   0.121   2.768 -1.4895  0.1817 -1.2464
 8190SOL    HW236033   2.539   0.088   2.902 -0.6190  2.5387 -2.1788
 8191SOL     OW36034   2.367   2.646   0.846 -0.1108  0.3901  0.5777
 8191SOL    HW136035   2.391   2.674   0.757 -0.3070  0.5630  0.5799
 8191SOL    HW236036   2.365   2.551   0.835 -1.8276  0.5937 -0.7763
 8192SOL     OW36037   1.098   0.679  10.075 -0.1378 -0.3984 -0.7211
 8192SOL    HW136038   1.164   0.733  10.031 -0.9849  1.7705  0.6603
 8192SOL    HW236039   1.142   0.611  10.125 -1.5243 -1.0808 -0.4248
 8193SOL     OW36040   3.479   2.754   8.163 -0.5532 -0.3129 -0.1153
 8193SOL    HW136041   3.389   2.787   8.162 -0.6514 -0.5339  2.5961
 8193SOL    HW236042   3.461   2.662   8.142 -1.6020  0.0859 -0.9910
 8194SOL     OW36043   3.240   1.990   6.971  0.1257  0.0906 -0.4604
 8194SOL    HW136044   3.154   1.974   6.932 -0.5172  0.2927  0.8529
 8194SOL    HW236045   3.221   1.986   7.065 -2.4781 -1.3885 -1.0609
 8195SOL     OW36046   1.151   4.374  16.826 -0.2151 -0.3492  0.4077
 8195SOL    HW136047   1.169   4.459  16.785  0.4698 -1.0590 -0.7705
 8195SOL    HW236048   1.062   4.385  16.860 -0.5170 -2.0837  0.1512
 8196SOL     OW36049   3.279   0.170   1.583 -0.1539 -0.1468 -0.2821
 8196SOL    HW136050   3.325   0.253   1.602 -0.5852  0.5723 -2.4237
 8196SOL    HW236051   3.316   0.155   1.496  0.2709  1.1956 -0.3454
 8197SOL     OW36052   2.432   2.382   8.120  0.4656  0.0380 -0.6485
 8197SOL    HW136053   2.428   2.289   8.142 -0.6475 -0.2685 -2.1935
 8197SOL    HW236054   2.346   2.388   8.080  0.2922 -0.9490 -0.4275
 8198SOL     OW36055   0.743   1.557   9.139 -0.2075 -0.0984  0.0817
 8198SOL    HW136056   0.659   1.525   9.107 -0.5076 -0.6989  1.4650
 8198SOL    HW236057   0.800   1.527   9.067  1.5767  1.7022  0.7479
 8199SOL     OW36058   4.367   0.625   6.648  0.0507  0.4781 -0.4576
 8199SOL    HW136059   4.306   0.675   6.593 -0.5287 -2.3811 -2.3971
 8199SOL    HW236060   4.372   0.540   6.606  0.3088 -0.2175  0.9772
 8200SOL     OW36061   3.123   4.145  11.389  0.5055 -0.0656 -0.0506
 8200SOL    HW136062   3.061   4.079  11.357  1.2610 -0.8245  0.0537
 8200SOL    HW236063   3.064   4.203  11.438 -0.0477  0.0678 -0.8762
 8201SOL     OW36064   0.061   3.608   7.688  0.1845 -0.5941 -0.1284
 8201SOL    HW136065   0.013   3.525   7.694 -1.8022  0.4424 -1.4670
 8201SOL    HW236066   4.707   3.667   7.696 -1.3806 -2.9357  2.0773
 8202SOL     OW36067   3.966   4.286  12.057 -0.0092  0.4097  0.3200
 8202SOL    HW136068   3.909   4.348  12.010 -0.6402  0.4713  1.1661
 8202SOL    HW236069   3.908   4.243  12.120  0.5918  1.4220  1.5773
 8203SOL     OW36070   0.176   3.698   8.449  0.4378  0.2785  0.6079
 8203SOL    HW136071   0.259   3.699   8.497  0.6910  3.3463  0.0945
 8203SOL    HW236072   0.165   3.603   8.439 -2.5026  0.7571 -0.6982
 8204SOL     OW36073   1.563   0.834   5.581 -0.1077 -0.3727 -0.0513
 8204SOL    HW136074   1.627   0.837   5.652  0.3865 -1.8942 -0.4367
 8204SOL    HW236075   1.570   0.744   5.550  0.1740 -0.5670  0.5647
 8205SOL     OW36076   0.900   3.551   5.106  0.6149  0.4660 -0.3092
 8205SOL    HW136077   0.910   3.464   5.068  0.2346  0.2582  0.0630
 8205SOL    HW236078   0.980   3.593   5.074  1.0385  1.7887  2.4676
 8206SOL     OW36079   1.807   3.959   0.468 -0.0021 -0.1311 -0.5269
 8206SOL    HW136080   1.806   4.011   0.387 -0.3773  1.1906  0.3399
 8206SOL    HW236081   1.799   3.870   0.431 -0.0846  0.0147 -0.8645
 8207SOL     OW36082   0.534   2.767  14.624 -0.6119  0.1366 -0.6705
 8207SOL    HW136083   0.612   2.822  14.634 -0.1879 -0.2714 -1.6722
 8207SOL    HW236084   0.572   2.694  14.576 -0.1204  0.2790 -0.4990
 8208SOL     OW36085   0.521   2.018   9.062 -0.0750 -0.0916 -0.4866
 8208SOL    HW136086   0.465   2.094   9.073 -1.1480 -0.5567 -2.7495
 8208SOL    HW236087   0.500   1.955   9.131  2.2648 -0.8840 -0.4808
 8209SOL     OW36088   1.910   4.452   3.945  0.7316  0.1000  0.4795
 8209SOL    HW136089   1.960   4.381   3.904  2.9218  2.0100 -0.1317
 8209SOL    HW236090   1.846   4.467   3.875  0.4991 -0.9080  0.4725
 8210SOL     OW36091   2.197   3.425  12.153 -0.4282 -0.2401  0.3006
 8210SOL    HW136092   2.139   3.499  12.136 -0.2221  0.2795  1.8537
 8210SOL    HW236093   2.284   3.455  12.128 -0.6569 -1.0828 -1.4602
 8211SOL     OW36094   0.950   2.526  13.106 -0.6459  0.4031 -0.2565
 8211SOL    HW136095   1.043   2.539  13.088  0.1488 -2.4088  1.7579
 8211SOL    HW236096   0.958   2.535  13.201  0.5884 -0.8379 -0.2417
 8212SOL     OW36097   4.070   2.480   7.552 -0.4581 -0.3127 -0.1844
 8212SOL    HW136098   3.996   2.428   7.583 -1.1542  0.0642 -1.2189
 8212SOL    HW236099   4.031   2.558   7.512  0.0436 -0.7819 -1.5991
 8213SOL     OW36100   2.419   1.209  14.024  0.0687 -0.1652 -0.0296
 8213SOL    HW136101   2.366   1.191  13.946 -1.4419 -0.6270  1.1079
 8213SOL    HW236102   2.502   1.179  13.988 -1.6496 -2.3612 -2.1905
 8214SOL     OW36103   1.864   1.858  14.902 -0.2376 -0.2755 -0.5742
 8214SOL    HW136104   1.841   1.819  14.817  1.3605  1.2777 -1.7185
 8214SOL    HW236105   1.854   1.785  14.963 -0.5995 -0.7325 -1.1761
 8215SOL     OW36106   1.613   4.481   7.814  0.6076  0.0971  0.0224
 8215SOL    HW136107   1.666   4.482   7.734 -0.3438 -2.7042 -0.6398
 8215SOL    HW236108   1.538   4.526   7.776 -0.8859 -1.2211  1.4545
 8216SOL     OW36109   1.102   0.642  12.440  1.0889  0.1570  0.6725
 8216SOL    HW136110   1.082   0.678  12.353 -2.1497 -1.5681  0.7072
 8216SOL    HW236111   1.184   0.689  12.456  0.8582  1.2708 -1.2937
 8217SOL     OW36112   4.073   2.797  17.408  0.4226 -0.5457 -0.0923
 8217SOL    HW136113   4.055   2.796  17.502 -0.0002 -0.3643 -0.1714
 8217SOL    HW236114   4.003   2.855  17.378 -0.3341 -2.1383 -1.4361
 8218SOL     OW36115   2.883   1.402  16.273 -0.8072  0.1166 -0.1815
 8218SOL    HW136116   2.812   1.396  16.337 -0.0480  0.4907  0.6939
 8218SOL    HW236117   2.830   1.374  16.198 -1.6571 -1.5173  1.0203
 8219SOL     OW36118   0.497   1.784   3.510 -0.1801  0.6198  0.4969
 8219SOL    HW136119   0.569   1.728   3.541 -0.4919 -0.7587 -1.2678
 8219SOL    HW236120   0.445   1.797   3.590 -1.5874 -1.7999 -0.0144
 8220SOL     OW36121   0.749   2.162   8.926 -0.6612 -0.0994 -0.2726
 8220SOL    HW136122   0.678   2.171   8.990  0.1674  2.3978  0.2774
 8220SOL    HW236123   0.781   2.252   8.930 -1.8244  0.3641 -1.4677
 8221SOL     OW36124   4.615   1.863   1.397  0.2057 -0.1627 -0.0052
 8221SOL    HW136125   4.641   1.802   1.328  1.1514 -2.3949  2.3185
 8221SOL    HW236126   4.531   1.819   1.409 -0.8808  1.7803 -0.5187
 8222SOL     OW36127   1.205   1.727   8.244 -0.2499 -0.0523 -0.0942
 8222SOL    HW136128   1.282   1.674   8.227  0.3521  0.3712  1.3731
 8222SOL    HW236129   1.163   1.688   8.321 -1.9343  1.8760 -0.0244
 8223SOL     OW36130   2.341   0.595   6.255  0.1648 -0.3227 -0.0624
 8223SOL    HW136131   2.310   0.506   6.237  0.2847 -0.4662  0.4433
 8223SOL    HW236132   2.402   0.574   6.326  2.1545  1.8455 -1.1329
 8224SOL     OW36133   3.278   2.804   0.105  0.0523 -0.3312 -0.0143
 8224SOL    HW136134   3.309   2.885   0.143  2.4822 -1.8698  1.2672
 8224SOL    HW236135   3.328   2.813   0.023  2.4732 -2.8676  1.2090
 8225SOL     OW36136   2.346   0.218   7.631 -0.3515 -0.9150 -0.2242
 8225SOL    HW136137   2.330   0.243   7.540 -1.3455  0.2359  0.2668
 8225SOL    HW236138   2.258   0.186   7.650 -0.7084  0.6691  0.7612
 8226SOL     OW36139   2.139   2.555   3.655 -0.0734  0.7165 -0.3224
 8226SOL    HW136140   2.085   2.580   3.581  0.0209  0.2509 -0.5487
 8226SOL    HW236141   2.084   2.576   3.731 -1.5810  0.1817 -1.2712
 8227SOL     OW36142   3.484   3.393   7.023  0.2244 -0.6843 -0.0319
 8227SOL    HW136143   3.463   3.324   6.959 -0.3263 -0.5820  0.0408
 8227SOL    HW236144   3.396   3.423   7.045  0.8166  0.0442  1.3474
 8228SOL     OW36145   1.150   0.377   2.563 -0.2007 -0.2480  0.1204
 8228SOL    HW136146   1.139   0.283   2.580 -0.8044  0.0846  1.5395
 8228SOL    HW236147   1.083   0.385   2.495 -1.0868 -2.3159  0.7414
 8229SOL     OW36148   2.635   4.089  10.141  0.0829 -0.0807  0.0742
 8229SOL    HW136149   2.723   4.115  10.113  0.1948 -0.8335 -0.2694
 8229SOL    HW236150   2.629   4.136  10.224  1.8813 -0.6204  0.5069
 8230SOL     OW36151   1.766   2.110   2.931 -0.4661  0.3131  0.2819
 8230SOL    HW136152   1.718   2.052   2.873 -0.2736  1.1779 -0.7522
 8230SOL    HW236153   1.775   2.058   3.011 -0.6616  2.3085  1.6106
 8231SOL     OW36154   3.984   0.668   0.150  0.0675 -0.1268  0.1047
 8231SOL    HW136155   3.978   0.763   0.140  1.3472 -0.0504  0.1530
 8231SOL    HW236156   3.925   0.643   0.079  1.6749 -2.4434 -0.4118
 8232SOL     OW36157   4.448   2.030   3.488  0.1625  0.2923 -0.1857
 8232SOL    HW136158   4.362   2.068   3.472 -0.1807 -0.7508 -0.7817
 8232SOL    HW236159   4.422   1.987   3.570 -2.9709  1.7478 -0.4138
 8233SOL     OW36160   2.463   2.766  12.654  0.0355 -0.0149  0.1600
 8233SOL    HW136161   2.525   2.828  12.615 -3.2907  1.7665 -2.3064
 8233SOL    HW236162   2.408   2.758  12.576 -0.3946 -0.3598  0.5014
 8234SOL     OW36163   2.341   0.120   9.754 -0.4196  0.3699  0.1410
 8234SOL    HW136164   2.385   0.076   9.682 -2.4391 -0.4044 -0.5979
 8234SOL    HW236165   2.263   0.144   9.703  0.0009  0.2452 -0.5569
 8235SOL     OW36166   4.095   2.750   2.270  0.1316  0.2205 -0.2202
 8235SOL    HW136167   4.115   2.729   2.179  0.4010 -0.9545  0.1187
 8235SOL    HW236168   4.180   2.742   2.312 -0.4061  0.9400  1.0289
 8236SOL     OW36169   3.283   2.952   8.415 -0.0106  0.3656  0.1125
 8236SOL    HW136170   3.251   2.873   8.370  1.0396 -0.5743  0.9904
 8236SOL    HW236171   3.215   3.017   8.400 -0.9209 -0.9993 -1.6456
 8237SOL     OW36172   1.847   1.082  14.956 -0.4783  0.1737 -0.3077
 8237SOL    HW136173   1.756   1.112  14.959 -0.1439  1.2893 -1.4397
 8237SOL    HW236174   1.845   1.020  15.029 -1.6434  0.0863 -0.4123
 8238SOL     OW36175   4.197   2.871   6.220 -0.4779 -0.0232 -0.2405
 8238SOL    HW136176   4.118   2.848   6.171  1.4052 -0.5867 -2.9932
 8238SOL    HW236177   4.256   2.797   6.207  0.8317  0.6478  1.9055
 8239SOL     OW36178   2.732   3.159   0.923 -0.2529  0.5899 -0.2388
 8239SOL    HW136179   2.640   3.169   0.948 -0.5491 -0.7119 -0.8207
 8239SOL    HW236180   2.730   3.087   0.859 -2.0466 -0.1330  0.6407
 8240SOL     OW36181   3.622   4.136   9.846  0.4184  0.0081  0.1883
 8240SOL    HW136182   3.637   4.047   9.878  0.0400 -0.1591 -0.0982
 8240SOL    HW236183   3.701   4.144   9.792  1.6821 -0.3606  1.9693
 8241SOL     OW36184   0.861   2.377   5.885  0.2240 -0.4230  0.4613
 8241SOL    HW136185   0.778   2.334   5.905  0.2709 -1.5407 -1.8231
 8241SOL    HW236186   0.841   2.408   5.797  1.3391 -1.9176 -0.3195
 8242SOL     OW36187   3.261   1.608   2.780  0.2718  0.0729 -0.2759
 8242SOL    HW136188   3.316   1.645   2.711 -0.7942  0.7833 -0.7372
 8242SOL    HW236189   3.259   1.682   2.840  0.3715  0.1171 -0.3262
 8243SOL     OW36190   4.599   0.779   2.858  0.2190  0.0679 -0.1303
 8243SOL    HW136191   4.508   0.762   2.883 -0.4013  0.6399 -2.0100
 8243SOL    HW236192   4.600   0.742   2.770  2.7077  0.6353 -0.3451
 8244SOL     OW36193   0.700   3.400  16.084  0.4561  0.2658  0.4049
 8244SOL    HW136194   0.710   3.495  16.078 -0.0336  0.2209 -1.2204
 8244SOL    HW236195   0.767   3.386  16.150  1.1247  0.0855 -0.3197
 8245SOL     OW36196   0.213   0.749   1.239 -0.1134  0.7565 -0.6645
 8245SOL    HW136197   0.187   0.817   1.178  0.0953  1.7167  0.3147
 8245SOL    HW236198   0.243   0.673   1.189  0.1626 -0.2297  0.9914
 8246SOL     OW36199   3.700   0.224   4.927 -0.6304 -0.5156 -0.1673
 8246SOL    HW136200   3.722   0.261   4.841  1.7157  1.2353  1.1988
 8246SOL    HW236201   3.695   0.305   4.977  1.3651  0.1481 -1.0238
 8247SOL     OW36202   4.433   1.664   4.484 -0.3068  0.3044  0.1373
 8247SOL    HW136203   4.451   1.737   4.543 -0.3412 -0.4659  1.1006
 8247SOL    HW236204   4.520   1.647   4.446 -1.0960 -1.9795 -0.6453
 8248SOL     OW36205   4.428   4.051   9.242  0.0323  0.1478  0.2197
 8248SOL    HW136206   4.380   3.973   9.214 -0.1786  0.1217  0.6487
 8248SOL    HW236207   4.371   4.126   9.225  1.8989  0.9871 -2.3225
 8249SOL     OW36208   0.955   1.103   5.094 -0.2697  0.5686 -0.4524
 8249SOL    HW136209   0.902   1.024   5.105  0.5011  0.0582 -0.3461
 8249SOL    HW236210   0.955   1.139   5.183  1.4417 -1.4858  0.3886
 8250SOL     OW36211   4.379   3.581  10.478  0.0034  0.2595  0.3440
 8250SOL    HW136212   4.450   3.626  10.524 -0.6166  1.0004  0.5821
 8250SOL    HW236213   4.422   3.498  10.459  0.9282  0.9565 -0.6141
 8251SOL     OW36214   0.601   3.975   3.221  0.2059  0.0852  0.4223
 8251SOL    HW136215   0.634   4.008   3.138  1.2476 -3.0340 -0.4009
 8251SOL    HW236216   0.625   3.882   3.220 -0.2314 -0.0670  2.8318
 8252SOL     OW36217   2.565   4.438   5.877 -0.1664 -0.1583 -0.1014
 8252SOL    HW136218   2.644   4.458   5.928  0.3464  0.2265 -1.0541
 8252SOL    HW236219   2.542   4.349   5.903 -2.9773  0.4139 -0.6733
 8253SOL     OW36220   4.104   0.072  15.349  0.2049 -0.7115  0.1480
 8253SOL    HW136221   4.059   0.070  15.264  1.3330 -1.0314 -0.4442
 8253SOL    HW236222   4.124   4.701  15.362  1.4894 -0.5645 -0.7763
 8254SOL     OW36223   3.347   1.982   4.454 -1.1087 -0.2704  0.6442
 8254SOL    HW136224   3.260   1.973   4.415 -2.0142  0.1630  2.5659
 8254SOL    HW236225   3.322   2.030   4.533  0.0866  1.1487  0.1405
 8255SOL     OW36226   1.876   2.219   1.934  0.2754 -0.2651  0.0663
 8255SOL    HW136227   1.888   2.227   1.839 -0.1070  1.3967  0.1546
 8255SOL    HW236228   1.962   2.197   1.968  0.1158 -0.5302  0.2930
 8256SOL     OW36229   3.027   0.489  15.657  0.2253 -0.0495  0.2222
 8256SOL    HW136230   3.031   0.556  15.726 -1.2317 -0.3698  0.6214
 8256SOL    HW236231   2.944   0.512  15.616 -0.2835 -3.8457 -0.8687
 8257SOL     OW36232   0.086   3.996   8.706  0.1208 -0.1676 -0.4894
 8257SOL    HW136233   0.145   4.006   8.780  0.0775 -1.6589 -0.2471
 8257SOL    HW236234   0.025   4.066   8.730  0.1875 -0.9463  1.9409
 8258SOL     OW36235   1.100   2.672   7.451 -0.0444  0.1696  0.3316
 8258SOL    HW136236   1.053   2.755   7.452  0.9627  0.7418  0.1687
 8258SOL    HW236237   1.039   2.601   7.475  1.8015 -1.1618  1.0578
 8259SOL     OW36238   2.114   0.109   6.284  0.3025  0.5489 -0.1262
 8259SOL    HW136239   2.160   0.065   6.355  0.2377 -1.8464 -1.5737
 8259SOL    HW236240   2.153   0.069   6.207 -1.7272 -1.6441 -0.0053
 8260SOL     OW36241   3.264   3.591   8.205 -0.6880  0.2575 -0.5753
 8260SOL    HW136242   3.218   3.667   8.240  1.1571  0.7387  0.7839
 8260SOL    HW236243   3.358   3.609   8.199 -0.8125  0.5819 -1.5868
 8261SOL     OW36244   4.251   0.174   4.423  0.1950 -0.4177  0.2780
 8261SOL    HW136245   4.340   0.208   4.419 -0.4149  1.0397 -0.9050
 8261SOL    HW236246   4.211   0.255   4.452  0.1820 -0.2115 -0.3102
 8262SOL     OW36247   4.114   1.433   7.208  0.1495 -0.6051  0.1403
 8262SOL    HW136248   4.136   1.419   7.300 -1.0705  0.0994  0.5324
 8262SOL    HW236249   4.078   1.520   7.219 -0.6107 -0.9227  0.1531
 8263SOL     OW36250   0.902   2.022   8.747 -0.4351  0.1239  0.0284
 8263SOL    HW136251   0.873   2.053   8.661  1.6543  0.4941 -0.5272
 8263SOL    HW236252   0.845   2.065   8.812 -0.4678  0.8076 -0.4567
 8264SOL     OW36253   2.100   4.519  17.684  0.1584  0.1711  0.5405
 8264SOL    HW136254   2.080   4.477  17.600 -1.2351  0.8047  0.5579
 8264SOL    HW236255   2.059   4.457   0.056 -0.3196 -0.0627 -0.0240
 8265SOL     OW36256   0.152   3.501   3.393 -0.1361 -0.0173 -0.7057
 8265SOL    HW136257   0.094   3.468   3.325 -1.6544  1.6234 -0.2076
 8265SOL    HW236258   0.237   3.481   3.354 -0.2415 -0.2593 -0.8072
 8266SOL     OW36259   3.432   2.792  15.222  0.1895  0.1291  0.0662
 8266SOL    HW136260   3.442   2.699  15.239  0.2643  0.3404  1.2023
 8266SOL    HW236261   3.524   2.819  15.218 -0.2961  1.4322 -2.2285
 8267SOL     OW36262   3.634   2.932   6.177  0.4696  0.1677  0.0793
 8267SOL    HW136263   3.542   2.927   6.150 -0.1993  0.3189  2.4090
 8267SOL    HW236264   3.630   2.886   6.260  1.2719 -1.7501 -0.9409
 8268SOL     OW36265   1.123   1.208  14.634  0.4385 -0.2288  0.6462
 8268SOL    HW136266   1.041   1.258  14.631  0.3919 -0.5923 -3.2895
 8268SOL    HW236267   1.094   1.124  14.598  0.5776  0.5327 -1.2305
 8269SOL     OW36268   0.233   2.315   9.555 -0.3429 -0.3354  0.3112
 8269SOL    HW136269   0.328   2.313   9.568 -0.1574 -2.5437 -1.3011
 8269SOL    HW236270   0.208   2.400   9.592  1.2253  1.3061 -2.3592
 8270SOL     OW36271   0.068   2.704   8.102 -0.1140 -0.4709  0.4160
 8270SOL    HW136272   0.150   2.680   8.145 -0.4206  0.1394  1.3472
 8270SOL    HW236273   0.025   2.622   8.080 -2.1594  0.5825  0.4843
 8271SOL     OW36274   1.516   3.273   7.755 -0.0011  0.0665 -0.1794
 8271SOL    HW136275   1.494   3.253   7.663 -2.3568 -0.0056  0.3888
 8271SOL    HW236276   1.582   3.342   7.752  0.1112  0.0384  1.6153
 8272SOL     OW36277   0.063   3.377   9.108 -0.3617 -0.1295 -0.6120
 8272SOL    HW136278   0.048   3.468   9.131  0.6775 -0.0794 -0.1084
 8272SOL    HW236279   0.044   3.381   9.014 -2.0344 -1.1572 -0.3104
 8273SOL     OW36280   1.474   3.630   7.145 -0.0072  0.1337  0.0396
 8273SOL    HW136281   1.523   3.645   7.226  0.5138  1.4670 -0.5295
 8273SOL    HW236282   1.436   3.714   7.121 -0.3067  0.4159  1.5036
 8274SOL     OW36283   1.448   0.745  15.492  0.1923 -0.2885 -0.6380
 8274SOL    HW136284   1.368   0.723  15.540  0.9324 -0.8225  0.3627
 8274SOL    HW236285   1.507   0.777  15.561 -0.8316 -2.1843  1.1305
 8275SOL     OW36286   1.437   3.852   5.665  0.1024  0.2261  0.1285
 8275SOL    HW136287   1.466   3.821   5.751  0.7800 -3.2814 -1.3830
 8275SOL    HW236288   1.439   3.770   5.617  0.9017  0.9171 -1.0060
 8276SOL     OW36289   4.397   2.512  11.776  0.4316  0.1893  0.4979
 8276SOL    HW136290   4.455   2.588  11.770 -0.1288  0.5274 -0.8344
 8276SOL    HW236291   4.315   2.543  11.738  2.0911  1.0534 -2.4219
 8277SOL     OW36292   4.515   0.058   3.992  0.1683  0.2602  0.6307
 8277SOL    HW136293   4.605   0.076   3.965  0.6507 -0.3687  1.8499
 8277SOL    HW236294   4.478   0.036   3.906  0.9421  1.2539  0.0482
 8278SOL     OW36295   0.468   1.628   0.373 -0.0662 -0.2523  0.0743
 8278SOL    HW136296   0.464   1.689   0.299  0.3046  0.2083  0.4299
 8278SOL    HW236297   0.529   1.571   0.327  0.1232 -1.0502  1.3044
 8279SOL     OW36298   0.220   4.011   5.051  0.3278 -0.1976  0.0345
 8279SOL    HW136299   0.296   4.067   5.035 -0.1585  0.3883 -0.2090
 8279SOL    HW236300   0.168   4.058   5.116 -1.9189  0.9540 -2.5637
 8280SOL     OW36301   3.446   1.817   9.180 -0.2072  0.3910  0.0708
 8280SOL    HW136302   3.356   1.787   9.193 -1.0648  3.1166  0.4015
 8280SOL    HW236303   3.433   1.858   9.095 -0.0139  1.4078  0.5357
 8281SOL     OW36304   0.439   4.432  10.483  0.2441  0.4458  0.0740
 8281SOL    HW136305   0.514   4.382  10.450 -1.2544 -0.0241 -2.5670
 8281SOL    HW236306   0.405   4.360  10.536 -0.6243  3.1687  3.1966
 8282SOL     OW36307   0.010   3.037  16.611  0.0022 -0.3031 -0.3100
 8282SOL    HW136308   0.008   3.115  16.667  0.7776 -1.2971  1.0827
 8282SOL    HW236309   4.661   3.057  16.549  0.8682  1.9450 -0.5893
 8283SOL     OW36310   2.810   1.568   5.879  0.2734 -0.2178  0.0898
 8283SOL    HW136311   2.840   1.631   5.813 -0.5868 -1.5287 -1.5515
 8283SOL    HW236312   2.720   1.554   5.850  0.3009  0.3617 -0.2825
 8284SOL     OW36313   3.434   0.636   3.382  0.5045  0.0172 -0.2830
 8284SOL    HW136314   3.362   0.655   3.322  0.0666 -4.0170 -1.0401
 8284SOL    HW236315   3.458   0.553   3.342 -2.4901 -0.1558 -1.7622
 8285SOL     OW36316   1.662   2.418   0.917 -0.1052 -0.0330  0.1991
 8285SOL    HW136317   1.597   2.464   0.968 -1.4992 -0.8813 -0.8021
 8285SOL    HW236318   1.631   2.328   0.927 -0.6558 -0.1308 -2.1855
 8286SOL     OW36319   2.686   3.363   0.413  0.1086 -0.1790  0.2719
 8286SOL    HW136320   2.610   3.421   0.405  0.3823  0.0572 -0.5776
 8286SOL    HW236321   2.755   3.423   0.440 -0.3336 -0.6758  2.5253
 8287SOL     OW36322   1.500   0.769  15.231 -0.1182  0.2433 -0.5555
 8287SOL    HW136323   1.541   0.688  15.201  1.8393  0.0580  2.5628
 8287SOL    HW236324   1.488   0.748  15.324 -0.2838 -2.3537 -1.1723
 8288SOL     OW36325   1.767   0.923  15.180 -0.2146  0.5454  0.0417
 8288SOL    HW136326   1.788   0.832  15.197 -2.6658 -0.5137 -2.6815
 8288SOL    HW236327   1.678   0.920  15.215  0.0461  0.6671  0.7347
 8289SOL     OW36328   0.677   0.907   2.327 -0.4731 -0.0961  0.4477
 8289SOL    HW136329   0.760   0.876   2.363  0.0335  2.1286  1.2105
 8289SOL    HW236330   0.704   0.937   2.240 -0.0623 -2.5281 -0.2664
 8290SOL     OW36331   2.802   4.500   1.534  0.0954  0.3803 -0.0242
 8290SOL    HW136332   2.768   4.416   1.504  0.8250  0.0923 -0.0553
 8290SOL    HW236333   2.723   4.554   1.526  0.2030  0.5443  0.0009
 8291SOL     OW36334   3.639   4.014  12.335  0.0775 -0.6415 -0.6113
 8291SOL    HW136335   3.612   3.933  12.378 -1.4375 -0.8682 -1.9920
 8291SOL    HW236336   3.548   4.043  12.326  0.0156 -1.0699 -1.3079
 8292SOL     OW36337   3.829   3.215  10.670 -0.0081  0.4156 -0.1339
 8292SOL    HW136338   3.920   3.214  10.639  0.1166  0.8784  0.2199
 8292SOL    HW236339   3.811   3.308  10.659 -1.2895  0.0353 -1.2521
 8293SOL     OW36340   3.195   0.894   9.593  0.5023 -0.3635 -0.3227
 8293SOL    HW136341   3.220   0.971   9.542  0.0588 -0.0204 -0.0264
 8293SOL    HW236342   3.100   0.905   9.586  0.5204 -1.2093 -1.8675
 8294SOL     OW36343   3.745   1.067  11.634 -0.1946  0.5363  0.1304
 8294SOL    HW136344   3.675   1.128  11.652 -1.9800 -0.6803 -2.5718
 8294SOL    HW236345   3.694   1.017  11.570 -2.3390  1.5678  1.0636
 8295SOL     OW36346   0.576   0.959   5.987  0.3532 -0.0859  0.5596
 8295SOL    HW136347   0.598   0.928   6.075  0.7926 -0.4765  0.3102
 8295SOL    HW236348   0.629   1.036   5.965  1.1564 -0.9200 -0.3806
 8296SOL     OW36349   3.671   4.519   4.823 -0.2102 -0.0881  0.2736
 8296SOL    HW136350   3.711   4.559   4.899 -1.5660 -0.5551  1.2423
 8296SOL    HW236351   3.584   4.558   4.835  0.5112  1.6252 -0.1117
 8297SOL     OW36352   3.605   1.018   1.982 -0.6870  0.2755 -0.1412
 8297SOL    HW136353   3.517   1.016   1.946 -0.1423 -1.7081 -1.3457
 8297SOL    HW236354   3.639   0.946   1.929 -1.7599 -1.7329  1.9058
 8298SOL     OW36355   2.592   3.343   3.328  0.1233 -0.1287  0.6692
 8298SOL    HW136356   2.598   3.255   3.291  0.3211 -0.0499  0.5117
 8298SOL    HW236357   2.659   3.392   3.280 -0.1592  0.9737  1.4084
 8299SOL     OW36358   0.102   2.005   6.146 -0.2151  0.2147  0.6334
 8299SOL    HW136359   0.116   1.930   6.204 -0.3859 -0.4173 -0.1422
 8299SOL    HW236360   0.163   1.979   6.078 -1.5722 -0.1735 -0.4341
 8300SOL     OW36361   2.960   2.426  16.842  0.4202  0.0575  0.0315
 8300SOL    HW136362   2.972   2.336  16.811  1.8746  0.6759 -1.1572
 8300SOL    HW236363   2.992   2.421  16.932 -0.4805 -0.2799  0.3369
 8301SOL     OW36364   2.637   3.136   3.662  0.1387 -0.5057  0.3193
 8301SOL    HW136365   2.608   3.177   3.580 -0.2661  0.9193  1.1560
 8301SOL    HW236366   2.594   3.051   3.661  1.2496 -1.0713  1.3807
 8302SOL     OW36367   1.893   1.047   6.152 -0.1798 -0.6114  0.0772
 8302SOL    HW136368   1.979   1.053   6.109  1.2833  0.5699  3.1464
 8302SOL    HW236369   1.881   0.952   6.159  0.3858 -0.7524 -0.8404
 8303SOL     OW36370   0.049   3.802   2.820 -0.2278 -0.0866 -0.1313
 8303SOL    HW136371   0.099   3.722   2.837 -0.2540  0.1797  1.2153
 8303SOL    HW236372   0.091   3.829   2.738 -0.1041  0.1921  0.0237
 8304SOL     OW36373   4.684   2.629   6.731 -0.6448  0.0033  0.5218
 8304SOL    HW136374   4.693   2.703   6.672 -0.9105  0.0520  0.5395
 8304SOL    HW236375   0.040   2.576   6.716 -0.4419  0.4213  0.1097
 8305SOL     OW36376   4.533   2.963   2.925 -0.8004  0.6352  0.1558
 8305SOL    HW136377   4.604   2.921   2.972 -0.8060  0.0918 -0.3285
 8305SOL    HW236378   4.477   2.890   2.899 -1.9910  1.9286 -0.9468
 8306SOL     OW36379   2.598   4.593   9.811  0.2807 -0.4113 -0.5943
 8306SOL    HW136380   2.542   4.517   9.798  0.7174 -1.1144  1.5399
 8306SOL    HW236381   2.620   4.591   9.904  0.9722  0.6184 -0.7321
 8307SOL     OW36382   4.169   1.055   8.233  0.1506 -0.1088 -0.6965
 8307SOL    HW136383   4.202   1.067   8.322 -0.5214  2.0007 -0.7306
 8307SOL    HW236384   4.245   1.011   8.194  0.6073  1.1929 -1.2848
 8308SOL     OW36385   2.977   3.678   5.203  0.4369 -0.7334 -0.2135
 8308SOL    HW136386   2.980   3.587   5.173 -0.7757 -1.4616  1.8925
 8308SOL    HW236387   3.029   3.682   5.283  1.0903 -1.3209 -0.6076
 8309SOL     OW36388   1.680   3.191   8.032  0.2873  0.0661 -0.1614
 8309SOL    HW136389   1.605   3.169   7.977 -1.2029  2.6872  0.7944
 8309SOL    HW236390   1.715   3.105   8.055 -0.0490 -0.2011 -0.6704
 8310SOL     OW36391   1.234   3.830   6.079  0.0377 -0.2724  0.3856
 8310SOL    HW136392   1.192   3.851   5.996  2.1241 -0.3147 -0.6829
 8310SOL    HW236393   1.283   3.750   6.059 -0.1732 -0.2725 -0.1135
 8311SOL     OW36394   3.779   0.614  17.677 -0.7260  0.3087 -0.4919
 8311SOL    HW136395   3.738   0.527  17.679  2.6562 -1.2231  1.6920
 8311SOL    HW236396   3.717   0.672   0.032 -0.4110 -1.9495  2.8990
 8312SOL     OW36397   1.372   2.199  10.041  0.4363 -0.3873 -0.6257
 8312SOL    HW136398   1.333   2.221   9.957  2.7221  0.9883 -1.3440
 8312SOL    HW236399   1.354   2.105  10.038  1.1030 -0.6074  1.6855
 8313SOL     OW36400   3.093   1.704   5.791  0.1760 -0.0412  0.1784
 8313SOL    HW136401   3.114   1.750   5.872  0.5370  0.4616 -0.1965
 8313SOL    HW236402   3.104   1.773   5.725  0.2084 -0.6351 -0.4431
 8314SOL     OW36403   0.677   1.251  10.328 -0.2601 -0.1929  0.1864
 8314SOL    HW136404   0.625   1.200  10.265 -0.2199 -0.2766  0.2205
 8314SOL    HW236405   0.751   1.286  10.278 -1.0766  1.5202  0.2114
 8315SOL     OW36406   4.100   2.067   8.006  0.5033  0.0713  0.2516
 8315SOL    HW136407   4.067   2.099   7.922 -0.6293 -0.0130  0.6740
 8315SOL    HW236408   4.192   2.051   7.985 -0.3933 -0.8160 -2.9389
 8316SOL     OW36409   1.016   2.530  13.422  0.3455 -0.0623 -0.3768
 8316SOL    HW136410   1.054   2.457  13.471 -0.6841  1.3078  2.4648
 8316SOL    HW236411   1.092   2.588  13.415 -0.0205  0.4440 -0.1858
 8317SOL     OW36412   0.870   3.036  17.054  0.2408 -0.2803  0.1363
 8317SOL    HW136413   0.909   3.002  17.134  3.2412 -0.6303 -1.4860
 8317SOL    HW236414   0.944   3.063  17.000  2.3238 -2.7846  1.7560
 8318SOL     OW36415   3.360   2.252  12.119 -0.7031  0.1174  0.0730
 8318SOL    HW136416   3.379   2.258  12.025  0.8277  2.1720  0.5087
 8318SOL    HW236417   3.416   2.324  12.149 -0.0162 -1.2113  1.9709
 8319SOL     OW36418   4.716   0.808   4.466 -0.3363 -0.2022  0.2647
 8319SOL    HW136419   4.649   0.866   4.429  1.0847  1.1001 -0.2750
 8319SOL    HW236420   0.036   0.862   4.532  0.5047 -1.5141  0.8000
 8320SOL     OW36421   3.321   1.255  11.888 -0.0655 -0.7739  0.3355
 8320SOL    HW136422   3.316   1.267  11.983 -0.2906  1.9475 -0.0281
 8320SOL    HW236423   3.331   1.345  11.859 -1.8199 -0.4618  0.6903
 8321SOL     OW36424   3.910   2.418  14.555 -0.1966 -0.0371  0.0011
 8321SOL    HW136425   3.880   2.328  14.540  0.1285 -0.5948  2.8118
 8321SOL    HW236426   3.868   2.432  14.640  1.2845 -0.9788  0.8760
 8322SOL     OW36427   3.967   1.570   4.344  0.1913  0.3351  0.7460
 8322SOL    HW136428   3.924   1.484   4.344  0.8841 -0.0070  2.1604
 8322SOL    HW236429   3.898   1.618   4.297  0.6331  0.4322  0.2029
 8323SOL     OW36430   3.742   2.650  14.224 -0.6726 -0.1042  0.1634
 8323SOL    HW136431   3.703   2.712  14.285 -0.6341  1.5213 -1.4618
 8323SOL    HW236432   3.789   2.705  14.162  0.7013  1.4347  2.5802
 8324SOL     OW36433   3.245   2.291   6.586 -0.3608 -0.1041  0.1534
 8324SOL    HW136434   3.155   2.260   6.575 -0.8328  1.4203 -0.3129
 8324SOL    HW236435   3.285   2.236   6.653 -2.4782 -1.5599  0.2145
 8325SOL     OW36436   1.978   2.871   2.339  0.1342 -0.1464 -0.3769
 8325SOL    HW136437   2.055   2.820   2.363  0.0963 -0.3369 -0.6583
 8325SOL    HW236438   1.989   2.885   2.245  0.1540 -2.9610 -0.7860
 8326SOL     OW36439   3.132   2.748   6.326 -0.0029 -0.0693  0.0317
 8326SOL    HW136440   3.058   2.752   6.386 -0.5350  0.2319 -0.6409
 8326SOL    HW236441   3.206   2.787   6.371 -0.1006 -1.7237  1.6573
 8327SOL     OW36442   0.838   3.338   8.119  0.0514  0.6119 -0.2496
 8327SOL    HW136443   0.859   3.429   8.141  0.4657 -0.4539  3.7027
 8327SOL    HW236444   0.860   3.291   8.199 -0.9897 -0.7102 -0.7402
 8328SOL     OW36445   2.296   2.737   8.118 -0.1797 -0.0265 -0.6744
 8328SOL    HW136446   2.286   2.797   8.043 -2.6939  1.2099  0.6443
 8328SOL    HW236447   2.390   2.724   8.130 -0.3494  2.1418  3.1386
 8329SOL     OW36448   0.134   0.142   3.605 -0.8722 -0.2748 -0.0549
 8329SOL    HW136449   0.155   0.066   3.551 -2.1740 -0.3563 -0.4354
 8329SOL    HW236450   0.217   0.190   3.609  0.6105 -3.0148  2.1684
 8330SOL     OW36451   0.458   4.633   6.705  0.1829  0.5063 -0.1620
 8330SOL    HW136452   0.378   4.594   6.739  1.2433  0.2832  2.0926
 8330SOL    HW236453   0.509   4.552   6.711  1.6377  1.3589 -1.2364
 8331SOL     OW36454   1.264   4.620   1.291  0.2433  0.3247 -0.1183
 8331SOL    HW136455   1.339   4.624   1.351  1.6683 -1.1919 -1.7852
 8331SOL    HW236456   1.299   4.646   1.206 -0.9104  1.2636 -0.2956
 8332SOL     OW36457   2.108   2.258   4.906 -0.1181  0.4371 -0.5204
 8332SOL    HW136458   2.082   2.183   4.852 -1.6414  0.5146  0.1138
 8332SOL    HW236459   2.154   2.311   4.842 -1.2944  1.0047 -0.9031
 8333SOL     OW36460   3.199   2.169   4.658  0.3398  0.3492  0.0603
 8333SOL    HW136461   3.232   2.154   4.746  2.4911  4.0646 -0.1382
 8333SOL    HW236462   3.119   2.220   4.673 -0.4490 -0.4386 -1.5392
 8334SOL     OW36463   2.180   1.948   7.082  0.2559 -0.2134 -0.2699
 8334SOL    HW136464   2.088   1.972   7.084  0.3269  0.1119 -1.0466
 8334SOL    HW236465   2.215   1.996   7.008 -0.6698  1.5550  0.4515
 8335SOL     OW36466   4.162   3.880   0.006  0.3195 -0.4870 -0.1521
 8335SOL    HW136467   4.106   3.871  17.618 -0.6416 -0.6938  0.5610
 8335SOL    HW236468   4.103   3.928   0.064  1.5812  0.0150  0.7160
 8336SOL     OW36469   3.324   1.552   1.684  0.2548 -0.0971  0.0100
 8336SOL    HW136470   3.319   1.531   1.591 -4.6052 -2.4850  0.7691
 8336SOL    HW236471   3.297   1.643   1.698  1.7036  0.1567  1.0557
 8337SOL     OW36472   2.285   2.962   9.923  0.1491 -0.2890  0.2766
 8337SOL    HW136473   2.348   2.894   9.945 -0.8234 -0.9087  1.1164
 8337SOL    HW236474   2.345   3.004   9.861 -1.7203  0.6506 -0.8964
 8338SOL     OW36475   1.752   2.143   7.588 -0.3461  0.1885  0.0714
 8338SOL    HW136476   1.826   2.087   7.607  0.5783  1.3188 -0.2068
 8338SOL    HW236477   1.690   2.098   7.647 -0.2185  0.0206  0.0770
 8339SOL     OW36478   4.139   3.336   5.640 -0.3346  0.2795  0.2044
 8339SOL    HW136479   4.077   3.299   5.577 -1.1956 -2.2920  2.5422
 8339SOL    HW236480   4.164   3.257   5.689  2.1672  0.6323 -0.5076
 8340SOL     OW36481   3.714   1.385   7.100  0.1844 -0.6620 -0.0341
 8340SOL    HW136482   3.650   1.331   7.054 -2.0614 -0.4109  2.8260
 8340SOL    HW236483   3.797   1.344   7.078 -0.9077 -1.0837 -3.4219
 8341SOL     OW36484   3.019   0.945   4.718  0.2876  0.3899  0.2249
 8341SOL    HW136485   3.055   0.947   4.629  0.9606  1.2891  0.5202
 8341SOL    HW236486   3.092   0.909   4.769  2.4729  3.6322 -0.6288
 8342SOL     OW36487   4.560   3.575  11.041  0.6035 -0.1838  0.5470
 8342SOL    HW136488   4.583   3.482  11.048  1.1135 -0.1356 -0.4055
 8342SOL    HW236489   4.611   3.615  10.971 -1.2479  1.3137  0.0255
 8343SOL     OW36490   0.186   0.783   6.352  0.1123 -0.6784 -0.3947
 8343SOL    HW136491   0.204   0.785   6.258  0.6705 -0.8081 -0.2923
 8343SOL    HW236492   0.268   0.811   6.391  0.1430 -1.2595 -0.0357
 8344SOL     OW36493   2.109   2.686  12.883  0.4008 -0.0410 -0.6299
 8344SOL    HW136494   2.122   2.648  12.796 -1.4167 -3.1629  0.4475
 8344SOL    HW236495   2.195   2.676  12.924 -1.4374  1.7702  3.6768
 8345SOL     OW36496   0.675   3.773   2.819  0.5548  0.3253 -0.2752
 8345SOL    HW136497   0.770   3.769   2.806  0.5327  0.0073 -0.3224
 8345SOL    HW236498   0.650   3.683   2.836  0.5376  0.6725  1.5713
 8346SOL     OW36499   1.890   1.548   6.376  0.2349  0.3071  0.4548
 8346SOL    HW136500   1.801   1.527   6.351 -0.5607  1.3884  2.3231
 8346SOL    HW236501   1.911   1.480   6.441 -2.9847 -0.0233  1.1369
 8347SOL     OW36502   2.428   2.128   8.158  0.7133  0.5032 -0.0287
 8347SOL    HW136503   2.392   2.095   8.076 -0.9767 -3.2267  2.1911
 8347SOL    HW236504   2.347   2.115   8.208  1.0821 -0.4753  0.3177
 8348SOL     OW36505   4.097   1.778   7.535 -0.3534 -0.2080  0.1512
 8348SOL    HW136506   4.073   1.807   7.623  2.9038  1.4836  0.4832
 8348SOL    HW236507   4.057   1.692   7.529 -1.5928  0.3597  0.3324
 8349SOL     OW36508   3.321   4.231   8.900  0.0197 -0.2083 -0.2462
 8349SOL    HW136509   3.306   4.217   8.806 -0.1886  2.1219 -0.5731
 8349SOL    HW236510   3.415   4.248   8.898  0.0110 -0.1449 -0.1488
 8350SOL     OW36511   1.733   0.163   1.343  0.2671  0.6712  0.1511
 8350SOL    HW136512   1.670   0.221   1.385  1.7994  1.9246  0.7386
 8350SOL    HW236513   1.752   0.112   1.422  0.0936  0.3844  0.0071
 8351SOL     OW36514   0.480   4.682   0.890 -0.2059  0.4483  0.1290
 8351SOL    HW136515   0.529   0.026   0.940  0.8391 -0.9493  0.9761
 8351SOL    HW236516   0.392   4.703   0.919 -0.2702  0.3720 -0.0120
 8352SOL     OW36517   0.885   3.465   7.842  0.2248  0.0681 -0.5066
 8352SOL    HW136518   0.890   3.413   7.922 -0.7064  1.5147  0.4935
 8352SOL    HW236519   0.799   3.427   7.824  0.8775 -1.5584 -0.2246
 8353SOL     OW36520   4.420   3.486   5.161 -0.1825 -0.1798 -0.0269
 8353SOL    HW136521   4.456   3.553   5.220  1.5087 -0.4406 -0.7686
 8353SOL    HW236522   4.403   3.535   5.081  0.4465 -0.9900 -0.6487
 8354SOL     OW36523   0.548   1.791   7.140 -0.0216 -0.5358  0.6574
 8354SOL    HW136524   0.612   1.748   7.197  2.2407 -0.2192 -1.6367
 8354SOL    HW236525   0.576   1.882   7.148 -1.3667 -0.0116 -0.7397
 8355SOL     OW36526   4.642   1.390   5.563  0.6035 -0.2588 -0.0127
 8355SOL    HW136527   4.618   1.474   5.524 -0.9616 -1.0153 -0.6759
 8355SOL    HW236528   0.010   1.410   5.590  0.7033  0.2124 -0.6791
 8356SOL     OW36529   0.625   1.274  15.537 -0.0364  1.1224  0.5109
 8356SOL    HW136530   0.557   1.223  15.495  1.3688 -1.3900  1.2799
 8356SOL    HW236531   0.698   1.269  15.475 -1.6287  2.9387 -1.5234
 8357SOL     OW36532   0.120   4.395   9.156  0.0880 -0.0969 -0.2295
 8357SOL    HW136533   0.156   4.477   9.191 -1.2793  0.2102  0.4683
 8357SOL    HW236534   0.073   4.367   9.235 -0.4386  0.1366 -0.4676
 8358SOL     OW36535   3.152   1.571   6.157  0.1740  0.1620 -0.7494
 8358SOL    HW136536   3.175   1.630   6.229 -0.8454  0.1579 -0.4307
 8358SOL    HW236537   3.228   1.588   6.101  0.4238 -0.4787 -0.6135
 8359SOL     OW36538   3.427   1.942   5.419  0.2024 -0.3533  0.4106
 8359SOL    HW136539   3.509   1.945   5.370 -0.7332  0.6368 -1.0826
 8359SOL    HW236540   3.440   2.017   5.476  0.4790 -0.6917  0.7931
 8360SOL     OW36541   1.579   3.518   6.355 -0.1120 -0.5423 -0.2362
 8360SOL    HW136542   1.625   3.512   6.438  0.4621  0.5832 -0.4738
 8360SOL    HW236543   1.631   3.589   6.318 -2.2471  0.8495 -0.5476
 8361SOL     OW36544   1.288   2.837   1.771 -0.3152  0.2896  0.0971
 8361SOL    HW136545   1.217   2.879   1.721 -0.9189 -0.6648  0.1465
 8361SOL    HW236546   1.243   2.781   1.834 -0.0441 -0.2256 -0.1680
 8362SOL     OW36547   0.299   1.258   8.416  0.3163  0.5899  0.5431
 8362SOL    HW136548   0.336   1.331   8.466 -0.3254  1.2819  0.0115
 8362SOL    HW236549   0.207   1.258   8.444  0.3381 -1.3307  0.6247
 8363SOL     OW36550   2.162   3.933   7.470 -0.1317  0.0665  0.5344
 8363SOL    HW136551   2.101   3.983   7.524 -1.2740  1.7064 -2.2561
 8363SOL    HW236552   2.099   3.866   7.446  0.2738 -0.0956 -0.0793
 8364SOL     OW36553   1.370   1.017   4.694  0.4538 -0.2731 -0.5705
 8364SOL    HW136554   1.344   1.051   4.779  1.5815  2.2300 -1.2318
 8364SOL    HW236555   1.334   1.076   4.628 -0.9466 -1.5107 -0.9303
 8365SOL     OW36556   3.744   0.824   7.066 -0.1696  0.0485  0.2163
 8365SOL    HW136557   3.787   0.891   7.013 -0.0501  0.7645  1.2255
 8365SOL    HW236558   3.741   0.853   7.158 -0.9392 -2.3517  0.9481
 8366SOL     OW36559   1.369   2.308   0.568  0.0419  0.0064 -0.4986
 8366SOL    HW136560   1.330   2.318   0.655  2.0739  0.2345  0.3939
 8366SOL    HW236561   1.337   2.225   0.535 -0.5153  0.5594 -1.3388
 8367SOL     OW36562   0.627   4.039   2.494 -0.3960 -0.0892  0.3585
 8367SOL    HW136563   0.604   4.043   2.401 -1.8300  1.0683  0.7524
 8367SOL    HW236564   0.564   3.969   2.514  0.2125 -1.5047 -2.7423
 8368SOL     OW36565   1.103   3.576   2.976 -0.2796 -0.5993 -0.2450
 8368SOL    HW136566   1.168   3.644   2.960  1.5425 -1.8344  1.7768
 8368SOL    HW236567   1.026   3.594   2.922  1.3451  1.7560 -1.7648
 8369SOL     OW36568   1.099   1.815   9.569  0.2012  0.5351 -0.7274
 8369SOL    HW136569   1.031   1.786   9.507  1.4262 -0.6734 -1.5094
 8369SOL    HW236570   1.064   1.899   9.600  2.6514  0.3409  2.5582
 8370SOL     OW36571   1.258   0.886  15.209 -0.3476 -0.3935  0.1417
 8370SOL    HW136572   1.346   0.862  15.238  0.3402  1.9837  0.0354
 8370SOL    HW236573   1.254   0.979  15.186  1.3323 -0.0256  1.3663
 8371SOL     OW36574   0.678   4.321   1.763  0.1287 -0.2140  0.6128
 8371SOL    HW136575   0.730   4.301   1.686  0.0882 -1.2669  0.8575
 8371SOL    HW236576   0.729   4.276   1.830  1.1700  0.9656  0.6131
 8372SOL     OW36577   4.068   3.719  13.206 -0.0178  0.3949  0.3055
 8372SOL    HW136578   4.070   3.641  13.150 -0.0362  1.1345 -0.7219
 8372SOL    HW236579   4.151   3.760  13.186 -1.3446  2.0773 -1.7626
 8373SOL     OW36580   0.069   1.250  17.519  0.4407  0.0078  0.1145
 8373SOL    HW136581   0.067   1.242  17.614 -1.2832  0.6469  0.1306
 8373SOL    HW236582   0.106   1.338  17.504 -1.5656  0.2188 -3.8078
 8374SOL     OW36583   0.305   2.648   8.219 -0.5170  0.4093  0.3553
 8374SOL    HW136584   0.363   2.674   8.291  0.6941 -1.4985  0.0526
 8374SOL    HW236585   0.361   2.610   8.151 -1.5691 -1.6549  0.6522
 8375SOL     OW36586   4.245   1.891   6.354  0.0827 -0.3182  0.1052
 8375SOL    HW136587   4.264   1.904   6.446 -0.0792  0.1064  0.0833
 8375SOL    HW236588   4.270   1.799   6.346  1.1871 -0.2494  2.8129
 8376SOL     OW36589   3.698   1.745   9.255  0.3291  0.1494  0.6129
 8376SOL    HW136590   3.603   1.735   9.248  0.2929  0.5065  0.6241
 8376SOL    HW236591   3.722   1.756   9.163  0.3098  0.5304  0.6558
 8377SOL     OW36592   3.283   3.717   7.610  0.0134 -0.1954  0.3947
 8377SOL    HW136593   3.245   3.768   7.539 -1.6549 -0.2642  1.2433
 8377SOL    HW236594   3.351   3.776   7.644 -0.6440 -0.3727  2.0223
 8378SOL     OW36595   3.055   0.140   4.606 -0.0019  0.2008  0.2166
 8378SOL    HW136596   3.097   0.226   4.607  1.6158 -0.6049  1.3060
 8378SOL    HW236597   3.128   0.079   4.618  0.0427  0.4498  1.2510
 8379SOL     OW36598   4.422   0.389   5.501  0.2985  0.4955  0.2853
 8379SOL    HW136599   4.431   0.411   5.408  2.0703  0.4472  0.4433
 8379SOL    HW236600   4.487   0.445   5.543 -0.6723  0.4266  1.8749
 8380SOL     OW36601   1.486   3.805   8.402  0.0928 -0.3626 -0.4565
 8380SOL    HW136602   1.412   3.752   8.430 -0.7574  1.8724  1.4785
 8380SOL    HW236603   1.561   3.771   8.451  0.4817 -0.6710 -1.2514
 8381SOL     OW36604   4.268   3.567  12.605 -0.1816  0.1923 -0.1640
 8381SOL    HW136605   4.270   3.614  12.689  1.3924  0.4628 -0.3566
 8381SOL    HW236606   4.358   3.536  12.604 -0.1304  0.2751  1.5251
 8382SOL     OW36607   1.122   1.984  14.257  0.3055  0.0340  0.3174
 8382SOL    HW136608   1.132   1.903  14.306  3.0098  0.1655 -0.0440
 8382SOL    HW236609   1.122   2.042  14.333 -2.1425  0.5104 -0.0518
 8383SOL     OW36610   1.193   1.882   0.640 -0.0796  0.0526  0.3411
 8383SOL    HW136611   1.231   1.878   0.728  1.9204 -1.8046 -0.6122
 8383SOL    HW236612   1.191   1.792   0.608  1.5071 -0.2591  1.1273
 8384SOL     OW36613   2.583   0.088  15.544  0.6660  0.8963  0.1905
 8384SOL    HW136614   2.488   0.090  15.544  0.6432 -0.0132 -0.6105
 8384SOL    HW236615   2.607   0.055  15.457 -1.9379  1.3444 -0.6703
 8385SOL     OW36616   0.018   1.623   6.956 -0.4710 -0.3988  0.1988
 8385SOL    HW136617   0.050   1.544   7.000 -0.1334 -1.0674 -1.2224
 8385SOL    HW236618   4.651   1.594   6.932 -0.2586 -1.0562  0.2019
 8386SOL     OW36619   2.409   3.246   7.621  0.0557  0.4281 -0.1501
 8386SOL    HW136620   2.350   3.224   7.693  1.4660 -2.9712 -0.0366
 8386SOL    HW236621   2.372   3.206   7.542  1.0363 -1.7575  0.5221
 8387SOL     OW36622   1.152   3.160   4.272  0.0129 -0.3698  0.4389
 8387SOL    HW136623   1.119   3.160   4.183  1.2177 -0.5913 -0.0130
 8387SOL    HW236624   1.071   3.191   4.312 -0.0386 -0.7956  0.6666
 8388SOL     OW36625   4.112   1.255   8.575  0.1986  0.2124 -0.2709
 8388SOL    HW136626   4.030   1.254   8.526  0.0400  0.2441 -0.0101
 8388SOL    HW236627   4.179   1.206   8.527  0.2302 -0.0927  0.0780
 8389SOL     OW36628   2.429   4.364  13.225 -0.3456  0.6053  0.1579
 8389SOL    HW136629   2.455   4.359  13.133  0.4743  2.2527  0.3072
 8389SOL    HW236630   2.454   4.452  13.252 -0.9813 -0.0078  2.7514
 8390SOL     OW36631   2.111   2.512   8.101  0.1059  0.1807  0.3751
 8390SOL    HW136632   2.174   2.584   8.108  2.1328 -1.6748  1.2925
 8390SOL    HW236633   2.127   2.468   8.185  0.1976 -1.7465 -0.6505
 8391SOL     OW36634   3.802   2.718   4.379 -0.2690  0.0814 -0.4572
 8391SOL    HW136635   3.795   2.812   4.358  2.4725  0.5821  0.8618
 8391SOL    HW236636   3.845   2.688   4.299 -0.7007  0.0501 -0.6754
 8392SOL     OW36637   2.046   1.532  16.994  0.8844 -0.1657 -0.0165
 8392SOL    HW136638   2.002   1.616  17.007 -0.8781 -0.9944 -0.6079
 8392SOL    HW236639   2.138   1.558  16.993  0.4943  1.2545  2.4669
 8393SOL     OW36640   4.618   3.156   0.012  0.1042  0.4948  0.3210
 8393SOL    HW136641   4.529   3.155   0.047 -0.0928  0.2786 -0.1852
 8393SOL    HW236642   4.606   3.133  17.609  1.8036 -0.9362  0.4495
 8394SOL     OW36643   1.986   3.050  13.965  0.6386 -0.0183  0.2322
 8394SOL    HW136644   1.997   3.034  13.871 -0.0700 -0.2475  0.1894
 8394SOL    HW236645   2.068   3.098  13.977  0.1937  0.7587  0.1925
 8395SOL     OW36646   1.557   4.124   2.437 -0.1106 -0.2427 -0.4946
 8395SOL    HW136647   1.646   4.125   2.473 -0.4900 -0.6255  0.4693
 8395SOL    HW236648   1.576   4.181   2.363  0.5831  1.2923  0.8567
 8396SOL     OW36649   2.474   2.232   8.832 -0.5882  0.1378  0.2745
 8396SOL    HW136650   2.394   2.279   8.812  0.0513  0.7639 -0.7986
 8396SOL    HW236651   2.518   2.284   8.900 -2.0241  0.9313  0.5887
 8397SOL     OW36652   3.041   3.275   2.658  0.2650 -0.3405 -0.2780
 8397SOL    HW136653   3.043   3.233   2.572 -1.6524 -0.4253 -0.2938
 8397SOL    HW236654   2.947   3.287   2.671  0.1430 -1.5831  0.0401
 8398SOL     OW36655   0.121   3.917   3.722 -0.3302 -0.5989 -0.2105
 8398SOL    HW136656   0.065   3.865   3.665 -0.6454 -0.4398 -0.0434
 8398SOL    HW236657   0.187   3.939   3.656 -2.3626  1.7166 -1.4731
 8399SOL     OW36658   0.589   2.323   3.910 -0.0902 -0.3439  0.6323
 8399SOL    HW136659   0.541   2.330   3.828  3.2767 -1.6799 -1.4444
 8399SOL    HW236660   0.681   2.317   3.883  0.0385 -0.2115  1.0440
 8400SOL     OW36661   2.060   4.012   8.071 -0.8499 -0.0718  0.4212
 8400SOL    HW136662   2.118   4.087   8.063 -1.5726  0.7226  2.7350
 8400SOL    HW236663   1.973   4.045   8.046 -1.0169 -1.1799 -0.5194
 8401SOL     OW36664   3.525   2.302  16.675 -0.2199 -0.5511 -0.1942
 8401SOL    HW136665   3.562   2.257  16.751  0.2896  1.2019  0.5851
 8401SOL    HW236666   3.582   2.376  16.656  0.7691 -0.4843  3.0029
 8402SOL     OW36667   3.992   1.076   4.069 -0.7756 -0.3550 -0.2076
 8402SOL    HW136668   3.952   0.995   4.103  0.5568 -0.2709  1.5646
 8402SOL    HW236669   4.079   1.080   4.108  0.0497  0.1021 -2.1104
 8403SOL     OW36670   3.410   0.615   6.994 -0.6062 -0.5766 -0.6986
 8403SOL    HW136671   3.321   0.581   6.995 -0.8902  0.1680 -1.4158
 8403SOL    HW236672   3.428   0.613   7.088 -0.5094 -1.3997 -0.7289
 8404SOL     OW36673   1.548   2.838  13.037 -0.0465 -0.5283  0.5837
 8404SOL    HW136674   1.499   2.857  13.117  2.6000  0.1076  2.0564
 8404SOL    HW236675   1.616   2.794  13.087  1.2375  0.2096 -0.5167
 8405SOL     OW36676   2.928   3.840  11.468 -0.2416 -0.5558 -0.1927
 8405SOL    HW136677   2.869   3.859  11.396  0.0993 -2.2503 -0.9282
 8405SOL    HW236678   2.865   3.846  11.540  0.2858 -1.3235  0.3344
 8406SOL     OW36679   3.323   1.667   8.305  0.2437  0.4956  0.0604
 8406SOL    HW136680   3.308   1.755   8.339 -0.9400 -0.3717  1.7597
 8406SOL    HW236681   3.247   1.618   8.336  1.0971  0.6622  2.3722
 8407SOL     OW36682   3.964   0.998   4.742  0.5820 -0.1909  0.1719
 8407SOL    HW136683   4.043   1.007   4.795  1.3773 -1.5435 -0.7819
 8407SOL    HW236684   3.999   0.962   4.661  0.4577 -1.2727  0.5964
 8408SOL     OW36685   0.342   4.027   4.105  0.4688 -0.4329  0.4434
 8408SOL    HW136686   0.371   3.987   4.187  0.0167 -0.4754  0.5827
 8408SOL    HW236687   0.267   3.968   4.093  0.3069  0.1709 -1.4960
 8409SOL     OW36688   3.051   3.414   5.110 -0.1739  0.1651  0.4940
 8409SOL    HW136689   3.138   3.453   5.117 -0.3950  0.8375 -0.5004
 8409SOL    HW236690   3.043   3.387   5.019 -0.6785  1.5265  0.1235
 8410SOL     OW36691   0.513   0.830   7.343  0.2468 -0.1136 -0.2666
 8410SOL    HW136692   0.518   0.777   7.422 -1.4693 -1.1094 -0.8216
 8410SOL    HW236693   0.449   0.900   7.357 -0.1749 -0.9527  2.0337
 8411SOL     OW36694   1.046   0.474  10.316  0.6208 -0.2341  0.2641
 8411SOL    HW136695   0.972   0.492  10.257 -0.7921 -0.6513  1.8915
 8411SOL    HW236696   1.105   0.424  10.259  0.3028 -0.0659 -0.2137
 8412SOL     OW36697   2.349   4.481   4.758  0.2868 -0.8163 -0.2506
 8412SOL    HW136698   2.419   4.510   4.816  0.2029  0.3988 -0.7535
 8412SOL    HW236699   2.292   4.558   4.761  1.0450 -0.3290  1.5187
 8413SOL     OW36700   2.412   3.306   2.603  0.6651 -0.0554 -0.8633
 8413SOL    HW136701   2.416   3.360   2.525 -1.7807  0.3518 -0.7187
 8413SOL    HW236702   2.348   3.245   2.565 -0.0638 -1.0998  2.0171
 8414SOL     OW36703   2.885   4.310   9.805  0.0565 -0.1304 -0.1516
 8414SOL    HW136704   2.979   4.310   9.821 -0.2642  1.8546  1.7786
 8414SOL    HW236705   2.874   4.389   9.752  2.7299 -0.8416 -1.7730
 8415SOL     OW36706   0.493   2.411  16.492 -0.5546 -0.5163  0.4750
 8415SOL    HW136707   0.544   2.336  16.463 -0.0034 -0.2438  0.7507
 8415SOL    HW236708   0.447   2.433  16.411 -0.7051  0.4801  0.8320
 8416SOL     OW36709   0.612   3.367  17.588  0.2545  0.1492  0.1626
 8416SOL    HW136710   0.551   3.429  17.548  2.0585  0.3769 -2.2487
 8416SOL    HW236711   0.546   3.307  17.624  0.9331  0.8774  2.6249
 8417SOL     OW36712   3.398   4.646   2.076 -0.0013 -0.0064 -0.3835
 8417SOL    HW136713   3.327   4.665   2.137  0.0467 -1.5986  0.1683
 8417SOL    HW236714   3.355   4.648   1.990 -0.5734 -0.8699 -0.1196
 8418SOL     OW36715   2.177   1.274   2.646  0.2133  0.6661 -0.1154
 8418SOL    HW136716   2.108   1.255   2.583  1.5600  0.5406 -1.5513
 8418SOL    HW236717   2.258   1.234   2.614  0.4172  0.7098  0.3438
 8419SOL     OW36718   3.403   0.265   3.604  0.1137 -0.7007  0.2534
 8419SOL    HW136719   3.395   0.207   3.680  1.7779  0.7310  1.5444
 8419SOL    HW236720   3.418   0.345   3.654 -2.6480 -0.5066  0.7817
 8420SOL     OW36721   0.987   0.301   6.800 -0.1764 -0.3397 -0.1719
 8420SOL    HW136722   1.005   0.215   6.839  0.1231  0.5858  1.6812
 8420SOL    HW236723   1.061   0.303   6.739 -0.7401 -3.2919 -0.9815
 8421SOL     OW36724   0.003   0.436   2.742  0.3007 -0.3447 -0.2910
 8421SOL    HW136725   4.705   0.384   2.821  0.9803 -0.0712  0.0534
 8421SOL    HW236726   4.642   0.439   2.694 -0.0320  1.5158  0.4277
 8422SOL     OW36727   3.626   0.703   8.879  0.0280 -0.3366 -0.1932
 8422SOL    HW136728   3.549   0.727   8.827 -1.0142 -1.0717  1.0268
 8422SOL    HW236729   3.628   0.612   8.850 -1.3195 -0.3389 -0.2932
 8423SOL     OW36730   0.943   2.642   8.991 -0.0096 -0.9038  0.4354
 8423SOL    HW136731   0.960   2.725   8.947 -0.8260 -1.2466 -0.5378
 8423SOL    HW236732   0.927   2.671   9.081  0.2292  1.3001 -0.2385
 8424SOL     OW36733   0.344   4.335   8.450  0.5546 -0.0432  0.2439
 8424SOL    HW136734   0.296   4.253   8.437  1.0303  0.0538 -2.0840
 8424SOL    HW236735   0.404   4.337   8.375 -0.9108  1.2287 -0.9032
 8425SOL     OW36736   0.839   2.386   2.976 -0.2223 -0.0267 -0.2802
 8425SOL    HW136737   0.918   2.382   2.922  1.6550  0.6240  2.3633
 8425SOL    HW236738   0.885   2.360   3.057 -2.0070  1.3861  1.1908
 8426SOL     OW36739   1.621   2.856  14.945 -0.2291  0.2289 -0.0764
 8426SOL    HW136740   1.627   2.761  14.960  0.8707  0.6548  2.1402
 8426SOL    HW236741   1.710   2.878  14.917 -0.2298 -1.1889 -1.2656
 8427SOL     OW36742   0.669   2.588   7.890 -0.1784 -0.1765  0.7183
 8427SOL    HW136743   0.654   2.565   7.798 -0.8796  0.2424  0.7309
 8427SOL    HW236744   0.755   2.629   7.893  0.8197 -2.0137 -2.5913
 8428SOL     OW36745   1.242   2.075   0.444 -0.1505 -0.1817 -0.1376
 8428SOL    HW136746   1.275   2.025   0.369 -0.9567 -1.4233  0.3347
 8428SOL    HW236747   1.215   2.009   0.508 -1.4264 -0.0965 -0.5840
 8429SOL     OW36748   2.780   3.968   6.829 -1.2072 -0.2347 -0.5307
 8429SOL    HW136749   2.725   3.901   6.869 -1.4738  0.4847  0.2981
 8429SOL    HW236750   2.862   3.920   6.842  0.2096  1.9612 -1.4254
 8430SOL     OW36751   3.382   4.133  13.813  0.4964  0.9237 -0.1047
 8430SOL    HW136752   3.437   4.101  13.741  0.0552  2.3962 -1.0921
 8430SOL    HW236753   3.296   4.098  13.790  0.4998 -0.5487  2.1727
 8431SOL     OW36754   1.358   2.571   8.515 -0.0349  0.2029 -0.5591
 8431SOL    HW136755   1.453   2.586   8.520  0.2223 -0.7879 -2.4005
 8431SOL    HW236756   1.345   2.554   8.608  1.4104  1.2062 -0.1661
 8432SOL     OW36757   1.480   4.488   3.222  0.2744  0.2259 -0.2163
 8432SOL    HW136758   1.403   4.452   3.265 -1.0455  3.8157  0.4258
 8432SOL    HW236759   1.547   4.503   3.290  0.7149 -0.4212 -0.5083
 8433SOL     OW36760   1.720   4.485   3.733 -0.4107 -0.0103 -0.1894
 8433SOL    HW136761   1.699   4.444   3.649  0.3186 -0.1655 -0.2936
 8433SOL    HW236762   1.740   4.570   3.695  2.0088 -0.3258  0.3742
 8434SOL     OW36763   4.002   4.596   7.212 -0.3649 -0.3903 -0.4432
 8434SOL    HW136764   4.071   4.644   7.167 -0.1617  0.0643  0.3531
 8434SOL    HW236765   3.985   4.660   7.282  1.8999  0.0270 -0.2966
 8435SOL     OW36766   2.021   0.124   0.207 -0.4466  0.1420  0.3815
 8435SOL    HW136767   2.092   0.168   0.254 -0.0584 -1.1945  1.0639
 8435SOL    HW236768   1.994   0.059   0.272 -0.0167  0.4295  0.8514
 8436SOL     OW36769   3.546   0.009   7.670  0.2551  0.3917 -0.0870
 8436SOL    HW136770   3.556   4.643   7.633 -0.6059  0.5684 -0.7263
 8436SOL    HW236771   3.608   0.055   7.614  0.1219  0.8978  0.1868
 8437SOL     OW36772   1.810   0.389   4.426  0.0288 -0.2278  0.0493
 8437SOL    HW136773   1.855   0.403   4.343  0.2867 -3.2965 -0.3236
 8437SOL    HW236774   1.851   0.458   4.478  1.2379 -1.5982  0.9355
 8438SOL     OW36775   4.442   4.167  10.424 -0.4928 -0.6297 -0.4382
 8438SOL    HW136776   4.439   4.262  10.419  0.6958 -0.6359 -1.1916
 8438SOL    HW236777   4.526   4.146  10.464 -0.9825 -0.6578  0.5825
 8439SOL     OW36778   1.414   1.985   8.284 -0.3613  0.1987 -0.4587
 8439SOL    HW136779   1.374   2.071   8.274 -0.0345  0.5450  1.2101
 8439SOL    HW236780   1.339   1.935   8.317  0.5836 -1.1993 -0.4065
 8440SOL     OW36781   2.637   3.920  15.873 -0.3804 -0.0838  0.3369
 8440SOL    HW136782   2.665   3.867  15.948 -1.3658  0.5804  1.1777
 8440SOL    HW236783   2.615   4.003  15.915 -0.7818 -0.5471  1.0402
 8441SOL     OW36784   0.893   4.251   7.847 -0.2004  0.2357 -0.1264
 8441SOL    HW136785   0.901   4.261   7.752 -1.5212 -2.5159 -0.5151
 8441SOL    HW236786   0.959   4.307   7.888 -2.0252  0.9915  1.8149
 8442SOL     OW36787   0.515   0.925   9.838  0.4797  0.4895 -0.2752
 8442SOL    HW136788   0.575   0.923   9.764  0.6195 -0.5664 -0.1334
 8442SOL    HW236789   0.581   0.937   9.907 -1.6105 -0.7158  1.9458
 8443SOL     OW36790   1.391   0.230  16.417  0.1448 -0.1025 -0.2726
 8443SOL    HW136791   1.468   0.282  16.396  0.5011 -1.3906 -2.0829
 8443SOL    HW236792   1.313   0.284  16.406  1.7071  2.0779 -0.5677
 8444SOL     OW36793   3.406   2.146   6.833  0.1465  0.3746 -0.5402
 8444SOL    HW136794   3.434   2.202   6.906  0.0765 -1.4336  0.8855
 8444SOL    HW236795   3.350   2.083   6.879 -0.5140  1.8856  0.7085
 8445SOL     OW36796   3.576   0.960  11.055  0.5916  0.7425  0.1671
 8445SOL    HW136797   3.611   0.873  11.073  1.7922  0.8097 -1.9258
 8445SOL    HW236798   3.596   0.977  10.963  0.1921 -0.1117 -0.0796
 8446SOL     OW36799   3.148   3.576   4.467 -0.2804 -0.1476 -0.1189
 8446SOL    HW136800   3.199   3.603   4.391 -1.5663  2.2283 -0.1311
 8446SOL    HW236801   3.066   3.610   4.433 -0.0351 -0.6079 -1.1838
 8447SOL     OW36802   1.871   3.962   5.371  0.1836 -0.1023  0.6872
 8447SOL    HW136803   1.867   4.057   5.366  3.9096  0.0908  1.3321
 8447SOL    HW236804   1.828   3.940   5.289  0.3792 -1.5308  0.9661
 8448SOL     OW36805   3.714   2.098   5.694 -0.1146  0.5576 -0.1915
 8448SOL    HW136806   3.638   2.129   5.645  0.3483  2.1809  0.1222
 8448SOL    HW236807   3.713   2.011   5.654  1.2606  0.5777 -0.2781
 8449SOL     OW36808   0.405   0.243   8.401  0.0409  0.1966 -0.7405
 8449SOL    HW136809   0.468   0.275   8.466  0.5628 -2.6390  0.1368
 8449SOL    HW236810   0.455   0.176   8.354 -1.4526  0.0455 -2.1065
 8450SOL     OW36811   3.618   3.933  10.659  0.1822  0.1626 -0.0145
 8450SOL    HW136812   3.703   3.970  10.682 -0.3109  0.1301  1.8126
 8450SOL    HW236813   3.587   3.934  10.749 -1.6747  0.5350 -0.6439
 8451SOL     OW36814   2.136   3.801  10.285  0.4971  0.0278 -0.2858
 8451SOL    HW136815   2.114   3.753  10.205 -0.2078  0.1350 -0.1553
 8451SOL    HW236816   2.128   3.738  10.357  1.2827  1.2034  0.8160
 8452SOL     OW36817   3.994   1.089  12.904  0.0919  0.2997  0.1810
 8452SOL    HW136818   3.950   1.105  12.821  0.5661 -0.6399 -0.2666
 8452SOL    HW236819   4.080   1.128  12.891 -0.2323  1.2760  1.0687
 8453SOL     OW36820   1.910   2.623   5.768  0.0718 -0.1600 -0.4100
 8453SOL    HW136821   1.886   2.624   5.861  0.7387 -0.2472 -0.2346
 8453SOL    HW236822   1.912   2.716   5.747 -0.1273  0.3356  1.7964
 8454SOL     OW36823   0.607   2.467   4.160  0.0363 -0.2100  0.3666
 8454SOL    HW136824   0.599   2.420   4.077 -1.3342  1.1621 -0.2897
 8454SOL    HW236825   0.514   2.474   4.185 -0.5826  0.2645 -2.0621
 8455SOL     OW36826   3.009   2.318   4.773  0.0389  0.0987  0.4444
 8455SOL    HW136827   3.079   2.378   4.798 -0.7920  1.9678 -1.7356
 8455SOL    HW236828   2.925   2.358   4.795  1.1773  2.0076  1.3549
 8456SOL     OW36829   3.033   0.866   7.440  0.1938  0.1531 -0.2843
 8456SOL    HW136830   3.127   0.851   7.454 -0.3571  0.6150  3.9086
 8456SOL    HW236831   3.005   0.903   7.524 -0.6487  2.4602 -1.5783
 8457SOL     OW36832   2.493   3.930   4.294  0.0194 -0.6037  0.3756
 8457SOL    HW136833   2.510   3.852   4.348 -0.0225 -1.2855 -0.5838
 8457SOL    HW236834   2.415   3.909   4.242  0.7418 -0.7542 -0.6480
 8458SOL     OW36835   4.645   2.282  13.823  0.0381 -0.0019  0.6879
 8458SOL    HW136836   4.646   2.193  13.789  1.0895  0.5982 -0.8139
 8458SOL    HW236837   4.552   2.293  13.845 -0.2084 -0.4162 -0.1763
 8459SOL     OW36838   2.754   2.196   5.839 -0.3914  0.5411 -0.3551
 8459SOL    HW136839   2.837   2.212   5.885 -0.4997 -0.1088  0.0746
 8459SOL    HW236840   2.710   2.278   5.861 -0.3087  0.2321  0.9751
 8460SOL     OW36841   3.925   0.697   1.621 -0.2796  0.0423  0.6590
 8460SOL    HW136842   3.931   0.602   1.608 -2.3690 -0.3912  2.8195
 8460SOL    HW236843   3.967   0.712   1.705  0.8773 -2.1637  0.4838
 8461SOL     OW36844   1.245   4.262   6.768  0.2099  0.5075  0.0248
 8461SOL    HW136845   1.217   4.216   6.689 -1.1945  0.7182  0.3984
 8461SOL    HW236846   1.210   4.214   6.843  0.8042  0.5539  0.3234
 8462SOL     OW36847   2.257   0.209   3.626  0.0241 -0.7888 -0.3919
 8462SOL    HW136848   2.181   0.157   3.599  0.7738 -2.1413  0.0692
 8462SOL    HW236849   2.218   0.256   3.699  1.2374  0.5223 -0.5959
 8463SOL     OW36850   0.830   3.027   2.435  0.6464 -0.6954 -0.1181
 8463SOL    HW136851   0.895   2.957   2.432  0.3232 -0.9848 -0.4154
 8463SOL    HW236852   0.839   3.061   2.524  1.4030  0.2442 -0.5553
 8464SOL     OW36853   2.742   2.329   8.528 -0.1028 -0.1585 -0.7129
 8464SOL    HW136854   2.761   2.247   8.482 -0.0944 -0.5620  0.0177
 8464SOL    HW236855   2.676   2.291   8.586  1.2657  0.1295  1.0108
 8465SOL     OW36856   2.576   2.489   5.619 -0.0696 -0.1229 -0.0984
 8465SOL    HW136857   2.562   2.448   5.534 -0.3954  1.5988 -0.8701
 8465SOL    HW236858   2.609   2.575   5.595  2.9207 -1.3883 -0.5753
 8466SOL     OW36859   4.020   1.410  11.501  0.4749 -0.4301  0.3767
 8466SOL    HW136860   4.016   1.490  11.449 -0.5426 -0.3907  0.5194
 8466SOL    HW236861   4.102   1.375  11.466 -1.3033 -0.8216 -3.3751
 8467SOL     OW36862   2.115   3.859   4.756 -0.1717  0.4093 -0.7911
 8467SOL    HW136863   2.118   3.927   4.822 -0.7996 -0.4387  0.1090
 8467SOL    HW236864   2.057   3.800   4.804  2.0318  1.3795  3.0020
 8468SOL     OW36865   1.056   3.967   4.338  0.3411  1.2518 -0.2653
 8468SOL    HW136866   1.075   4.047   4.387  0.1179  0.5440  0.9717
 8468SOL    HW236867   0.986   3.932   4.392 -0.0762  1.1258 -0.8934
 8469SOL     OW36868   1.037   0.201   6.208  0.4449 -0.5372  0.5505
 8469SOL    HW136869   0.993   0.136   6.263 -1.7566  0.5971  0.1226
 8469SOL    HW236870   1.125   0.202   6.247  0.4643  2.5837  0.4295
 8470SOL     OW36871   0.499   2.171   7.460 -0.1896  0.1464 -0.1777
 8470SOL    HW136872   0.569   2.188   7.397  1.3954  0.4652  1.6778
 8470SOL    HW236873   0.492   2.254   7.508  0.6655  1.2407 -1.9362
 8471SOL     OW36874   4.664   1.370   7.333  0.1357  0.0690 -0.1658
 8471SOL    HW136875   4.645   1.464   7.340  0.3454  0.0791  0.2422
 8471SOL    HW236876   4.659   1.366   7.237 -1.2514 -0.0838 -0.0873
 8472SOL     OW36877   1.218   3.580  12.819 -0.0870 -0.4558 -0.7473
 8472SOL    HW136878   1.266   3.663  12.817 -1.4512  0.3838  1.4381
 8472SOL    HW236879   1.187   3.575  12.729  1.8559 -0.3666 -1.4290
 8473SOL     OW36880   3.794   0.630   5.803  0.5315  0.2246 -0.0612
 8473SOL    HW136881   3.817   0.586   5.721  1.7929 -0.4388  0.6485
 8473SOL    HW236882   3.702   0.606   5.804  0.8466 -1.0889 -1.8173
 8474SOL     OW36883   2.336   0.431   6.660  0.2619 -0.1756  0.3580
 8474SOL    HW136884   2.347   0.498   6.727 -2.6340 -0.4972  1.1622
 8474SOL    HW236885   2.256   0.460   6.615 -1.2296 -1.7367  2.0129
 8475SOL     OW36886   4.343   4.076  16.393 -0.2516  0.5909 -0.0276
 8475SOL    HW136887   4.364   4.076  16.300  0.4776  1.9828  0.1465
 8475SOL    HW236888   4.427   4.062  16.437 -0.4692  1.5796  0.7091
 8476SOL     OW36889   3.481   2.034   3.480 -0.1673  0.4267 -0.0089
 8476SOL    HW136890   3.499   2.105   3.541 -0.8547  0.2428  0.4040
 8476SOL    HW236891   3.563   2.037   3.430 -0.8802 -0.7825 -1.2645
 8477SOL     OW36892   0.937   1.986   0.619  0.1725 -0.0498 -0.5468
 8477SOL    HW136893   0.916   1.928   0.691 -1.1260  0.1929 -0.7323
 8477SOL    HW236894   1.017   1.938   0.600 -1.0870 -2.3590  0.0192
 8478SOL     OW36895   0.745   4.359   8.318  0.2374 -0.4699 -0.1186
 8478SOL    HW136896   0.767   4.266   8.317  1.8887 -0.1061  2.6018
 8478SOL    HW236897   0.649   4.355   8.315  0.3196 -1.9481 -0.5526
 8479SOL     OW36898   4.531   1.002   2.524 -0.5253  0.3275  0.1391
 8479SOL    HW136899   4.595   1.046   2.580 -0.1681  3.1142 -2.4743
 8479SOL    HW236900   4.502   1.073   2.467 -0.0538  0.6334  0.2817
 8480SOL     OW36901   0.608   0.337   9.774  0.0223  0.2604  0.8152
 8480SOL    HW136902   0.599   0.411   9.713  1.1054 -0.4370 -0.1783
 8480SOL    HW236903   0.646   0.378   9.851  0.2459  1.6015 -0.0034
 8481SOL     OW36904   2.803   0.633   3.572 -0.5460  0.3593  0.0194
 8481SOL    HW136905   2.859   0.711   3.563  2.3728 -1.6940  0.1335
 8481SOL    HW236906   2.864   0.565   3.600 -0.4031 -0.6402 -2.7542
 8482SOL     OW36907   2.642   1.447  13.576 -0.5057  0.1399 -0.1362
 8482SOL    HW136908   2.567   1.454  13.634  0.8584 -1.6625  1.8564
 8482SOL    HW236909   2.601   1.471  13.493 -0.3852  0.3726 -0.1301
 8483SOL     OW36910   0.683   1.091   7.283 -0.5052  0.5829 -0.6589
 8483SOL    HW136911   0.653   1.007   7.317  1.7744 -1.0186 -2.6117
 8483SOL    HW236912   0.644   1.148   7.350  0.2666  2.5012 -1.8203
 8484SOL     OW36913   3.490   3.505   4.728  0.4306  0.0161  0.2310
 8484SOL    HW136914   3.519   3.560   4.654 -3.2555 -0.4927 -1.5692
 8484SOL    HW236915   3.399   3.532   4.740  0.7331  0.6065  1.2664
 8485SOL     OW36916   2.729   4.667   3.820 -0.7680 -0.7330 -0.6679
 8485SOL    HW136917   2.658   4.684   3.758 -0.3062 -0.5912 -1.1572
 8485SOL    HW236918   2.687   4.600   3.874  0.7526 -0.4975  0.8005
 8486SOL     OW36919   2.721   2.352  12.555 -0.5930  0.2890 -0.0886
 8486SOL    HW136920   2.814   2.341  12.575 -0.5446 -1.5312 -1.2968
 8486SOL    HW236921   2.703   2.446  12.553 -2.7682 -0.0785  1.8642
 8487SOL     OW36922   1.815   1.732   4.959  0.1221  0.0575 -0.7108
 8487SOL    HW136923   1.834   1.639   4.970 -1.7028 -0.3767 -1.1942
 8487SOL    HW236924   1.737   1.733   4.903 -0.5585 -0.4856  0.2321
 8488SOL     OW36925   1.647   1.151   5.868  0.2144  0.1414 -0.0843
 8488SOL    HW136926   1.665   1.158   5.961 -1.1120  0.3435  0.1604
 8488SOL    HW236927   1.565   1.201   5.865 -1.3700 -2.3939  0.2294
 8489SOL     OW36928   1.363   4.330   0.023  0.3569  0.2890  0.5007
 8489SOL    HW136929   1.312   4.382  17.651  0.4759 -0.8600 -0.5700
 8489SOL    HW236930   1.287   4.284   0.058 -0.5907  0.0621 -1.9072
 8490SOL     OW36931   3.785   4.087   3.135 -0.4788 -0.1176 -0.2151
 8490SOL    HW136932   3.869   4.066   3.174  1.0960  2.5378 -2.0923
 8490SOL    HW236933   3.779   4.037   3.053 -0.5616 -0.9462  0.3054
 8491SOL     OW36934   4.080   2.126  14.525  0.4054  0.6968  0.5299
 8491SOL    HW136935   3.991   2.093  14.543 -0.6064  2.2945 -1.5675
 8491SOL    HW236936   4.088   2.182  14.602  1.4085 -2.3393  2.6051
 8492SOL     OW36937   0.580   3.554   3.054 -0.1466 -0.1114  0.5050
 8492SOL    HW136938   0.632   3.477   3.028  3.5313  2.4042  0.4199
 8492SOL    HW236939   0.648   3.613   3.087  0.0868 -1.7045  2.8748
 8493SOL     OW36940   1.009   4.716  13.845  0.4361  0.3086 -0.5255
 8493SOL    HW136941   0.979   0.006  13.755  1.6918  1.8829 -0.7389
 8493SOL    HW236942   1.021   0.085  13.871 -0.3439  0.2678 -0.0244
 8494SOL     OW36943   3.611   0.225  10.238  0.0188 -0.0506 -0.3609
 8494SOL    HW136944   3.638   0.316  10.247 -3.0829  1.0488 -2.2260
 8494SOL    HW236945   3.699   0.191  10.225  0.0742  0.1497 -0.5091
 8495SOL     OW36946   1.060   0.480   2.002  0.2654 -0.0134 -0.1889
 8495SOL    HW136947   1.105   0.478   2.087  2.8070 -0.4281 -1.5397
 8495SOL    HW236948   1.139   0.493   1.950 -0.0878 -0.3519 -0.8004
 8496SOL     OW36949   4.136   1.293  13.824 -0.9105  0.0346 -0.2044
 8496SOL    HW136950   4.157   1.254  13.740 -0.2104 -0.2468  0.1080
 8496SOL    HW236951   4.193   1.370  13.826 -0.0760 -0.5682 -1.0086
 8497SOL     OW36952   0.800   3.939   7.327 -0.0567 -0.2103 -0.4665
 8497SOL    HW136953   0.802   3.895   7.412  0.4105  2.2039  0.7647
 8497SOL    HW236954   0.886   3.935   7.287  1.0887 -0.1672  1.9822
 8498SOL     OW36955   1.545   0.869   2.663  0.8978 -0.1306  0.0526
 8498SOL    HW136956   1.556   0.873   2.568  1.8399 -0.8592  0.1346
 8498SOL    HW236957   1.591   0.788   2.687  1.3838  0.7372  2.0346
 8499SOL     OW36958   1.950   2.788   5.489 -0.0643  0.2706 -0.1713
 8499SOL    HW136959   2.036   2.801   5.529 -0.2328  0.7174  0.0477
 8499SOL    HW236960   1.979   2.764   5.401 -1.4088 -1.7598 -0.0844
 8500SOL     OW36961   0.559   1.113   3.959 -0.0961 -0.2405  0.1360
 8500SOL    HW136962   0.588   1.062   4.034 -0.4556  0.9291  1.0651
 8500SOL    HW236963   0.475   1.069   3.945 -0.5752  0.1227  1.8292
 8501SOL     OW36964   0.414   2.942   2.768 -0.1184 -0.1833 -0.4275
 8501SOL    HW136965   0.347   3.005   2.794  1.4837  0.3645  2.4432
 8501SOL    HW236966   0.412   2.937   2.672 -1.4087  0.0694 -0.4142
 8502SOL     OW36967   1.735   1.353  15.195 -0.2609 -0.7156  0.1469
 8502SOL    HW136968   1.828   1.334  15.207  0.4540  1.3605 -2.2481
 8502SOL    HW236969   1.733   1.427  15.135 -1.2473 -0.4655  0.4895
 8503SOL     OW36970   2.574   0.639   5.855  0.8331 -0.3061  0.0943
 8503SOL    HW136971   2.668   0.632   5.835  0.6272  0.2417 -1.1342
 8503SOL    HW236972   2.570   0.599   5.941 -1.0284 -0.0377  0.1252
 8504SOL     OW36973   4.594   3.541   9.359  0.4302  0.1197  0.2906
 8504SOL    HW136974   4.626   3.615   9.308  1.4886 -0.8509 -0.4588
 8504SOL    HW236975   4.514   3.511   9.315  1.3627 -1.6219 -0.2352
 8505SOL     OW36976   2.715   3.083   4.438  0.0717  0.1594 -0.2203
 8505SOL    HW136977   2.682   3.159   4.487  0.0321  0.1838 -0.2846
 8505SOL    HW236978   2.759   3.121   4.362  1.3826 -1.9428 -0.5103
 8506SOL     OW36979   4.673   4.484   3.138  0.4948 -0.2233  0.0752
 8506SOL    HW136980   4.583   4.514   3.124  0.3091 -1.3054 -1.0551
 8506SOL    HW236981   4.663   4.464   3.231 -1.8961 -1.0542 -0.3728
 8507SOL     OW36982   0.735   1.360   3.999  0.7216  0.3554  0.5991
 8507SOL    HW136983   0.791   1.401   3.933 -0.1306  1.3827  0.5062
 8507SOL    HW236984   0.709   1.276   3.960  0.4314  0.7414 -0.0466
 8508SOL     OW36985   4.161   3.090   5.785  0.3103 -0.0958 -0.3090
 8508SOL    HW136986   4.147   3.000   5.754 -1.2376  0.1689 -0.4191
 8508SOL    HW236987   4.083   3.098   5.841  0.9041 -0.9310  0.6375
 8509SOL     OW36988   3.522   2.885  13.635 -0.0840  0.2741  0.1694
 8509SOL    HW136989   3.445   2.913  13.585 -1.3598 -1.1033  1.3701
 8509SOL    HW236990   3.477   2.903  13.718 -1.0646  2.8057 -0.9070
 8510SOL     OW36991   1.277   0.514   1.186 -0.0389 -0.0457 -0.2571
 8510SOL    HW136992   1.307   0.423   1.195 -1.7811 -0.6427 -0.4342
 8510SOL    HW236993   1.301   0.540   1.275  1.0416  0.0216 -0.5728
 8511SOL     OW36994   3.578   1.565   7.308  0.1891 -0.1541 -0.3611
 8511SOL    HW136995   3.521   1.495   7.337 -0.7427  0.1408 -1.4828
 8511SOL    HW236996   3.656   1.515   7.283 -1.2549 -3.1222  1.1655
 8512SOL     OW36997   1.821   2.029   1.114  0.2212  0.0614  0.5612
 8512SOL    HW136998   1.871   2.106   1.141  0.1277  0.0944  0.6368
 8512SOL    HW236999   1.841   2.034   1.020 -1.1659  1.5169  0.3489
 8513SOL     OW37000   2.139   3.117   1.948  0.2925  0.1676 -0.5129
 8513SOL    HW137001   2.073   3.106   2.016  0.7921  1.1715  0.1388
 8513SOL    HW237002   2.211   3.069   1.990 -2.2981 -1.4066  2.0748
 8514SOL     OW37003   4.652   4.125   8.462 -0.5728 -0.2739 -0.1448
 8514SOL    HW137004   4.622   4.077   8.540  1.2763  0.7674  1.2047
 8514SOL    HW237005   4.625   4.215   8.481 -2.5215 -0.8176 -0.3493
 8515SOL     OW37006   0.057   3.223  15.719  0.2291 -0.3471 -0.0042
 8515SOL    HW137007   0.024   3.134  15.717  0.2949 -0.3288 -2.2079
 8515SOL    HW237008   4.701   3.263  15.679 -0.5923 -1.9913 -0.0418
 8516SOL     OW37009   0.548   1.589   6.231  0.3635 -0.0893 -0.3036
 8516SOL    HW137010   0.622   1.528   6.228  1.0075  0.6818 -0.3687
 8516SOL    HW237011   0.529   1.588   6.137 -2.6148  1.3163  0.3005
 8517SOL     OW37012   0.757   3.996   5.097  0.4731 -0.0932  0.3975
 8517SOL    HW137013   0.701   3.925   5.064  0.6771 -0.9571  1.9422
 8517SOL    HW237014   0.783   4.028   5.010  0.5013  1.7503  1.0925
 8518SOL     OW37015   2.053   3.061   3.374  0.2073  0.0889 -0.3223
 8518SOL    HW137016   2.090   3.010   3.303 -0.1585  0.8079 -1.0413
 8518SOL    HW237017   1.969   3.014   3.376  0.0700  0.3196 -0.6109
 8519SOL     OW37018   0.930   1.063  10.598  0.1469 -0.4025 -0.5338
 8519SOL    HW137019   0.960   1.154  10.589  2.5739 -1.1598 -0.0961
 8519SOL    HW237020   0.838   1.075  10.619 -0.0459 -0.3824 -1.3842
 8520SOL     OW37021   0.219   0.200   1.195 -0.0179 -0.4804  0.6193
 8520SOL    HW137022   0.279   0.275   1.191  0.0592 -0.6583 -1.2930
 8520SOL    HW237023   0.258   0.165   1.275 -0.6799 -0.3301  1.0055
 8521SOL     OW37024   1.709   1.346   2.083  0.5094 -0.1872  0.0632
 8521SOL    HW137025   1.801   1.375   2.078  0.2994  0.4651 -0.0581
 8521SOL    HW237026   1.688   1.323   2.173  2.6803 -1.6322  0.1924
 8522SOL     OW37027   0.570   2.308  16.050  0.8284 -0.4063  0.1205
 8522SOL    HW137028   0.519   2.278  15.975  2.4879 -1.3786 -0.6315
 8522SOL    HW237029   0.585   2.400  16.029 -0.1068 -0.5111 -1.0325
 8523SOL     OW37030   2.414   3.539   1.166  0.1986  0.6316 -0.7590
 8523SOL    HW137031   2.382   3.625   1.139  0.3879  1.4921  1.7059
 8523SOL    HW237032   2.498   3.568   1.202  0.9000 -0.4549 -1.5324
 8524SOL     OW37033   1.264   3.730   6.349 -0.2912 -0.6551  0.2979
 8524SOL    HW137034   1.240   3.753   6.259 -2.9743  1.9362  1.6796
 8524SOL    HW237035   1.355   3.757   6.354 -0.6480  0.5070  0.5917
 8525SOL     OW37036   0.708   2.592   2.817  0.1737  1.1636 -0.6463
 8525SOL    HW137037   0.759   2.617   2.740  0.8841 -1.5529 -1.0568
 8525SOL    HW237038   0.760   2.522   2.858 -1.4477 -0.5998 -1.6057
 8526SOL     OW37039   1.971   3.518  10.954  0.0526  0.3456 -0.0814
 8526SOL    HW137040   1.992   3.425  10.952 -2.9911 -0.3429 -0.4899
 8526SOL    HW237041   1.989   3.532  10.861 -1.6240  0.9198 -0.3172
 8527SOL     OW37042   3.201   3.304  13.786 -0.0149 -0.5823  0.1255
 8527SOL    HW137043   3.283   3.292  13.737 -1.5710 -0.2220 -2.5545
 8527SOL    HW237044   3.146   3.277  13.712  1.1797  0.6553 -1.2213
 8528SOL     OW37045   2.792   3.098  11.461  0.5281 -0.0294  0.2146
 8528SOL    HW137046   2.817   3.035  11.528  0.3286 -0.8734 -0.5131
 8528SOL    HW237047   2.701   3.115  11.486  1.2945  1.2657  2.0973
 8529SOL     OW37048   3.628   4.164   1.659  0.2968  0.3951 -0.0143
 8529SOL    HW137049   3.658   4.217   1.585 -0.1936 -0.5542 -0.8893
 8529SOL    HW237050   3.534   4.149   1.648  0.7411 -0.8975 -2.0735
 8530SOL     OW37051   3.159   2.522  15.950  0.0951 -0.6369  0.0527
 8530SOL    HW137052   3.088   2.461  15.933  0.7250 -0.9403 -1.4951
 8530SOL    HW237053   3.211   2.471  16.011 -0.8211 -0.9669  0.5595
 8531SOL     OW37054   2.791   2.521  17.160 -0.0521 -0.1812 -0.2687
 8531SOL    HW137055   2.814   2.608  17.127 -0.2237  0.3825  1.0730
 8531SOL    HW237056   2.867   2.466  17.142 -0.2794 -0.3031 -0.8457
 8532SOL     OW37057   2.157   4.124  12.131  0.6282 -0.4957  0.4629
 8532SOL    HW137058   2.182   4.088  12.046  0.3568  1.0057 -0.2342
 8532SOL    HW237059   2.166   4.217  12.115  0.6569 -0.5332  0.2619
 8533SOL     OW37060   4.244   2.007   6.946 -0.2612  0.2955  0.1499
 8533SOL    HW137061   4.257   2.030   7.038 -3.5658  1.3889  0.3543
 8533SOL    HW237062   4.270   1.916   6.935  0.7028  0.5016  0.7932
 8534SOL     OW37063   4.051   3.288   8.105  0.8668  0.0478  0.0645
 8534SOL    HW137064   4.011   3.203   8.122 -0.1998  0.4948 -0.2447
 8534SOL    HW237065   3.983   3.344   8.068  0.7696  0.0500  0.2486
 8535SOL     OW37066   1.889   4.550   6.155  0.0400 -0.2474 -0.3328
 8535SOL    HW137067   1.842   4.618   6.108 -0.5633  0.9418  1.9621
 8535SOL    HW237068   1.942   4.608   6.211 -2.1172  1.0384  0.3617
 8536SOL     OW37069   3.624   0.490   4.764  0.7824 -0.0859 -0.0568
 8536SOL    HW137070   3.644   0.458   4.676  1.0329 -3.2890  1.1447
 8536SOL    HW237071   3.529   0.487   4.769  0.5430  4.1126 -2.7758
 8537SOL     OW37072   4.626   0.545   4.573  0.5278 -0.0924 -0.5219
 8537SOL    HW137073   4.604   0.585   4.657  0.9723  2.1306 -1.4496
 8537SOL    HW237074   4.673   0.624   4.545  1.3421  0.3095  1.9663
 8538SOL     OW37075   3.387   2.805   7.466  0.0308  0.0130  0.5420
 8538SOL    HW137076   3.316   2.845   7.416  1.6189  0.2232 -1.5537
 8538SOL    HW237077   3.408   2.881   7.520  1.3396 -0.7207  1.0867
 8539SOL     OW37078   3.082   3.303  15.591  0.3779 -0.1819  0.1196
 8539SOL    HW137079   3.134   3.377  15.560 -0.1501  0.4234  0.7109
 8539SOL    HW237080   3.149   3.237  15.570  0.5574 -0.0554  0.2920
 8540SOL     OW37081   0.749   3.558  15.618  0.2558  0.0857 -0.5438
 8540SOL    HW137082   0.699   3.639  15.605 -1.6444 -0.6031  2.3610
 8540SOL    HW237083   0.715   3.521  15.537 -1.6249 -1.5133  0.9807
 8541SOL     OW37084   3.194   4.376   1.935 -0.1474  0.2389 -0.6037
 8541SOL    HW137085   3.152   4.461   1.926 -0.5673 -0.1291 -2.1911
 8541SOL    HW237086   3.118   4.322   1.956  1.1930 -0.4436  2.4283
 8542SOL     OW37087   3.789   0.111   1.364  0.1404  0.2102  0.0896
 8542SOL    HW137088   3.868   0.164   1.372 -1.1055  2.0063  0.5107
 8542SOL    HW237089   3.823   0.022   1.369  1.2080  0.5690 -0.6406
 8543SOL     OW37090   1.430   1.432   7.446 -0.1822 -0.8155 -0.4365
 8543SOL    HW137091   1.448   1.369   7.376 -0.0776  1.1807 -2.1953
 8543SOL    HW237092   1.477   1.388   7.516 -0.4600  1.4078  1.1541
 8544SOL     OW37093   4.644   3.415   2.740 -0.1896 -0.0568  0.0922
 8544SOL    HW137094   4.688   3.466   2.808 -1.0445 -0.7796  1.1904
 8544SOL    HW237095   4.710   3.423   2.671  0.5466  2.1373  1.0625
 8545SOL     OW37096   2.687   3.139  16.229 -0.2608  0.3395 -0.1465
 8545SOL    HW137097   2.628   3.069  16.256 -0.0942  0.9228  1.7066
 8545SOL    HW237098   2.631   3.173  16.159 -2.5371  2.2480  2.6095
 8546SOL     OW37099   2.531   2.265   2.837  0.3240 -0.3594 -0.3362
 8546SOL    HW137100   2.544   2.214   2.757  1.7348 -1.5787  0.6662
 8546SOL    HW237101   2.529   2.197   2.904  0.0213  0.1858  0.2112
 8547SOL     OW37102   2.950   1.477   0.196  0.3407 -0.3129  0.1587
 8547SOL    HW137103   2.907   1.428   0.125 -1.8676  2.9069 -0.7630
 8547SOL    HW237104   2.967   1.564   0.161 -0.3509 -0.1927  0.1224
 8548SOL     OW37105   4.326   1.101   8.445  0.0004  0.1864 -0.0264
 8548SOL    HW137106   4.364   1.014   8.454  2.5826  1.4029  0.8003
 8548SOL    HW237107   4.399   1.158   8.422 -1.3642  1.9450 -0.0407
 8549SOL     OW37108   2.411   3.487   4.740 -0.1018  0.2118  0.5660
 8549SOL    HW137109   2.341   3.543   4.773  0.8148  1.9835 -0.4985
 8549SOL    HW237110   2.364   3.406   4.723 -0.8906  1.1683 -1.7146
 8550SOL     OW37111   4.117   0.437   4.469  0.4271 -0.6236  0.3290
 8550SOL    HW137112   4.089   0.454   4.380 -3.0394 -0.9832  1.3643
 8550SOL    HW237113   4.211   0.453   4.460  0.2615 -0.2688 -0.7571
 8551SOL     OW37114   0.805   1.455   6.261  0.1616  0.4568  0.1263
 8551SOL    HW137115   0.799   1.468   6.355  1.4942  1.5647  0.0711
 8551SOL    HW237116   0.771   1.366   6.251 -0.2644  0.7193 -0.7475
 8552SOL     OW37117   0.786   3.522   3.649  0.5485  0.2828 -0.7298
 8552SOL    HW137118   0.832   3.492   3.727 -1.6287 -0.5155  0.2326
 8552SOL    HW237119   0.729   3.597   3.667 -0.4347 -0.4825 -0.6746
 8553SOL     OW37120   2.493   3.556   7.287 -0.0381  0.3199 -0.5021
 8553SOL    HW137121   2.451   3.623   7.341 -2.8362  0.1098 -2.4240
 8553SOL    HW237122   2.417   3.543   7.231 -1.3736 -2.5112  2.0013
 8554SOL     OW37123   0.424   0.757   9.482  0.5458 -0.1795 -0.2681
 8554SOL    HW137124   0.334   0.789   9.474  0.4708 -0.3434 -0.0943
 8554SOL    HW237125   0.472   0.794   9.408 -1.2786 -0.5069 -1.6083
 8555SOL     OW37126   3.153   2.357   4.382 -0.2316  0.5750  0.0965
 8555SOL    HW137127   3.074   2.379   4.333 -1.9307 -2.2604  1.5712
 8555SOL    HW237128   3.175   2.430   4.440  2.6362  1.4188 -2.0517
 8556SOL     OW37129   1.661   1.955   0.055  0.6403  0.1450  0.0576
 8556SOL    HW137130   1.737   2.014   0.058  1.0150 -0.4563  2.2766
 8556SOL    HW237131   1.698   1.887  17.687 -0.2444 -0.8544  0.7005
 8557SOL     OW37132   3.471   2.124   5.626 -0.9202  0.3842 -0.1741
 8557SOL    HW137133   3.408   2.186   5.588 -0.1647  1.8141  0.9193
 8557SOL    HW237134   3.450   2.116   5.719  0.4145 -0.8361  0.0166
 8558SOL     OW37135   4.542   1.666   7.333 -0.1776 -0.4697 -0.0266
 8558SOL    HW137136   4.515   1.637   7.420 -0.1374 -0.7724 -0.1146
 8558SOL    HW237137   4.475   1.729   7.304  1.7312  0.7722 -1.7490
 8559SOL     OW37138   0.604   0.282   8.629  0.2300 -0.0090  0.0296
 8559SOL    HW137139   0.573   0.372   8.625 -2.2967 -0.8009  1.7647
 8559SOL    HW237140   0.669   0.280   8.700  1.1427  0.0109 -0.8134
 8560SOL     OW37141   3.214   0.679   8.543  0.0443  0.1445  0.0559
 8560SOL    HW137142   3.256   0.652   8.624 -1.2716  0.1678  0.7472
 8560SOL    HW237143   3.124   0.649   8.556  0.5747 -0.6366  1.9197
 8561SOL     OW37144   0.300   3.190  10.884  0.0800  0.0417  0.1991
 8561SOL    HW137145   0.268   3.111  10.840  0.5656  1.2206 -2.2565
 8561SOL    HW237146   0.367   3.156  10.943  1.7055  1.0523 -1.0844
 8562SOL     OW37147   3.840   2.636  10.979 -0.3147 -0.1978  0.0755
 8562SOL    HW137148   3.775   2.636  11.049 -1.3516  1.7823 -0.9005
 8562SOL    HW237149   3.814   2.550  10.947 -2.2613 -0.0061  1.1241
 8563SOL     OW37150   1.897   3.084   5.496  0.5754 -0.0546 -0.4966
 8563SOL    HW137151   1.890   3.051   5.586  0.0833  0.1685 -0.4548
 8563SOL    HW237152   1.991   3.091   5.482  0.4374  1.1736 -0.8087
 8564SOL     OW37153   2.131   1.297   5.222 -0.2516 -0.2928  0.2579
 8564SOL    HW137154   2.036   1.302   5.220 -0.1532  1.1281 -0.9967
 8564SOL    HW237155   2.141   1.311   5.316  0.9453  2.4271 -0.2963
 8565SOL     OW37156   0.147   0.763  13.109 -0.3920 -0.2864  0.0127
 8565SOL    HW137157   0.241   0.749  13.109 -0.3607 -0.0707  0.2716
 8565SOL    HW237158   0.139   0.835  13.046  0.3721  1.5571  2.0146
 8566SOL     OW37159   0.656   0.696   0.925 -0.3163 -0.8891 -0.2965
 8566SOL    HW137160   0.618   0.733   1.004 -2.0311 -2.6352 -0.2936
 8566SOL    HW237161   0.694   0.614   0.957 -0.0230 -0.2413  1.0116
 8567SOL     OW37162   4.386   1.244   9.868 -0.1227  0.0195 -0.5102
 8567SOL    HW137163   4.443   1.314   9.836  1.0781 -0.8346 -0.2358
 8567SOL    HW237164   4.300   1.278   9.845 -0.0156  0.1342 -0.7452
 8568SOL     OW37165   4.059   0.430  16.711  0.2232  0.7020 -0.2949
 8568SOL    HW137166   4.105   0.419  16.795  3.8929  0.6257 -2.3011
 8568SOL    HW237167   4.066   0.346  16.666  0.2884  0.3020  0.4545
 8569SOL     OW37168   2.706   4.233   7.424 -0.3318 -0.0786 -0.3911
 8569SOL    HW137169   2.747   4.173   7.362  3.2568  2.3489 -0.3618
 8569SOL    HW237170   2.614   4.225   7.400 -0.5435  0.2196  0.3122
 8570SOL     OW37171   0.392   3.026   9.914 -0.0620 -0.0106  0.1292
 8570SOL    HW137172   0.326   3.083   9.953 -1.8585 -2.0062  0.0089
 8570SOL    HW237173   0.474   3.060   9.949 -1.2295  0.5997  2.2909
 8571SOL     OW37174   0.250   2.399   7.457  0.1452  0.0091  0.3392
 8571SOL    HW137175   0.329   2.408   7.511  0.0896 -2.9343  0.9263
 8571SOL    HW237176   0.189   2.402   7.531 -0.4143 -0.5715 -0.1058
 8572SOL     OW37177   4.553   1.032   5.065 -0.1530 -0.0428 -0.0550
 8572SOL    HW137178   4.565   1.048   4.972 -2.4679 -1.4232 -0.5883
 8572SOL    HW237179   4.466   1.070   5.069 -0.5271 -1.0799  1.4388
 8573SOL     OW37180   4.695   1.800  11.832 -0.0300  0.1175 -0.3099
 8573SOL    HW137181   4.613   1.799  11.783  0.1837 -0.6316 -0.6495
 8573SOL    HW237182   0.043   1.793  11.766 -0.5835  0.5452 -0.9318
 8574SOL     OW37183   0.106   2.217   3.099  0.3777  0.0541  0.1176
 8574SOL    HW137184   0.153   2.193   3.020 -1.2983 -2.9985  0.0651
 8574SOL    HW237185   0.159   2.173   3.166 -1.4254  0.6655  1.9728
 8575SOL     OW37186   0.493   4.424   7.281  0.2215 -0.0068  0.2307
 8575SOL    HW137187   0.567   4.483   7.295 -1.0020  1.3063  1.2069
 8575SOL    HW237188   0.533   4.354   7.230 -1.4369  0.4449 -1.6692
 8576SOL     OW37189   3.589   0.203   7.245  0.4274  0.7800 -0.1871
 8576SOL    HW137190   3.579   0.112   7.218 -0.3382  1.2063 -1.3131
 8576SOL    HW237191   3.632   0.247   7.172  0.0390  1.4238 -0.0336
 8577SOL     OW37192   0.467   2.299   7.896 -0.0063  0.1698  0.2719
 8577SOL    HW137193   0.481   2.220   7.949 -1.2715  0.0713  0.4740
 8577SOL    HW237194   0.437   2.367   7.957 -0.5620 -0.3200  0.5452
 8578SOL     OW37195   1.770   3.907  17.083 -0.0514  0.0803  0.3145
 8578SOL    HW137196   1.854   3.869  17.108 -0.8194 -0.8159  1.5612
 8578SOL    HW237197   1.714   3.854  17.139 -0.2704  1.3999  1.3430
 8579SOL     OW37198   3.753   2.429  16.689  0.0223 -0.4213  0.2462
 8579SOL    HW137199   3.771   2.520  16.711  3.4293 -0.9101 -0.5108
 8579SOL    HW237200   3.842   2.394  16.679  0.5327  0.2354  2.5608
 8580SOL     OW37201   0.727   2.509  16.448 -0.6477  0.0791 -0.2298
 8580SOL    HW137202   0.704   2.434  16.393 -0.2782  0.4126 -0.8368
 8580SOL    HW237203   0.644   2.517  16.496 -1.2542 -0.4241 -1.1920
 8581SOL     OW37204   2.416   2.210   4.358 -0.0946  0.4347  0.7706
 8581SOL    HW137205   2.427   2.273   4.287 -0.8508  0.1052  0.3645
 8581SOL    HW237206   2.330   2.241   4.388  1.2112  3.2424  1.6179
 8582SOL     OW37207   0.865   1.604   7.519  0.3368 -0.0285  0.5698
 8582SOL    HW137208   0.857   1.508   7.526 -0.2090 -0.0396 -0.1398
 8582SOL    HW237209   0.854   1.630   7.610  2.0365 -0.5175  0.9067
 8583SOL     OW37210   2.295   1.499   5.145 -0.2355  0.2150  0.2610
 8583SOL    HW137211   2.233   1.433   5.176  2.0636 -2.8706 -1.6669
 8583SOL    HW237212   2.233   1.558   5.100 -0.2194 -0.5301 -0.7360
 8584SOL     OW37213   0.535   1.894  10.004 -0.4016 -0.8472  0.6896
 8584SOL    HW137214   0.521   1.918  10.096 -0.6199  0.9204  0.1928
 8584SOL    HW237215   0.614   1.841   9.995 -1.3893 -1.9028 -1.6579
 8585SOL     OW37216   2.840   2.268  15.267  0.3567 -0.7486 -0.5748
 8585SOL    HW137217   2.757   2.278  15.313  0.5680 -0.9609 -0.1524
 8585SOL    HW237218   2.807   2.289  15.179 -1.0955 -1.6612 -0.2363
 8586SOL     OW37219   2.071   3.192  11.987 -0.2633 -0.6945  0.0456
 8586SOL    HW137220   2.147   3.237  12.024 -1.1438  0.8033  0.0252
 8586SOL    HW237221   2.059   3.143  12.068 -0.8813  0.6813  0.7869
 8587SOL     OW37222   0.863   3.147   7.103 -0.4735  0.5470  0.2287
 8587SOL    HW137223   0.796   3.195   7.153 -1.5677  0.0107 -0.7243
 8587SOL    HW237224   0.863   3.199   7.023  1.1274  2.1275  1.2443
 8588SOL     OW37225   0.355   3.899   4.348 -0.0397  0.0937 -0.1823
 8588SOL    HW137226   0.315   3.939   4.425  0.3016  1.2713 -0.6264
 8588SOL    HW237227   0.317   3.811   4.357 -1.6956  0.7570 -0.7236
 8589SOL     OW37228   0.271   0.482   6.387  0.5197 -0.6547 -0.4614
 8589SOL    HW137229   0.276   0.572   6.356 -0.9097 -0.2311  0.5445
 8589SOL    HW237230   0.176   0.479   6.388  0.4396  1.3891 -1.0920
 8590SOL     OW37231   2.054   2.571   1.904 -0.2261 -0.3581  0.0056
 8590SOL    HW137232   2.127   2.632   1.909  0.2721 -0.8585 -1.3464
 8590SOL    HW237233   2.023   2.579   1.814  4.3571 -0.6162 -1.5491
 8591SOL     OW37234   1.540   2.840   8.732 -0.2479  0.4611  0.3720
 8591SOL    HW137235   1.612   2.835   8.795  0.4870  1.5494 -0.3624
 8591SOL    HW237236   1.539   2.746   8.715 -2.2800  0.4905  0.3794
 8592SOL     OW37237   3.325   1.691   7.991  1.0688 -0.3259  0.4257
 8592SOL    HW137238   3.251   1.631   8.003  1.2599 -0.6460 -0.0081
 8592SOL    HW237239   3.336   1.712   8.083  0.3445 -0.3641  0.5257
 8593SOL     OW37240   0.538   3.201   6.379 -0.0910 -0.1053  0.6955
 8593SOL    HW137241   0.465   3.154   6.338 -0.2745  0.6270  0.1864
 8593SOL    HW237242   0.606   3.201   6.312  0.7304 -3.2024  1.4932
 8594SOL     OW37243   0.245   0.937   0.561  0.6227  0.3013 -0.3701
 8594SOL    HW137244   0.274   0.848   0.539  0.7000  0.3604 -0.5092
 8594SOL    HW237245   0.152   0.941   0.540  0.6567  0.1601 -0.5509
 8595SOL     OW37246   0.803   1.773   6.098 -0.1167  0.0945  0.2143
 8595SOL    HW137247   0.791   1.690   6.052 -0.5617  0.0656  0.3779
 8595SOL    HW237248   0.887   1.760   6.141  0.2009  1.9786  0.1909
 8596SOL     OW37249   2.274   1.140   6.628 -0.2483 -0.4010 -0.7838
 8596SOL    HW137250   2.273   1.230   6.659 -1.5449 -1.2361  1.5623
 8596SOL    HW237251   2.234   1.157   6.543  0.2062 -2.0022 -1.3259
 8597SOL     OW37252   0.220   2.846   9.422 -0.1404  0.7055 -0.0507
 8597SOL    HW137253   0.181   2.926   9.457 -0.9472  0.4406 -0.3634
 8597SOL    HW237254   0.267   2.822   9.502 -2.4862  1.0730  1.4167
 8598SOL     OW37255   4.570   1.619   0.832  0.0580  0.4764 -0.1705
 8598SOL    HW137256   4.633   1.651   0.896  0.4950  0.4965 -0.6132
 8598SOL    HW237257   4.599   1.527   0.827 -1.5786  0.0301 -1.5647
 8599SOL     OW37258   1.524   3.542  14.056  0.8802  0.3704  0.4121
 8599SOL    HW137259   1.487   3.453  14.058  0.3843  0.5287 -1.3650
 8599SOL    HW237260   1.557   3.545  14.146 -0.7406  3.3440  0.8640
 8600SOL     OW37261   2.906   2.751   6.513 -0.0775  0.2372  0.3180
 8600SOL    HW137262   2.818   2.782   6.491  0.0588 -0.5808 -1.4172
 8600SOL    HW237263   2.940   2.835   6.543 -1.4162  0.3019  1.6139
 8601SOL     OW37264   1.159   2.675  13.810  0.5999  1.1504  0.4045
 8601SOL    HW137265   1.177   2.762  13.775 -1.1952  1.5606  0.5007
 8601SOL    HW237266   1.083   2.699  13.864 -0.8271 -0.5577 -0.8509
 8602SOL     OW37267   0.416   1.789  15.288  0.5463 -0.4101  0.6608
 8602SOL    HW137268   0.426   1.843  15.210 -1.4592 -0.1913  0.5415
 8602SOL    HW237269   0.322   1.804  15.303  1.1731  4.6752 -0.6995
 8603SOL     OW37270   3.138   0.144   6.425  0.6079  0.8350  0.2332
 8603SOL    HW137271   3.083   0.130   6.501 -2.2719 -1.3020 -2.2496
 8603SOL    HW237272   3.084   0.188   6.359  1.5446  0.5865 -0.7184
 8604SOL     OW37273   2.830   4.714   2.087 -0.1834  0.5590  0.5010
 8604SOL    HW137274   2.836   0.066   2.027  0.6429 -0.6035 -0.8273
 8604SOL    HW237275   2.806   4.639   2.033  0.9800 -0.0158  0.7919
 8605SOL     OW37276   0.226   0.329   1.734  0.0997 -0.0714  0.0983
 8605SOL    HW137277   0.189   0.339   1.822  2.0593 -1.0344  1.0452
 8605SOL    HW237278   0.268   0.243   1.745 -0.0581 -0.3059 -1.1753
 8606SOL     OW37279   4.650   3.859   3.506  0.0186 -0.2705 -0.0551
 8606SOL    HW137280   4.589   3.791   3.535 -0.1762 -0.4499 -0.8992
 8606SOL    HW237281   4.679   3.830   3.420  1.4388  1.8796 -0.3034
 8607SOL     OW37282   4.485   3.756  11.226 -0.0272 -0.2731  0.0908
 8607SOL    HW137283   4.500   3.675  11.178  0.9070 -1.3851  2.2679
 8607SOL    HW237284   4.548   3.813  11.182 -0.2897  1.3685  1.8008
 8608SOL     OW37285   3.037   1.193   0.450  0.1212 -0.0423 -0.7155
 8608SOL    HW137286   3.095   1.162   0.380 -1.5585  0.7322 -2.4587
 8608SOL    HW237287   3.044   1.288   0.449 -0.3206 -0.0138 -1.1341
 8609SOL     OW37288   0.521   1.863   9.296  0.6390  0.0655  0.0678
 8609SOL    HW137289   0.523   1.886   9.389 -0.8523  1.5859 -0.2714
 8609SOL    HW237290   0.590   1.796   9.293  0.0726 -0.6064  2.7575
 8610SOL     OW37291   0.121   1.282   7.516 -0.0118  0.1241 -0.1299
 8610SOL    HW137292   0.167   1.366   7.516  0.1982  0.0136 -1.6769
 8610SOL    HW237293   0.062   1.299   7.442  0.5399  2.4492 -0.0520
 8611SOL     OW37294   1.844   4.719   5.170  0.6242 -0.2120  0.1991
 8611SOL    HW137295   1.794   4.668   5.233  1.9249 -1.5898  0.1148
 8611SOL    HW237296   1.780   0.021   5.103  1.7650  1.2544 -0.3852
 8612SOL     OW37297   2.819   0.342   2.772 -0.1035 -0.7436  0.0241
 8612SOL    HW137298   2.913   0.337   2.788 -0.1682 -1.4166  0.1842
 8612SOL    HW237299   2.793   0.373   2.859  2.1668  0.5904  0.2368
 8613SOL     OW37300   1.135   3.084   3.148 -0.6052 -0.1029  0.0830
 8613SOL    HW137301   1.193   3.065   3.074  1.6618 -2.8493  2.6063
 8613SOL    HW237302   1.073   3.014   3.130 -0.8506 -0.6153  2.9792
 8614SOL     OW37303   3.760   4.664  17.272  0.2803 -0.3150  0.1383
 8614SOL    HW137304   3.679   4.712  17.293  0.7908  0.6391 -0.0965
 8614SOL    HW237305   3.745   4.627  17.185 -0.3284  1.5216 -0.5323
 8615SOL     OW37306   1.866   4.632   9.042 -0.3203  0.3145 -0.4212
 8615SOL    HW137307   1.852   4.549   9.087  0.9099  0.5782  0.4319
 8615SOL    HW237308   1.794   4.687   9.074  0.1088  0.7606 -0.2109
 8616SOL     OW37309   3.010   2.918  10.777 -0.2434 -0.3446 -0.2278
 8616SOL    HW137310   3.069   2.848  10.750  0.6262  0.1083  0.4940
 8616SOL    HW237311   3.046   2.997  10.737  0.3669 -0.4210  0.1700
 8617SOL     OW37312   1.871   2.346   4.300  0.0995  0.2919 -0.6509
 8617SOL    HW137313   1.861   2.438   4.278  0.7874  1.0082  2.0820
 8617SOL    HW237314   1.814   2.296   4.241  0.9777 -0.8257 -0.5509
 8618SOL     OW37315   3.044   3.739  10.301 -0.2209  0.0123 -0.2679
 8618SOL    HW137316   3.019   3.816  10.250  2.1965  1.4498  0.7594
 8618SOL    HW237317   3.055   3.670  10.235 -0.0692  0.7250 -0.9731
 8619SOL     OW37318   2.848   2.130  10.279 -0.4191 -0.1942  0.0331
 8619SOL    HW137319   2.892   2.192  10.222 -0.5318 -0.2136 -0.0773
 8619SOL    HW237320   2.807   2.072  10.214  0.8048  1.2493 -2.0174
 8620SOL     OW37321   1.265   4.004   4.645 -0.3816 -0.4507 -0.2271
 8620SOL    HW137322   1.195   3.958   4.691 -2.1513  2.1946 -0.2349
 8620SOL    HW237323   1.337   3.966   4.695 -1.6217 -0.9304  1.1856
 8621SOL     OW37324   4.235   2.510   3.273  0.0343  0.1177  0.3248
 8621SOL    HW137325   4.182   2.475   3.202  0.5042 -0.5792  0.3092
 8621SOL    HW237326   4.319   2.465   3.259  0.1359  0.8746 -1.4750
 8622SOL     OW37327   2.105   1.542  15.393  0.0533 -0.6992  0.2260
 8622SOL    HW137328   2.197   1.543  15.419 -0.4476 -0.8500  2.0055
 8622SOL    HW237329   2.074   1.618  15.443 -2.7502 -1.8039  0.1899
 8623SOL     OW37330   4.079   2.417   5.090  0.8000 -0.7927  0.2191
 8623SOL    HW137331   4.049   2.419   5.000 -0.0726  0.3552  0.5401
 8623SOL    HW237332   4.002   2.443   5.140  0.8635 -1.6461  0.7624
 8624SOL     OW37333   0.824   3.571   2.536 -0.3538 -0.5984 -0.1827
 8624SOL    HW137334   0.729   3.584   2.544 -0.5500 -0.3193 -2.9906
 8624SOL    HW237335   0.857   3.639   2.478 -1.2241  0.4913  0.6023
 8625SOL     OW37336   1.858   2.962  14.903  0.0531 -0.1274  0.0659
 8625SOL    HW137337   1.901   2.937  14.821  0.7067  0.7954  0.1210
 8625SOL    HW237338   1.880   3.055  14.899  0.9997 -0.4351 -2.0832
 8626SOL     OW37339   2.878   0.697   5.004 -0.3504 -0.2950 -0.2597
 8626SOL    HW137340   2.817   0.637   4.960 -0.1319  0.4186 -1.5369
 8626SOL    HW237341   2.961   0.664   4.971 -0.5179 -1.5226  0.5455
 8627SOL     OW37342   0.933   3.052   3.414  1.0421  0.4208 -0.2890
 8627SOL    HW137343   0.959   3.134   3.457 -0.8820  0.9012 -0.0380
 8627SOL    HW237344   1.000   2.986   3.430 -1.2841 -2.2170 -1.4065
 8628SOL     OW37345   4.174   0.260  16.924 -0.5202  0.0642  0.0786
 8628SOL    HW137346   4.139   0.187  16.874 -0.4604 -1.2900  1.9865
 8628SOL    HW237347   4.118   0.251  17.001 -1.6681  0.0223 -0.7612
 8629SOL     OW37348   0.114   3.501   2.513  0.2538  0.0647 -0.1904
 8629SOL    HW137349   0.120   3.595   2.497 -0.4644  0.1528  0.0861
 8629SOL    HW237350   0.024   3.481   2.490  0.6746  0.0905 -1.8485
 8630SOL     OW37351   1.117   2.674   0.215  0.6004  0.1193  0.0761
 8630SOL    HW137352   1.039   2.679   0.160  0.3696  2.0973  0.5763
 8630SOL    HW237353   1.083   2.658   0.303 -1.6288 -0.1877 -0.8424
 8631SOL     OW37354   0.592   0.174   4.232 -0.0741 -0.0026  0.3137
 8631SOL    HW137355   0.592   0.269   4.238 -0.6514 -0.1140  1.9910
 8631SOL    HW237356   0.682   0.163   4.201  0.2925  0.3168  1.2734
 8632SOL     OW37357   3.586   0.187   2.394 -0.2792 -0.0060 -0.3597
 8632SOL    HW137358   3.610   0.224   2.479 -0.1939 -0.6221 -0.1131
 8632SOL    HW237359   3.640   0.244   2.339 -0.1197  1.3248  1.1817
 8633SOL     OW37360   4.281   2.553   9.769 -0.5421  0.3250 -0.1444
 8633SOL    HW137361   4.238   2.619   9.715 -0.5532 -0.7996 -1.5199
 8633SOL    HW237362   4.300   2.482   9.708  0.2922 -0.4515  0.9960
 8634SOL     OW37363   4.155   3.405   2.635  0.3748  0.3763  0.3250
 8634SOL    HW137364   4.177   3.487   2.590  1.5669 -0.0200  0.1847
 8634SOL    HW237365   4.060   3.418   2.645  0.0434 -2.2385  0.6311
 8635SOL     OW37366   0.378   1.791   6.471 -0.5799 -0.4436 -0.1868
 8635SOL    HW137367   0.457   1.785   6.417  0.8175  1.5531  1.6437
 8635SOL    HW237368   0.403   1.867   6.523  1.2091 -0.5303 -0.9325
 8636SOL     OW37369   2.989   1.905   7.949 -0.1642 -0.6094  0.2403
 8636SOL    HW137370   2.919   1.950   7.997 -0.3111 -1.5309  0.8857
 8636SOL    HW237371   3.018   1.848   8.020 -0.9727  0.5020  1.4609
 8637SOL     OW37372   0.078   1.942  10.132  0.3585  0.5850  0.5515
 8637SOL    HW137373   0.119   2.007  10.075  2.9546 -0.2878  1.3945
 8637SOL    HW237374   0.112   1.861  10.094  1.0149  2.1847 -2.2853
 8638SOL     OW37375   2.060   3.223   8.016  0.3086  0.3870  0.1094
 8638SOL    HW137376   2.011   3.152   8.058 -1.5245  1.2717 -0.5180
 8638SOL    HW237377   2.129   3.237   8.081  1.5991 -0.2049 -1.1416
 8639SOL     OW37378   1.620   2.008   4.605 -0.1655  0.3202 -0.4970
 8639SOL    HW137379   1.564   2.083   4.625  1.0756  1.0426  0.2727
 8639SOL    HW237380   1.585   1.940   4.663  0.4200  0.2515 -0.2210
 8640SOL     OW37381   1.344   2.295  17.473 -0.0599  0.0095 -0.0713
 8640SOL    HW137382   1.333   2.386  17.448  0.6988  0.0175 -0.3842
 8640SOL    HW237383   1.312   2.246  17.397  1.8611 -1.2197 -0.0882
 8641SOL     OW37384   1.434   1.714   7.376  0.3978  0.1220  0.0463
 8641SOL    HW137385   1.394   1.672   7.299  0.3648 -1.2297  0.8075
 8641SOL    HW237386   1.387   1.669   7.446  0.7239 -0.2436  0.0309
 8642SOL     OW37387   4.556   1.775   6.706  0.2230  0.6086 -0.0235
 8642SOL    HW137388   4.611   1.843   6.666 -0.2811  2.0159  1.6808
 8642SOL    HW237389   4.567   1.707   6.639 -3.0174  1.8633 -1.8170
 8643SOL     OW37390   4.693   1.158   8.196  0.0853 -0.1434  0.1242
 8643SOL    HW137391   4.711   1.088   8.259  0.8671  0.6251  0.7723
 8643SOL    HW237392   4.662   1.222   8.260  0.4347  0.2496 -0.1002
 8644SOL     OW37393   1.006   3.165   2.143 -0.1530  0.0121 -0.6032
 8644SOL    HW137394   1.087   3.122   2.116  0.5482  0.7145  0.3340
 8644SOL    HW237395   0.954   3.091   2.173  1.6716 -1.0505 -0.0912
 8645SOL     OW37396   1.665   1.981   5.488  0.4121  0.3217  0.3829
 8645SOL    HW137397   1.639   2.056   5.542  1.0769 -0.1241  1.3300
 8645SOL    HW237398   1.761   1.986   5.492  0.4538  1.3375 -2.1377
 8646SOL     OW37399   4.019   0.396   9.073 -0.5863 -0.0951  0.3744
 8646SOL    HW137400   3.960   0.429   9.141 -0.7026 -2.5448  1.4738
 8646SOL    HW237401   4.001   0.455   9.000 -1.6680 -0.8587  0.0402
 8647SOL     OW37402   4.709   2.385  15.223 -0.2358 -0.4106 -1.0401
 8647SOL    HW137403   4.714   2.330  15.145 -0.1315 -0.2182 -1.1695
 8647SOL    HW237404   4.680   2.470  15.189 -1.0010 -0.4554 -0.4887
 8648SOL     OW37405   3.146   3.611   7.975  0.4952  0.0947 -0.1059
 8648SOL    HW137406   3.177   3.584   8.061 -2.1895  0.0858  0.8512
 8648SOL    HW237407   3.197   3.691   7.963  1.1284  0.0026  2.0262
 8649SOL     OW37408   1.262   1.160  12.452 -0.3964  0.6128 -0.1581
 8649SOL    HW137409   1.347   1.116  12.447 -1.1729 -1.2876  3.4806
 8649SOL    HW237410   1.235   1.139  12.542  0.4448 -1.5880 -0.4174
 8650SOL     OW37411   0.820   0.252   5.589  0.4821  0.2021  0.1658
 8650SOL    HW137412   0.786   0.232   5.676 -1.2850  0.6676 -0.4044
 8650SOL    HW237413   0.850   0.342   5.586 -3.2206  1.4096 -1.1618
 8651SOL     OW37414   0.735   2.892  11.660 -0.5979  0.3729 -0.0320
 8651SOL    HW137415   0.810   2.878  11.601  1.7303  0.1913  2.9646
 8651SOL    HW237416   0.687   2.961  11.614 -1.2467  0.1981  0.3885
 8652SOL     OW37417   4.491   4.566   4.370 -0.3829 -0.0639  0.5832
 8652SOL    HW137418   4.414   4.515   4.346  1.2371 -1.4082 -1.7481
 8652SOL    HW237419   4.560   4.522   4.321 -2.5474 -2.8656  0.0565
 8653SOL     OW37420   3.814   3.868   5.477  0.3981 -0.3937 -0.1674
 8653SOL    HW137421   3.785   3.837   5.562  1.7115  0.2701  0.5167
 8653SOL    HW237422   3.873   3.940   5.499  1.5517 -0.9094 -1.5568
 8654SOL     OW37423   0.703   3.248  13.178  0.1335  0.0493  0.6328
 8654SOL    HW137424   0.781   3.195  13.196  2.5113  4.5638  3.6437
 8654SOL    HW237425   0.635   3.181  13.186  1.0705 -1.0385 -0.6530
 8655SOL     OW37426   4.522   2.776   2.088  0.4020 -0.9154  0.2124
 8655SOL    HW137427   4.607   2.794   2.047  0.6075 -3.4866 -0.4628
 8655SOL    HW237428   4.469   2.842   2.042  0.4953  0.0389  1.4802
 8656SOL     OW37429   2.886   0.614   0.931 -0.4282  0.2590  0.3220
 8656SOL    HW137430   2.898   0.707   0.913  1.8767  0.0723  0.8293
 8656SOL    HW237431   2.822   0.611   1.002 -0.8862  0.5350 -0.0814
 8657SOL     OW37432   4.329   3.880   5.191  0.1748 -0.3468  0.1352
 8657SOL    HW137433   4.281   3.927   5.259  0.1684 -1.1045  0.6588
 8657SOL    HW237434   4.264   3.821   5.153  0.0756  0.7248 -1.3559
 8658SOL     OW37435   0.607   0.283   6.402  0.1474  0.1284 -0.1844
 8658SOL    HW137436   0.690   0.323   6.430 -0.7344  1.7359  0.1283
 8658SOL    HW237437   0.568   0.303   6.487 -0.8800 -0.0495 -0.6203
 8659SOL     OW37438   4.378   3.841  17.358  0.0341 -0.5805 -0.1171
 8659SOL    HW137439   4.348   3.751  17.363  0.2328 -0.5929  0.9526
 8659SOL    HW237440   4.419   3.842  17.445  0.9654 -0.7384 -0.5502
 8660SOL     OW37441   3.032   1.480   4.510 -0.5855 -0.2725  0.2006
 8660SOL    HW137442   3.083   1.490   4.430  1.6964  0.7719  1.7821
 8660SOL    HW237443   3.090   1.409   4.539 -0.9176 -1.0465 -1.0136
 8661SOL     OW37444   0.564   4.687   5.662  0.3454  0.3068  0.2378
 8661SOL    HW137445   0.495   4.710   5.724  1.1162  0.7873  0.9167
 8661SOL    HW237446   0.557   0.040   5.601  1.3074  1.2834  1.3302
 8662SOL     OW37447   2.822   3.281   7.037  0.0249 -0.9533  0.2313
 8662SOL    HW137448   2.805   3.332   7.117  1.3365 -0.4839  0.1965
 8662SOL    HW237449   2.872   3.206   7.067 -0.6024 -1.8337 -0.9130
 8663SOL     OW37450   3.029   3.260  10.045  0.6230 -0.2512 -0.2087
 8663SOL    HW137451   3.063   3.180  10.005  2.3852 -0.2890  1.3585
 8663SOL    HW237452   3.008   3.304   9.962  2.9358  1.5808  0.1763
 8664SOL     OW37453   1.063   1.378   5.327  0.3926  0.0823  0.2739
 8664SOL    HW137454   1.128   1.316   5.362  0.5496 -0.3791 -0.8169
 8664SOL    HW237455   0.986   1.322   5.321 -1.4778  2.6742  0.0010
 8665SOL     OW37456   1.995   3.610  17.648  0.2947 -0.1022 -0.0151
 8665SOL    HW137457   1.902   3.586  17.653  0.3345 -0.0874  0.8025
 8665SOL    HW237458   1.988   3.689   0.011 -0.7967 -1.1688  1.4581
 8666SOL     OW37459   1.955   2.115   9.858  0.2778 -1.0692 -0.7891
 8666SOL    HW137460   1.862   2.137   9.863  0.9368  1.1567  1.3178
 8666SOL    HW237461   1.971   2.107   9.764  3.7929  1.0736 -0.3757
 8667SOL     OW37462   0.411   4.650   2.471 -0.4310 -0.2917  0.1982
 8667SOL    HW137463   0.439   4.560   2.453 -0.1457 -0.2124  0.2533
 8667SOL    HW237464   0.416   4.648   2.567  0.2981 -0.2513  0.1615
 8668SOL     OW37465   2.737   4.192  13.251  0.3488 -0.0631 -0.0066
 8668SOL    HW137466   2.827   4.183  13.282  0.4850  0.1232 -0.3528
 8668SOL    HW237467   2.743   4.272  13.198 -1.2125  1.2626  1.8192
 8669SOL     OW37468   2.316   0.169   2.237 -0.2613 -0.3656 -0.5487
 8669SOL    HW137469   2.232   0.200   2.204 -1.2929 -3.4161 -0.8006
 8669SOL    HW237470   2.373   0.213   2.173  2.0309 -1.0678  1.0207
 8670SOL     OW37471   4.263   0.988   7.195 -0.3008  0.0071 -0.0487
 8670SOL    HW137472   4.349   0.951   7.211  0.1483  0.1263 -2.1544
 8670SOL    HW237473   4.204   0.922   7.231 -0.3597 -1.7324 -3.3020
 8671SOL     OW37474   1.226   3.910   5.433 -0.2148  0.1534 -0.1395
 8671SOL    HW137475   1.162   3.917   5.503  1.6574 -0.3284  1.6225
 8671SOL    HW237476   1.284   3.839   5.462 -0.9913  0.6943  2.7483
 8672SOL     OW37477   3.640   4.634  11.095 -0.1323  0.3558  0.2500
 8672SOL    HW137478   3.707   4.692  11.060  1.1338  0.6969  3.1943
 8672SOL    HW237479   3.659   4.646  11.188 -0.0747  0.4118  0.2309
 8673SOL     OW37480   4.394   3.375   6.946  0.1800  0.0467  0.2711
 8673SOL    HW137481   4.308   3.348   6.976  0.6519 -1.1217  0.5957
 8673SOL    HW237482   4.397   3.340   6.857  2.9795 -0.3725  0.5161
 8674SOL     OW37483   1.150   0.907   6.298  0.7516 -0.2419  0.1969
 8674SOL    HW137484   1.120   0.885   6.210 -1.0139  0.8728  0.5065
 8674SOL    HW237485   1.152   0.820   6.337 -0.2622 -0.7317 -0.8311
 8675SOL     OW37486   0.842   2.267   8.106  0.0442 -0.0471 -0.3649
 8675SOL    HW137487   0.889   2.184   8.110  3.4536  1.9836  1.4194
 8675SOL    HW237488   0.837   2.277   8.011  0.4867 -1.8992 -0.5872
 8676SOL     OW37489   2.231   2.877   9.221  0.3852 -0.2428 -0.6701
 8676SOL    HW137490   2.148   2.859   9.265  0.7282 -1.0169 -0.3494
 8676SOL    HW237491   2.295   2.822   9.266  0.5564 -0.3009 -0.9807
 8677SOL     OW37492   3.123   2.317   3.951  0.4876  0.4513  0.1752
 8677SOL    HW137493   3.181   2.391   3.934  0.7450  0.3731  0.6900
 8677SOL    HW237494   3.117   2.288   3.860 -2.0211  0.7690  0.2503
 8678SOL     OW37495   0.490   3.850  10.686  0.3403  0.3453 -0.1649
 8678SOL    HW137496   0.489   3.862  10.781  1.7391  0.0433 -0.1124
 8678SOL    HW237497   0.527   3.936  10.666 -0.2241  0.4732 -0.6326
 8679SOL     OW37498   4.041   4.022   3.171  0.0040 -0.2418  0.3853
 8679SOL    HW137499   4.109   3.990   3.231 -0.4135 -0.9176  0.4957
 8679SOL    HW237500   4.088   4.000   3.090 -0.6864  1.0495 -0.3619
 8680SOL     OW37501   1.906   2.059   0.856  0.2978  0.4590 -0.2014
 8680SOL    HW137502   1.972   2.015   0.803  0.4315 -0.2781  0.5766
 8680SOL    HW237503   1.928   2.148   0.828  0.5787 -0.0914 -1.7065
 8681SOL     OW37504   0.093   3.040   3.991 -0.3555  0.3260 -0.0580
 8681SOL    HW137505   0.051   3.095   3.925 -0.4370  0.1334 -0.1678
 8681SOL    HW237506   0.172   3.013   3.943  2.2956  1.2405  3.8048
 8682SOL     OW37507   1.353   2.879  15.058 -0.4691 -0.5023 -0.9058
 8682SOL    HW137508   1.346   2.972  15.079 -2.6642 -0.8933  0.1731
 8682SOL    HW237509   1.424   2.900  14.998 -0.2735  1.4745  0.0065
 8683SOL     OW37510   4.024   1.860  10.308 -0.7310 -0.6496 -0.1323
 8683SOL    HW137511   3.968   1.843  10.232  0.1319  0.7899 -1.0823
 8683SOL    HW237512   4.113   1.862  10.274 -2.2907  2.6141 -3.9077
 8684SOL     OW37513   3.617   4.229   2.754  0.2464  0.1845 -0.2482
 8684SOL    HW137514   3.704   4.264   2.773  1.0820 -1.5377 -0.9513
 8684SOL    HW237515   3.640   4.137   2.743  1.4740  0.3700  0.7979
 8685SOL     OW37516   2.457   4.548  14.217  0.4792 -0.0675 -0.4129
 8685SOL    HW137517   2.444   4.459  14.183 -0.3125 -0.8661  2.0082
 8685SOL    HW237518   2.372   4.586  14.194 -0.0332 -1.4798 -0.8617
 8686SOL     OW37519   4.004   4.399   6.180  0.4650 -0.3957 -0.1338
 8686SOL    HW137520   4.028   4.469   6.119 -0.5758  0.0614 -0.0294
 8686SOL    HW237521   4.001   4.323   6.122 -0.1208 -0.3089 -0.2265
 8687SOL     OW37522   2.958   0.304  15.282 -0.3714  0.3735 -0.5019
 8687SOL    HW137523   2.989   0.215  15.266 -2.5540 -0.5633  0.5420
 8687SOL    HW237524   2.915   0.319  15.197  0.4513 -0.2181 -1.0290
 8688SOL     OW37525   4.363   2.298   7.011  0.5811 -0.5033  0.0940
 8688SOL    HW137526   4.287   2.311   6.955  1.0503  0.9637 -0.2070
 8688SOL    HW237527   4.421   2.267   6.942 -1.7683  0.4560 -2.2819
 8689SOL     OW37528   1.713   2.769   1.641  0.7226 -0.4657  0.3753
 8689SOL    HW137529   1.675   2.849   1.604 -1.4337 -1.8302 -0.3614
 8689SOL    HW237530   1.633   2.731   1.677 -0.1730 -0.2978 -1.4269
 8690SOL     OW37531   3.261   4.675   7.384  0.2765 -0.2452 -0.4128
 8690SOL    HW137532   3.191   4.615   7.359 -0.2570  0.1650  0.1102
 8690SOL    HW237533   3.235   4.708   7.470 -2.3394 -0.7590 -0.9974
 8691SOL     OW37534   4.124   4.142   8.972  0.3315 -0.0273  0.0353
 8691SOL    HW137535   4.067   4.106   8.905 -0.7235 -0.3586  1.1083
 8691SOL    HW237536   4.140   4.069   9.033 -1.0062 -0.2308  0.1323
 8692SOL     OW37537   1.532   3.935  12.326  0.3871 -0.0804 -0.1232
 8692SOL    HW137538   1.518   4.029  12.340 -0.3269 -0.0752 -0.8575
 8692SOL    HW237539   1.497   3.895  12.405  1.6531 -0.2072  0.3857
 8693SOL     OW37540   0.885   0.440   5.203  0.2980 -0.0174  0.5123
 8693SOL    HW137541   0.849   0.525   5.226  1.4868  0.9090 -1.1137
 8693SOL    HW237542   0.932   0.469   5.125 -1.1131  0.1660 -0.2607
 8694SOL     OW37543   1.601   4.534   2.036  0.3765  0.5198 -0.2872
 8694SOL    HW137544   1.636   4.560   2.121  0.0960 -0.0266 -0.0126
 8694SOL    HW237545   1.609   4.440   2.051 -3.4462  0.0451 -1.3292
 8695SOL     OW37546   1.538   2.257   5.493 -0.0751 -0.2181  0.6674
 8695SOL    HW137547   1.473   2.237   5.426 -2.0774  0.4734  2.4295
 8695SOL    HW237548   1.494   2.220   5.569 -0.4362  0.0372  0.5821
 8696SOL     OW37549   0.482   0.883   6.914 -0.2995  0.1582  0.0365
 8696SOL    HW137550   0.416   0.944   6.881  0.6683  1.4784  0.5480
 8696SOL    HW237551   0.436   0.832   6.981  1.5402 -0.1747  1.0423
 8697SOL     OW37552   2.965   3.117   7.763 -0.6363 -0.0753 -0.1533
 8697SOL    HW137553   2.928   3.204   7.777 -0.0855  0.0233  0.7123
 8697SOL    HW237554   3.058   3.131   7.782  0.0736 -1.9181 -2.3605
 8698SOL     OW37555   3.360   4.289   9.536 -0.0777  0.2319 -0.1176
 8698SOL    HW137556   3.316   4.208   9.563  1.0727 -0.3243  0.0752
 8698SOL    HW237557   3.326   4.347   9.604 -0.2352  1.3944 -1.2069
 8699SOL     OW37558   4.455   4.331   1.850  0.5082  0.3726 -0.2072
 8699SOL    HW137559   4.531   4.294   1.894  1.8982  0.9359 -2.1507
 8699SOL    HW237560   4.468   4.425   1.864 -0.0682  0.4239 -0.0330
 8700SOL     OW37561   3.343   4.338  12.992 -0.1816 -0.1550 -0.3974
 8700SOL    HW137562   3.377   4.303  12.909  1.2334 -0.2560  0.2320
 8700SOL    HW237563   3.423   4.327  13.043  0.7461  3.1839 -1.1219
 8701SOL     OW37564   3.644   2.093  12.640  0.1273  0.3340 -0.2085
 8701SOL    HW137565   3.642   2.168  12.581  0.7307  0.9568  0.5535
 8701SOL    HW237566   3.612   2.023  12.584 -1.8870  0.9282  0.1800
 8702SOL     OW37567   0.509   1.291  16.512  0.4889 -0.3550  0.1615
 8702SOL    HW137568   0.496   1.361  16.448  1.8264  0.0100  0.2994
 8702SOL    HW237569   0.450   1.229  16.468 -1.6819  0.7735  1.4637
 8703SOL     OW37570   3.941   2.427   1.628 -0.0725 -0.1985  0.4630
 8703SOL    HW137571   3.876   2.475   1.576 -1.0627 -0.2248  1.6803
 8703SOL    HW237572   3.897   2.342   1.624 -0.9787  0.2112  1.6638
 8704SOL     OW37573   1.379   4.313   5.194  0.0695 -0.0838  0.1883
 8704SOL    HW137574   1.284   4.319   5.198  0.0992  0.5785 -0.1084
 8704SOL    HW237575   1.394   4.218   5.196 -0.8111 -0.2408 -0.4672
 8705SOL     OW37576   1.741   3.864   6.009  0.3358  0.3529  0.1763
 8705SOL    HW137577   1.655   3.835   5.980 -0.3944  1.0020  1.6581
 8705SOL    HW237578   1.796   3.800   5.964 -2.3888 -1.0545 -1.1824
 8706SOL     OW37579   4.177   3.678   2.524 -0.0556  0.1307 -0.6982
 8706SOL    HW137580   4.132   3.679   2.439 -0.1249 -0.6091 -0.6748
 8706SOL    HW237581   4.206   3.769   2.526 -1.3619  0.5307 -0.3149
 8707SOL     OW37582   0.431   3.665   3.999  0.1137 -0.9925 -0.1153
 8707SOL    HW137583   0.399   3.754   4.012  2.4766 -0.2005  0.1824
 8707SOL    HW237584   0.393   3.611   4.069  0.5443  0.2182  1.0357
 8708SOL     OW37585   1.725   0.805   8.798  0.2463  0.0413 -0.1412
 8708SOL    HW137586   1.809   0.800   8.751  0.5075 -4.9384  0.8702
 8708SOL    HW237587   1.720   0.900   8.810  0.6895  0.3240 -2.1913
 8709SOL     OW37588   2.422   1.672  10.908 -0.2755  0.2196  0.3172
 8709SOL    HW137589   2.461   1.608  10.969 -0.1397  0.7865  0.8238
 8709SOL    HW237590   2.398   1.615  10.835 -0.3563 -0.0058  0.5194
 8710SOL     OW37591   2.835   3.138  10.642  0.1341  0.1121  0.2250
 8710SOL    HW137592   2.822   3.110  10.733  1.1831 -0.2150  0.2701
 8710SOL    HW237593   2.927   3.163  10.638 -0.6801  2.6172 -2.8472
 8711SOL     OW37594   0.747   2.720   9.623 -0.0277  0.5246 -0.2992
 8711SOL    HW137595   0.715   2.735   9.534  1.1383 -0.9840 -0.9838
 8711SOL    HW237596   0.666   2.723   9.673  0.3723  0.2266  0.3657
 8712SOL     OW37597   2.640   4.510  15.085 -0.0072  0.7581 -0.3671
 8712SOL    HW137598   2.689   4.592  15.073  0.0051  0.6344 -1.1564
 8712SOL    HW237599   2.624   4.483  14.995 -0.3182 -1.0518  0.2452
 8713SOL     OW37600   0.267   2.008  15.166 -0.3694  0.0588 -0.0106
 8713SOL    HW137601   0.261   2.091  15.215 -0.1186  0.1962 -0.2097
 8713SOL    HW237602   0.210   1.956  15.222  0.1649 -1.3961 -0.8102
 8714SOL     OW37603   3.187   2.983   3.472  0.5746  0.2426  0.2589
 8714SOL    HW137604   3.204   3.055   3.412 -0.5168  0.0116 -0.3419
 8714SOL    HW237605   3.092   2.986   3.459  0.7521  0.1489 -1.0747
 8715SOL     OW37606   3.602   3.865   8.980  0.5429 -0.2853 -0.1693
 8715SOL    HW137607   3.509   3.847   8.998  1.1601 -2.8576  0.4883
 8715SOL    HW237608   3.617   3.830   8.893  0.9751  0.8331 -0.5434
 8716SOL     OW37609   0.221   0.048   6.150 -0.4822 -0.8894 -0.4914
 8716SOL    HW137610   0.263   0.130   6.176 -0.8897 -0.5276 -0.9789
 8716SOL    HW237611   0.127   0.066   6.149 -0.0343  1.4775 -0.8065
 8717SOL     OW37612   0.571   2.722  12.156 -0.2285 -0.0821  0.0223
 8717SOL    HW137613   0.488   2.767  12.173  0.6519  1.0879  1.1890
 8717SOL    HW237614   0.625   2.796  12.129  2.2792 -1.7771  0.3749
 8718SOL     OW37615   3.355   1.578  15.801 -0.1372 -0.7172  0.0053
 8718SOL    HW137616   3.415   1.579  15.727  1.8390 -2.7957  1.6036
 8718SOL    HW237617   3.274   1.593  15.753  0.6788  2.2327 -0.4330
 8719SOL     OW37618   4.435   2.701   3.979 -0.4596 -0.4232  0.3410
 8719SOL    HW137619   4.399   2.619   3.947 -1.9583  0.8270 -1.1758
 8719SOL    HW237620   4.519   2.665   4.006 -1.1836 -2.5692 -0.3161
 8720SOL     OW37621   3.946   2.843  15.068  0.4623 -0.4040 -0.7016
 8720SOL    HW137622   4.018   2.900  15.097 -1.1461  0.3168  1.8479
 8720SOL    HW237623   3.999   2.782  15.016  0.6946 -0.5119 -0.3340
 8721SOL     OW37624   1.557   0.445  10.000  0.1187 -0.0563 -0.8828
 8721SOL    HW137625   1.635   0.423   9.950  1.0641 -1.5446  1.2268
 8721SOL    HW237626   1.499   0.466   9.927  1.5072 -0.3058 -2.0553
 8722SOL     OW37627   3.504   0.586   1.650 -0.0687 -0.0281  0.5037
 8722SOL    HW137628   3.474   0.677   1.657  2.3618  0.9597 -1.8181
 8722SOL    HW237629   3.501   0.591   1.554  1.6284  0.7784  0.4911
 8723SOL     OW37630   2.042   2.837   9.805 -0.0360  0.1860  0.3198
 8723SOL    HW137631   2.048   2.751   9.845  0.2863  0.0997  0.0844
 8723SOL    HW237632   2.121   2.880   9.836 -0.1722  0.1728  0.6778
 8724SOL     OW37633   2.359   3.803   7.084 -0.4848  0.1431 -0.0362
 8724SOL    HW137634   2.319   3.876   7.037  1.6910  0.6429 -1.1210
 8724SOL    HW237635   2.309   3.793   7.165 -1.7114 -1.8870 -1.0291
 8725SOL     OW37636   0.935   1.001  11.619 -0.0915 -0.0976  0.3977
 8725SOL    HW137637   0.879   1.066  11.662 -0.4378 -1.5817  2.1713
 8725SOL    HW237638   0.920   1.014  11.525  0.8200  1.8866  0.5265
 8726SOL     OW37639   1.068   0.272  15.564  0.0813  0.1116 -0.2691
 8726SOL    HW137640   1.072   0.358  15.606 -2.6296 -0.0554  0.3695
 8726SOL    HW237641   0.982   0.276  15.521  0.5625  2.5752 -0.9964
 8727SOL     OW37642   1.783   4.348  13.934  0.2093 -0.0880  0.2091
 8727SOL    HW137643   1.712   4.285  13.917  0.4564 -0.2114 -0.3500
 8727SOL    HW237644   1.850   4.309  13.878 -0.4196  1.2487 -1.4720
 8728SOL     OW37645   2.590   4.531   4.922 -0.3697  0.4787  1.1692
 8728SOL    HW137646   2.648   4.464   4.886 -2.5245  0.1725 -1.7145
 8728SOL    HW237647   2.611   4.522   5.015  0.1528  1.7536  1.1779
 8729SOL     OW37648   1.334   1.772   3.949 -0.1472 -0.1105 -0.1365
 8729SOL    HW137649   1.406   1.779   4.012 -0.0803  1.2662 -0.3692
 8729SOL    HW237650   1.290   1.856   3.941 -2.5732 -1.2678  1.2191
 8730SOL     OW37651   1.408   1.377   6.403 -0.4777  0.2239 -0.1322
 8730SOL    HW137652   1.362   1.300   6.369 -0.0070 -1.1366  2.3400
 8730SOL    HW237653   1.429   1.349   6.492 -2.7196 -0.1304  0.2973
 8731SOL     OW37654   2.962   2.349  16.447 -0.2904 -0.3008 -0.0728
 8731SOL    HW137655   2.913   2.267  16.439 -1.8085  0.4609  1.3029
 8731SOL    HW237656   3.052   2.325  16.424 -0.8893 -0.4670 -2.2060
 8732SOL     OW37657   4.646   0.253   2.119 -0.4342 -0.4202 -0.0906
 8732SOL    HW137658   4.693   0.298   2.050 -0.2286  0.4469  0.6201
 8732SOL    HW237659   4.715   0.245   2.185  0.7288 -0.2351 -1.2900
 8733SOL     OW37660   2.014   3.738   5.444  0.6038  0.1865  0.4589
 8733SOL    HW137661   2.088   3.761   5.387  0.9116 -0.9846  0.3710
 8733SOL    HW237662   1.959   3.815   5.429  1.0441  0.2684 -0.7811
 8734SOL     OW37663   2.339   4.554   7.897  0.2445  0.2320 -0.5710
 8734SOL    HW137664   2.244   4.566   7.902  0.0232 -2.2110  0.5963
 8734SOL    HW237665   2.363   4.627   7.954  2.7598 -2.3743  1.6964
 8735SOL     OW37666   4.195   0.183  13.143 -0.7258  0.1045 -0.2020
 8735SOL    HW137667   4.142   0.250  13.099 -1.3102  1.2477  2.2540
 8735SOL    HW237668   4.176   0.193  13.236  1.6761  2.5820  0.0203
 8736SOL     OW37669   0.742   4.603   4.856  0.8044  0.3579 -0.2456
 8736SOL    HW137670   0.690   4.523   4.854 -1.0533  1.5834  0.0967
 8736SOL    HW237671   0.736   4.621   4.949 -0.3858 -1.0947 -0.0489
 8737SOL     OW37672   2.875   4.473   6.390 -0.3062  0.4366  0.7633
 8737SOL    HW137673   2.882   4.434   6.303 -2.2889  1.0665  0.3229
 8737SOL    HW237674   2.818   4.412   6.436 -0.0605 -0.0394  0.4380
 8738SOL     OW37675   2.965   1.764   2.406 -0.2082 -0.5331  0.0543
 8738SOL    HW137676   2.879   1.806   2.419  0.2940  0.0450  1.5484
 8738SOL    HW237677   2.966   1.730   2.317  4.5479  2.1791 -0.9129
 8739SOL     OW37678   1.504   4.678   1.412 -0.4367  0.1339  0.3741
 8739SOL    HW137679   1.443   0.020   1.449  2.0788  2.6165  0.2206
 8739SOL    HW237680   1.586   4.695   1.458  0.3576  1.3316 -1.5030
 8740SOL     OW37681   0.939   1.088  17.025  0.7951  0.0979  0.2785
 8740SOL    HW137682   0.924   1.063  16.934  2.4477  0.7400 -0.1675
 8740SOL    HW237683   0.893   1.172  17.027  1.2002  0.3225  0.3140
 8741SOL     OW37684   2.275   3.161   7.412 -0.4125  0.1383 -0.0796
 8741SOL    HW137685   2.278   3.211   7.331 -1.4742  0.9758  0.4088
 8741SOL    HW237686   2.315   3.080   7.379  0.4667  0.4151  0.3091
 8742SOL     OW37687   2.728   1.454   5.300  0.2263 -0.3008 -0.0083
 8742SOL    HW137688   2.783   1.532   5.290  2.1115 -1.5130  0.7776
 8742SOL    HW237689   2.800   1.394   5.320 -1.2403 -1.9195  0.3804
 8743SOL     OW37690   0.385   1.331   4.062  0.1798  0.3942  0.3529
 8743SOL    HW137691   0.460   1.289   4.019 -0.6146  0.7702 -1.3870
 8743SOL    HW237692   0.321   1.301   3.998  0.3364 -2.1184  1.3600
 8744SOL     OW37693   2.798   3.243   1.448 -0.2352 -0.4443  0.0978
 8744SOL    HW137694   2.888   3.263   1.471 -0.7143  0.4326  1.1831
 8744SOL    HW237695   2.815   3.227   1.355 -1.5204 -0.1789 -0.1822
 8745SOL     OW37696   2.391   1.101   4.969  0.1128  0.3939  0.0696
 8745SOL    HW137697   2.425   1.188   4.988  0.2982  0.0906  1.1194
 8745SOL    HW237698   2.297   1.105   4.988  0.1548 -0.2164  0.3678
 8746SOL     OW37699   4.483   3.769   0.469 -0.0062 -0.0035  0.1970
 8746SOL    HW137700   4.560   3.807   0.512  0.0660  2.1876 -1.8892
 8746SOL    HW237701   4.479   3.683   0.511 -1.0221  1.1988  2.5443
 8747SOL     OW37702   2.495   1.333   4.946  0.0186 -0.0194 -0.4525
 8747SOL    HW137703   2.588   1.344   4.966  0.9139 -0.7197 -4.1336
 8747SOL    HW237704   2.444   1.395   4.998  1.2942  0.8776 -0.2823
 8748SOL     OW37705   3.775   4.012   4.799 -0.0839  0.1854  0.4120
 8748SOL    HW137706   3.793   4.091   4.850  0.3865  0.7303 -0.6069
 8748SOL    HW237707   3.692   3.993   4.844 -1.7627  4.4538 -0.8640
 8749SOL     OW37708   4.062   1.438   1.673  0.0401  0.2912 -0.2633
 8749SOL    HW137709   4.142   1.396   1.704 -0.7510  0.9405  2.5878
 8749SOL    HW237710   4.085   1.443   1.580  2.4546  0.2166  0.3173
 8750SOL     OW37711   1.601   1.217   6.532 -0.1947  0.2366  0.1044
 8750SOL    HW137712   1.617   1.251   6.444 -0.1189  0.6214  0.2642
 8750SOL    HW237713   1.650   1.135   6.534 -0.2056  0.2488  0.9561
 8751SOL     OW37714   1.057   0.428  12.610  0.2246  0.3040 -0.1917
 8751SOL    HW137715   1.014   0.480  12.677 -0.8886  1.6301 -1.9273
 8751SOL    HW237716   1.074   0.498  12.547  2.5908  1.1281  1.3607
 8752SOL     OW37717   2.216   2.377   2.019  0.0076  0.2969 -0.1490
 8752SOL    HW137718   2.161   2.455   2.012 -0.8637 -0.1080  2.1504
 8752SOL    HW237719   2.270   2.373   1.940 -0.5250  2.1760 -0.6281
 8753SOL     OW37720   2.234   0.654   5.894 -0.3800 -0.2229  0.0289
 8753SOL    HW137721   2.272   0.593   5.830  1.5116 -0.0661  1.0084
 8753SOL    HW237722   2.273   0.740   5.876  0.1680 -0.7127 -1.1903
 8754SOL     OW37723   2.642   2.577   3.284  0.2329  0.8461  0.6638
 8754SOL    HW137724   2.594   2.570   3.367  1.8204 -0.5571  1.4557
 8754SOL    HW237725   2.564   2.571   3.228  1.1294 -2.1499 -0.2655
 8755SOL     OW37726   4.515   2.834   5.572  0.6472  0.0690  0.0506
 8755SOL    HW137727   4.435   2.877   5.603 -0.4428 -1.5141 -0.5629
 8755SOL    HW237728   4.581   2.879   5.625  1.5580  1.4995 -2.3398
 8756SOL     OW37729   3.958   2.270  14.808  0.0171 -0.2104 -0.2274
 8756SOL    HW137730   4.001   2.187  14.832 -2.6891 -1.5801 -0.1696
 8756SOL    HW237731   3.897   2.276  14.881  0.4548 -1.9568  0.2895
 8757SOL     OW37732   0.828   4.167  15.796 -0.0474 -0.2574  0.0454
 8757SOL    HW137733   0.833   4.217  15.878 -3.0353  0.6943 -0.3584
 8757SOL    HW237734   0.746   4.207  15.767 -0.8325 -1.6226  0.3766
 8758SOL     OW37735   4.129   0.179  11.500  0.3767 -0.4631  0.2190
 8758SOL    HW137736   4.217   0.143  11.511 -0.3088 -2.6432 -1.6243
 8758SOL    HW237737   4.133   0.238  11.576  0.8603 -1.2122  0.7740
 8759SOL     OW37738   1.447   0.616   9.820  0.8331 -0.1537 -0.3046
 8759SOL    HW137739   1.357   0.595   9.797  0.9452  1.1005 -1.8601
 8759SOL    HW237740   1.429   0.703   9.857  1.4692 -0.5203  0.8670
 8760SOL     OW37741   1.189   1.476   9.110 -0.9358 -0.3784  0.1163
 8760SOL    HW137742   1.257   1.483   9.043 -0.8571  2.1129  0.4731
 8760SOL    HW237743   1.118   1.522   9.065  0.6100  1.8491 -0.0390
 8761SOL     OW37744   0.534   3.913  13.504 -0.2103 -0.0285  0.7403
 8761SOL    HW137745   0.563   3.873  13.422 -0.2981 -0.2919  0.8360
 8761SOL    HW237746   0.440   3.921  13.484  0.0150 -1.1717 -0.7334
 8762SOL     OW37747   0.918   3.249   4.377  0.2142 -0.3684  0.1065
 8762SOL    HW137748   0.901   3.236   4.471  0.0261 -0.8522  0.0077
 8762SOL    HW237749   0.866   3.325   4.354  0.7233  0.6300  2.2488
 8763SOL     OW37750   1.865   3.333   3.760 -0.1063 -0.5968 -0.1352
 8763SOL    HW137751   1.860   3.345   3.665 -1.4636 -3.8868 -0.5073
 8763SOL    HW237752   1.867   3.237   3.764 -2.4180 -0.6171  1.1476
 8764SOL     OW37753   4.349   3.638   4.919 -0.4216  0.3385 -0.0056
 8764SOL    HW137754   4.355   3.722   4.874  0.6350  0.0273 -0.4382
 8764SOL    HW237755   4.312   3.591   4.844 -0.0889  0.1849 -0.0748
 8765SOL     OW37756   0.264   3.153   7.173  0.1812 -0.6795  0.5768
 8765SOL    HW137757   0.267   3.066   7.213  1.2436 -0.2214  1.4834
 8765SOL    HW237758   0.209   3.205   7.230  2.7427  2.1675  0.4323
 8766SOL     OW37759   0.795   2.033   5.234 -0.2395  0.0454 -0.2013
 8766SOL    HW137760   0.791   1.961   5.172 -2.1307  1.1208 -1.3365
 8766SOL    HW237761   0.749   2.002   5.311  2.5009 -1.6805  0.7187
 8767SOL     OW37762   4.709   3.461   5.913 -0.3905  0.3799  0.7439
 8767SOL    HW137763   0.028   3.452   5.827 -2.3568 -2.2659  0.0975
 8767SOL    HW237764   4.720   3.555   5.927  1.1879  0.8611 -3.5983
 8768SOL     OW37765   3.163   3.598  11.208 -0.6148  0.2688  0.2079
 8768SOL    HW137766   3.155   3.613  11.302  0.6915  1.8424  0.0703
 8768SOL    HW237767   3.236   3.536  11.214 -0.1036  0.7845 -0.7781
 8769SOL     OW37768   0.040   0.870   1.747  0.0684  0.5059  0.2047
 8769SOL    HW137769   0.077   0.786   1.721 -1.6139 -1.0245  2.8219
 8769SOL    HW237770   0.117   0.927   1.747 -1.3748  2.4678  3.0983
 8770SOL     OW37771   1.183   3.107  16.301 -0.4233 -0.4851 -0.3685
 8770SOL    HW137772   1.246   3.163  16.256 -1.6276 -0.1484 -1.5974
 8770SOL    HW237773   1.229   3.024  16.287 -0.8061 -1.1511  2.2673
 8771SOL     OW37774   1.360   3.553   6.102 -0.1757 -0.0287  0.4223
 8771SOL    HW137775   1.411   3.479   6.069  1.4711  1.6276 -0.7113
 8771SOL    HW237776   1.389   3.561   6.192 -0.9166 -1.7134  0.8144
 8772SOL     OW37777   3.916   0.720  14.354 -0.3365 -0.7625 -0.4494
 8772SOL    HW137778   3.898   0.812  14.333 -1.2581 -1.5750 -3.1680
 8772SOL    HW237779   3.969   0.686  14.282 -3.9387 -0.7824 -3.0843
 8773SOL     OW37780   2.043   2.040   9.607  0.4255  0.3452  0.2024
 8773SOL    HW137781   2.029   1.945   9.603 -1.2145  0.5759  0.6465
 8773SOL    HW237782   2.137   2.041   9.585  0.3616  0.4965 -0.0666
 8774SOL     OW37783   1.156   4.434   5.354  0.0469  0.4929  0.0565
 8774SOL    HW137784   1.112   4.467   5.276 -1.0357  0.2737  0.5810
 8774SOL    HW237785   1.146   4.339   5.356 -1.2501  0.6035 -1.8282
 8775SOL     OW37786   0.380   2.234   2.539 -0.2078 -0.4285 -0.2081
 8775SOL    HW137787   0.427   2.176   2.479  1.8412  0.5657  0.4267
 8775SOL    HW237788   0.350   2.295   2.471  1.2683 -0.8795 -1.2777
 8776SOL     OW37789   1.525   3.271  16.931  0.4623 -0.3339 -0.2756
 8776SOL    HW137790   1.482   3.194  16.895 -0.6402  0.2156 -0.1361
 8776SOL    HW237791   1.542   3.329  16.856 -0.5447 -1.3253 -1.2567
 8777SOL     OW37792   0.067   3.152   7.587 -0.0788 -1.0243 -0.7197
 8777SOL    HW137793   0.056   3.187   7.676 -0.6178 -1.8571 -0.4591
 8777SOL    HW237794   0.161   3.132   7.587  0.1293 -0.0405  2.1939
 8778SOL     OW37795   1.242   2.687   7.155 -0.0208  0.1483 -0.5837
 8778SOL    HW137796   1.235   2.614   7.093  0.2279 -0.4190  0.0613
 8778SOL    HW237797   1.324   2.671   7.201 -0.6242 -2.3323 -0.3650
 8779SOL     OW37798   3.461   3.450   6.581 -0.4994  0.1131 -0.5599
 8779SOL    HW137799   3.498   3.502   6.510  1.1811 -0.2846  0.0336
 8779SOL    HW237800   3.483   3.510   6.652  0.5948 -0.3610 -0.5100
 8780SOL     OW37801   1.733   0.876   8.444  0.0828  0.1391  0.5245
 8780SOL    HW137802   1.656   0.906   8.396 -0.3906 -1.5705  0.1907
 8780SOL    HW237803   1.727   0.781   8.433 -2.4792  0.6098 -2.3483
 8781SOL     OW37804   1.569   3.187   4.492 -0.0641 -0.0985 -0.4316
 8781SOL    HW137805   1.507   3.190   4.420  0.6963  1.2141 -1.0320
 8781SOL    HW237806   1.512   3.147   4.558  0.9360 -1.5429 -0.4381
 8782SOL     OW37807   4.656   1.546  12.300  0.0786 -0.5393 -0.2018
 8782SOL    HW137808   4.631   1.590  12.219 -1.0371 -2.0343 -0.6830
 8782SOL    HW237809   4.714   1.613  12.335  1.2277 -2.1351  0.9285
 8783SOL     OW37810   2.007   3.581   7.703 -0.5650  0.3878 -0.0374
 8783SOL    HW137811   2.039   3.509   7.649  0.4809  1.1122 -0.3748
 8783SOL    HW237812   2.037   3.561   7.791  0.8677 -0.2560 -0.6744
 8784SOL     OW37813   3.795   0.420   3.052  0.0651 -0.2093 -0.4487
 8784SOL    HW137814   3.749   0.489   3.004  4.2240  2.8948  0.0618
 8784SOL    HW237815   3.727   0.359   3.082  0.0735  1.0588  2.1013
 8785SOL     OW37816   3.149   2.123   7.210  0.6396  0.4084 -0.0918
 8785SOL    HW137817   3.200   2.203   7.213 -0.5196  1.2267 -1.8403
 8785SOL    HW237818   3.066   2.155   7.173  2.2516  2.1334 -2.1734
 8786SOL     OW37819   1.824   4.363   9.126 -0.4503  0.2543  0.3432
 8786SOL    HW137820   1.771   4.313   9.064  0.8500  1.4887 -1.7851
 8786SOL    HW237821   1.845   4.280   9.169 -1.2972 -2.1420 -3.7769
 8787SOL     OW37822   2.666   3.417   8.942 -0.1909 -0.0298 -0.0397
 8787SOL    HW137823   2.642   3.458   9.025  2.4695  2.4302 -0.4870
 8787SOL    HW237824   2.582   3.381   8.917  0.9591 -0.5948 -3.0552
 8788SOL     OW37825   1.938   2.822  15.153  0.8910 -0.3479  0.5012
 8788SOL    HW137826   1.919   2.862  15.068  1.9132  1.1353  0.9777
 8788SOL    HW237827   2.027   2.787  15.149  0.8281 -0.4878  0.3270
 8789SOL     OW37828   2.855   4.591   9.239 -0.0037 -0.2247 -0.0775
 8789SOL    HW137829   2.834   4.594   9.332 -1.8218  1.0313 -0.5208
 8789SOL    HW237830   2.811   4.511   9.212  2.0835 -0.2777 -3.3734
 8790SOL     OW37831   4.396   3.335   4.500 -0.4613  0.1853 -0.3904
 8790SOL    HW137832   4.486   3.306   4.487 -0.0464  0.1977  2.4617
 8790SOL    HW237833   4.376   3.257   4.552  2.8067  0.2060  0.9333
 8791SOL     OW37834   0.016   4.126   5.196 -0.0607 -0.1685  0.1796
 8791SOL    HW137835   4.651   4.119   5.155 -0.0389  0.6988 -0.0121
 8791SOL    HW237836   4.712   4.192   5.260 -0.6056 -0.6081  0.4109
 8792SOL     OW37837   3.137   4.369  16.391  0.1437  0.0205  0.0221
 8792SOL    HW137838   3.201   4.303  16.415 -0.4935 -0.7644 -0.4356
 8792SOL    HW237839   3.173   4.388  16.305  1.1148  2.1211  0.8838
 8793SOL     OW37840   3.497   1.757   3.494  0.3963  0.2902 -0.1845
 8793SOL    HW137841   3.500   1.734   3.401 -0.8081  1.1450 -0.4301
 8793SOL    HW237842   3.512   1.851   3.491 -0.4665  0.4631  1.0724
 8794SOL     OW37843   0.973   3.067   6.510  0.1905  0.5781 -0.1326
 8794SOL    HW137844   0.904   3.044   6.448  0.0213  1.6865 -0.3673
 8794SOL    HW237845   0.959   3.162   6.513  0.3617  0.5619  1.0412
 8795SOL     OW37846   1.045   2.905   4.435  0.1349  0.0708  0.1023
 8795SOL    HW137847   1.055   2.942   4.347 -1.1368 -0.0929 -0.1126
 8795SOL    HW237848   1.037   2.813   4.409  1.4166 -0.1235  0.4328
 8796SOL     OW37849   4.332   1.264  10.227 -0.0127  0.1862  0.5170
 8796SOL    HW137850   4.414   1.229  10.262  1.1312  4.3522  1.9539
 8796SOL    HW237851   4.277   1.232  10.298 -0.6738 -0.5211 -0.3138
 8797SOL     OW37852   1.300   1.877   5.756  0.4946  0.2590 -0.0534
 8797SOL    HW137853   1.313   1.972   5.755 -1.1901  0.4831 -0.1025
 8797SOL    HW237854   1.295   1.864   5.850  1.7834  2.2046  0.2696
 8798SOL     OW37855   4.158   4.032  15.866  0.0525  0.0784  0.4493
 8798SOL    HW137856   4.147   3.966  15.797 -1.4633  0.9461 -0.1426
 8798SOL    HW237857   4.073   4.076  15.854  1.7294  3.2884  0.3871
 8799SOL     OW37858   3.665   0.356   2.647 -0.3848 -0.6674 -0.5654
 8799SOL    HW137859   3.721   0.316   2.713  0.9559  0.6177 -0.9409
 8799SOL    HW237860   3.589   0.386   2.697 -0.0306 -0.2334 -0.2852
 8800SOL     OW37861   3.329   0.881  11.046  0.5313  0.1703 -0.2840
 8800SOL    HW137862   3.376   0.807  11.009  1.9434  1.8286 -1.8110
 8800SOL    HW237863   3.404   0.932  11.078  0.8940  0.0553 -0.9456
 8801SOL     OW37864   1.821   4.184   2.503 -0.1258 -0.2797  0.3542
 8801SOL    HW137865   1.897   4.224   2.460 -0.8449 -0.0264 -0.6843
 8801SOL    HW237866   1.792   4.243   2.572 -0.8685 -0.1539 -0.0638
 8802SOL     OW37867   1.844   1.665   0.198 -0.0621  0.3425  0.0173
 8802SOL    HW137868   1.823   1.578   0.231 -1.5034 -0.0531 -1.9961
 8802SOL    HW237869   1.938   1.674   0.212 -0.0409  1.0408 -0.5984
 8803SOL     OW37870   3.924   3.103   9.830 -0.0297 -0.3718  0.7020
 8803SOL    HW137871   3.948   3.055   9.909 -0.4257 -4.0892 -1.4290
 8803SOL    HW237872   4.003   3.125   9.780 -0.1808 -1.9878 -0.2657
 8804SOL     OW37873   1.394   0.058   1.098 -0.3114  0.2725  0.0835
 8804SOL    HW137874   1.355   0.074   1.012 -1.1324  0.1080  0.4243
 8804SOL    HW237875   1.392   0.144   1.140  1.6995  0.6113 -0.5525
 8805SOL     OW37876   2.719   4.659   6.772 -0.1817 -0.1514  0.3461
 8805SOL    HW137877   2.731   4.698   6.858 -1.0813 -1.3294  1.0011
 8805SOL    HW237878   2.650   4.716   6.737 -0.1546 -0.3972 -0.1156
 8806SOL     OW37879   1.338   3.997   8.706  0.0311  0.5691 -0.5039
 8806SOL    HW137880   1.385   4.072   8.670  2.7004 -1.0444 -0.4517
 8806SOL    HW237881   1.391   3.917   8.709 -1.9979 -0.6826  1.4280
 8807SOL     OW37882   4.719   0.060   8.790  0.2629  0.3909 -0.0562
 8807SOL    HW137883   0.051   0.121   8.740  0.9471  2.1884  2.8828
 8807SOL    HW237884   4.675   0.119   8.852 -0.4535  0.8483 -1.0030
 8808SOL     OW37885   0.918   4.459  12.591  0.2213  0.0704 -0.2214
 8808SOL    HW137886   0.862   4.410  12.530  1.2688 -1.4527  0.0362
 8808SOL    HW237887   0.887   4.547  12.568  1.1984  0.6258  0.6028
 8809SOL     OW37888   1.360   2.973   5.854 -0.5374 -0.1128 -0.1094
 8809SOL    HW137889   1.294   3.026   5.898  0.1339 -1.4293  2.4966
 8809SOL    HW237890   1.303   2.897   5.842  0.6530 -1.1256  0.5777
 8810SOL     OW37891   3.362   1.107  16.949 -1.0758 -0.0560 -0.0566
 8810SOL    HW137892   3.429   1.138  16.889  1.2270 -0.7695  2.1407
 8810SOL    HW237893   3.383   1.143  17.036 -1.6393  2.7918 -1.0933
 8811SOL     OW37894   1.316   2.345  14.356 -0.1013  0.0715 -0.0552
 8811SOL    HW137895   1.380   2.275  14.370 -1.1097 -0.8328  0.0185
 8811SOL    HW237896   1.375   2.420  14.360  0.7675 -0.7412  2.8814
 8812SOL     OW37897   2.311   4.434  16.007 -0.0319 -0.2728 -0.5085
 8812SOL    HW137898   2.307   4.384  16.088 -1.6003  0.4600 -0.1359
 8812SOL    HW237899   2.393   4.398  15.974  0.6406  2.0038 -1.3823
 8813SOL     OW37900   3.356   2.853   3.307 -0.2673  0.3286 -0.7360
 8813SOL    HW137901   3.307   2.774   3.283 -2.6968  1.9834 -1.1829
 8813SOL    HW237902   3.314   2.879   3.388  0.7429  0.3910 -0.2307
 8814SOL     OW37903   4.542   2.301   2.235 -0.2382  0.2417 -0.2840
 8814SOL    HW137904   4.492   2.231   2.191  0.5551  0.9825 -2.3493
 8814SOL    HW237905   4.612   2.309   2.171  0.5209  2.8011  0.8911
 8815SOL     OW37906   1.842   0.439   8.734  0.6362  0.2605 -0.2514
 8815SOL    HW137907   1.915   0.395   8.777 -0.2037  0.2788  1.1864
 8815SOL    HW237908   1.873   0.530   8.724  0.1195  0.6313  1.4812
 8816SOL     OW37909   1.192   2.652  16.233 -0.0365 -0.0417 -0.4694
 8816SOL    HW137910   1.102   2.682  16.219  0.5790  1.4574 -1.1599
 8816SOL    HW237911   1.192   2.593  16.157  2.9142  0.6525 -1.0141
 8817SOL     OW37912   0.973   4.203   4.006  0.2867  0.3056  0.5389
 8817SOL    HW137913   0.973   4.108   4.007  0.3852  0.3097  1.6014
 8817SOL    HW237914   1.063   4.235   4.017 -0.1514  1.7146  0.0605
 8818SOL     OW37915   0.847   4.182   2.251  0.5319 -0.0790 -0.4386
 8818SOL    HW137916   0.924   4.197   2.306  1.7803 -1.1356 -1.8904
 8818SOL    HW237917   0.776   4.154   2.309  0.1827 -1.1999 -1.3971
 8819SOL     OW37918   3.010   1.641   3.111 -0.0684  0.1383  0.3753
 8819SOL    HW137919   2.921   1.658   3.143 -0.0949  0.7337 -0.0173
 8819SOL    HW237920   3.038   1.728   3.085  0.8039  0.2411  1.6400
 8820SOL     OW37921   0.745   0.227   4.931  0.2907 -0.5904  0.2509
 8820SOL    HW137922   0.772   0.216   5.022  1.0987 -3.1838 -0.2981
 8820SOL    HW237923   0.821   0.201   4.880  2.2184  4.0401  0.8232
 8821SOL     OW37924   0.016   0.221   7.354 -0.2374 -0.0386 -1.0139
 8821SOL    HW137925   4.646   0.198   7.336 -0.6206  0.4646  0.3501
 8821SOL    HW237926   0.010   0.290   7.419 -0.3187  0.6179 -1.7216
 8822SOL     OW37927   0.965   0.062   7.254 -0.9209  0.7145  0.1857
 8822SOL    HW137928   0.917   4.719   7.307  0.5738 -0.7991 -0.3138
 8822SOL    HW237929   0.965   0.135   7.316  1.2405  0.6155  0.3016
 8823SOL     OW37930   3.054   2.781   9.051  0.7265  0.6826  0.4136
 8823SOL    HW137931   3.124   2.847   9.050  1.1221  0.2993  3.0829
 8823SOL    HW237932   2.981   2.832   9.015  1.0591  0.7661 -0.1354
 8824SOL     OW37933   4.560   0.312   8.062 -0.2077  0.0768  0.2474
 8824SOL    HW137934   4.503   0.316   8.138  0.8383  3.6996  0.8837
 8824SOL    HW237935   4.638   0.362   8.087  0.8331 -0.5358 -1.7415
 8825SOL     OW37936   1.288   3.933   0.290 -0.3520  0.5712 -0.4785
 8825SOL    HW137937   1.314   3.842   0.272  1.5633  1.0194  0.0859
 8825SOL    HW237938   1.295   3.932   0.385 -0.3744 -2.5884 -0.4992
 8826SOL     OW37939   1.843   4.095   4.267 -0.1688 -0.2888 -0.3272
 8826SOL    HW137940   1.765   4.083   4.213 -1.1276  3.0285  0.3260
 8826SOL    HW237941   1.849   4.189   4.283  0.3208  0.0755 -2.5882
 8827SOL     OW37942   0.559   1.508   5.659  0.4550 -0.0201 -0.8240
 8827SOL    HW137943   0.564   1.418   5.691 -0.5704 -0.4910 -1.9700
 8827SOL    HW237944   0.489   1.545   5.712  2.0919  2.1993 -0.2465
 8828SOL     OW37945   2.173   4.099   3.220  0.2326  0.5198 -0.2821
 8828SOL    HW137946   2.256   4.053   3.231  0.3930  0.3274 -2.2071
 8828SOL    HW237947   2.150   4.080   3.129 -3.0687  0.7544  0.5053
 8829SOL     OW37948   1.759   2.966   8.133 -0.3143 -0.0592 -0.6545
 8829SOL    HW137949   1.833   3.003   8.180 -1.2584 -0.7028  1.3680
 8829SOL    HW237950   1.736   2.881   8.172 -1.9435  1.1787  1.1119
 8830SOL     OW37951   1.924   1.345   6.571 -0.3851  0.4414 -0.1062
 8830SOL    HW137952   1.927   1.255   6.541  2.1809  0.4642  0.1517
 8830SOL    HW237953   1.877   1.339   6.654  1.2451 -0.5763  0.7337
 8831SOL     OW37954   3.843   4.138   1.400 -0.1974  0.7546  0.5557
 8831SOL    HW137955   3.908   4.078   1.434  0.0870  0.5687 -0.3264
 8831SOL    HW237956   3.776   4.078   1.366 -1.2511  1.1888  1.8475
 8832SOL     OW37957   0.303   1.019   6.740 -0.3297 -0.1723  0.3459
 8832SOL    HW137958   0.360   1.078   6.691 -1.5406  1.5240  0.9846
 8832SOL    HW237959   0.236   1.000   6.674  0.5411  0.6464 -0.7413
 8833SOL     OW37960   0.453   2.865   3.363 -0.3368 -0.3301  0.3201
 8833SOL    HW137961   0.413   2.784   3.331  0.0396  0.0706 -1.1697
 8833SOL    HW237962   0.516   2.836   3.429 -0.2194 -0.6731  0.0567
 8834SOL     OW37963   4.382   1.379   3.425 -0.0425  0.4516  0.3411
 8834SOL    HW137964   4.341   1.465   3.429 -0.3387  0.2341  1.9732
 8834SOL    HW237965   4.332   1.344   3.351  0.9989  2.8499 -1.4723
 8835SOL     OW37966   4.387   2.757   4.346  0.4719 -0.5632 -0.5580
 8835SOL    HW137967   4.430   2.832   4.305 -1.7428  0.4321 -1.0452
 8835SOL    HW237968   4.346   2.728   4.264 -0.6057  0.1580 -0.2638
 8836SOL     OW37969   4.298   4.488  13.635  0.6307  0.4929  0.0249
 8836SOL    HW137970   4.250   4.483  13.553 -0.0262  0.5799  0.3984
 8836SOL    HW237971   4.389   4.474  13.609  1.6510  1.4209  3.0685
 8837SOL     OW37972   2.574   3.435   9.435 -0.9666 -0.0069 -0.4936
 8837SOL    HW137973   2.670   3.435   9.430 -0.9560  0.4526 -0.2136
 8837SOL    HW237974   2.557   3.454   9.343 -1.1414  1.0537 -0.2411
 8838SOL     OW37975   1.376   1.696  17.543 -0.2162  0.0676 -0.1605
 8838SOL    HW137976   1.454   1.673  17.594  1.5946  2.3433 -1.9405
 8838SOL    HW237977   1.397   1.787  17.521 -1.3111  0.3772  0.0800
 8839SOL     OW37978   4.710   2.243   2.536 -0.1549 -0.7295  0.6776
 8839SOL    HW137979   4.641   2.210   2.478 -0.4499  2.0909 -0.5685
 8839SOL    HW237980   0.022   2.158   2.565  0.1049 -0.9271 -0.1924
 8840SOL     OW37981   4.066   0.244   2.172 -0.4871  0.1169 -0.2070
 8840SOL    HW137982   4.044   0.223   2.082 -2.3793 -2.1751  0.7774
 8840SOL    HW237983   4.157   0.219   2.184 -0.2563  0.6484 -0.8790
 8841SOL     OW37984   3.490   4.210  12.818  0.3722  0.1481  0.1006
 8841SOL    HW137985   3.568   4.238  12.771 -0.9426 -0.2544 -2.3132
 8841SOL    HW237986   3.452   4.168  12.741  0.1412  0.7553 -0.1152
 8842SOL     OW37987   3.398   0.768   7.980 -0.5195  0.3529  0.6176
 8842SOL    HW137988   3.362   0.701   8.038 -0.2915 -0.4230 -0.1367
 8842SOL    HW237989   3.389   0.851   8.026  1.9541  0.7771  0.3684
 8843SOL     OW37990   0.907   2.971   5.536 -0.6205  0.2985  0.3246
 8843SOL    HW137991   0.872   2.909   5.600  0.7475  0.6471  1.4218
 8843SOL    HW237992   0.985   2.919   5.517 -0.2878  0.9754 -0.1601
 8844SOL     OW37993   4.297   1.050   6.041  0.2265  0.1540  0.3238
 8844SOL    HW137994   4.239   0.976   6.060 -1.3607  1.4830  0.7507
 8844SOL    HW237995   4.325   1.059   6.132 -1.2714  3.4945  0.4638
 8845SOL     OW37996   2.993   0.887   3.443  0.1915 -0.2368 -0.4159
 8845SOL    HW137997   3.076   0.859   3.406  2.0934  1.4142  2.6244
 8845SOL    HW237998   2.934   0.872   3.369  0.9733 -0.5303 -0.9715
 8846SOL     OW37999   4.342   3.987   3.282  0.0923  0.4379  0.4495
 8846SOL    HW138000   4.390   4.051   3.229  0.9038 -0.2145  0.3940
 8846SOL    HW238001   4.335   3.911   3.225  0.0437 -1.3233  2.8239
 8847SOL     OW38002   4.336   3.792   8.144 -0.5612 -0.1742  0.5958
 8847SOL    HW138003   4.293   3.833   8.219  1.0889  0.7953  1.0180
 8847SOL    HW238004   4.420   3.838   8.148 -0.8860  0.4671 -0.0984
 8848SOL     OW38005   2.237   0.689   8.838 -0.6286  0.1143  0.2301
 8848SOL    HW138006   2.216   0.717   8.927 -1.0363 -0.8769  0.4513
 8848SOL    HW238007   2.267   0.767   8.792 -1.5378 -0.7772 -1.9023
 8849SOL     OW38008   3.564   2.608   5.454  0.6496  0.5760 -0.1085
 8849SOL    HW138009   3.607   2.535   5.498 -2.1572 -1.9218 -1.5072
 8849SOL    HW238010   3.610   2.609   5.370  0.9899 -3.1861  0.0324
 8850SOL     OW38011   2.298   2.838   2.585  0.2543  0.2858 -0.7300
 8850SOL    HW138012   2.240   2.914   2.598 -0.2223 -0.1153 -0.5068
 8850SOL    HW238013   2.262   2.791   2.510 -0.1618 -0.7885  0.1414
 8851SOL     OW38014   3.363   1.467  10.691 -0.2609 -0.7486  0.0501
 8851SOL    HW138015   3.440   1.524  10.683  1.3953 -2.9580  0.2761
 8851SOL    HW238016   3.295   1.525  10.656  0.2973 -0.2918 -0.2886
 8852SOL     OW38017   0.425   3.779   9.496 -0.1997 -0.9318  0.6091
 8852SOL    HW138018   0.449   3.695   9.458  0.3250 -0.2033 -0.6645
 8852SOL    HW238019   0.510   3.798   9.536 -0.0571  1.0996 -0.6689
 8853SOL     OW38020   1.404   4.476   6.879  0.1598 -0.2256 -0.1992
 8853SOL    HW138021   1.452   4.404   6.918  0.3903  0.9131  1.6538
 8853SOL    HW238022   1.360   4.430   6.808 -0.2497  2.8844 -1.9778
 8854SOL     OW38023   1.326   2.649   4.620  0.6183 -0.2018  0.5360
 8854SOL    HW138024   1.401   2.623   4.566 -1.8041 -1.1564 -2.3403
 8854SOL    HW238025   1.276   2.569   4.636 -0.6658  0.4380 -0.2943
 8855SOL     OW38026   4.246   4.639   7.033  0.2518  0.4988 -0.5327
 8855SOL    HW138027   4.212   4.650   6.944  2.6801  0.9583 -1.4040
 8855SOL    HW238028   4.324   4.691   7.014  0.5559 -0.1392 -1.0387
 8856SOL     OW38029   2.311   0.710   3.513 -0.1785  1.1687  0.5278
 8856SOL    HW138030   2.389   0.766   3.517  1.8803 -1.7587  1.0697
 8856SOL    HW238031   2.321   0.670   3.427 -0.8110 -0.3847  1.1878
 8857SOL     OW38032   1.366   2.406   1.827 -0.6249 -0.8174 -0.8774
 8857SOL    HW138033   1.429   2.335   1.833 -1.3635 -1.4993 -1.2423
 8857SOL    HW238034   1.289   2.350   1.822 -0.2882 -1.1680 -2.1609
 8858SOL     OW38035   0.392   0.605   7.761  0.2184  0.2590  0.1506
 8858SOL    HW138036   0.428   0.689   7.790 -1.7290  0.7900  1.0457
 8858SOL    HW238037   0.438   0.546   7.821  0.9357  1.6892  1.0116
 8859SOL     OW38038   4.174   4.516  14.159  0.0341 -0.4902 -0.0328
 8859SOL    HW138039   4.179   4.547  14.069 -0.4312 -0.2228  0.0326
 8859SOL    HW238040   4.243   4.450  14.162  0.5523 -0.0252 -1.9834
 8860SOL     OW38041   3.386   1.389   3.045 -0.1097  0.5946  0.2035
 8860SOL    HW138042   3.324   1.363   2.977  1.2406 -3.0748  0.3854
 8860SOL    HW238043   3.328   1.415   3.117 -0.1154  0.6555  0.1772
 8861SOL     OW38044   4.202   4.481  13.390  0.1757  0.4007  0.1857
 8861SOL    HW138045   4.240   4.528  13.315 -2.1144  0.9502 -0.6438
 8861SOL    HW238046   4.110   4.497  13.368  0.0043  0.0184  0.6309
 8862SOL     OW38047   1.605   0.592   8.424  0.2662 -0.1649  0.4122
 8862SOL    HW138048   1.549   0.645   8.481  1.4241 -0.1914  1.5736
 8862SOL    HW238049   1.553   0.616   8.346 -1.3072 -0.4526  1.3812
 8863SOL     OW38050   2.141   3.516   2.758 -0.1305 -0.4758  0.0854
 8863SOL    HW138051   2.101   3.549   2.677  1.3559 -1.6707 -1.1386
 8863SOL    HW238052   2.066   3.525   2.817 -0.5409 -1.6631 -0.2650
 8864SOL     OW38053   3.665   2.698   1.788 -0.2550 -0.3744  0.1634
 8864SOL    HW138054   3.588   2.728   1.740  1.5627  0.9441 -1.9284
 8864SOL    HW238055   3.646   2.605   1.805  1.5313 -0.7224  0.2772
 8865SOL     OW38056   0.449   3.537  16.230  0.2069 -0.3535  0.0937
 8865SOL    HW138057   0.437   3.551  16.136  2.6806  1.1994  0.0191
 8865SOL    HW238058   0.543   3.524  16.242  0.3382  1.3333  0.8913
 8866SOL     OW38059   2.020   2.016   4.777  0.4172 -0.5050  0.5785
 8866SOL    HW138060   1.947   2.016   4.838 -0.3493  1.4503 -0.3494
 8866SOL    HW238061   2.051   1.927   4.795 -0.2237 -0.9611 -0.5865
 8867SOL     OW38062   3.700   1.785   1.152  0.3421 -0.3727  0.3632
 8867SOL    HW138063   3.662   1.804   1.238  2.5423  1.3020  0.9708
 8867SOL    HW238064   3.686   1.690   1.146 -0.1110 -0.2180 -0.9265
 8868SOL     OW38065   3.467   1.801   4.279 -0.1100  0.1003 -0.1490
 8868SOL    HW138066   3.420   1.865   4.332  1.2613  2.2283 -1.5255
 8868SOL    HW238067   3.484   1.853   4.200  2.6054  0.4940  0.7111
 8869SOL     OW38068   1.870   2.607   2.438 -0.6320  0.4833  0.2540
 8869SOL    HW138069   1.809   2.654   2.496 -1.7557 -0.3861 -0.2319
 8869SOL    HW238070   1.932   2.674   2.412 -2.1729  1.8095 -0.0434
 8870SOL     OW38071   0.981   0.987  15.345  0.1498 -0.2403 -0.4439
 8870SOL    HW138072   0.895   1.011  15.378  1.2448  0.2478  2.1060
 8870SOL    HW238073   1.043   1.019  15.411 -0.2699 -0.2379 -0.0521
 8871SOL     OW38074   4.452   2.826  17.305 -0.3493 -0.2301  0.2652
 8871SOL    HW138075   4.500   2.755  17.263 -1.5820 -1.2976  0.6511
 8871SOL    HW238076   4.391   2.783  17.365 -0.5105  1.2487  1.1722
 8872SOL     OW38077   1.436   1.315   2.067  0.0449  0.0446  0.2076
 8872SOL    HW138078   1.522   1.354   2.081  0.2114  0.4443 -1.8785
 8872SOL    HW238079   1.457   1.229   2.103 -0.3107 -1.1332 -2.4095
 8873SOL     OW38080   2.080   4.160   9.027 -0.0908  0.5313  0.3545
 8873SOL    HW138081   2.023   4.130   9.097  1.4843 -2.0746  0.5219
 8873SOL    HW238082   2.080   4.254   9.045  0.3981  0.8038 -1.0788
 8874SOL     OW38083   2.444   3.902   7.749  0.2012 -0.5191  0.2874
 8874SOL    HW138084   2.354   3.869   7.755  1.1435 -3.0431  0.4518
 8874SOL    HW238085   2.427   3.986   7.707  0.5657  1.1333  3.4451
 8875SOL     OW38086   1.694   2.632  15.226 -0.3527 -0.1245  0.4629
 8875SOL    HW138087   1.736   2.546  15.229 -0.9058 -0.3959  0.4635
 8875SOL    HW238088   1.733   2.670  15.148 -0.8791 -1.6140 -0.5448
 8876SOL     OW38089   4.566   2.618   7.813 -0.4638  0.6973 -0.1163
 8876SOL    HW138090   4.609   2.692   7.771 -1.6361  0.6007 -1.5093
 8876SOL    HW238091   4.632   2.578   7.870 -2.2174  0.3605  1.6945
 8877SOL     OW38092   1.774   1.574   8.294 -0.0215  0.7531 -0.1763
 8877SOL    HW138093   1.784   1.613   8.381 -0.1605  0.6408 -0.1103
 8877SOL    HW238094   1.715   1.501   8.312  1.5113 -0.7005 -1.0924
 8878SOL     OW38095   3.604   2.342   7.650 -0.2060 -0.6549 -0.2273
 8878SOL    HW138096   3.546   2.274   7.686  1.5841 -1.5240  1.0081
 8878SOL    HW238097   3.588   2.411   7.714 -0.4987  0.8648 -1.9460
 8879SOL     OW38098   0.201   3.532   4.995 -0.0012 -0.4455 -0.2564
 8879SOL    HW138099   0.229   3.584   5.070 -0.5915  1.9023 -1.6451
 8879SOL    HW238100   0.120   3.581   4.977 -2.5787 -3.6449  2.5176
 8880SOL     OW38101   2.557   2.618   3.956  0.4828 -0.7024 -0.2299
 8880SOL    HW138102   2.500   2.659   3.891 -0.0603  0.1552  0.7912
 8880SOL    HW238103   2.542   2.524   3.944  2.1334 -1.5372  4.4043
 8881SOL     OW38104   3.379   2.189   8.149  0.2840  0.4964 -0.1759
 8881SOL    HW138105   3.402   2.269   8.102 -0.4830  0.9091  0.1463
 8881SOL    HW238106   3.349   2.135   8.076  1.1032 -1.2434  0.7642
 8882SOL     OW38107   4.328   2.846   7.422 -0.3844 -0.6567  0.2876
 8882SOL    HW138108   4.309   2.752   7.414 -1.8423 -0.2017 -1.3561
 8882SOL    HW238109   4.246   2.893   7.434  0.9061  1.9319 -0.9796
 8883SOL     OW38110   0.005   0.503  16.879 -0.4934 -0.3003 -0.3726
 8883SOL    HW138111   0.030   0.453  16.801  0.3644 -0.7218  0.1702
 8883SOL    HW238112   4.643   0.462  16.899 -0.0510 -0.7412  0.5953
 8884SOL     OW38113   2.939   0.946  14.532 -0.4126  0.2240 -0.4987
 8884SOL    HW138114   2.922   1.003  14.607  0.2473  0.6425 -0.6670
 8884SOL    HW238115   2.948   0.857  14.567 -1.1717  0.2381 -0.2682
 8885SOL     OW38116   0.259   2.448  13.662  0.7146  0.6096 -0.4206
 8885SOL    HW138117   0.170   2.472  13.689  0.2730 -0.1711 -1.1921
 8885SOL    HW238118   0.246   2.356  13.685 -0.4039  0.9580  0.3767
 8886SOL     OW38119   4.396   3.869   5.602  0.1421  0.6047  0.1174
 8886SOL    HW138120   4.439   3.943   5.645  0.7136 -0.6982  1.7687
 8886SOL    HW238121   4.392   3.806   5.673  1.6690  0.4673  0.0680
 8887SOL     OW38122   1.980   0.617  10.623  0.4164  0.0245 -0.5675
 8887SOL    HW138123   1.977   0.555  10.550 -3.3246  1.3703 -1.5417
 8887SOL    HW238124   2.051   0.580  10.676  0.2022 -0.0651 -0.3437
 8888SOL     OW38125   2.036   1.316  15.261  0.1370 -0.1528 -0.0448
 8888SOL    HW138126   2.054   1.401  15.301 -2.3367  0.1196  0.4605
 8888SOL    HW238127   2.060   1.333  15.169  0.0489 -0.5300 -0.1379
 8889SOL     OW38128   1.240   0.148   7.988  0.0104 -0.1789 -0.0594
 8889SOL    HW138129   1.278   0.198   7.916 -0.9835 -0.2697 -0.6446
 8889SOL    HW238130   1.167   0.111   7.938  1.0461 -1.0982 -0.9032
 8890SOL     OW38131   2.421   2.466   9.864  0.0721  0.4431  0.8592
 8890SOL    HW138132   2.375   2.530   9.809  0.5501  0.5803  0.6127
 8890SOL    HW238133   2.395   2.382   9.825 -0.5335  1.3333 -0.6727
 8891SOL     OW38134   4.088   1.196  15.115  0.7119  0.3610  0.9600
 8891SOL    HW138135   4.129   1.240  15.041  0.4722  2.1608  1.9153
 8891SOL    HW238136   4.011   1.248  15.137  0.0083  0.1147 -0.9284
 8892SOL     OW38137   3.524   0.072  14.633  0.0559  0.1884  0.0660
 8892SOL    HW138138   3.461   0.140  14.613  0.0786 -0.1235 -1.0787
 8892SOL    HW238139   3.469   4.720  14.607  0.5406  0.0352 -0.5399
 8893SOL     OW38140   0.962   1.640  17.379 -0.3724 -0.2640 -0.0696
 8893SOL    HW138141   0.890   1.604  17.328  0.6540 -1.6759 -0.4921
 8893SOL    HW238142   1.003   1.560  17.412  1.1977  0.8623  0.7467
 8894SOL     OW38143   2.697   4.194   9.627 -0.2163 -0.2799 -0.2045
 8894SOL    HW138144   2.642   4.118   9.649 -0.2564 -0.1713  0.0625
 8894SOL    HW238145   2.750   4.206   9.706 -0.6742  1.5514 -0.1943
 8895SOL     OW38146   0.520   0.343   1.512 -0.1028  0.1225 -0.2565
 8895SOL    HW138147   0.510   0.283   1.586 -0.2399 -1.4251 -1.5512
 8895SOL    HW238148   0.433   0.363   1.478 -0.6569 -1.7076  0.0870
 8896SOL     OW38149   1.419   1.481  11.349 -0.0832 -0.6264 -0.6288
 8896SOL    HW138150   1.342   1.497  11.404  0.7506  1.4710 -0.0626
 8896SOL    HW238151   1.382   1.447  11.267 -0.7718  0.1397 -0.6403
 8897SOL     OW38152   0.102   2.135   9.204  0.2282  0.0303 -0.1127
 8897SOL    HW138153   0.064   2.153   9.290  2.0429  1.5683  0.3765
 8897SOL    HW238154   0.150   2.054   9.220 -0.3156 -0.4208 -0.7142
 8898SOL     OW38155   4.373   4.644   1.602  0.1199  0.4209  0.0461
 8898SOL    HW138156   4.403   4.562   1.562 -1.7065  0.5052 -1.5291
 8898SOL    HW238157   4.323   4.684   1.531  0.7160 -1.0164 -1.1833
 8899SOL     OW38158   0.943   1.224   8.020  0.3051  0.6392  0.0860
 8899SOL    HW138159   0.860   1.236   8.065  1.0324  1.3138  1.2377
 8899SOL    HW238160   0.979   1.311   8.040  2.4460 -0.0373 -0.7854
 8900SOL     OW38161   0.329   1.155  16.354 -1.0817  0.3180  0.1448
 8900SOL    HW138162   0.344   1.181  16.263  0.8702 -1.8007 -0.1173
 8900SOL    HW238163   0.371   1.070  16.354  0.9549  1.3215  3.8208
 8901SOL     OW38164   3.869   0.394  14.993 -0.1209 -0.0496 -0.0098
 8901SOL    HW138165   3.783   0.436  14.989  0.0059  0.3419  1.4021
 8901SOL    HW238166   3.892   0.377  14.902 -0.1730  0.5370 -0.1320
 8902SOL     OW38167   0.060   3.205  13.444  0.1398 -0.3630 -0.3792
 8902SOL    HW138168   0.005   3.222  13.367 -1.1262  0.0202  0.6249
 8902SOL    HW238169   4.716   3.163  13.499  0.9549  1.7161  2.1619
 8903SOL     OW38170   1.725   4.198  16.628 -0.0810  0.3930 -0.0634
 8903SOL    HW138171   1.696   4.152  16.549 -0.9279  0.9373 -0.0734
 8903SOL    HW238172   1.662   4.269  16.641 -0.5689 -0.2518  1.1100
 8904SOL     OW38173   2.198   1.636   4.740  0.2350 -0.2724  0.4374
 8904SOL    HW138174   2.133   1.660   4.674 -0.5393 -0.8060  1.0112
 8904SOL    HW238175   2.170   1.693   4.811  0.2908  2.1757 -1.5175
 8905SOL     OW38176   2.779   2.062   7.565  0.3578  0.1349 -0.4328
 8905SOL    HW138177   2.771   2.158   7.561  0.8741  0.2440  1.5402
 8905SOL    HW238178   2.747   2.031   7.480 -0.4651 -0.5053  0.1267
 8906SOL     OW38179   1.232   1.106  10.770 -0.3408  0.1782 -0.0787
 8906SOL    HW138180   1.183   1.185  10.793 -1.2107 -0.4305  0.1627
 8906SOL    HW238181   1.169   1.034  10.772 -3.1697  2.6268 -0.3211
 8907SOL     OW38182   1.397   0.183   6.710 -0.1611  0.2802 -0.1606
 8907SOL    HW138183   1.315   0.138   6.692 -0.4980  1.3594 -1.3101
 8907SOL    HW238184   1.459   0.141   6.651 -1.3439 -1.6872  0.0062
 8908SOL     OW38185   4.067   4.663   0.861 -0.1886 -0.1866 -0.0451
 8908SOL    HW138186   4.105   4.691   0.944 -1.1099 -1.5090  0.8150
 8908SOL    HW238187   3.984   4.709   0.853 -0.2999 -0.3347  0.2631
 8909SOL     OW38188   2.131   1.937   6.558  0.1315  0.2599  0.3663
 8909SOL    HW138189   2.099   1.926   6.469  1.8869 -0.6954 -0.1516
 8909SOL    HW238190   2.225   1.938   6.542  0.0573 -3.6079 -0.1761
 8910SOL     OW38191   2.483   1.639   2.567 -0.1590  0.1072 -0.3665
 8910SOL    HW138192   2.431   1.562   2.591 -0.1495  0.0198 -0.6332
 8910SOL    HW238193   2.425   1.687   2.508 -1.9971 -1.8702 -0.1640
 8911SOL     OW38194   3.142   1.129   6.524 -0.0189 -0.3405  0.0899
 8911SOL    HW138195   3.154   1.080   6.605 -0.5775 -0.1073  0.3143
 8911SOL    HW238196   3.230   1.161   6.504  0.3308 -0.0609  2.0914
 8912SOL     OW38197   3.681   4.228   3.934 -0.2080  0.5078  0.0145
 8912SOL    HW138198   3.777   4.230   3.929 -0.1370 -1.8002  0.3135
 8912SOL    HW238199   3.670   4.133   3.937 -0.8535  0.5381 -1.9072
 8913SOL     OW38200   1.649   1.697  16.160  0.1910  0.2873  0.1405
 8913SOL    HW138201   1.706   1.623  16.139  2.5353  1.9694  0.5442
 8913SOL    HW238202   1.663   1.756  16.086 -1.9199 -3.6278 -3.3835
 8914SOL     OW38203   2.364   1.182   2.986 -0.3414 -0.2657 -0.2319
 8914SOL    HW138204   2.299   1.223   3.043  0.9683  0.5995  0.6438
 8914SOL    HW238205   2.315   1.125   2.926 -2.1078  0.6356  0.3524
 8915SOL     OW38206   1.856   2.824   3.041  0.6688  0.8467  0.3800
 8915SOL    HW138207   1.903   2.904   3.017  0.1291  0.8869 -0.5222
 8915SOL    HW238208   1.763   2.841   3.023  0.6591 -0.3452 -0.7112
 8916SOL     OW38209   4.290   3.117   4.998 -0.4463 -0.4258 -0.2770
 8916SOL    HW138210   4.298   3.048   4.932 -2.5491  0.2527 -1.2271
 8916SOL    HW238211   4.288   3.066   5.079 -0.1159  0.6874  0.4370
 8917SOL     OW38212   0.037   3.990   9.316 -0.4482 -0.0198 -0.0579
 8917SOL    HW138213   4.694   3.929   9.352  0.0867 -0.6950 -0.2411
 8917SOL    HW238214   0.028   3.961   9.226  2.1178  0.5693 -0.4802
 8918SOL     OW38215   3.033   1.894   6.746 -0.3006 -0.1957 -0.0433
 8918SOL    HW138216   3.001   1.814   6.788 -0.2866 -0.1565  0.0428
 8918SOL    HW238217   3.108   1.863   6.695 -0.0793 -0.4801  0.4514
 8919SOL     OW38218   0.618   1.306  16.754  0.0042  0.0470 -0.1287
 8919SOL    HW138219   0.566   1.280  16.677 -0.4169 -0.6789  0.4053
 8919SOL    HW238220   0.668   1.367  16.700  1.4804  0.4106  1.6836
 8920SOL     OW38221   1.916   4.677   8.558 -0.0986  0.1551  0.4123
 8920SOL    HW138222   1.861   0.010   8.614 -0.9668  1.0345 -1.3263
 8920SOL    HW238223   1.937   4.609   8.622  0.8198  0.5092  0.4944
 8921SOL     OW38224   3.958   1.816  12.849 -0.2730  0.2656 -0.7183
 8921SOL    HW138225   4.016   1.889  12.871 -0.4857  0.0158  0.6823
 8921SOL    HW238226   4.023   1.749  12.873 -0.8406  0.6782  2.0058
 8922SOL     OW38227   1.603   1.221  14.975 -0.1812  0.2852  0.1289
 8922SOL    HW138228   1.594   1.298  14.920  2.9392  1.8013  1.7491
 8922SOL    HW238229   1.621   1.257  15.062 -1.1162 -0.1413  0.5084
 8923SOL     OW38230   3.010   2.363   6.922  0.3196 -0.7499  0.1326
 8923SOL    HW138231   3.099   2.389   6.897 -0.4400  0.1797 -1.6084
 8923SOL    HW238232   2.957   2.412   6.859 -0.0448 -2.4147 -0.8748
 8924SOL     OW38233   2.648   0.166  13.752 -0.1160  0.0569 -0.8789
 8924SOL    HW138234   2.587   0.137  13.685 -2.6715 -0.5999  1.7484
 8924SOL    HW238235   2.588   0.210  13.812  0.8375  0.6358 -0.3302
 8925SOL     OW38236   0.381   2.824   4.872 -0.1615  0.1100 -0.0421
 8925SOL    HW138237   0.314   2.892   4.872  0.7672  1.0226 -0.7128
 8925SOL    HW238238   0.362   2.763   4.801 -0.5565 -0.9364  0.9694
 8926SOL     OW38239   2.093   2.605   6.354  0.0541  0.4649 -0.0677
 8926SOL    HW138240   1.999   2.592   6.364 -0.1668  1.7975 -0.5028
 8926SOL    HW238241   2.125   2.617   6.443  0.9260 -0.2888 -0.2801
 8927SOL     OW38242   2.789   2.451   2.092 -0.8720 -0.1872  0.1065
 8927SOL    HW138243   2.791   2.367   2.138  0.4685 -1.1900 -1.7658
 8927SOL    HW238244   2.874   2.446   2.049  0.5835  0.4076  2.8603
 8928SOL     OW38245   0.616   2.004  16.233  0.2209  0.2952 -0.4316
 8928SOL    HW138246   0.689   2.011  16.171  0.7223 -0.9270  0.0176
 8928SOL    HW238247   0.542   2.014  16.174 -0.8951 -2.3386  0.4754
 8929SOL     OW38248   1.715   2.029  12.892  0.3844 -0.0774  0.3132
 8929SOL    HW138249   1.790   2.078  12.858  1.2280 -2.3010 -1.0161
 8929SOL    HW238250   1.749   1.939  12.890 -2.0691 -0.9299 -3.6613
 8930SOL     OW38251   2.383   4.509   3.572  0.0609 -0.3929  0.0896
 8930SOL    HW138252   2.288   4.507   3.585 -0.2235  1.2581 -1.6702
 8930SOL    HW238253   2.409   4.445   3.505 -0.0362 -0.1636 -0.1692
 8931SOL     OW38254   0.465   1.446   1.346  0.1181 -0.0362 -0.8990
 8931SOL    HW138255   0.392   1.394   1.379  1.2216 -0.4379  0.9135
 8931SOL    HW238256   0.544   1.432   1.398  0.0053 -1.2613 -1.0760
 8932SOL     OW38257   2.508   2.088   3.029  0.4355  0.5049 -0.2490
 8932SOL    HW138258   2.463   2.102   3.113  0.5182  2.6296 -0.5640
 8932SOL    HW238259   2.522   1.994   3.032 -0.3998  0.3465 -1.9661
 8933SOL     OW38260   4.141   2.125   0.451 -0.4871  0.1147  0.0424
 8933SOL    HW138261   4.183   2.099   0.369 -0.0752  1.8481 -0.2990
 8933SOL    HW238262   4.209   2.110   0.517 -0.8800  2.6410  1.0220
 8934SOL     OW38263   0.300   3.685   6.171  0.6386  0.5088  0.6119
 8934SOL    HW138264   0.281   3.637   6.251 -1.2393 -1.9553 -1.3547
 8934SOL    HW238265   0.349   3.758   6.210  0.3867 -0.9493  3.6016
 8935SOL     OW38266   1.230   3.607   0.686 -0.0737  0.6595 -0.2884
 8935SOL    HW138267   1.320   3.634   0.706  0.1666 -0.4395  0.1293
 8935SOL    HW238268   1.187   3.630   0.768  0.9062 -0.9549  0.6919
 8936SOL     OW38269   4.400   2.792  16.755 -0.4421 -0.0639  0.6239
 8936SOL    HW138270   4.399   2.779  16.850  1.0087 -1.2961  0.4840
 8936SOL    HW238271   4.496   2.786  16.747 -0.3823  1.2894  0.3983
 8937SOL     OW38272   0.734   0.885  12.444  0.3340  0.1936  0.1573
 8937SOL    HW138273   0.657   0.938  12.424  0.2981 -0.4895 -1.5550
 8937SOL    HW238274   0.692   0.799  12.444  1.6643 -0.4647 -0.7849
 8938SOL     OW38275   4.343   3.970  14.172  0.2179 -0.2517  0.2963
 8938SOL    HW138276   4.428   4.010  14.156 -0.0399 -0.6184 -1.9301
 8938SOL    HW238277   4.321   3.976  14.265  0.7722 -1.0456  0.4743
 8939SOL     OW38278   2.411   3.655  14.083  0.3186  0.1033 -0.3866
 8939SOL    HW138279   2.488   3.711  14.092 -0.6195  1.4419 -0.6442
 8939SOL    HW238280   2.342   3.714  14.051  1.2291  2.4627  2.0445
 8940SOL     OW38281   3.454   0.061   1.371  0.5149  1.0581  0.1860
 8940SOL    HW138282   3.454   0.027   1.282  0.4557 -4.1138  2.1879
 8940SOL    HW238283   3.421   4.706   1.416 -1.4117  1.4947 -0.5016
 8941SOL     OW38284   4.035   2.102  12.397 -0.1347  0.4046 -0.1573
 8941SOL    HW138285   4.009   2.123  12.307 -0.9384 -0.2270 -0.0682
 8941SOL    HW238286   3.973   2.150  12.452 -1.3685 -0.1279 -1.0820
 8942SOL     OW38287   1.199   2.859  16.961 -0.5650 -0.1173  0.2678
 8942SOL    HW138288   1.143   2.806  16.905  0.9300 -0.1242 -1.2383
 8942SOL    HW238289   1.144   2.933  16.986  1.4517  1.3490  0.3973
 8943SOL     OW38290   1.380   4.703   4.352  0.1853 -0.1209 -0.4369
 8943SOL    HW138291   1.452   4.675   4.296  0.9004  0.2889  0.2761
 8943SOL    HW238292   1.389   4.647   4.429  0.5683  0.2823 -0.1853
 8944SOL     OW38293   0.096   3.932   9.658 -0.1742 -0.1404  0.3844
 8944SOL    HW138294   0.025   3.870   9.648 -0.4063  0.2609 -0.4721
 8944SOL    HW238295   0.086   3.948   9.751  0.8257  3.6871 -0.1579
 8945SOL     OW38296   4.604   2.324   8.390  0.3504  0.6821  0.3847
 8945SOL    HW138297   4.643   2.261   8.329 -0.7596 -0.8004  1.2145
 8945SOL    HW238298   4.619   2.282   8.474  1.0419 -0.4621 -0.3104
 8946SOL     OW38299   2.402   0.028  11.775  0.1734  0.1145  0.0810
 8946SOL    HW138300   2.365   0.110  11.741 -2.6120 -0.0939  2.5731
 8946SOL    HW238301   2.486   0.051  11.814  0.0014 -1.1558  1.1851
 8947SOL     OW38302   0.854   0.359   6.539 -0.1324 -0.4037 -0.5184
 8947SOL    HW138303   0.948   0.376   6.530 -0.1113 -0.1359  0.2420
 8947SOL    HW238304   0.853   0.324   6.628  0.8301 -0.7372 -0.6375
 8948SOL     OW38305   1.974   0.657   6.385  0.3614 -0.2611  0.4640
 8948SOL    HW138306   2.049   0.617   6.341  0.6916  0.7163  0.1427
 8948SOL    HW238307   2.000   0.747   6.401 -2.2801  0.5535  0.1840
 8949SOL     OW38308   4.095   3.686   9.766  0.6435 -0.3439  0.3161
 8949SOL    HW138309   4.177   3.638   9.749 -0.2850 -2.4483  1.7832
 8949SOL    HW238310   4.069   3.644   9.848 -1.1512  0.6120  0.2398
 8950SOL     OW38311   3.462   2.182  16.311 -0.1511 -0.0419  0.0418
 8950SOL    HW138312   3.427   2.093  16.302  0.3948 -0.2283 -0.2404
 8950SOL    HW238313   3.528   2.180  16.242 -1.8840 -0.3517 -1.6204
 8951SOL     OW38314   1.132   0.507   7.727 -0.0837  0.0153 -0.4971
 8951SOL    HW138315   1.116   0.562   7.651  0.6230  2.1388  0.9062
 8951SOL    HW238316   1.135   0.424   7.679 -0.0465  0.3473 -1.0669
 8952SOL     OW38317   2.606   2.916   3.446  0.4567 -0.0147 -0.4917
 8952SOL    HW138318   2.556   2.897   3.525  0.3334 -0.5931 -0.7110
 8952SOL    HW238319   2.641   2.831   3.419 -0.2932 -0.3348 -0.4695
 8953SOL     OW38320   2.248   1.271  12.630 -0.1660 -0.5263  0.1865
 8953SOL    HW138321   2.336   1.307  12.620 -0.2132 -0.4124  0.1774
 8953SOL    HW238322   2.205   1.333  12.570 -0.5250 -0.3778  0.5914
 8954SOL     OW38323   0.573   1.553   6.680  0.2206  0.6493 -0.3013
 8954SOL    HW138324   0.554   1.614   6.751 -0.0881 -0.9814  0.9984
 8954SOL    HW238325   0.598   1.472   6.724  1.2822 -0.2596 -2.5371
 8955SOL     OW38326   0.707   0.304   4.612 -0.0463 -0.1751 -0.5474
 8955SOL    HW138327   0.783   0.308   4.670 -1.7341  1.4948  1.5481
 8955SOL    HW238328   0.757   0.281   4.533  1.1568  3.1104 -0.7212
 8956SOL     OW38329   1.159   2.257   2.875 -0.3511 -0.1460  0.5490
 8956SOL    HW138330   1.234   2.231   2.821 -0.1548  1.0205  0.2569
 8956SOL    HW238331   1.090   2.263   2.810 -0.3468  1.3709  0.7033
 8957SOL     OW38332   0.894   3.609  10.138  0.4498 -0.1631 -0.1611
 8957SOL    HW138333   0.846   3.580  10.216  1.3463  2.6021  1.4476
 8957SOL    HW238334   0.898   3.529  10.085  0.7288 -1.4805  1.8371
 8958SOL     OW38335   4.378   1.758  10.567  0.1770 -0.1515  0.0163
 8958SOL    HW138336   4.349   1.716  10.487  0.2557 -0.6532  0.2539
 8958SOL    HW238337   4.299   1.791  10.611 -0.7650 -0.8344 -1.1931
 8959SOL     OW38338   1.266   0.925   7.942 -0.0555 -0.3559  0.5792
 8959SOL    HW138339   1.229   0.837   7.955  0.0981 -0.2279  1.8879
 8959SOL    HW238340   1.183   0.966   7.919  0.5354  0.7472  0.4386
 8960SOL     OW38341   0.397   4.635   3.899 -0.1053 -0.3310 -0.4358
 8960SOL    HW138342   0.476   4.594   3.935  0.4469  1.8667  0.8608
 8960SOL    HW238343   0.363   4.673   3.980 -0.3051 -1.4459  0.0173
 8961SOL     OW38344   1.042   2.899   6.086 -0.2629  0.3936  0.3071
 8961SOL    HW138345   1.096   2.914   6.163 -3.0210  2.1208  1.8783
 8961SOL    HW238346   1.084   2.948   6.016  0.9437 -1.0479  0.0238
 8962SOL     OW38347   3.505   2.226   7.387  0.3488  0.8551 -0.0759
 8962SOL    HW138348   3.523   2.303   7.441 -4.1706  0.7087  1.6067
 8962SOL    HW238349   3.502   2.154   7.450 -0.7308  1.3582  0.4399
 8963SOL     OW38350   1.613   0.060   6.335  0.4591 -0.6348  0.2078
 8963SOL    HW138351   1.694   0.094   6.298  0.0386 -0.5792 -0.6459
 8963SOL    HW238352   1.549   0.092   6.271  0.1547  1.8531  1.7644
 8964SOL     OW38353   1.478   4.197  10.986  0.2145  0.5251  0.1573
 8964SOL    HW138354   1.426   4.236  11.056 -0.5638  0.4795 -0.3956
 8964SOL    HW238355   1.563   4.240  10.999  0.1328  0.3650  1.2684
 8965SOL     OW38356   3.952   0.996   2.918  0.5855  0.3715 -0.1989
 8965SOL    HW138357   3.951   1.003   2.823 -0.9803 -1.9189 -0.3171
 8965SOL    HW238358   4.016   1.068   2.922  0.3805  0.5551 -0.1957
 8966SOL     OW38359   0.032   1.761   1.011 -0.7268  0.1520  0.0242
 8966SOL    HW138360   4.720   1.725   1.093 -0.1273 -1.5546 -0.4725
 8966SOL    HW238361   0.125   1.747   1.032  0.0304  3.6668 -0.9285
 8967SOL     OW38362   4.615   1.106   8.806 -0.3749 -0.1994  0.0187
 8967SOL    HW138363   4.572   1.023   8.826  0.4158 -0.3587  1.0620
 8967SOL    HW238364   4.596   1.152   8.888 -4.3545 -2.6883  0.5051
 8968SOL     OW38365   4.520   2.971   9.356 -0.2369  0.4888 -1.0702
 8968SOL    HW138366   4.589   2.915   9.320 -0.8202  0.2827 -1.8612
 8968SOL    HW238367   4.441   2.917   9.351 -0.7800  1.2629 -0.8923
 8969SOL     OW38368   4.071   4.275   8.705  0.6118  0.0398 -0.1497
 8969SOL    HW138369   4.042   4.189   8.736  0.6950  0.4615  1.1164
 8969SOL    HW238370   4.055   4.268   8.611  1.2581  0.1188 -0.2635
 8970SOL     OW38371   2.549   3.765   3.099  0.4316  0.6034 -0.1049
 8970SOL    HW138372   2.484   3.701   3.128  1.0533 -0.8258 -1.8586
 8970SOL    HW238373   2.614   3.756   3.169 -0.4010 -0.5532  0.5222
 8971SOL     OW38374   4.084   3.555   8.954 -0.4795 -0.4061 -0.3553
 8971SOL    HW138375   4.003   3.509   8.976 -0.8010  0.4141  0.1479
 8971SOL    HW238376   4.065   3.606   8.875  0.3899  0.6632  0.1304
 8972SOL     OW38377   0.518   0.555   6.189 -0.0851 -0.0983 -0.0292
 8972SOL    HW138378   0.514   0.604   6.271  1.1862  1.3162 -0.8271
 8972SOL    HW238379   0.438   0.592   6.153 -0.6727 -0.9943  0.3338
 8973SOL     OW38380   0.300   3.340   7.845 -0.1147 -0.1656  0.0406
 8973SOL    HW138381   0.395   3.344   7.833 -0.0884  1.3007  0.7318
 8973SOL    HW238382   0.271   3.257   7.808  0.2204 -1.0480  1.7635
 8974SOL     OW38383   1.230   1.825   9.329  0.3744  0.1832  0.5002
 8974SOL    HW138384   1.222   1.845   9.422 -0.7649 -0.2870  0.5024
 8974SOL    HW238385   1.241   1.730   9.336 -1.5568  0.0540  1.6980
 8975SOL     OW38386   1.379   3.231   8.645  0.1008 -0.1048 -0.1220
 8975SOL    HW138387   1.451   3.267   8.594  1.5466 -3.1114 -0.2562
 8975SOL    HW238388   1.436   3.195   8.713 -0.5849 -0.3858  0.3036
 8976SOL     OW38389   1.974   4.287   4.601  0.0865  0.1169  0.0872
 8976SOL    HW138390   2.038   4.347   4.562  1.1632 -0.9098  0.2853
 8976SOL    HW238391   2.014   4.203   4.581  0.2536 -0.1753  1.6141
 8977SOL     OW38392   0.085   1.851   5.520 -0.2811  0.0733  0.1267
 8977SOL    HW138393   0.087   1.912   5.595  1.7652  1.4482 -1.0305
 8977SOL    HW238394   0.175   1.860   5.489 -1.0823 -0.3112 -2.2618
 8978SOL     OW38395   4.586   1.822   3.392 -0.1394 -0.2376 -0.1469
 8978SOL    HW138396   4.558   1.910   3.419 -1.9409 -1.6252  2.5081
 8978SOL    HW238397   4.536   1.767   3.452  1.7445 -1.1304  0.5877
 8979SOL     OW38398   1.806   3.936  14.882  0.3819 -0.1253 -0.1527
 8979SOL    HW138399   1.812   4.029  14.907  0.4527 -0.1027 -0.2568
 8979SOL    HW238400   1.718   3.953  14.847  0.4211  0.3904 -0.0119
 8980SOL     OW38401   3.276   0.996   0.896 -0.0550 -0.6565 -0.6227
 8980SOL    HW138402   3.359   0.949   0.887  0.5833  0.7289 -1.8620
 8980SOL    HW238403   3.269   1.054   0.821  0.3410  0.6342  0.3415
 8981SOL     OW38404   1.144   4.423  12.734 -0.2084  0.1112  0.1380
 8981SOL    HW138405   1.056   4.410  12.699 -0.1354  0.2389 -0.0964
 8981SOL    HW238406   1.180   4.482  12.668 -0.4496 -0.3353 -0.3929
 8982SOL     OW38407   3.243   0.235   4.340 -0.4423  0.3037  0.2001
 8982SOL    HW138408   3.232   0.143   4.318  0.1067 -0.3515  2.6231
 8982SOL    HW238409   3.238   0.235   4.436  0.6952 -1.2914  0.2734
 8983SOL     OW38410   3.656   3.299   4.750  0.7620  0.0239 -0.1242
 8983SOL    HW138411   3.727   3.346   4.706 -0.4647  0.6440 -1.4230
 8983SOL    HW238412   3.594   3.371   4.760  1.1377  0.4408 -0.7965
 8984SOL     OW38413   1.793   1.444  10.876  0.1733  0.4066  0.3472
 8984SOL    HW138414   1.753   1.483  10.954  2.6351  1.1393  1.2378
 8984SOL    HW238415   1.864   1.390  10.909  0.5990  0.7756  0.0345
 8985SOL     OW38416   3.785   3.636   2.412 -0.4120  0.5292 -0.1506
 8985SOL    HW138417   3.793   3.658   2.320  2.1129 -1.0286 -0.3098
 8985SOL    HW238418   3.731   3.557   2.402  1.5237 -0.4910 -2.5169
 8986SOL     OW38419   0.756   0.415  16.084 -0.0068 -0.2360 -0.1275
 8986SOL    HW138420   0.813   0.363  16.027 -0.4087  1.7364 -2.3186
 8986SOL    HW238421   0.706   0.456  16.013 -0.1212 -0.8326 -0.3911
 8987SOL     OW38422   1.394   3.813   8.127  0.0723  0.4959 -0.1758
 8987SOL    HW138423   1.368   3.721   8.126 -2.4657  1.2280 -0.6183
 8987SOL    HW238424   1.444   3.808   8.209  0.6350 -2.8393 -0.7220
 8988SOL     OW38425   3.843   0.813  12.764  0.9160  0.1540  0.1450
 8988SOL    HW138426   3.772   0.774  12.713  1.4990 -1.2364  0.3967
 8988SOL    HW238427   3.913   0.812  12.699  0.0380 -1.7692 -0.7665
 8989SOL     OW38428   0.904   4.719  13.596 -0.3618  0.5030  0.0620
 8989SOL    HW138429   0.844   4.672  13.654 -1.3808  0.8755 -0.6833
 8989SOL    HW238430   0.847   0.008  13.520  2.3066  2.9238 -1.5855
 8990SOL     OW38431   3.728   0.495  11.074 -0.0846 -0.3117  0.0359
 8990SOL    HW138432   3.711   0.463  10.986  1.2377 -0.5978 -0.1159
 8990SOL    HW238433   3.743   0.589  11.065  3.0002 -0.5613  2.5229
 8991SOL     OW38434   3.828   3.279   7.055 -0.3248  0.0773 -0.6912
 8991SOL    HW138435   3.869   3.225   7.123 -1.3028 -1.5085 -1.3496
 8991SOL    HW238436   3.805   3.359   7.101  1.0527  1.0948 -1.7794
 8992SOL     OW38437   4.112   0.024  16.820 -0.6695 -0.1922 -0.2792
 8992SOL    HW138438   4.164   4.667  16.805 -2.5092 -1.2331 -1.2247
 8992SOL    HW238439   4.063   4.708  16.894  1.5028 -0.4516  1.0161
 8993SOL     OW38440   3.121   3.695  15.346 -0.3982  0.2513  0.2627
 8993SOL    HW138441   3.111   3.653  15.261 -1.8437  0.2949  0.4242
 8993SOL    HW238442   3.040   3.744  15.357 -0.6411  0.1550 -1.1417
 8994SOL     OW38443   4.573   1.487   3.779 -0.1545 -0.1319  0.5797
 8994SOL    HW138444   4.557   1.394   3.762  1.8223 -0.5222  0.9157
 8994SOL    HW238445   4.637   1.492   3.850  1.3621  0.3725 -0.8363
 8995SOL     OW38446   3.927   4.579   7.695 -0.5206 -0.0604  0.3731
 8995SOL    HW138447   3.985   4.503   7.700 -1.8976 -1.2942 -2.4135
 8995SOL    HW238448   3.842   4.543   7.672 -0.5371  0.7747 -0.8951
 8996SOL     OW38449   2.851   4.524   4.443 -0.4804 -0.2208  0.3091
 8996SOL    HW138450   2.812   4.608   4.467  0.3772  0.0528  0.7419
 8996SOL    HW238451   2.779   4.475   4.403 -0.5025  2.0300 -2.3697
 8997SOL     OW38452   1.548   1.332   7.233 -0.0403  0.7498 -0.0139
 8997SOL    HW138453   1.642   1.320   7.216  0.3191  2.1935  0.9405
 8997SOL    HW238454   1.518   1.352   7.145 -0.7216  1.3289  0.3596
 8998SOL     OW38455   3.285   0.390  10.337 -0.4659 -0.2509 -0.2597
 8998SOL    HW138456   3.332   0.332  10.397  0.1743 -0.9848 -1.4792
 8998SOL    HW238457   3.327   0.370  10.254 -0.6299 -1.4815 -0.0460
 8999SOL     OW38458   0.457   1.400   9.397  0.1284  0.5395  0.1739
 8999SOL    HW138459   0.450   1.304   9.398 -0.0081  0.5439 -0.3716
 8999SOL    HW238460   0.455   1.417   9.491  1.1240 -2.6886  0.7654
 9000SOL     OW38461   4.445   3.054   7.309 -0.1792 -0.3989 -0.2149
 9000SOL    HW138462   4.453   3.002   7.229  0.4670 -0.2544 -0.2455
 9000SOL    HW238463   4.394   2.990   7.359  0.1929 -2.7403 -2.8492
 9001SOL     OW38464   4.313   0.781   2.413  0.9366 -0.2451 -0.1267
 9001SOL    HW138465   4.392   0.833   2.421  1.5022 -1.2754  1.0742
 9001SOL    HW238466   4.342   0.693   2.441  1.2950 -0.0249  0.1950
 9002SOL     OW38467   3.702   4.680   0.795 -0.1145  0.7567 -0.0226
 9002SOL    HW138468   3.629   4.635   0.838  0.2902  0.6716  0.5715
 9002SOL    HW238469   3.686   0.048   0.824 -0.3321  1.1492 -1.3565
 9003SOL     OW38470   4.484   1.030   9.998 -0.3093 -0.0432  0.0672
 9003SOL    HW138471   4.442   1.105   9.955  0.1920  0.3103  0.1932
 9003SOL    HW238472   4.462   0.961   9.936  2.8604  0.3395 -1.4656
 9004SOL     OW38473   3.870   1.436  12.666 -0.5203 -0.3413  0.2228
 9004SOL    HW138474   3.957   1.456  12.699  0.0108 -0.8445 -0.8690
 9004SOL    HW238475   3.866   1.340  12.667  1.0815 -0.3589  4.0530
 9005SOL     OW38476   3.606   1.851  11.434 -0.1713 -0.5942 -0.0686
 9005SOL    HW138477   3.658   1.931  11.423  1.4124 -1.5372  0.5024
 9005SOL    HW238478   3.527   1.873  11.386  0.7154 -2.8643 -2.5167
 9006SOL     OW38479   3.001   0.017  11.421  0.2245 -0.6245  0.6977
 9006SOL    HW138480   3.025   0.056  11.505  0.2423  2.3153 -0.6793
 9006SOL    HW238481   3.007   4.645  11.442  0.7874 -0.9876 -1.0699
 9007SOL     OW38482   0.449   0.440   6.592  0.1889 -0.3491 -0.3170
 9007SOL    HW138483   0.458   0.524   6.637  1.1024 -1.1628  1.0090
 9007SOL    HW238484   0.394   0.464   6.518 -1.2982  0.5494  1.0750
 9008SOL     OW38485   1.354   1.668   2.141  0.0552 -0.4010 -0.6350
 9008SOL    HW138486   1.422   1.735   2.133  0.3402 -0.6642 -0.3629
 9008SOL    HW238487   1.363   1.661   2.236 -1.0957 -3.4496 -0.7717
 9009SOL     OW38488   2.686   3.896   5.753  0.0071 -0.0850  0.2822
 9009SOL    HW138489   2.671   3.962   5.820  0.6878  0.2805  0.0761
 9009SOL    HW238490   2.728   3.822   5.796 -0.4908  0.1238  1.1307
 9010SOL     OW38491   3.945   2.109   5.259 -0.2704 -0.0115 -0.0365
 9010SOL    HW138492   3.930   2.023   5.299  0.0991  0.8968  2.0609
 9010SOL    HW238493   3.903   2.097   5.174 -1.5012 -1.4987  0.7754
 9011SOL     OW38494   3.677   2.007   8.856 -0.2669  0.3092  0.1596
 9011SOL    HW138495   3.603   2.048   8.810 -2.0473 -1.8542  1.1151
 9011SOL    HW238496   3.728   2.086   8.876 -0.3611  0.3189  0.3654
 9012SOL     OW38497   3.175   0.321   6.117 -0.2070 -0.2369 -0.8862
 9012SOL    HW138498   3.233   0.249   6.092 -0.5839 -0.7170 -0.4054
 9012SOL    HW238499   3.093   0.305   6.071 -0.1997  0.4762 -1.1375
 9013SOL     OW38500   4.460   2.281  15.276  0.2407 -0.1845  0.1370
 9013SOL    HW138501   4.542   2.331  15.280 -0.8194  1.5038  0.7149
 9013SOL    HW238502   4.461   2.253  15.184  0.9305 -1.8612  0.6549
 9014SOL     OW38503   2.492   1.934  11.819  0.3733 -0.4846 -0.8753
 9014SOL    HW138504   2.470   1.849  11.858 -0.8600  0.4713  0.5370
 9014SOL    HW238505   2.585   1.929  11.841 -0.2236 -0.4601  1.6441
 9015SOL     OW38506   3.624   4.490   2.965 -0.1086 -0.2457  0.5524
 9015SOL    HW138507   3.698   4.470   2.908  0.0652  0.3969  0.5509
 9015SOL    HW238508   3.673   4.490   3.048  0.6537 -1.1634  0.0976
 9016SOL     OW38509   4.602   2.023   2.103 -0.5683 -0.7498  0.2010
 9016SOL    HW138510   4.612   1.942   2.052  0.6569 -0.5923  0.2098
 9016SOL    HW238511   4.517   2.005   2.144 -1.1219 -1.4577 -1.2424
 9017SOL     OW38512   4.349   3.700   9.499 -0.2553  0.3977 -0.0135
 9017SOL    HW138513   4.358   3.655   9.583  0.7334  2.1071  0.7899
 9017SOL    HW238514   4.287   3.773   9.505 -0.6625  0.0139  0.5194
 9018SOL     OW38515   4.271   0.265   6.951 -0.0321  0.1254  0.0304
 9018SOL    HW138516   4.286   0.359   6.949 -1.9491  0.3892 -1.7886
 9018SOL    HW238517   4.221   0.246   6.872  1.5084 -1.6568 -0.5307
 9019SOL     OW38518   3.101   4.424   8.892 -0.4840 -0.1357 -0.2506
 9019SOL    HW138519   3.149   4.451   8.814 -0.5469 -1.2461 -0.6725
 9019SOL    HW238520   3.164   4.376   8.946 -3.0345 -2.9222  0.3096
 9020SOL     OW38521   2.556   0.000   9.601 -0.0715 -0.2562  0.8278
 9020SOL    HW138522   2.581   4.669   9.677  0.4113 -0.0784  0.7960
 9020SOL    HW238523   2.581   4.660   9.532 -1.6986  0.0467 -0.0395
 9021SOL     OW38524   3.364   3.061   7.574 -0.4266 -0.0001  0.7933
 9021SOL    HW138525   3.295   3.124   7.594  0.5487  0.4581  2.7281
 9021SOL    HW238526   3.404   3.106   7.500 -0.3860  1.4405  1.6896
 9022SOL     OW38527   2.174   0.358   7.949  0.0278 -0.0467  0.3672
 9022SOL    HW138528   2.243   0.291   7.949 -1.8832 -2.0130  1.5457
 9022SOL    HW238529   2.236   0.423   7.916 -1.8217 -0.0725 -3.1919
 9023SOL     OW38530   2.350   2.927  16.141  0.2342 -0.6274 -0.2534
 9023SOL    HW138531   2.385   2.855  16.089 -1.2129 -1.9703  0.6145
 9023SOL    HW238532   2.378   3.003  16.090 -0.9783 -0.9563 -1.4212
 9024SOL     OW38533   2.260   3.181  14.889 -0.2323 -0.0652  0.1443
 9024SOL    HW138534   2.334   3.214  14.839  0.9345 -2.4493  0.3069
 9024SOL    HW238535   2.275   3.087  14.880  0.0984  0.0183 -0.1624
 9025SOL     OW38536   1.715   2.713  15.520 -0.1622  0.0361  0.3615
 9025SOL    HW138537   1.680   2.759  15.597  2.2454  0.9406  0.9102
 9025SOL    HW238538   1.662   2.633  15.522  0.1042 -0.1472  0.0207
 9026SOL     OW38539   2.800   2.755   3.931  0.0501  0.0752 -0.4605
 9026SOL    HW138540   2.724   2.698   3.923 -0.1908  0.3106  0.1124
 9026SOL    HW238541   2.771   2.844   3.912 -0.7985 -0.0288  0.3495
 9027SOL     OW38542   4.453   1.285   7.583  0.0763  0.2661  0.2563
 9027SOL    HW138543   4.537   1.251   7.552 -0.3012 -1.7537  1.3872
 9027SOL    HW238544   4.453   1.253   7.674 -1.3418 -0.4839  0.0005
 9028SOL     OW38545   4.545   0.615   5.587 -0.1306 -0.3601  0.1709
 9028SOL    HW138546   4.507   0.700   5.567  1.5476  0.3048 -0.1683
 9028SOL    HW238547   4.535   0.616   5.682 -2.2150  1.1959 -0.0536
 9029SOL     OW38548   4.167   2.379   6.595  0.4622 -0.1443  0.2610
 9029SOL    HW138549   4.164   2.333   6.679 -0.6891  1.5779  1.1571
 9029SOL    HW238550   4.125   2.311   6.542  0.2021  0.1782  0.0509
 9030SOL     OW38551   3.893   4.436   0.961 -0.2749  0.5081  0.6871
 9030SOL    HW138552   3.923   4.464   1.047  1.2776 -0.9318  0.6120
 9030SOL    HW238553   3.963   4.482   0.915 -1.1124 -0.5645 -1.6666
 9031SOL     OW38554   3.370   0.814   7.531  0.0340  0.3570 -0.6039
 9031SOL    HW138555   3.404   0.889   7.579  1.3516 -0.4998 -0.1862
 9031SOL    HW238556   3.327   0.754   7.593 -0.0520  1.2113  0.1559
 9032SOL     OW38557   3.290   4.701   3.383  0.2179 -0.2920 -0.0197
 9032SOL    HW138558   3.291   4.642   3.308  2.5806  0.7934 -0.8569
 9032SOL    HW238559   3.382   4.689   3.409  1.3548  0.1838 -3.9432
 9033SOL     OW38560   2.307   2.345   2.653 -0.5081 -0.0182 -0.0055
 9033SOL    HW138561   2.287   2.423   2.703 -0.4944 -0.7804  1.1891
 9033SOL    HW238562   2.291   2.275   2.717 -1.1924 -0.8497 -1.0822
 9034SOL     OW38563   2.679   3.256   2.655 -0.9790  0.0140  0.2230
 9034SOL    HW138564   2.684   3.352   2.654  0.9134 -0.0617  0.9135
 9034SOL    HW238565   2.585   3.246   2.665 -0.5641 -1.9840  2.1158
 9035SOL     OW38566   2.180   3.366   5.570 -0.5036 -0.4199  0.2489
 9035SOL    HW138567   2.094   3.406   5.585 -0.0988  0.3569  0.4925
 9035SOL    HW238568   2.205   3.344   5.659 -1.8956  0.4472  0.8574
 9036SOL     OW38569   0.587   3.641  10.555 -0.7339  0.3452  0.2871
 9036SOL    HW138570   0.572   3.724  10.600  2.5636  0.3491  1.3978
 9036SOL    HW238571   0.579   3.570  10.619  0.6750 -0.0930 -0.0268
 9037SOL     OW38572   0.543   3.776   1.974 -0.5611  1.0908  0.1943
 9037SOL    HW138573   0.482   3.703   1.969  1.1439 -0.1656 -2.4300
 9037SOL    HW238574   0.571   3.772   2.065  0.3991  0.1836 -0.1345
 9038SOL     OW38575   0.124   1.534   5.174  0.0105  0.1580  0.6725
 9038SOL    HW138576   0.078   1.452   5.194 -0.4876  0.2044 -0.2891
 9038SOL    HW238577   0.154   1.522   5.084 -1.4949 -1.1370  0.3421
 9039SOL     OW38578   4.062   4.180   8.421 -0.0960 -0.2981  0.5212
 9039SOL    HW138579   4.079   4.134   8.338  0.5778  1.4977 -0.3287
 9039SOL    HW238580   4.070   4.273   8.399 -1.0774 -0.1221  0.8966
 9040SOL     OW38581   3.447   2.940  14.153 -0.0437 -0.0149 -0.5105
 9040SOL    HW138582   3.531   2.972  14.187 -2.4950  1.4619  4.0377
 9040SOL    HW238583   3.455   2.962  14.060 -2.0962  2.3055 -0.1163
 9041SOL     OW38584   2.452   3.903   2.828  0.0904 -0.8429 -0.0016
 9041SOL    HW138585   2.443   3.867   2.917 -3.4676  0.2123  0.0560
 9041SOL    HW238586   2.408   3.987   2.838  0.0828 -0.6590 -1.5918
 9042SOL     OW38587   0.135   1.804  11.600  0.4705  0.0788  0.4949
 9042SOL    HW138588   0.224   1.829  11.574 -0.4041  4.5490  1.8205
 9042SOL    HW238589   0.110   1.738  11.536  3.3205 -0.7768  0.2534
 9043SOL     OW38590   2.721   3.705   5.086 -0.1409 -0.2634 -0.1806
 9043SOL    HW138591   2.811   3.706   5.118  0.6907  1.6744 -2.5270
 9043SOL    HW238592   2.684   3.620   5.109  0.1997  0.3075  2.3756
 9044SOL     OW38593   4.516   2.012   9.206  0.0099 -0.3120 -0.9712
 9044SOL    HW138594   4.495   2.060   9.126 -0.0992  1.6747  0.2622
 9044SOL    HW238595   4.509   1.921   9.177  0.9882  0.1369 -2.6144
 9045SOL     OW38596   0.361   3.248   8.790 -0.9819 -0.0736 -0.7556
 9045SOL    HW138597   0.311   3.329   8.794 -0.7305  0.1382 -2.0827
 9045SOL    HW238598   0.449   3.264   8.825 -1.3526 -0.2757  0.2542
 9046SOL     OW38599   4.180   2.753   1.601  0.0768  0.7255 -0.2900
 9046SOL    HW138600   4.270   2.780   1.621  1.2776 -2.6477 -1.1255
 9046SOL    HW238601   4.191   2.704   1.519  2.2498  0.7465 -0.0104
 9047SOL     OW38602   3.215   2.052   6.171 -0.1114 -0.0899  0.1042
 9047SOL    HW138603   3.168   2.127   6.207  0.9971 -0.4902  2.4068
 9047SOL    HW238604   3.301   2.069   6.210  0.4013  1.5507 -1.7882
 9048SOL     OW38605   1.550   0.216   8.307 -0.5694  0.3648  0.3505
 9048SOL    HW138606   1.478   0.233   8.368 -0.8180  0.2149  0.1022
 9048SOL    HW238607   1.629   0.236   8.357 -0.9569  0.9644  0.7203
 9049SOL     OW38608   3.018   2.182   5.967 -0.7047 -0.0539 -0.1022
 9049SOL    HW138609   3.018   2.241   6.043  0.1644  1.0087 -0.9285
 9049SOL    HW238610   3.086   2.117   5.983 -1.7645 -1.0142  0.5020
 9050SOL     OW38611   1.188   2.134   6.086  0.4974 -0.3337 -0.5748
 9050SOL    HW138612   1.130   2.137   6.010 -0.3038  1.0148  0.0839
 9050SOL    HW238613   1.226   2.046   6.085  0.5547 -0.2866 -1.7097
 9051SOL     OW38614   0.957   1.165   8.399 -0.0773  0.5400  0.4424
 9051SOL    HW138615   0.940   1.241   8.344 -2.9438  1.7006  2.9504
 9051SOL    HW238616   1.011   1.203   8.468  0.7761 -0.1641  0.1591
 9052SOL     OW38617   1.184   0.002  12.297  1.0288  0.7185 -0.1670
 9052SOL    HW138618   1.152   0.090  12.320  0.9349 -0.1850  3.2542
 9052SOL    HW238619   1.103   4.680  12.271  1.2451  0.6909 -0.7796
 9053SOL     OW38620   3.309   4.021  11.552  0.0332 -0.6037 -0.1852
 9053SOL    HW138621   3.340   3.942  11.508  1.8095 -0.0131  0.0226
 9053SOL    HW238622   3.235   4.044  11.495  0.1876  0.7077  0.1354
 9054SOL     OW38623   0.927   1.467   3.766  1.2081  0.0880 -0.1562
 9054SOL    HW138624   0.944   1.550   3.721  3.1688  0.2839  0.9426
 9054SOL    HW238625   1.001   1.473   3.826  0.0061 -1.9930  1.5303
 9055SOL     OW38626   0.691   1.269   8.481  0.1999 -0.1616  0.5408
 9055SOL    HW138627   0.717   1.313   8.400  1.9876 -1.0429  0.6427
 9055SOL    HW238628   0.773   1.265   8.530 -0.1356 -0.7768  1.0738
 9056SOL     OW38629   0.411   2.154   6.254  0.2878  0.3293 -0.1396
 9056SOL    HW138630   0.368   2.239   6.263  0.4277  0.1952  1.6604
 9056SOL    HW238631   0.400   2.135   6.347 -0.6878 -0.0291 -0.3337
 9057SOL     OW38632   3.967   0.237   3.525  0.1389  0.1229 -0.6844
 9057SOL    HW138633   3.872   0.245   3.537  0.0262 -1.8600 -0.3640
 9057SOL    HW238634   3.966   0.278   3.438  1.7801  0.2819 -0.6243
 9058SOL     OW38635   0.713   3.111  16.221 -0.2356  0.9220  0.2675
 9058SOL    HW138636   0.758   3.145  16.144 -1.7595 -1.4889 -1.7104
 9058SOL    HW238637   0.766   3.033  16.237 -1.3343  0.3402  1.1480
 9059SOL     OW38638   3.379   0.756   8.796  0.6072  0.4714  0.2783
 9059SOL    HW138639   3.386   0.834   8.741 -0.8542  0.7413  0.4736
 9059SOL    HW238640   3.317   0.788   8.861  0.7509 -0.8156  1.0583
 9060SOL     OW38641   3.051   1.567   5.413 -0.1047 -0.1190 -0.5837
 9060SOL    HW138642   3.103   1.568   5.493 -1.0029 -0.2424  0.0060
 9060SOL    HW238643   3.103   1.511   5.357 -0.6749 -0.6881 -0.5392
 9061SOL     OW38644   3.975   3.350   6.093 -0.2933  0.2350  0.1878
 9061SOL    HW138645   3.941   3.408   6.161 -0.4689  0.4897 -0.1167
 9061SOL    HW238646   3.896   3.298   6.081 -0.1596  0.7393 -2.8653
 9062SOL     OW38647   3.532   0.283  12.464  0.3962 -0.0020  0.0523
 9062SOL    HW138648   3.526   0.321  12.376  0.3964  1.5462  0.7226
 9062SOL    HW238649   3.627   0.282  12.467  0.3761 -0.2721  0.6041
 9063SOL     OW38650   3.829   1.959   3.589  0.7157 -0.3788  0.4378
 9063SOL    HW138651   3.786   2.044   3.597  0.7778 -0.3906  0.8911
 9063SOL    HW238652   3.805   1.937   3.499  2.9642  1.5011 -0.6125
 9064SOL     OW38653   4.363   2.776  17.026  0.7763 -0.1191  0.1920
 9064SOL    HW138654   4.394   2.820  17.105 -1.2153  0.6667  0.5418
 9064SOL    HW238655   4.296   2.841  17.004  0.7605  0.5355  2.1860
 9065SOL     OW38656   4.078   0.778   2.294 -0.7133 -0.2490 -0.0514
 9065SOL    HW138657   4.083   0.712   2.226  0.3353  1.1849 -1.3668
 9065SOL    HW238658   4.173   0.779   2.305 -0.5130 -1.2351 -1.8207
 9066SOL     OW38659   2.206   0.524  12.968  0.0927 -0.1459 -0.3617
 9066SOL    HW138660   2.261   0.602  12.982 -2.6243  1.5619  0.7478
 9066SOL    HW238661   2.252   0.474  12.900 -0.4139 -1.6460  0.4090
 9067SOL     OW38662   1.489   1.455  11.692 -0.2576 -0.1886 -0.3970
 9067SOL    HW138663   1.493   1.374  11.641  1.0863 -0.6872  0.4999
 9067SOL    HW238664   1.579   1.483  11.680 -0.0919  0.0892  1.4860
 9068SOL     OW38665   4.687   4.381  12.730  0.5029  0.0594  0.2569
 9068SOL    HW138666   0.052   4.388  12.771  0.2509  1.4201  0.5476
 9068SOL    HW238667   4.700   4.439  12.655  2.6978 -0.7690 -0.0057
 9069SOL     OW38668   4.501   2.758  11.746  0.5133  0.3790 -0.6058
 9069SOL    HW138669   4.422   2.813  11.746  0.7780  0.7581 -0.5368
 9069SOL    HW238670   4.565   2.825  11.772  0.9667 -0.2759 -0.0435
 9070SOL     OW38671   2.110   0.496   9.935  1.0647  0.0693  0.0497
 9070SOL    HW138672   2.204   0.486   9.921  0.8452 -1.8146 -0.0967
 9070SOL    HW238673   2.093   0.405   9.959  0.6505  0.1134 -0.0862
 9071SOL     OW38674   3.748   3.806   6.632  0.3278  0.0044 -0.5079
 9071SOL    HW138675   3.794   3.750   6.695 -1.6616 -1.5494 -0.4409
 9071SOL    HW238676   3.700   3.865   6.689  0.1266  0.0336 -0.7076
 9072SOL     OW38677   3.336   1.509  17.050  0.4239  0.3818  0.1414
 9072SOL    HW138678   3.304   1.594  17.081  0.7815  1.0542 -1.2909
 9072SOL    HW238679   3.429   1.522  17.069  0.9584 -3.4970  0.0968
 9073SOL     OW38680   4.429   1.860   3.128  0.3851  0.1958 -0.7386
 9073SOL    HW138681   4.486   1.855   3.205  0.2877 -1.0619 -0.7467
 9073SOL    HW238682   4.473   1.939   3.096  0.9756 -0.4197 -1.4586
 9074SOL     OW38683   3.331   3.980   5.848 -0.4676 -0.3731  0.1660
 9074SOL    HW138684   3.340   4.034   5.927  0.3477  0.4535 -0.4850
 9074SOL    HW238685   3.243   4.011   5.824 -0.5749  1.5951  3.0221
 9075SOL     OW38686   2.900   0.671  17.590 -0.3513  0.4732 -0.4964
 9075SOL    HW138687   2.897   0.618  17.510 -1.3600  1.2060 -0.9435
 9075SOL    HW238688   2.948   0.746  17.555  1.6214  1.0018  3.3126
 9076SOL     OW38689   4.094   3.825  13.758 -0.0922 -0.0091  0.3106
 9076SOL    HW138690   4.129   3.772  13.829 -1.0708  0.1677  0.9298
 9076SOL    HW238691   4.038   3.766  13.707  3.7235 -3.2729 -0.0692
 9077SOL     OW38692   2.957   1.090   5.669 -0.1602 -0.1207  0.2390
 9077SOL    HW138693   2.994   1.019   5.722  0.8743  1.4165  1.5632
 9077SOL    HW238694   2.890   1.121   5.730  1.3927 -0.8416  2.3308
 9078SOL     OW38695   2.480   4.011  13.629 -0.1624 -0.2034  0.6628
 9078SOL    HW138696   2.389   4.010  13.658 -0.2181 -2.1939  0.3657
 9078SOL    HW238697   2.467   4.036  13.537 -0.3863 -0.8719  0.5157
 9079SOL     OW38698   0.229   3.439  10.763  0.1209 -0.0333  0.3028
 9079SOL    HW138699   0.256   3.357  10.804 -1.9447 -1.3726 -1.0073
 9079SOL    HW238700   0.315   3.478  10.746 -0.6750  0.7536 -1.9647
 9080SOL     OW38701   2.259   1.722   2.871 -0.4092 -0.7577  0.1909
 9080SOL    HW138702   2.298   1.784   2.811  1.9833 -3.1355 -0.7042
 9080SOL    HW238703   2.308   1.643   2.848  0.4974 -0.6500  1.7410
 9081SOL     OW38704   0.456   2.291  13.424 -0.4544  0.2529  0.2028
 9081SOL    HW138705   0.530   2.338  13.462 -0.9806  2.1114 -1.0561
 9081SOL    HW238706   0.496   2.208  13.397 -0.1908 -0.7740  3.8492
 9082SOL     OW38707   3.100   1.280   6.207  0.4965  0.8451  0.0575
 9082SOL    HW138708   3.087   1.374   6.189 -3.1474  0.5255  1.0166
 9082SOL    HW238709   3.150   1.261   6.128 -0.2851 -0.7320 -0.0509
 9083SOL     OW38710   2.122   2.480  12.377  0.2698 -0.2810  0.4415
 9083SOL    HW138711   2.028   2.492  12.389  0.2859  1.6236 -1.2245
 9083SOL    HW238712   2.116   2.399  12.328 -0.9466  0.5723 -0.8004
 9084SOL     OW38713   4.279   0.529  11.681 -0.0607 -0.2635  0.5025
 9084SOL    HW138714   4.297   0.622  11.690 -0.6045 -0.3549  2.4239
 9084SOL    HW238715   4.285   0.519  11.586 -0.8676  0.0954  0.4083
 9085SOL     OW38716   2.049   3.501   7.973 -0.9411  0.2719 -0.0880
 9085SOL    HW138717   1.993   3.523   8.048 -3.6279 -2.0103 -1.4536
 9085SOL    HW238718   2.055   3.406   7.983  0.9397  0.6094  1.9070
 9086SOL     OW38719   2.847   4.175  17.017 -0.3411 -0.0515 -0.1255
 9086SOL    HW138720   2.915   4.157  17.082 -0.9828 -0.7118  0.3620
 9086SOL    HW238721   2.777   4.118  17.050 -0.3209  1.5834  2.7759
 9087SOL     OW38722   4.699   1.672  17.537  0.4105  0.1565 -0.0376
 9087SOL    HW138723   4.655   1.748  17.496  0.2302 -0.6637 -1.3603
 9087SOL    HW238724   4.695   1.611  17.464 -1.6678  0.4652 -0.1818
 9088SOL     OW38725   2.121   3.871   9.768 -0.0475  0.1701 -0.1043
 9088SOL    HW138726   2.154   3.790   9.808  1.6464  1.3365  0.8271
 9088SOL    HW238727   2.151   3.927   9.839 -1.9764  0.6226  0.3514
 9089SOL     OW38728   1.436   3.455  16.330  0.5808 -0.1424 -0.6213
 9089SOL    HW138729   1.374   3.423  16.395 -0.0984 -1.2539 -1.8124
 9089SOL    HW238730   1.514   3.478  16.382  2.4312  0.2700 -3.5750
 9090SOL     OW38731   2.030   2.653   2.839 -0.2078 -0.2029 -0.6200
 9090SOL    HW138732   1.943   2.677   2.806 -0.0721 -1.7616 -2.1346
 9090SOL    HW238733   2.027   2.557   2.839  0.5341 -0.2022  1.8346
 9091SOL     OW38734   1.473   0.235   4.756 -0.1687 -0.4349  0.1082
 9091SOL    HW138735   1.503   0.265   4.671 -2.0277 -0.4768 -0.5734
 9091SOL    HW238736   1.390   0.189   4.743 -0.4091 -0.2658  1.0275
 9092SOL     OW38737   3.334   1.928  17.005 -0.1444  0.2588 -0.5183
 9092SOL    HW138738   3.410   1.961  16.957 -0.1307 -1.3563 -1.6003
 9092SOL    HW238739   3.303   1.863  16.942 -1.5376  1.1504 -0.7751
 9093SOL     OW38740   2.578   3.285   4.860  0.1080  0.3817  0.2767
 9093SOL    HW138741   2.487   3.265   4.841  0.4715 -1.2749  0.2580
 9093SOL    HW238742   2.607   3.348   4.794  0.4815 -0.1769 -0.0847
 9094SOL     OW38743   0.356   1.089  13.742  0.1871 -0.3252  0.0331
 9094SOL    HW138744   0.302   1.168  13.749  1.3475  0.5853 -1.1546
 9094SOL    HW238745   0.341   1.049  13.828 -0.0897 -0.5556 -0.1234
 9095SOL     OW38746   3.717   4.243  12.652  0.2852  0.3323  0.2711
 9095SOL    HW138747   3.764   4.324  12.631 -1.2691  1.3556  0.7108
 9095SOL    HW238748   3.674   4.213  12.572  0.3539  0.2609  0.2612
 9096SOL     OW38749   4.683   0.510   4.153 -0.5080  0.1178 -0.0018
 9096SOL    HW138750   4.663   0.520   4.060  3.2360  0.6701 -0.7848
 9096SOL    HW238751   4.676   0.416   4.166  0.0550  0.1697  0.7406
 9097SOL     OW38752   2.096   1.283   4.044 -0.6195  0.6527 -0.1113
 9097SOL    HW138753   2.165   1.218   4.055 -0.5828  0.2996 -2.3091
 9097SOL    HW238754   2.027   1.217   4.046 -0.4107  0.4678  0.8457
 9098SOL     OW38755   4.515   2.012   5.555  0.0684 -0.1451  0.7710
 9098SOL    HW138756   4.609   2.010   5.576  0.7406  0.4834 -2.1105
 9098SOL    HW238757   4.521   2.082   5.490  1.8673 -2.5181 -1.6743
 9099SOL     OW38758   2.198   2.717   5.329  0.0819 -0.4186  0.1793
 9099SOL    HW138759   2.261   2.754   5.391  0.2638  1.9880 -1.4258
 9099SOL    HW238760   2.235   2.634   5.299 -0.5452 -0.8106  0.5030
 9100SOL     OW38761   2.440   0.838  17.293 -0.6372  0.1061  0.4295
 9100SOL    HW138762   2.348   0.854  17.272 -0.5083  0.4710  0.1424
 9100SOL    HW238763   2.481   0.910  17.246 -0.1054 -0.1545  0.4904
 9101SOL     OW38764   1.189   2.533  15.694  0.3816  0.3373  0.1836
 9101SOL    HW138765   1.135   2.512  15.770  0.3803  2.7154  0.8659
 9101SOL    HW238766   1.180   2.466  15.627 -3.9838 -1.2928  2.4724
 9102SOL     OW38767   2.332   2.914   7.343  0.0986 -0.4204 -0.0639
 9102SOL    HW138768   2.330   2.825   7.380 -0.1446 -0.9674 -1.4018
 9102SOL    HW238769   2.360   2.896   7.253  0.3181 -0.4881  0.0171
 9103SOL     OW38770   4.469   4.217   8.114 -0.0024  0.1251 -0.4944
 9103SOL    HW138771   4.402   4.242   8.177 -1.4810 -0.6358 -1.7824
 9103SOL    HW238772   4.481   4.124   8.132 -1.7019 -0.0011 -0.0669
 9104SOL     OW38773   0.575   0.100   7.317  0.6090  0.4830  0.2510
 9104SOL    HW138774   0.492   0.138   7.346 -0.0273 -0.5787 -0.1630
 9104SOL    HW238775   0.605   0.170   7.260 -0.5878  0.0606 -0.8948
 9105SOL     OW38776   2.230   1.142   6.950 -0.0865  0.2612  0.0232
 9105SOL    HW138777   2.181   1.224   6.954  0.0991  0.4164 -0.8273
 9105SOL    HW238778   2.233   1.139   6.854 -1.7683 -0.8725  0.0021
 9106SOL     OW38779   4.602   3.437   2.369 -0.3391  0.0527 -0.1295
 9106SOL    HW138780   4.591   3.345   2.347  1.6234 -0.4462  0.9489
 9106SOL    HW238781   4.607   3.473   2.281 -0.8925  1.5438  0.4402
 9107SOL     OW38782   3.753   4.713   5.063  0.0342  0.3550  0.1720
 9107SOL    HW138783   3.762   4.711   5.158  2.5149 -0.9981 -0.0865
 9107SOL    HW238784   3.761   0.085   5.046 -1.2885 -0.1069 -3.0213
 9108SOL     OW38785   0.818   2.954  17.377  0.5019  0.7780  0.1245
 9108SOL    HW138786   0.906   2.920  17.394  1.2658  1.3029 -2.7194
 9108SOL    HW238787   0.827   3.045  17.406 -1.2143  1.6096 -1.9169
 9109SOL     OW38788   1.023   2.522   7.201  0.5617 -0.1911 -0.1828
 9109SOL    HW138789   1.093   2.568   7.247  0.6709 -1.5812  1.0400
 9109SOL    HW238790   1.047   2.430   7.210  1.2209 -0.0229 -0.1940
 9110SOL     OW38791   3.290   4.014   3.388  0.3988 -0.5214  0.0310
 9110SOL    HW138792   3.360   4.032   3.325  0.3327 -2.3144 -0.5483
 9110SOL    HW238793   3.238   4.093   3.400 -0.9137 -1.4666  0.4945
 9111SOL     OW38794   4.521   4.175   1.605 -0.1859 -0.1156 -0.0547
 9111SOL    HW138795   4.429   4.202   1.602 -0.5140 -1.2130  0.2496
 9111SOL    HW238796   4.557   4.243   1.661 -0.0564 -0.5723  0.4146
 9112SOL     OW38797   0.104   2.809   8.439 -0.3712 -0.3239 -0.5004
 9112SOL    HW138798   0.132   2.738   8.380 -0.0647 -0.9351  0.3685
 9112SOL    HW238799   0.185   2.844   8.476 -1.5950  2.1876 -0.2058
 9113SOL     OW38800   3.255   4.461   2.446  0.1327 -0.4798  0.0827
 9113SOL    HW138801   3.334   4.506   2.417  0.6352  0.0052  2.2042
 9113SOL    HW238802   3.197   4.534   2.422  1.2489  0.2708 -0.3132
 9114SOL     OW38803   3.608   3.642   4.233 -0.3138  0.0160  0.2826
 9114SOL    HW138804   3.614   3.551   4.204  1.1223  0.0104  0.6123
 9114SOL    HW238805   3.660   3.677   4.161 -0.2760 -0.3196  0.1497
 9115SOL     OW38806   2.184   3.311   0.047 -0.4598 -0.0350  0.2283
 9115SOL    HW138807   2.188   3.368  17.659 -1.1086 -1.6959 -1.0279
 9115SOL    HW238808   2.263   3.265   0.020 -0.4264 -0.0881  0.4177
 9116SOL     OW38809   3.318   3.313   2.331 -0.0853 -0.2574 -0.1486
 9116SOL    HW138810   3.275   3.393   2.299  0.8454  0.5719  0.6604
 9116SOL    HW238811   3.235   3.266   2.330 -1.5485  2.3718 -1.4681
 9117SOL     OW38812   0.972   4.026  11.424 -0.1497 -0.0208  0.2099
 9117SOL    HW138813   0.918   4.062  11.354 -0.6069 -0.3150  0.4071
 9117SOL    HW238814   1.057   4.061  11.399  0.0383 -1.1401 -0.7033
 9118SOL     OW38815   0.770   0.565   7.718  0.3343 -0.3473  0.2957
 9118SOL    HW138816   0.792   0.620   7.794 -0.2497  0.5004 -0.1434
 9118SOL    HW238817   0.852   0.579   7.670 -0.4261  2.4003 -0.2167
 9119SOL     OW38818   4.002   1.244   4.868 -0.3526  0.5084  0.4432
 9119SOL    HW138819   3.912   1.248   4.836 -0.0172  0.9940 -0.4366
 9119SOL    HW238820   4.047   1.225   4.786  1.0517 -2.3524  1.8560
 9120SOL     OW38821   3.508   4.007   3.767 -0.1549 -0.0078 -0.0091
 9120SOL    HW138822   3.590   3.990   3.720 -0.1707 -0.2643  0.0544
 9120SOL    HW238823   3.541   4.000   3.856  1.7637 -0.8116 -0.7706
 9121SOL     OW38824   0.522   1.804   5.638  0.0846 -0.2345  0.5607
 9121SOL    HW138825   0.478   1.747   5.574 -0.0233 -0.3301  0.7209
 9121SOL    HW238826   0.446   1.852   5.669  0.0928  0.1486 -0.0146
 9122SOL     OW38827   0.918   0.473   2.906 -0.0469 -0.2978 -0.4006
 9122SOL    HW138828   1.000   0.430   2.930  1.2958  2.4752  0.0769
 9122SOL    HW238829   0.874   0.408   2.851 -1.4057 -0.4786  0.9040
 9123SOL     OW38830   2.510   2.901   3.700  0.0303  0.0236 -0.0373
 9123SOL    HW138831   2.483   2.812   3.723  1.5762 -0.5594 -0.5008
 9123SOL    HW238832   2.437   2.939   3.749  0.3598 -0.2719  0.6837
 9124SOL     OW38833   1.092   3.979  17.227  0.0373  0.2312 -0.1089
 9124SOL    HW138834   1.049   3.898  17.253  1.1603 -0.8564 -1.6864
 9124SOL    HW238835   1.012   4.026  17.204  0.5529  2.2741  2.2582
 9125SOL     OW38836   1.595   3.381   8.562 -0.0319 -0.2624 -0.2352
 9125SOL    HW138837   1.654   3.448   8.596 -1.8313  1.6825 -0.9739
 9125SOL    HW238838   1.664   3.334   8.514 -0.3199 -1.0617  0.1246
 9126SOL     OW38839   0.644   2.085   6.913 -0.2381 -0.2298  0.3508
 9126SOL    HW138840   0.549   2.075   6.926 -0.0977 -0.3301  1.2560
 9126SOL    HW238841   0.639   2.176   6.881 -1.8484 -0.4383  0.0055
 9127SOL     OW38842   4.641   0.483  15.746  0.4066  0.5081  0.3475
 9127SOL    HW138843   4.604   0.419  15.685  1.6890 -0.6438  0.7758
 9127SOL    HW238844   4.617   0.435  15.825 -1.5053  1.7522  0.5183
 9128SOL     OW38845   2.224   4.129   6.396 -0.0463  0.1643 -0.3377
 9128SOL    HW138846   2.304   4.134   6.344 -0.5770 -1.5671 -1.3327
 9128SOL    HW238847   2.233   4.041   6.432  2.0641  0.3486 -0.4189
 9129SOL     OW38848   1.221   0.318  10.162 -0.4573 -0.1999  0.0096
 9129SOL    HW138849   1.246   0.247  10.222  0.3286 -1.1242 -1.4163
 9129SOL    HW238850   1.166   0.272  10.099 -3.4385 -1.3716  3.4346
 9130SOL     OW38851   0.228   2.537   8.849  0.5692  0.0240 -0.4862
 9130SOL    HW138852   0.176   2.492   8.916  0.3931  0.5807 -0.2494
 9130SOL    HW238853   0.232   2.627   8.881  2.1626 -0.5886  1.0912
 9131SOL     OW38854   2.659   2.443  16.816 -0.6921  0.1909 -0.5474
 9131SOL    HW138855   2.648   2.433  16.721  1.8460 -0.9588 -0.7446
 9131SOL    HW238856   2.753   2.444  16.836 -0.8254  1.4688  0.0444
 9132SOL     OW38857   4.004   4.627   5.008  0.4400  0.1046 -0.1888
 9132SOL    HW138858   4.024   4.695   4.944 -2.0761  0.8207 -0.2093
 9132SOL    HW238859   3.927   4.658   5.055  0.5714 -0.3861  0.3564
 9133SOL     OW38860   2.589   4.514  13.014 -0.0069  0.7076  0.4558
 9133SOL    HW138861   2.497   4.516  12.987 -0.1938 -2.2540  0.9221
 9133SOL    HW238862   2.613   4.605  12.997 -2.6579  0.8402 -2.5326
 9134SOL     OW38863   2.062   0.878   3.363 -0.3242  0.2312  0.5044
 9134SOL    HW138864   2.018   0.797   3.338  0.2040 -0.4262  1.6801
 9134SOL    HW238865   2.142   0.869   3.311 -1.1514 -1.6182 -0.4692
 9135SOL     OW38866   2.449   3.086   8.991 -0.0884  0.1377  0.3286
 9135SOL    HW138867   2.361   3.064   9.022 -0.0317 -0.2390  0.2240
 9135SOL    HW238868   2.512   3.021   9.022  0.8548  0.9390  0.1041
 9136SOL     OW38869   2.881   1.059   8.112 -0.1270 -0.5660  0.0855
 9136SOL    HW138870   2.802   1.007   8.097 -0.9039  0.8698 -0.7181
 9136SOL    HW238871   2.900   1.035   8.203  0.9455 -1.5704 -0.3979
 9137SOL     OW38872   1.768   1.995   4.916  0.8178  0.0441 -0.4577
 9137SOL    HW138873   1.688   2.001   4.863  0.2765  1.9530  0.5508
 9137SOL    HW238874   1.777   1.906   4.950 -0.1658 -0.1371 -0.6725
 9138SOL     OW38875   4.227   2.829   5.078  0.5746 -0.0724  0.0089
 9138SOL    HW138876   4.263   2.862   5.160 -3.1602  1.5493  0.9765
 9138SOL    HW238877   4.232   2.736   5.101  2.3689 -0.0539 -0.2959
 9139SOL     OW38878   0.762   4.595   8.469 -0.4224 -0.1721  1.1089
 9139SOL    HW138879   0.784   4.542   8.392 -0.7776 -0.2860  1.0849
 9139SOL    HW238880   0.667   4.590   8.467 -0.4502  1.0165 -0.2640
 9140SOL     OW38881   4.381   0.263   8.314 -0.1025  0.5177 -0.1834
 9140SOL    HW138882   4.466   0.221   8.326  0.1744  1.1897  0.1610
 9140SOL    HW238883   4.355   0.277   8.406  2.5690 -1.4410  0.8627
 9141SOL     OW38884   2.217   2.849   1.175  0.5417  0.3736 -0.4906
 9141SOL    HW138885   2.304   2.879   1.149  0.2495  1.2922 -0.4374
 9141SOL    HW238886   2.165   2.821   1.100 -1.2850 -0.1250  0.9467
 9142SOL     OW38887   0.376   2.988   5.483 -0.4743 -0.8885 -0.0597
 9142SOL    HW138888   0.467   2.961   5.494 -0.0130  0.7308  0.0122
 9142SOL    HW238889   0.334   2.942   5.557  1.5383 -0.6884  1.1865
 9143SOL     OW38890   1.413   0.017   1.917 -0.0850 -0.0732 -0.3925
 9143SOL    HW138891   1.484   4.679   1.941 -0.7865 -1.0984 -0.8376
 9143SOL    HW238892   1.395   0.067   1.996  0.3500  0.9401 -0.9263
 9144SOL     OW38893   4.211   1.463   8.338  0.2705  0.0872  0.3718
 9144SOL    HW138894   4.265   1.450   8.417  1.7371  0.9085 -0.4870
 9144SOL    HW238895   4.213   1.559   8.342  0.1473  0.0890  0.3780
 9145SOL     OW38896   1.927   2.360   0.837  0.5883  0.1414  0.4775
 9145SOL    HW138897   1.838   2.384   0.863 -0.0202 -1.8700  0.2603
 9145SOL    HW238898   1.917   2.350   0.743 -0.4799 -1.5313  0.7574
 9146SOL     OW38899   1.519   2.227   8.773 -0.3457 -0.4385  0.5816
 9146SOL    HW138900   1.511   2.251   8.681 -1.3787 -0.1536  0.7530
 9146SOL    HW238901   1.431   2.227   8.809  0.3869 -1.1631  2.3896
 9147SOL     OW38902   1.807   0.335  15.312 -0.0298 -0.3790  0.7178
 9147SOL    HW138903   1.764   0.272  15.253  1.1329  0.5962 -1.1723
 9147SOL    HW238904   1.771   0.309  15.397 -0.1981  0.2257  0.8285
 9148SOL     OW38905   0.752   4.240   5.484 -0.1648 -0.1648  0.3786
 9148SOL    HW138906   0.778   4.202   5.568  1.8846 -1.0028 -0.6365
 9148SOL    HW238907   0.662   4.252   5.513 -0.2311 -0.9129  0.4913
 9149SOL     OW38908   1.247   4.329   6.259  0.0101  0.5379  0.4182
 9149SOL    HW138909   1.267   4.236   6.256  1.1971  0.8049  0.3074
 9149SOL    HW238910   1.187   4.334   6.184 -2.8028  1.6094  2.7386
 9150SOL     OW38911   1.817   3.287  10.465 -0.2537  0.2718 -0.1300
 9150SOL    HW138912   1.897   3.323  10.502 -0.0814 -0.1174 -0.1174
 9150SOL    HW238913   1.848   3.264  10.377 -0.8221  2.4294 -0.8775
 9151SOL     OW38914   3.843   0.005   3.880  0.2379  0.2073  0.3810
 9151SOL    HW138915   3.858   4.658   3.815 -4.1977  2.4995 -3.0053
 9151SOL    HW238916   3.749   0.019   3.871 -0.0435 -1.9316 -0.0228
 9152SOL     OW38917   4.450   2.165   3.889  0.3705 -0.6559  0.3583
 9152SOL    HW138918   4.526   2.194   3.838 -0.5006  1.1254  0.0777
 9152SOL    HW238919   4.474   2.179   3.981 -0.9918  0.6877  0.5102
 9153SOL     OW38920   1.537   1.185   3.716  0.2497 -0.3116  0.2088
 9153SOL    HW138921   1.462   1.219   3.765  1.1879  0.4368  1.1202
 9153SOL    HW238922   1.600   1.206   3.785  1.3097 -1.6078 -0.3776
 9154SOL     OW38923   4.103   1.091   8.852  0.2288 -0.0814 -0.4048
 9154SOL    HW138924   4.023   1.101   8.903  1.4412 -0.8671  1.6782
 9154SOL    HW238925   4.074   1.111   8.763 -1.8333 -0.2557  0.2268
 9155SOL     OW38926   2.430   2.641   3.696 -0.4399  0.4687  0.3936
 9155SOL    HW138927   2.337   2.642   3.672 -0.3494  1.7737  0.1064
 9155SOL    HW238928   2.459   2.575   3.634  1.7641  2.5803 -0.8310
 9156SOL     OW38929   0.727   2.500  14.256 -0.2422 -0.3553 -0.0924
 9156SOL    HW138930   0.734   2.404  14.255  1.3280 -0.2632  0.7837
 9156SOL    HW238931   0.724   2.512  14.351 -1.6022 -0.8570 -0.0707
 9157SOL     OW38932   1.571   0.084  13.331 -0.5945  0.4954  0.1504
 9157SOL    HW138933   1.523   0.147  13.277 -0.7823  0.7557  0.6158
 9157SOL    HW238934   1.497   0.023  13.336  0.8100 -1.2446 -0.4328
 9158SOL     OW38935   3.359   3.232   8.566 -0.3986 -0.2210  0.3138
 9158SOL    HW138936   3.287   3.223   8.504  0.3063  1.3698 -0.7368
 9158SOL    HW238937   3.427   3.265   8.508  0.9761 -2.7899  0.4704
 9159SOL     OW38938   0.350   0.065   5.814 -0.4590  0.0445  0.3146
 9159SOL    HW138939   0.286   0.003   5.849 -0.5294 -0.0453  0.0263
 9159SOL    HW238940   0.298   0.133   5.771  0.3271  1.9576  2.4341
 9160SOL     OW38941   0.849   2.385   0.368  0.0409  0.4317 -0.0334
 9160SOL    HW138942   0.871   2.307   0.419 -0.2315 -0.1761 -0.8469
 9160SOL    HW238943   0.928   2.408   0.320  0.0394  0.1864 -0.1530
 9161SOL     OW38944   2.116   1.249   6.308 -0.0276  0.0289 -0.1083
 9161SOL    HW138945   2.161   1.167   6.286 -2.3682 -1.5226  0.8516
 9161SOL    HW238946   2.037   1.218   6.352  0.0951  2.4185  1.7653
 9162SOL     OW38947   0.438   0.861   1.411 -0.3762  0.1672  0.0949
 9162SOL    HW138948   0.365   0.802   1.389  0.8310 -0.8647 -1.0893
 9162SOL    HW238949   0.509   0.802   1.389  1.1421  1.3389  1.8845
 9163SOL     OW38950   3.717   1.298   2.008 -0.4499 -0.2096 -0.1324
 9163SOL    HW138951   3.642   1.269   1.955 -1.0501  0.6027  0.2757
 9163SOL    HW238952   3.749   1.367   1.950 -4.0554  0.2586 -1.5699
 9164SOL     OW38953   2.088   4.275   7.252 -0.1864 -0.6810  0.1993
 9164SOL    HW138954   2.162   4.258   7.194 -0.4403  2.2648 -0.9987
 9164SOL    HW238955   2.016   4.304   7.196  0.8499  2.0849  0.2725
 9165SOL     OW38956   3.119   2.994  15.834  0.0914 -0.2584 -0.4344
 9165SOL    HW138957   3.115   3.007  15.739  0.8631  0.2722 -0.3923
 9165SOL    HW238958   3.049   2.930  15.845 -0.8942  0.6275 -1.5291
 9166SOL     OW38959   2.030   1.682   3.604  0.2609  0.0668 -0.3583
 9166SOL    HW138960   1.965   1.703   3.536  1.5580  2.7495 -0.7371
 9166SOL    HW238961   2.104   1.642   3.559  1.4592  0.0036  1.6584
 9167SOL     OW38962   0.051   2.517   4.719  0.5782  0.2287  0.3166
 9167SOL    HW138963   0.005   2.433   4.712  0.0024  0.6279 -0.7506
 9167SOL    HW238964   0.034   2.535   4.811 -0.1499 -0.9915  0.4215
 9168SOL     OW38965   0.425   0.095   8.771  0.4438 -0.1280 -0.5498
 9168SOL    HW138966   0.443   0.148   8.849 -0.3112  0.0164 -0.4763
 9168SOL    HW238967   0.495   0.129   8.716  1.0881 -1.2858 -0.4400
 9169SOL     OW38968   4.691   3.655   4.424 -0.4915  0.6547 -0.1485
 9169SOL    HW138969   4.710   3.595   4.352 -1.1885  0.2851 -0.0220
 9169SOL    HW238970   0.008   3.607   4.498 -0.4060 -1.5235 -1.5974
 9170SOL     OW38971   4.503   0.696  12.924  0.6603  0.0714 -0.1771
 9170SOL    HW138972   4.535   0.784  12.901  0.4689  0.4767  1.0690
 9170SOL    HW238973   4.521   0.697  13.018 -1.0175 -1.6278  0.1675
 9171SOL     OW38974   3.104   2.639   3.534  0.3937 -0.0769  0.1819
 9171SOL    HW138975   3.032   2.661   3.593  1.3254  1.5230  0.7217
 9171SOL    HW238976   3.071   2.668   3.448  2.5296  1.8876  0.0573
 9172SOL     OW38977   0.744   2.031   0.119  0.3797 -0.3496  0.2082
 9172SOL    HW138978   0.775   1.941   0.128 -0.9975 -1.0112 -1.6495
 9172SOL    HW238979   0.785   2.063   0.199 -1.6898  0.5817  0.9048
 9173SOL     OW38980   3.071   4.156  14.630 -0.4350  0.4955  0.3481
 9173SOL    HW138981   2.992   4.130  14.582  1.0721 -0.2791 -1.7204
 9173SOL    HW238982   3.030   4.178  14.713 -1.4574 -1.9928  0.5199
 9174SOL     OW38983   1.707   0.968  10.458 -0.4316  0.7937  0.4904
 9174SOL    HW138984   1.767   0.923  10.398  0.5596 -0.9094  2.7532
 9174SOL    HW238985   1.772   0.981  10.527  2.0576  2.0611 -2.0981
 9175SOL     OW38986   3.338   0.171   4.868  0.2356  0.0716 -0.3386
 9175SOL    HW138987   3.273   0.101   4.867  0.0287  0.2524  0.0945
 9175SOL    HW238988   3.332   0.206   4.779 -3.3793  2.4312  0.7991
 9176SOL     OW38989   3.742   1.880  14.717 -0.7084 -0.6874  0.7582
 9176SOL    HW138990   3.803   1.860  14.788  1.1058 -1.8193 -1.1284
 9176SOL    HW238991   3.754   1.795  14.675  0.2538  0.1194 -0.6185
 9177SOL     OW38992   3.407   4.323   4.376  0.3742 -0.8639 -0.2419
 9177SOL    HW138993   3.492   4.316   4.332  0.7519 -0.3404  0.4120
 9177SOL    HW238994   3.390   4.417   4.369 -0.1123 -0.9276  0.1019
 9178SOL     OW38995   2.588   4.128   4.102  0.3230  0.1410  0.3225
 9178SOL    HW138996   2.563   4.082   4.022  0.0369  0.4195  0.2537
 9178SOL    HW238997   2.574   4.057   4.165 -1.4026 -0.2738 -0.5390
 9179SOL     OW38998   1.524   0.828   1.424  0.0429 -0.4026 -0.4193
 9179SOL    HW138999   1.548   0.827   1.331  0.1781 -0.2696 -0.3851
 9179SOL    HW239000   1.505   0.736   1.440 -0.9375 -0.1532 -0.1785
 9180SOL     OW39001   3.827   4.560   1.415 -0.1294 -0.1952  0.0444
 9180SOL    HW139002   3.768   4.508   1.360  0.3942 -0.2411 -0.4695
 9180SOL    HW239003   3.787   4.552   1.502 -3.4188  1.4977 -1.3212
 9181SOL     OW39004   3.379   0.847   5.846  0.3245 -0.3519  0.4242
 9181SOL    HW139005   3.341   0.788   5.782  2.4855 -0.1748 -0.9861
 9181SOL    HW239006   3.358   0.936   5.817 -0.2233 -0.5005  0.3606
 9182SOL     OW39007   1.463   0.517   2.185 -0.2729 -0.1038 -0.2990
 9182SOL    HW139008   1.472   0.606   2.217  2.5318 -1.2209  1.9928
 9182SOL    HW239009   1.371   0.512   2.211 -0.6900  2.9974 -1.1754
 9183SOL     OW39010   0.764   0.312  16.653  0.1933  0.0692 -0.0663
 9183SOL    HW139011   0.726   0.305  16.741 -2.0388  2.7969 -0.8350
 9183SOL    HW239012   0.686   0.342  16.606  1.0573 -0.9389 -2.1603
 9184SOL     OW39013   1.685   3.420   8.942 -0.0564 -0.4030 -0.3785
 9184SOL    HW139014   1.636   3.340   8.922  2.3943 -1.9102 -0.3296
 9184SOL    HW239015   1.714   3.400   9.031 -0.5439  0.5085 -0.0098
 9185SOL     OW39016   1.322   4.455  10.079 -0.0202  0.1305 -0.0988
 9185SOL    HW139017   1.247   4.418  10.126 -0.9648  2.8378  0.5027
 9185SOL    HW239018   1.394   4.413  10.128  0.4797  0.4001 -0.6085
 9186SOL     OW39019   3.909   4.272   2.214 -0.0194 -0.2134 -0.1044
 9186SOL    HW139020   3.939   4.362   2.203  1.8761 -0.5495  2.3236
 9186SOL    HW239021   3.813   4.269   2.219  0.0297 -1.2409  0.2583
 9187SOL     OW39022   4.233   3.124   8.356 -0.2532 -0.0768  0.2570
 9187SOL    HW139023   4.309   3.072   8.383  0.2800  0.9547  0.7727
 9187SOL    HW239024   4.164   3.067   8.390 -0.5258  0.3628  0.4436
 9188SOL     OW39025   4.047   0.249  11.194  0.4342 -0.2512 -0.0502
 9188SOL    HW139026   4.055   0.328  11.141  1.2886 -0.6728 -0.5532
 9188SOL    HW239027   4.139   0.244  11.220  0.0554 -1.0209  1.1649
 9189SOL     OW39028   2.240   1.358   5.498  0.0167 -0.2345  0.5083
 9189SOL    HW139029   2.239   1.263   5.512  1.2652 -0.6990 -2.6599
 9189SOL    HW239030   2.335   1.362   5.509  0.3939  0.9923 -3.1580
 9190SOL     OW39031   1.601   1.421   3.460  0.2844  0.5614 -0.5768
 9190SOL    HW139032   1.621   1.350   3.520  0.0771  0.9825 -0.0139
 9190SOL    HW239033   1.577   1.370   3.382  1.0886 -1.9630  0.8450
 9191SOL     OW39034   4.074   0.760   2.652  0.1284 -0.1436  0.0098
 9191SOL    HW139035   4.126   0.751   2.572 -0.9574 -0.7957 -0.6284
 9191SOL    HW239036   4.031   0.844   2.640  0.2846 -0.3696 -2.2023
 9192SOL     OW39037   1.522   2.884   0.472 -0.2347  0.4091 -0.2096
 9192SOL    HW139038   1.532   2.797   0.432  1.7293  0.3136  0.5218
 9192SOL    HW239039   1.482   2.933   0.400  1.6696  0.0187 -1.5586
 9193SOL     OW39040   1.712   4.507   7.156  0.3856  0.2554  0.1935
 9193SOL    HW139041   1.651   4.559   7.209 -0.8485 -0.0778 -0.8824
 9193SOL    HW239042   1.688   4.416   7.169 -0.1697  0.6072  1.6954
 9194SOL     OW39043   1.561   4.561   4.216  0.5255  0.1819 -0.0493
 9194SOL    HW139044   1.538   4.525   4.130  3.9591  0.5528 -1.1224
 9194SOL    HW239045   1.584   4.483   4.268 -0.8646 -0.2284 -0.0438
 9195SOL     OW39046   0.927   1.896   4.851  0.3992 -0.2831  0.3159
 9195SOL    HW139047   0.993   1.953   4.891 -0.5869  1.2799 -0.2583
 9195SOL    HW239048   0.973   1.813   4.837 -1.5757 -1.0103 -1.9622
 9196SOL     OW39049   1.283   0.950   2.701  0.2760 -0.5176 -0.7206
 9196SOL    HW139050   1.305   0.996   2.620 -0.7635  2.7873  0.8732
 9196SOL    HW239051   1.365   0.904   2.718 -0.4553 -2.5419 -2.5258
 9197SOL     OW39052   3.263   2.742  11.468 -0.0526 -0.0021  0.1010
 9197SOL    HW139053   3.211   2.662  11.476 -0.0416  0.1350  1.5284
 9197SOL    HW239054   3.263   2.750  11.372  2.0398 -0.4486  0.0795
 9198SOL     OW39055   1.265   2.609   5.329 -0.0000  0.1898 -0.1576
 9198SOL    HW139056   1.307   2.657   5.401  0.3903 -0.6622  0.1941
 9198SOL    HW239057   1.332   2.628   5.263  1.2619 -2.4461  0.3686
 9199SOL     OW39058   3.460   1.496   8.612  0.1563 -0.1123 -0.0764
 9199SOL    HW139059   3.449   1.435   8.538 -0.4911  1.5708 -1.3652
 9199SOL    HW239060   3.518   1.561   8.572  1.0145 -0.8206  0.0147
 9200SOL     OW39061   2.712   1.736  13.485 -0.0955 -0.0994 -0.2071
 9200SOL    HW139062   2.747   1.770  13.402  1.0927 -2.7371 -0.8164
 9200SOL    HW239063   2.644   1.682  13.443  0.4683 -0.2212 -0.9851
 9201SOL     OW39064   4.608   0.576   7.176  0.4272 -0.2974 -0.5055
 9201SOL    HW139065   4.626   0.597   7.084  0.8082 -0.1415 -0.3969
 9201SOL    HW239066   4.516   0.551   7.174  0.6751 -1.1253 -1.6071
 9202SOL     OW39067   0.358   0.977   2.989 -0.2624  0.2417  0.2938
 9202SOL    HW139068   0.288   0.919   2.958  1.4585 -1.0266 -1.2212
 9202SOL    HW239069   0.300   1.050   3.011 -0.3745  1.0538 -2.7068
 9203SOL     OW39070   1.234   1.134  12.954 -0.0002 -0.1053  0.2844
 9203SOL    HW139071   1.241   1.045  12.919  1.4243 -0.2123  0.8312
 9203SOL    HW239072   1.312   1.180  12.924 -1.1426  1.7155  0.1330
 9204SOL     OW39073   0.155   0.656   7.638 -0.3850 -0.0300  0.4410
 9204SOL    HW139074   0.139   0.594   7.567  1.3608 -0.6517  0.5718
 9204SOL    HW239075   0.246   0.642   7.666  0.2210  1.6397 -0.6980
 9205SOL     OW39076   0.794   2.805   6.855  0.6173 -0.2850 -0.0550
 9205SOL    HW139077   0.757   2.823   6.942  1.0169 -0.2392  0.1035
 9205SOL    HW239078   0.828   2.891   6.830 -2.0190  0.6436 -0.4347
 9206SOL     OW39079   3.922   1.291  11.923  0.0193 -0.3902  0.4285
 9206SOL    HW139080   3.931   1.354  11.853  0.3805  0.4830  1.2689
 9206SOL    HW239081   3.837   1.251  11.902 -0.1320 -0.6156  1.4267
 9207SOL     OW39082   3.629   2.448  15.036  0.1964  0.1606 -0.0217
 9207SOL    HW139083   3.677   2.528  15.056 -0.0555 -0.0641  1.5078
 9207SOL    HW239084   3.540   2.466  15.068  0.0269 -1.3030  0.3235
 9208SOL     OW39085   0.372   0.908   3.923  0.1083  0.0632 -0.2888
 9208SOL    HW139086   0.340   0.841   3.864 -0.9134 -0.5631  0.9820
 9208SOL    HW239087   0.293   0.929   3.971  0.0727 -0.4720 -0.1106
 9209SOL     OW39088   0.199   2.710   3.199  0.1524 -0.3498 -0.6723
 9209SOL    HW139089   0.140   2.769   3.151 -0.6879  0.5442  1.4309
 9209SOL    HW239090   0.239   2.662   3.127  0.2960 -0.7039 -0.3531
 9210SOL     OW39091   2.642   2.374   7.330  0.0321 -0.0619 -0.0277
 9210SOL    HW139092   2.610   2.289   7.301  0.5027 -1.5564  3.7839
 9210SOL    HW239093   2.597   2.385   7.414 -2.3044 -0.3728 -1.2320
 9211SOL     OW39094   1.441   1.760   8.571 -0.0023 -0.1974  0.2103
 9211SOL    HW139095   1.470   1.781   8.660 -0.1067  1.1953 -0.0867
 9211SOL    HW239096   1.348   1.750   8.590  0.2502  0.7557  1.9174
 9212SOL     OW39097   4.437   0.325   2.695  0.5072  0.1564  0.0143
 9212SOL    HW139098   4.366   0.340   2.758  2.1061  2.9272  1.1505
 9212SOL    HW239099   4.446   0.233   2.720 -0.7066 -0.5829 -2.2537
 9213SOL     OW39100   2.869   3.120  10.222  0.1858 -0.2127 -0.3070
 9213SOL    HW139101   2.899   3.197  10.174 -1.1389 -0.4064 -1.4439
 9213SOL    HW239102   2.959   3.094  10.241 -1.7147 -5.2399  1.6699
 9214SOL     OW39103   3.535   3.062  11.205  0.1466 -0.0614  0.2798
 9214SOL    HW139104   3.621   3.066  11.162 -1.2158 -0.4822 -2.4834
 9214SOL    HW239105   3.499   3.025  11.125 -1.2629  0.4064  0.7055
 9215SOL     OW39106   1.162   1.771  17.278 -0.0067 -0.2913 -0.5972
 9215SOL    HW139107   1.159   1.724  17.195  1.9335 -0.5558 -0.5285
 9215SOL    HW239108   1.088   1.732  17.323  1.5465 -1.4232  0.9873
 9216SOL     OW39109   2.539   0.856   7.230 -0.4989 -0.2276  0.2577
 9216SOL    HW139110   2.462   0.910   7.212 -1.0666 -0.8981  0.6627
 9216SOL    HW239111   2.581   0.897   7.306  0.3027 -0.9760  0.2241
 9217SOL     OW39112   0.989   4.507   3.415  0.1236  0.1592  0.3078
 9217SOL    HW139113   1.001   4.592   3.374  1.1420 -0.5556 -0.8746
 9217SOL    HW239114   0.901   4.493   3.380 -0.9301  0.0370  2.9939
 9218SOL     OW39115   2.036   2.358   7.596 -0.5401 -0.4713 -0.3825
 9218SOL    HW139116   2.008   2.296   7.663 -3.1096 -0.0156 -1.0058
 9218SOL    HW239117   2.040   2.426   7.664 -1.0777  0.8869 -1.6975
 9219SOL     OW39118   0.565   1.253   3.334  0.1704  0.3424  0.0485
 9219SOL    HW139119   0.607   1.317   3.391  2.2826  0.5238 -1.7057
 9219SOL    HW239120   0.471   1.271   3.339 -0.0026 -0.7966  1.0995
 9220SOL     OW39121   0.440   2.923   0.320 -0.3919  0.2304  0.1468
 9220SOL    HW139122   0.419   3.003   0.273  2.2282  1.9587  1.9472
 9220SOL    HW239123   0.379   2.906   0.392 -1.7020  1.8654 -0.5960
 9221SOL     OW39124   2.840   3.103   2.807 -0.2607  0.1213  0.1132
 9221SOL    HW139125   2.845   3.072   2.717  2.3499  2.0543 -0.3986
 9221SOL    HW239126   2.752   3.141   2.800 -0.1598  0.6404  1.7607
 9222SOL     OW39127   0.850   0.205   2.789  0.1320  0.5948  0.3509
 9222SOL    HW139128   0.907   0.183   2.715 -1.2907  0.0056 -0.5567
 9222SOL    HW239129   0.763   0.175   2.764  1.0191  0.1105 -2.1327
 9223SOL     OW39130   3.631   2.955   2.449  0.2685 -0.0931 -0.2081
 9223SOL    HW139131   3.562   2.958   2.383  0.8052 -1.0647 -0.8001
 9223SOL    HW239132   3.703   2.917   2.400  0.4139  0.8616 -0.7297
 9224SOL     OW39133   1.393   1.899  17.285 -0.5587  0.5024 -0.1093
 9224SOL    HW139134   1.316   1.841  17.286  0.6686 -1.1057  0.0475
 9224SOL    HW239135   1.379   1.935  17.372 -1.1780  0.1335 -0.0531
 9225SOL     OW39136   3.758   3.340   6.628  0.3556 -0.4140  0.2209
 9225SOL    HW139137   3.772   3.250   6.599 -1.3379 -0.2330 -1.1332
 9225SOL    HW239138   3.663   3.343   6.622  0.5549  3.4470 -0.9267
 9226SOL     OW39139   4.380   2.028   8.406  0.5573 -0.2613 -0.1888
 9226SOL    HW139140   4.398   2.109   8.454 -0.4981  0.7448 -1.4990
 9226SOL    HW239141   4.291   2.022   8.442  1.1482  1.2528  1.5240
 9227SOL     OW39142   4.039   0.715   6.615 -0.3866 -0.0490 -0.1742
 9227SOL    HW139143   4.014   0.721   6.523 -1.2304 -1.8694 -0.0632
 9227SOL    HW239144   4.034   0.620   6.626 -1.8604 -0.0862 -1.1114
 9228SOL     OW39145   0.900   0.464   4.217 -0.1966 -0.5337 -0.5004
 9228SOL    HW139146   0.967   0.523   4.251  0.0555 -0.8678 -0.4129
 9228SOL    HW239147   0.890   0.489   4.125 -0.5068  2.1287  0.2463
 9229SOL     OW39148   0.331   4.421   9.661 -0.5333  0.3475 -0.7737
 9229SOL    HW139149   0.273   4.364   9.610  0.4512 -1.9825  0.7014
 9229SOL    HW239150   0.297   4.407   9.750  0.4772 -0.0596 -0.4586
 9230SOL     OW39151   4.511   4.552  10.655 -0.1865 -0.3300 -0.1201
 9230SOL    HW139152   4.493   4.560  10.561 -1.8805  0.4069  0.2569
 9230SOL    HW239153   4.520   4.457  10.664  1.2866 -0.1756  0.0021
 9231SOL     OW39154   4.002   1.387   6.521 -0.4002 -0.2003  0.1864
 9231SOL    HW139155   3.952   1.419   6.446 -0.9047 -2.6080 -0.5106
 9231SOL    HW239156   4.006   1.465   6.577 -1.9723  1.2050 -1.6571
 9232SOL     OW39157   2.287   0.995   2.723 -0.0239  0.3958  0.1113
 9232SOL    HW139158   2.206   0.983   2.774 -0.7044  0.8056 -0.8835
 9232SOL    HW239159   2.280   0.922   2.661 -1.3295 -0.4959  1.2938
 9233SOL     OW39160   4.626   4.214   2.718 -0.0546 -0.3322 -0.1778
 9233SOL    HW139161   4.604   4.192   2.628  0.2599 -2.0349  0.1546
 9233SOL    HW239162   4.615   4.132   2.766  1.5846 -1.5439 -1.8867
 9234SOL     OW39163   0.259   4.461  11.425  1.0089 -0.3429 -0.0960
 9234SOL    HW139164   0.262   4.487  11.333  0.3000  1.3207  0.3425
 9234SOL    HW239165   0.331   4.513  11.461 -0.1280  1.3170 -0.1953
 9235SOL     OW39166   4.229   0.585  11.942  0.3866 -0.0933 -1.0720
 9235SOL    HW139167   4.149   0.638  11.942  0.5184  0.1011  0.1191
 9235SOL    HW239168   4.229   0.556  11.851  0.4408  1.0688 -1.4358
 9236SOL     OW39169   4.064   4.589   8.713  0.1830 -0.4001 -0.4906
 9236SOL    HW139170   4.157   4.578   8.735  0.1500  0.4595  0.0776
 9236SOL    HW239171   4.072   4.678   8.677  1.9598 -0.0950  0.6657
 9237SOL     OW39172   3.555   1.647   5.442 -0.1122 -0.5590  0.2675
 9237SOL    HW139173   3.484   1.709   5.424  2.8366  2.5372 -0.6138
 9237SOL    HW239174   3.563   1.587   5.368 -0.8522 -1.2503  0.7390
 9238SOL     OW39175   1.104   2.598   6.107  0.2398 -0.2599 -0.2947
 9238SOL    HW139176   1.092   2.668   6.171  0.4307 -0.2113 -0.3098
 9238SOL    HW239177   1.019   2.598   6.064  0.8533  1.4256 -1.4852
 9239SOL     OW39178   0.738   3.867   6.468  0.3591  0.6271 -0.5289
 9239SOL    HW139179   0.813   3.855   6.410  0.5238  3.5002 -0.9305
 9239SOL    HW239180   0.777   3.929   6.529  1.1051 -1.1821  0.8154
 9240SOL     OW39181   3.165   4.375   7.775  0.4635 -0.3539  0.1245
 9240SOL    HW139182   3.088   4.363   7.719 -1.0071 -0.3787  2.1373
 9240SOL    HW239183   3.224   4.311   7.736  2.2461  0.1989  1.9096
 9241SOL     OW39184   1.817   1.467   4.566 -0.0636  0.0535  0.0282
 9241SOL    HW139185   1.862   1.404   4.509  1.0042  0.2309  0.6721
 9241SOL    HW239186   1.726   1.442   4.547  1.6210 -4.9471 -1.5518
 9242SOL     OW39187   0.130   1.491   8.719  0.0477 -0.2680  0.0221
 9242SOL    HW139188   0.161   1.554   8.784  1.7203  0.3328 -1.3609
 9242SOL    HW239189   0.194   1.422   8.736 -0.5619 -0.9155 -0.3138
 9243SOL     OW39190   4.241   0.881   0.882 -0.3869  0.1958 -0.4791
 9243SOL    HW139191   4.292   0.940   0.937  0.5471  1.0249 -2.2809
 9243SOL    HW239192   4.153   0.916   0.898  0.2461  1.3705  0.3843
 9244SOL     OW39193   4.640   1.234  11.171  0.3336  0.3792  0.4641
 9244SOL    HW139194   4.637   1.151  11.124  2.4594  0.0400  0.9360
 9244SOL    HW239195   4.639   1.201  11.260 -3.3722  0.2462  0.3830
 9245SOL     OW39196   2.784   3.911  14.621 -0.3847  0.6422 -0.4840
 9245SOL    HW139197   2.784   3.916  14.526 -0.8684  1.0438 -0.4630
 9245SOL    HW239198   2.794   4.006  14.635  0.6419  0.3153  1.0395
 9246SOL     OW39199   2.196   0.925   8.628 -0.0721  0.1773 -0.2122
 9246SOL    HW139200   2.188   0.850   8.570 -1.0521 -1.1719  1.6677
 9246SOL    HW239201   2.287   0.927   8.659  0.0787 -0.8080 -0.6004
 9247SOL     OW39202   1.002   2.550  14.530  0.4600  0.1732  0.4696
 9247SOL    HW139203   1.018   2.619  14.466 -2.1368 -0.7412 -1.1687
 9247SOL    HW239204   0.977   2.474  14.478 -0.9284  0.1837  1.1166
 9248SOL     OW39205   1.892   2.301   1.655  0.3466  0.3589 -0.2607
 9248SOL    HW139206   1.798   2.312   1.645  0.7870  2.2587 -2.4462
 9248SOL    HW239207   1.905   2.217   1.612 -2.3246 -0.3935  0.4480
 9249SOL     OW39208   1.161   3.658   7.827  0.3379  0.2298  0.0343
 9249SOL    HW139209   1.187   3.597   7.897  1.1283 -2.6416 -2.7711
 9249SOL    HW239210   1.078   3.688   7.863 -0.8576 -0.3641 -2.2361
 9250SOL     OW39211   1.636   2.329   4.584  0.4369  0.1058 -0.5435
 9250SOL    HW139212   1.572   2.278   4.633  1.8913  0.5335  1.7854
 9250SOL    HW239213   1.577   2.398   4.552 -0.0777 -0.1292 -0.0984
 9251SOL     OW39214   3.550   4.133   8.654 -0.2602 -0.0104 -0.0409
 9251SOL    HW139215   3.606   4.057   8.671 -0.5415 -0.1306  0.3346
 9251SOL    HW239216   3.593   4.198   8.710 -1.6317 -0.0777  1.0595
 9252SOL     OW39217   2.904   0.960   0.581  0.0992  0.3982 -0.2146
 9252SOL    HW139218   2.850   0.897   0.534 -1.6474  0.9364  1.0778
 9252SOL    HW239219   2.969   0.982   0.514 -1.2916 -0.6731 -1.9433
 9253SOL     OW39220   3.462   1.275   8.457 -0.1885 -0.7492 -0.1133
 9253SOL    HW139221   3.409   1.218   8.401  0.4873  0.7462 -2.2721
 9253SOL    HW239222   3.529   1.214   8.487  2.0205  2.2452  1.0628
 9254SOL     OW39223   4.016   4.507   4.579 -0.2086  0.2430 -0.2517
 9254SOL    HW139224   4.088   4.570   4.582 -1.6711  1.9381 -0.4297
 9254SOL    HW239225   4.033   4.458   4.660  1.8017 -0.5500 -1.1861
 9255SOL     OW39226   2.909   0.428  12.941 -0.3602 -0.1609  0.1292
 9255SOL    HW139227   2.831   0.444  12.995 -0.4429  0.5455 -0.1972
 9255SOL    HW239228   2.974   0.471  12.996  1.0329 -3.5679  1.1709
 9256SOL     OW39229   3.335   2.345  11.873 -0.2690 -0.2057 -0.4665
 9256SOL    HW139230   3.280   2.421  11.851 -0.5985 -0.0779  0.7860
 9256SOL    HW239231   3.318   2.295  11.793 -2.2240  1.2999 -0.9993
 9257SOL     OW39232   4.637   1.676   6.033  0.3354  0.5120 -0.0496
 9257SOL    HW139233   4.633   1.594   5.984  0.3738 -0.0149  0.8192
 9257SOL    HW239234   4.551   1.713   6.011  0.4197  1.0054  0.4564
 9258SOL     OW39235   2.113   0.882   5.266  0.1026 -0.3455  0.2995
 9258SOL    HW139236   2.171   0.834   5.326 -0.8959 -1.5877  0.2550
 9258SOL    HW239237   2.111   0.808   5.205  0.0096 -1.1535  1.2721
 9259SOL     OW39238   0.965   2.669   7.916  0.3702  0.2694  0.2809
 9259SOL    HW139239   0.998   2.588   7.876 -0.2764  0.2528 -0.2275
 9259SOL    HW239240   1.048   2.711   7.938  0.3107 -0.1252  1.2500
 9260SOL     OW39241   0.978   2.871   1.728 -0.0717 -0.1248  0.4609
 9260SOL    HW139242   0.977   2.776   1.725 -0.9241 -0.0596 -2.0580
 9260SOL    HW239243   0.884   2.889   1.740  0.1583  0.7390  0.9533
 9261SOL     OW39244   0.002   1.191   4.443 -0.2927 -0.5361  0.6846
 9261SOL    HW139245   4.660   1.259   4.467  0.8794 -0.0996  2.5246
 9261SOL    HW239246   0.018   1.203   4.349 -1.3023 -0.5816  0.4988
 9262SOL     OW39247   4.686   0.789   3.959 -0.0565 -0.1484  0.2369
 9262SOL    HW139248   4.633   0.716   3.928  0.9825  0.2008 -2.4179
 9262SOL    HW239249   0.021   0.750   4.025  1.7935 -1.1110 -1.9040
 9263SOL     OW39250   2.267   1.528   2.222  0.0902 -0.5067 -0.0018
 9263SOL    HW139251   2.302   1.443   2.249  0.5824 -0.4790 -0.5577
 9263SOL    HW239252   2.275   1.509   2.129  0.6213  1.2480 -0.3031
 9264SOL     OW39253   2.956   3.109   7.234  0.2420  0.2221 -0.5713
 9264SOL    HW139254   2.892   3.099   7.304 -1.2057  0.9082 -1.7958
 9264SOL    HW239255   3.036   3.123   7.284 -0.0606 -1.5676  0.3914
 9265SOL     OW39256   2.963   1.846   4.220  0.2354  0.5715  0.6717
 9265SOL    HW139257   2.970   1.908   4.293 -1.8895 -0.0334  1.3968
 9265SOL    HW239258   2.874   1.816   4.236  0.5301 -1.2659 -1.2310
 9266SOL     OW39259   1.238   4.171   4.035 -0.0833 -0.1224 -0.0950
 9266SOL    HW139260   1.263   4.196   4.124 -1.1472 -3.2444  1.0817
 9266SOL    HW239261   1.201   4.084   4.048 -0.6060  0.0960 -0.1106
 9267SOL     OW39262   0.380   1.718   2.281 -0.6129  0.2845 -0.1101
 9267SOL    HW139263   0.360   1.636   2.235  1.8474 -0.0182 -0.6047
 9267SOL    HW239264   0.450   1.751   2.225  0.4104 -3.3500 -0.9573
 9268SOL     OW39265   0.333   0.410  14.760  0.0051 -0.0026  0.1449
 9268SOL    HW139266   0.308   0.498  14.790  0.0944 -0.0836  0.4595
 9268SOL    HW239267   0.263   0.365  14.807 -0.7956  2.1535  1.0458
 9269SOL     OW39268   4.012   3.732   1.893  0.2347 -0.3182 -0.6635
 9269SOL    HW139269   3.940   3.787   1.864  0.7326  0.5068 -0.3082
 9269SOL    HW239270   4.053   3.803   1.942  2.2077 -0.8333 -1.5688
 9270SOL     OW39271   4.058   2.983   8.710  0.4047  0.2950  0.4293
 9270SOL    HW139272   4.124   3.035   8.755  0.7572  0.3277 -0.1236
 9270SOL    HW239273   3.986   2.981   8.773 -0.1989 -1.7466 -0.3363
 9271SOL     OW39274   1.142   2.005   8.881  0.0834  0.5658 -0.9948
 9271SOL    HW139275   1.055   2.010   8.842 -0.9579  0.2940  1.2935
 9271SOL    HW239276   1.120   1.949   8.955  0.3904 -0.0184 -1.3434
 9272SOL     OW39277   0.620   3.084   7.443 -0.3646  0.1346 -0.2787
 9272SOL    HW139278   0.657   3.169   7.467 -0.6481  0.5647 -1.3574
 9272SOL    HW239279   0.642   3.098   7.351  0.8822  0.9118  0.1304
 9273SOL     OW39280   3.620   2.564  13.970 -0.0177 -0.2977 -0.2241
 9273SOL    HW139281   3.697   2.547  13.915  1.1314 -1.1449  1.6427
 9273SOL    HW239282   3.658   2.589  14.054 -0.6260 -0.9055  0.2349
 9274SOL     OW39283   2.686   1.268   3.522  0.4682  0.6203  0.4684
 9274SOL    HW139284   2.765   1.285   3.471 -1.7063 -0.6141 -3.3226
 9274SOL    HW239285   2.713   1.257   3.613  0.3417 -1.5502  0.2491
 9275SOL     OW39286   0.867   1.175  12.375  0.8204 -0.1738 -0.3609
 9275SOL    HW139287   0.938   1.161  12.438 -0.5431  2.2396  1.7340
 9275SOL    HW239288   0.795   1.208  12.430  3.1647 -0.0509  2.6253
 9276SOL     OW39289   2.412   1.466   6.512 -0.0541 -0.4397 -0.5115
 9276SOL    HW139290   2.466   1.444   6.588 -0.1800 -0.0163 -0.3009
 9276SOL    HW239291   2.320   1.448   6.530  0.0905 -0.4089  0.2248
 9277SOL     OW39292   2.316   0.694   2.898 -0.9825 -0.3335  0.2004
 9277SOL    HW139293   2.400   0.735   2.919 -1.3394  0.4652  0.0631
 9277SOL    HW239294   2.343   0.610   2.862 -1.1142 -0.7118  0.9721
 9278SOL     OW39295   3.785   3.674   7.640  0.3633  0.1636  0.4671
 9278SOL    HW139296   3.844   3.704   7.710 -1.1435  0.4154  1.6162
 9278SOL    HW239297   3.803   3.738   7.571 -1.5427  0.4671  0.2653
 9279SOL     OW39298   1.497   1.969  13.888 -0.2543 -0.2455  0.1896
 9279SOL    HW139299   1.458   2.026  13.955  1.4137 -0.6772  1.5337
 9279SOL    HW239300   1.463   1.885  13.918 -0.4422  0.4881  2.0494
 9280SOL     OW39301   1.508   1.907   3.645 -0.0289 -0.3027 -0.3048
 9280SOL    HW139302   1.529   1.822   3.683 -0.9492 -0.6897 -0.6476
 9280SOL    HW239303   1.582   1.957   3.678 -1.5242  0.3502  2.1327
 9281SOL     OW39304   3.145   0.448   6.560 -0.2598 -0.8219 -0.2729
 9281SOL    HW139305   3.169   0.540   6.553  0.3558 -0.8478  1.5597
 9281SOL    HW239306   3.196   0.420   6.484 -0.1873 -2.0349  0.2204
 9282SOL     OW39307   0.646   4.029   4.645  0.0078 -0.2807  0.0210
 9282SOL    HW139308   0.554   4.041   4.670  0.3653 -2.1648  2.1421
 9282SOL    HW239309   0.653   3.934   4.649  1.6564 -0.1294  0.7335
 9283SOL     OW39310   1.282   1.651   3.611  0.1856 -0.3128 -0.6797
 9283SOL    HW139311   1.308   1.609   3.529  1.1761  0.1074 -0.5909
 9283SOL    HW239312   1.308   1.590   3.680  3.4787 -1.2984 -2.8166
 9284SOL     OW39313   3.731   2.812   7.568  0.2203 -0.4405  0.2080
 9284SOL    HW139314   3.707   2.893   7.521 -1.8776 -1.4191 -0.4104
 9284SOL    HW239315   3.666   2.750   7.536 -0.6880  0.1495  0.9322
 9285SOL     OW39316   4.392   0.098  11.546 -1.0644  0.0942 -0.9412
 9285SOL    HW139317   4.463   0.162  11.554  0.4367 -1.8450  1.0979
 9285SOL    HW239318   4.436   0.016  11.568 -0.3675  1.0056  1.0525
 9286SOL     OW39319   3.795   3.249  12.972  0.2659  0.1134 -0.0076
 9286SOL    HW139320   3.713   3.204  12.992  0.0326 -0.0870 -1.3527
 9286SOL    HW239321   3.759   3.336  12.955 -0.1396 -0.5717 -2.8082
 9287SOL     OW39322   0.167   1.833   3.389  0.2819  0.5303  0.6668
 9287SOL    HW139323   0.078   1.807   3.364  0.3519  0.7427  0.2102
 9287SOL    HW239324   0.174   1.815   3.483 -2.0655 -0.6681  0.6134
 9288SOL     OW39325   1.626   1.261   8.100  0.0719 -0.1024  0.5455
 9288SOL    HW139326   1.682   1.204   8.047  0.4525 -0.6162  1.5077
 9288SOL    HW239327   1.539   1.245   8.064  0.6654  1.0554 -1.4493
 9289SOL     OW39328   0.993   0.769   8.891 -0.3919  0.2215  0.2040
 9289SOL    HW139329   1.072   0.820   8.910  0.8808 -1.2416 -1.1234
 9289SOL    HW239330   1.015   0.677   8.904 -0.8823 -0.0430 -0.8145
 9290SOL     OW39331   3.945   3.786   7.849  0.0463 -0.1630 -0.2156
 9290SOL    HW139332   3.955   3.857   7.912  0.5431  0.6376 -1.1804
 9290SOL    HW239333   4.011   3.728   7.884  0.3603 -0.0638 -0.6405
 9291SOL     OW39334   1.869   1.142   9.994  0.3332  0.1328 -0.2024
 9291SOL    HW139335   1.886   1.050  10.016 -2.1845  0.0642  1.5091
 9291SOL    HW239336   1.822   1.165  10.074  0.8233  0.4092  0.0006
 9292SOL     OW39337   2.991   4.717   7.045 -0.1007  0.0569 -0.0768
 9292SOL    HW139338   3.074   0.033   7.074  0.6529 -0.3710 -1.7020
 9292SOL    HW239339   3.025   4.670   6.969  1.2373 -3.1177  2.4559
 9293SOL     OW39340   3.615   1.867   6.789 -0.0174 -0.2120 -0.0771
 9293SOL    HW139341   3.522   1.863   6.771 -0.1881 -0.3135  0.8384
 9293SOL    HW239342   3.625   1.783   6.834  0.9363  0.4696  0.9678
 9294SOL     OW39343   2.344   0.886   5.810  0.1834 -0.3056 -0.2608
 9294SOL    HW139344   2.431   0.901   5.772 -0.9747 -0.7906 -3.0756
 9294SOL    HW239345   2.309   0.973   5.788  0.7173 -0.5180 -1.9246
 9295SOL     OW39346   4.631   3.940  10.467  0.0215 -0.0663 -0.5896
 9295SOL    HW139347   4.627   3.854  10.509 -1.6991  0.2651 -0.0547
 9295SOL    HW239348   4.711   3.973  10.509 -0.0803  0.5200 -0.8556
 9296SOL     OW39349   3.116   0.567   2.922  0.2351  0.2584  0.4675
 9296SOL    HW139350   3.055   0.569   2.996 -0.2097 -2.0759  0.1479
 9296SOL    HW239351   3.092   0.485   2.880 -0.6171 -0.2794  2.0076
 9297SOL     OW39352   0.302   3.279  13.492  0.0475 -0.1390  0.0537
 9297SOL    HW139353   0.321   3.287  13.398 -2.7862 -2.5823 -0.7211
 9297SOL    HW239354   0.208   3.260  13.498  0.8945 -3.6878  2.0010
 9298SOL     OW39355   1.259   2.241   8.876  0.3165  0.0322 -0.1760
 9298SOL    HW139356   1.229   2.150   8.884 -1.9334  0.7389 -0.4842
 9298SOL    HW239357   1.197   2.282   8.936  0.4867 -1.0174  0.7048
 9299SOL     OW39358   1.104   1.716   7.280 -0.4230  0.3697  0.1927
 9299SOL    HW139359   1.173   1.659   7.247  0.9513  0.6784  2.4912
 9299SOL    HW239360   1.119   1.723   7.375  0.7842 -4.0790  0.3193
 9300SOL     OW39361   3.291   0.064   3.775 -0.2217  0.3433  0.7497
 9300SOL    HW139362   3.243   4.706   3.753  0.2458  0.9626 -2.4247
 9300SOL    HW239363   3.240   0.109   3.842 -0.8973 -0.4773  0.7841
 9301SOL     OW39364   2.282   1.683   8.540  0.8497  0.5545 -0.4333
 9301SOL    HW139365   2.314   1.630   8.613  1.5910  0.9379 -0.4728
 9301SOL    HW239366   2.251   1.617   8.478  1.9582  0.3376 -0.7726
 9302SOL     OW39367   4.707   0.696   3.103 -0.1644 -0.0650  0.3026
 9302SOL    HW139368   4.706   0.715   3.009 -1.0201  2.8335  0.8931
 9302SOL    HW239369   4.618   0.664   3.119 -0.0783 -0.0118  0.8783
 9303SOL     OW39370   0.954   2.369   9.841 -0.3599 -0.1921 -0.1931
 9303SOL    HW139371   1.035   2.385   9.792 -0.4288  1.4854  0.2476
 9303SOL    HW239372   0.921   2.457   9.858  1.6860  1.0193 -2.5587
 9304SOL     OW39373   1.606   3.989  12.065  0.4785  0.6273 -0.1393
 9304SOL    HW139374   1.587   3.947  12.148  1.1553  0.7636  0.0814
 9304SOL    HW239375   1.701   3.980  12.073  0.0165 -2.0980  2.0968
 9305SOL     OW39376   1.663   4.073   6.651 -0.1563  0.2495  0.1498
 9305SOL    HW139377   1.598   4.003   6.663 -0.0035  0.4750  2.2973
 9305SOL    HW239378   1.610   4.142   6.611  1.6715  1.7161  0.2408
 9306SOL     OW39379   4.521   2.064   2.452  0.4236  0.0737  0.0565
 9306SOL    HW139380   4.514   2.001   2.524  0.2993 -0.9126 -0.8178
 9306SOL    HW239381   4.458   2.034   2.386  0.7486 -0.1433 -0.1522
 9307SOL     OW39382   4.425   1.857   0.774  0.3367 -0.2241  0.2059
 9307SOL    HW139383   4.450   1.764   0.770  2.2822  0.3222 -0.2830
 9307SOL    HW239384   4.478   1.876   0.852  0.5002 -0.2050  0.0905
 9308SOL     OW39385   4.264   4.622  13.143 -0.0846 -0.2411  0.9307
 9308SOL    HW139386   4.300   4.613  13.055 -0.7849 -2.9799  0.9570
 9308SOL    HW239387   4.277   4.715  13.164  2.2342 -0.6589  1.4050
 9309SOL     OW39388   0.764   4.208  15.403 -0.3547 -0.2919  0.1997
 9309SOL    HW139389   0.769   4.252  15.488 -0.6794  0.7112 -0.3076
 9309SOL    HW239390   0.797   4.120  15.421 -0.9726 -0.2309  1.6173
 9310SOL     OW39391   4.416   3.784  17.632  0.1059 -0.6785  0.2675
 9310SOL    HW139392   4.335   3.825  17.660 -0.8539 -1.4445 -1.3536
 9310SOL    HW239393   4.446   3.760   0.030  1.1307  0.8522  0.3417
 9311SOL     OW39394   1.232   1.469   2.876  0.3862 -0.1673  0.2506
 9311SOL    HW139395   1.170   1.412   2.922 -1.0007  0.2351 -1.1074
 9311SOL    HW239396   1.295   1.398   2.863  0.8166  0.4099 -0.8464
 9312SOL     OW39397   1.876   4.649  17.048 -0.4333  0.5561 -0.4219
 9312SOL    HW139398   1.850   4.588  16.979  1.0220  0.0668 -0.5552
 9312SOL    HW239399   1.934   4.715  17.010  0.3937  0.1534  0.1260
 9313SOL     OW39400   1.899   2.655   0.709  0.2012 -1.0141  0.3467
 9313SOL    HW139401   1.900   2.704   0.627 -0.2762 -2.0075 -0.2490
 9313SOL    HW239402   1.992   2.632   0.706  0.5300  0.3729 -0.3064
 9314SOL     OW39403   2.879   2.352   4.064 -0.3113  0.0722 -0.0166
 9314SOL    HW139404   2.963   2.330   4.024 -0.5067  1.7477 -1.3391
 9314SOL    HW239405   2.834   2.362   3.980  1.9939  0.1856 -1.2348
 9315SOL     OW39406   0.637   0.481   6.900 -0.2064 -0.0272 -0.0321
 9315SOL    HW139407   0.733   0.479   6.904 -0.1930  0.1237 -0.3486
 9315SOL    HW239408   0.617   0.400   6.854  1.9485 -1.0037  0.7311
 9316SOL     OW39409   4.051   0.087  12.740  0.0727  0.8444  0.0313
 9316SOL    HW139410   4.028   0.050  12.825 -1.1421  0.2257 -0.5578
 9316SOL    HW239411   4.123   0.144  12.766 -0.0557  0.7510  0.5787
 9317SOL     OW39412   4.643   4.071  14.174 -0.3308  0.0104  0.2469
 9317SOL    HW139413   4.622   4.087  14.083 -2.3674 -1.2418  0.5100
 9317SOL    HW239414   0.003   4.121  14.175  0.6847 -1.6377  2.7736
 9318SOL     OW39415   3.869   4.568  14.125  1.0654  0.1892 -0.7274
 9318SOL    HW139416   3.917   4.489  14.151  0.7844 -0.2023 -1.3993
 9318SOL    HW239417   3.926   4.610  14.062  3.1104 -0.2540  0.8142
 9319SOL     OW39418   1.163   3.572   8.847  0.5615 -0.9648  0.4702
 9319SOL    HW139419   1.256   3.554   8.859  0.9231  0.9778  0.5958
 9319SOL    HW239420   1.154   3.654   8.896  2.0146 -0.8999  0.6246
 9320SOL     OW39421   0.939   0.283   4.764  0.2400 -0.7347  0.1525
 9320SOL    HW139422   0.918   0.373   4.738 -1.9049 -1.0060  0.9782
 9320SOL    HW239423   1.013   0.296   4.823  1.3802  0.8462 -1.6250
 9321SOL     OW39424   3.843   3.367   8.579  0.3819 -0.4446 -0.2232
 9321SOL    HW139425   3.838   3.346   8.672  1.0140 -1.5566 -0.4398
 9321SOL    HW239426   3.846   3.279   8.541  3.4587 -0.3559 -0.2217
 9322SOL     OW39427   0.933   2.643  15.378  0.2980  0.1881  0.0123
 9322SOL    HW139428   0.917   2.563  15.328  2.7378 -0.8310  0.8399
 9322SOL    HW239429   0.903   2.619  15.466 -0.5047  1.9482  0.2111
 9323SOL     OW39430   1.747   4.166   5.550 -0.6707 -0.4717  0.2198
 9323SOL    HW139431   1.783   4.087   5.591  0.9966  0.6604  0.9280
 9323SOL    HW239432   1.656   4.149   5.576 -0.7768 -0.9723 -0.4754
 9324SOL     OW39433   1.845   1.507   1.729 -0.5193 -0.0498 -0.1365
 9324SOL    HW139434   1.894   1.496   1.648  3.1897  3.6514  1.6063
 9324SOL    HW239435   1.800   1.422   1.729 -0.5153 -0.0511 -0.3434
 9325SOL     OW39436   2.995   2.189   8.256  0.4677  0.0358  0.1262
 9325SOL    HW139437   2.916   2.146   8.221  0.8773  0.3494 -1.1677
 9325SOL    HW239438   3.034   2.240   8.185 -2.3491  1.2854 -0.5177
 9326SOL     OW39439   2.419   2.832   4.737  0.5160  0.8879 -0.0381
 9326SOL    HW139440   2.354   2.873   4.678  1.8514  3.2559  0.1435
 9326SOL    HW239441   2.477   2.900   4.771  1.6764 -0.9755  1.7019
 9327SOL     OW39442   3.606   0.936   9.371  0.0263 -0.5353  0.1057
 9327SOL    HW139443   3.658   1.015   9.358 -1.3927  0.0052 -2.3229
 9327SOL    HW239444   3.641   0.872   9.310  1.1855  0.7802 -0.5955
 9328SOL     OW39445   0.005   2.554  13.784 -0.2685  0.2601 -0.2577
 9328SOL    HW139446   4.688   2.600  13.858  0.7265 -0.0140  0.4271
 9328SOL    HW239447   4.684   2.468  13.792 -0.8503  0.4296 -1.4994
 9329SOL     OW39448   3.712   0.798   3.174  0.3398  0.2499 -0.4037
 9329SOL    HW139449   3.715   0.890   3.147  0.0199  0.5919  0.7255
 9329SOL    HW239450   3.669   0.794   3.259 -0.2505 -0.8692 -0.7524
 9330SOL     OW39451   2.536   0.683   5.012 -0.8878 -0.4815  0.3724
 9330SOL    HW139452   2.555   0.673   5.106  0.6422  1.8943  0.3276
 9330SOL    HW239453   2.563   0.773   4.995 -1.4362 -0.3413  0.2453
 9331SOL     OW39454   2.695   0.882   7.004  0.2513  0.0618 -0.0129
 9331SOL    HW139455   2.634   0.875   7.077 -1.8442  0.1913 -1.7768
 9331SOL    HW239456   2.767   0.827   7.036  0.9326  2.2113  2.2083
 9332SOL     OW39457   2.550   4.472  17.567  0.0570  0.5704  0.0723
 9332SOL    HW139458   2.557   4.564  17.593  0.0469  0.1292  1.5808
 9332SOL    HW239459   2.476   4.442  17.619  0.0341 -1.0146 -0.8670
 9333SOL     OW39460   4.524   4.335   7.098  0.2786 -0.3319  0.0243
 9333SOL    HW139461   4.599   4.387   7.129 -0.4219 -0.0916  1.2979
 9333SOL    HW239462   4.555   4.247   7.118  3.6551  0.5398 -1.2600
 9334SOL     OW39463   3.434   4.144   5.062 -0.4651 -0.1601 -0.5035
 9334SOL    HW139464   3.443   4.231   5.024 -1.7923  0.4239  0.5034
 9334SOL    HW239465   3.474   4.085   4.998  1.2744  0.6888 -0.1835
 9335SOL     OW39466   0.759   1.562   8.055 -0.7122  0.0488 -0.1555
 9335SOL    HW139467   0.665   1.569   8.043 -0.8169 -1.7612 -0.4350
 9335SOL    HW239468   0.798   1.635   8.103  0.5312  1.1080 -2.8147
 9336SOL     OW39469   3.703   1.915  15.025  0.1510  0.9521  0.0667
 9336SOL    HW139470   3.743   2.002  15.016 -0.8818  1.4083 -0.2208
 9336SOL    HW239471   3.779   1.867  14.993 -1.1697 -1.3866  0.4504
 9337SOL     OW39472   0.163   0.695   6.634  0.1224 -0.4955  0.5772
 9337SOL    HW139473   0.184   0.739   6.552  1.7446 -1.2296  0.5973
 9337SOL    HW239474   0.075   0.730   6.649 -1.4051 -2.6171 -3.2710
 9338SOL     OW39475   4.518   1.527  10.365 -0.3283  0.5967  0.5337
 9338SOL    HW139476   4.451   1.595  10.353 -2.7299 -1.1301  4.0441
 9338SOL    HW239477   4.486   1.486  10.445  0.1980 -3.7302 -1.4921
 9339SOL     OW39478   4.212   3.369   6.370 -0.2799 -0.1667 -0.4147
 9339SOL    HW139479   4.127   3.396   6.402  0.6683  1.5038  0.6684
 9339SOL    HW239480   4.194   3.284   6.328  0.3366 -0.6993  0.3972
 9340SOL     OW39481   0.072   3.377  14.736  0.1016  0.1219  0.0283
 9340SOL    HW139482   0.033   3.290  14.741  1.7981 -0.7737 -2.8893
 9340SOL    HW239483   4.720   3.431  14.763 -0.4965  1.4354 -4.3505
 9341SOL     OW39484   0.818   1.064  12.142 -0.3700  0.3246 -0.3438
 9341SOL    HW139485   0.829   1.119  12.219  0.9352  0.1367 -0.4002
 9341SOL    HW239486   0.725   1.049  12.161 -0.3105  0.8213  0.3307
 9342SOL     OW39487   0.573   1.025  13.595 -0.2966 -0.2678  0.0544
 9342SOL    HW139488   0.486   1.047  13.630 -0.3308 -1.0231  0.4476
 9342SOL    HW239489   0.604   1.111  13.570  2.9576 -1.5729 -0.3339
 9343SOL     OW39490   3.706   1.520   6.599 -0.3225 -0.3009 -0.4109
 9343SOL    HW139491   3.723   1.441   6.547  0.7769  1.7149 -3.1122
 9343SOL    HW239492   3.652   1.490   6.672 -2.4039 -0.9250 -2.2126
 9344SOL     OW39493   2.032   0.251  10.035  0.2013  0.0770 -0.2477
 9344SOL    HW139494   1.951   0.237  10.084 -0.1712  0.8882 -0.6346
 9344SOL    HW239495   2.067   0.163  10.022  2.9153  1.3341 -1.5786
 9345SOL     OW39496   1.373   2.922   7.117  0.2695 -0.4489 -0.5866
 9345SOL    HW139497   1.300   2.976   7.087 -0.8167 -1.7472 -0.2714
 9345SOL    HW239498   1.339   2.833   7.106  1.9368 -1.2469  0.7228
 9346SOL     OW39499   3.669   4.706   2.189 -0.2297  0.3014 -0.2434
 9346SOL    HW139500   3.578   4.691   2.165 -0.2263  0.1375 -0.1471
 9346SOL    HW239501   3.645   0.025   2.273 -2.0037 -2.5145  0.6114
 9347SOL     OW39502   1.865   4.560   2.539  0.1060  0.6519  0.2440
 9347SOL    HW139503   1.803   4.609   2.593  0.0393  0.9345 -0.0887
 9347SOL    HW239504   1.884   4.481   2.591  0.8087 -0.3764 -1.5767
 9348SOL     OW39505   1.917   3.188   2.565  0.0504  0.2332  0.1882
 9348SOL    HW139506   1.897   3.230   2.481  0.2639  0.6176  0.3277
 9348SOL    HW239507   1.856   3.235   2.621  0.1992 -0.3722  0.8536
 9349SOL     OW39508   3.952   4.499  13.594  0.3525  0.1877  0.2135
 9349SOL    HW139509   4.004   4.579  13.599 -1.0633  1.2743 -2.0883
 9349SOL    HW239510   3.949   4.504  13.498 -1.1909 -0.9727  0.1923
 9350SOL     OW39511   1.695   2.507   4.867  1.0428  0.0415  0.2396
 9350SOL    HW139512   1.749   2.430   4.882 -0.7451 -1.2269  0.0836
 9350SOL    HW239513   1.655   2.484   4.783  0.7805  0.3613  0.2772
 9351SOL     OW39514   4.437   2.665   2.325 -0.2620  0.0469 -0.2751
 9351SOL    HW139515   4.415   2.744   2.375 -1.4506 -2.2961  2.8759
 9351SOL    HW239516   4.459   2.718   2.248 -0.6681  0.1053 -0.3474
 9352SOL     OW39517   1.304   1.196   6.601 -0.0730  0.2381  0.0680
 9352SOL    HW139518   1.304   1.169   6.510  1.7474 -0.8529  0.4068
 9352SOL    HW239519   1.338   1.123   6.652  0.2701  0.9365  0.8528
 9353SOL     OW39520   0.870   2.168   5.624  0.3831  0.1907 -0.1897
 9353SOL    HW139521   0.961   2.145   5.641  0.6745  1.6903  0.2579
 9353SOL    HW239522   0.889   2.247   5.573 -3.8551  0.9705 -0.5580
 9354SOL     OW39523   1.447   0.046   3.730  0.3189  0.1066  0.4771
 9354SOL    HW139524   1.528   4.718   3.719  0.4815  0.0295  1.9857
 9354SOL    HW239525   1.390   4.711   3.679  1.3390  0.3036 -0.8782
 9355SOL     OW39526   1.470   0.587   2.800  0.3227 -0.0103  0.3576
 9355SOL    HW139527   1.550   0.587   2.747 -0.5267 -0.1826 -0.9156
 9355SOL    HW239528   1.431   0.671   2.777  0.0392  0.2401  1.7440
 9356SOL     OW39529   0.777   0.239   5.864 -0.2495 -0.2042 -0.7102
 9356SOL    HW139530   0.707   0.259   5.927  0.0474  1.2202 -0.8229
 9356SOL    HW239531   0.831   0.318   5.871  0.4970 -0.8358  0.6491
 9357SOL     OW39532   1.173   2.284   3.731  0.0744 -0.4200 -0.0561
 9357SOL    HW139533   1.259   2.243   3.731  0.8657  1.2697 -0.6371
 9357SOL    HW239534   1.185   2.351   3.798 -0.1714 -1.2596  0.8149
 9358SOL     OW39535   3.435   0.049  14.093  0.6024 -0.1113 -0.2949
 9358SOL    HW139536   3.447   0.036  13.999  1.8999 -3.4215  0.3476
 9358SOL    HW239537   3.383   4.695  14.120  0.3499  0.2728  0.3203
 9359SOL     OW39538   3.390   1.648  13.813  0.6459  0.2997 -0.4010
 9359SOL    HW139539   3.312   1.637  13.758  0.0127 -0.3299  0.6243
 9359SOL    HW239540   3.353   1.692  13.889 -2.8675 -1.7853 -0.9137
 9360SOL     OW39541   3.167   1.952   4.896 -1.0408 -0.2442  0.1563
 9360SOL    HW139542   3.173   1.962   4.991 -0.3132  2.3406 -0.1630
 9360SOL    HW239543   3.077   1.923   4.879 -2.1237  3.3349 -0.1793
 9361SOL     OW39544   1.563   2.438   4.181  0.1463  0.4616  0.5404
 9361SOL    HW139545   1.606   2.353   4.190 -1.9569 -0.4053  2.3486
 9361SOL    HW239546   1.638   2.481   4.140  0.9051 -2.1666 -0.8401
 9362SOL     OW39547   1.315   2.204   5.353  0.0542  0.2744  0.2963
 9362SOL    HW139548   1.244   2.205   5.418 -0.6921 -0.2481 -0.5116
 9362SOL    HW239549   1.271   2.171   5.275  1.2316  0.1220 -0.2975
 9363SOL     OW39550   0.016   0.475   3.574  0.4817 -0.1745 -0.5854
 9363SOL    HW139551   4.663   0.416   3.578  1.4492 -1.2769  0.7588
 9363SOL    HW239552   0.037   0.484   3.481 -0.7381  2.3638 -0.6327
 9364SOL     OW39553   0.461   3.847   2.550  0.0240  0.0191 -0.6741
 9364SOL    HW139554   0.380   3.892   2.576  0.1770 -0.2316  0.2479
 9364SOL    HW239555   0.488   3.799   2.629 -1.9878 -0.6041 -0.3524
 9365SOL     OW39556   1.799   1.445   2.760 -0.0234  0.5278 -0.0122
 9365SOL    HW139557   1.887   1.468   2.728  0.0721 -1.6808 -1.2827
 9365SOL    HW239558   1.747   1.523   2.742  0.8069  0.9358 -0.6308
 9366SOL     OW39559   1.032   1.695   3.247 -0.4077  0.0126  0.0853
 9366SOL    HW139560   1.120   1.666   3.272  0.2200  1.4297 -0.4155
 9366SOL    HW239561   0.996   1.607   3.255 -1.1926  0.5539  2.6209
 9367SOL     OW39562   2.515   0.386  15.076  0.8250  0.4445  0.1421
 9367SOL    HW139563   2.496   0.332  14.999  2.1225  1.1541 -0.6976
 9367SOL    HW239564   2.603   0.417  15.054  0.7610  1.3940  1.2240
 9368SOL     OW39565   0.316   1.635   4.097  0.4516 -0.2773  0.2640
 9368SOL    HW139566   0.348   1.720   4.068  0.4887 -0.5455 -0.4970
 9368SOL    HW239567   0.225   1.639   4.067  0.7350  0.5377 -0.4850
 9369SOL     OW39568   2.736   0.440   4.916 -0.0314 -0.4254 -0.0911
 9369SOL    HW139569   2.734   0.359   4.967  1.1304  0.3168  1.1440
 9369SOL    HW239570   2.659   0.489   4.945  0.3198  0.0455  0.0400
 9370SOL     OW39571   1.489   0.740   6.931 -0.1227  0.1431 -0.1338
 9370SOL    HW139572   1.429   0.731   6.857  0.8656  0.2116 -0.9367
 9370SOL    HW239573   1.471   0.830   6.960 -0.9741  0.1096 -0.5584
 9371SOL     OW39574   3.680   1.216  14.745 -0.6220 -0.4038  0.4496
 9371SOL    HW139575   3.757   1.267  14.721  0.8587 -2.6436  0.5010
 9371SOL    HW239576   3.666   1.238  14.837 -0.5495  0.9896  0.1260
 9372SOL     OW39577   2.613   0.919   2.307 -0.0267 -0.0501  0.0081
 9372SOL    HW139578   2.579   0.840   2.265 -1.3532  1.0177 -0.9520
 9372SOL    HW239579   2.598   0.901   2.400  2.2775  2.9495  0.9392
 9373SOL     OW39580   4.410   0.728   2.083  0.2916 -0.1861 -0.1492
 9373SOL    HW139581   4.338   0.766   2.031  0.6476 -0.0623 -0.5496
 9373SOL    HW239582   4.466   0.806   2.084  0.5646 -0.3797 -0.4620
 9374SOL     OW39583   0.539   4.327   3.314  0.1139  0.0545 -0.1918
 9374SOL    HW139584   0.454   4.367   3.298 -0.1878 -0.3664  0.3355
 9374SOL    HW239585   0.526   4.234   3.292 -1.1888  0.3376 -0.6031
 9375SOL     OW39586   4.238   0.214   5.137  0.0104  0.5073  0.0440
 9375SOL    HW139587   4.306   0.281   5.144  1.7961 -1.1054 -2.0313
 9375SOL    HW239588   4.279   0.150   5.079  0.7112  1.2611 -0.2910
 9376SOL     OW39589   1.118   0.247  12.412 -0.3997  0.0139 -0.3787
 9376SOL    HW139590   1.101   0.288  12.496  0.4972  1.1095 -0.7363
 9376SOL    HW239591   1.042   0.267  12.356  0.1014 -0.3733 -1.2071
 9377SOL     OW39592   0.905   0.321  15.883 -0.0972  0.0581 -0.3643
 9377SOL    HW139593   0.861   0.289  15.804  0.9051 -1.1674 -0.4223
 9377SOL    HW239594   0.933   0.412  15.872 -2.2435  0.6593 -0.9347
 9378SOL     OW39595   2.496   4.426  10.031  0.7156  0.2171 -0.3450
 9378SOL    HW139596   2.466   4.345  10.075  0.0463  2.0309  2.5501
 9378SOL    HW239597   2.431   4.423   9.961 -0.3229 -0.9668  0.6583
 9379SOL     OW39598   1.068   0.809   5.131  0.2327  0.1174 -0.4420
 9379SOL    HW139599   0.996   0.852   5.085  0.7673  2.3037  0.8015
 9379SOL    HW239600   1.089   0.738   5.070  0.5365 -0.7969  0.7313
 9380SOL     OW39601   2.959   0.988   6.387  0.3372  0.3373 -0.5523
 9380SOL    HW139602   3.022   1.034   6.442  0.3246 -0.5870  0.2370
 9380SOL    HW239603   2.880   0.982   6.442 -1.0079  2.4083 -2.2741
 9381SOL     OW39604   0.984   1.436   3.277 -0.0402 -0.3223  0.9489
 9381SOL    HW139605   1.004   1.343   3.291  1.5592 -0.2880 -1.1194
 9381SOL    HW239606   0.953   1.428   3.187  0.0855 -1.0014  0.9638
 9382SOL     OW39607   3.381   3.822   9.756  0.8222 -0.6169 -0.0010
 9382SOL    HW139608   3.455   3.770   9.723  1.6619 -0.6150  1.8766
 9382SOL    HW239609   3.399   3.819   9.850  0.8885 -2.1142 -0.0492
 9383SOL     OW39610   3.417   0.903   6.475  0.6542 -0.6034 -0.2089
 9383SOL    HW139611   3.401   0.996   6.490  1.4774 -1.0788  3.5527
 9383SOL    HW239612   3.485   0.910   6.408  2.2839  0.9151  1.6537
 9384SOL     OW39613   1.619   3.922  16.857  0.3711 -0.2540  0.5343
 9384SOL    HW139614   1.676   3.942  16.783 -0.1565  2.7989  0.9391
 9384SOL    HW239615   1.686   3.900  16.922  1.8263 -0.7136 -1.1377
 9385SOL     OW39616   2.364   2.574  11.314 -0.0551  0.3479 -0.4391
 9385SOL    HW139617   2.348   2.623  11.233 -2.5895  0.5168  0.1613
 9385SOL    HW239618   2.286   2.518  11.318  1.3720 -1.5963 -0.2162
 9386SOL     OW39619   2.978   2.132   3.087 -0.5243 -0.1396  0.4097
 9386SOL    HW139620   3.016   2.220   3.082  1.8591 -1.0013  3.5003
 9386SOL    HW239621   2.910   2.150   3.153 -0.1056  2.4513  0.1232
 9387SOL     OW39622   1.775   1.906   3.335  0.2472  0.3281 -0.0514
 9387SOL    HW139623   1.759   1.818   3.370 -0.8978 -0.5820 -2.8201
 9387SOL    HW239624   1.807   1.880   3.249 -3.1911  0.9398 -1.5175
 9388SOL     OW39625   3.836   3.636   6.848 -0.1917  0.0486  0.3473
 9388SOL    HW139626   3.917   3.600   6.811 -0.4323  1.4990 -1.5751
 9388SOL    HW239627   3.859   3.704   6.911 -0.3203  1.2052 -0.8624
 9389SOL     OW39628   0.235   1.270   7.867  0.0314 -0.1111 -0.5467
 9389SOL    HW139629   0.248   1.257   7.961  0.5425  0.1212 -0.5812
 9389SOL    HW239630   0.176   1.345   7.872 -1.0983 -0.9141 -2.2249
 9390SOL     OW39631   2.248   3.720   5.618  0.8254  0.0970 -0.1191
 9390SOL    HW139632   2.227   3.674   5.537 -0.1398  0.5638 -0.1255
 9390SOL    HW239633   2.160   3.756   5.626  0.8058  0.1217 -0.4385
 9391SOL     OW39634   0.158   4.476  12.325  0.9891  0.1588  0.0665
 9391SOL    HW139635   0.067   4.469  12.297  0.9758 -1.9188  0.6321
 9391SOL    HW239636   0.150   4.522  12.408 -0.4293  1.9404 -1.0457
 9392SOL     OW39637   2.154   4.458  12.339  0.3007 -0.0582  0.1515
 9392SOL    HW139638   2.163   4.554  12.337 -0.3914  0.0261  1.1661
 9392SOL    HW239639   2.183   4.439  12.250 -0.9413 -1.4513  0.0498
 9393SOL     OW39640   0.133   3.318   6.250 -0.4570 -0.6357  1.1126
 9393SOL    HW139641   0.040   3.340   6.255 -0.4521 -0.7403  1.7392
 9393SOL    HW239642   0.155   3.335   6.342 -1.9801 -2.7696  1.8810
 9394SOL     OW39643   4.271   4.390  13.890  0.2183 -0.2020  0.1436
 9394SOL    HW139644   4.277   4.434  13.805 -0.6556  0.1043  0.2386
 9394SOL    HW239645   4.365   4.396  13.908  0.8054 -2.5131 -2.1658
 9395SOL     OW39646   3.919   1.115  17.012  0.0693 -0.0801  0.3158
 9395SOL    HW139647   3.925   1.165  17.093  0.9869 -0.3841  0.4317
 9395SOL    HW239648   4.001   1.066  17.010 -0.6934 -1.3010 -1.4065
 9396SOL     OW39649   0.162   1.533  17.155 -0.3573  0.5215  0.2953
 9396SOL    HW139650   0.159   1.497  17.066  0.4640 -0.8560  0.8207
 9396SOL    HW239651   0.175   1.626  17.141 -0.1786  0.5171  0.4346
 9397SOL     OW39652   3.479   1.033   7.690 -0.0084  0.5886 -0.0428
 9397SOL    HW139653   3.396   1.081   7.696 -0.5054 -0.2392 -0.3250
 9397SOL    HW239654   3.533   1.095   7.740 -1.7431  1.2343  1.0353
 9398SOL     OW39655   0.920   0.511   6.942 -0.1460 -0.5262  0.1829
 9398SOL    HW139656   0.968   0.480   7.020  1.1387  2.4269  0.5726
 9398SOL    HW239657   0.944   0.446   6.876 -1.0794 -0.9823  0.3025
 9399SOL     OW39658   3.658   3.203   2.864  0.0985 -0.3026  0.0411
 9399SOL    HW139659   3.714   3.181   2.938 -0.1250 -2.1349 -0.3340
 9399SOL    HW239660   3.657   3.298   2.860  2.1840 -0.3216 -0.9948
 9400SOL     OW39661   3.284   2.637   5.413 -0.4811 -0.1359 -0.0913
 9400SOL    HW139662   3.268   2.546   5.389 -4.4581  0.2970  0.9670
 9400SOL    HW239663   3.380   2.642   5.415 -0.4577  0.0241 -1.5141
 9401SOL     OW39664   0.763   1.007   8.286  0.5037 -0.0394  0.1766
 9401SOL    HW139665   0.815   1.060   8.346 -0.4527  0.6442  0.4123
 9401SOL    HW239666   0.749   0.926   8.336 -1.8997 -0.8193 -1.7470
 9402SOL     OW39667   3.801   3.508   9.077 -0.1036 -0.2545  0.2431
 9402SOL    HW139668   3.714   3.477   9.051  0.0583 -0.8092  0.3589
 9402SOL    HW239669   3.792   3.564   9.153 -1.3400 -0.2042  0.0598
 9403SOL     OW39670   0.562   0.732   6.478  0.4863 -0.1713  0.1872
 9403SOL    HW139671   0.535   0.701   6.564  2.2629 -0.7718  0.5340
 9403SOL    HW239672   0.641   0.681   6.460 -0.4479 -1.4640 -0.2982
 9404SOL     OW39673   3.743   2.147  17.026 -0.3369 -0.2848 -0.5098
 9404SOL    HW139674   3.795   2.160  17.105 -3.6147 -1.5783  1.8416
 9404SOL    HW239675   3.700   2.233  17.024 -2.2042 -1.2045 -0.0135
 9405SOL     OW39676   0.924   3.089   7.597  0.1824 -0.0704  0.2444
 9405SOL    HW139677   1.013   3.069   7.626 -0.3335 -1.1495  1.0908
 9405SOL    HW239678   0.878   3.028   7.654 -0.7305  1.2776  0.9581
 9406SOL     OW39679   4.093   1.679   0.119 -0.7373  0.0625 -0.2040
 9406SOL    HW139680   4.101   1.728   0.037 -1.6951  1.3976  0.5135
 9406SOL    HW239681   4.002   1.701   0.137 -0.5344  0.0869  0.7883
 9407SOL     OW39682   2.355   3.324   6.128  0.2310 -0.3265 -0.8262
 9407SOL    HW139683   2.411   3.344   6.203 -0.6727 -1.7496  0.2144
 9407SOL    HW239684   2.341   3.402   6.075  1.9862  1.9270  2.0559
 9408SOL     OW39685   1.377   3.030   9.077 -0.1057  0.2989  0.2427
 9408SOL    HW139686   1.306   2.967   9.064  0.6461 -0.4590 -0.2063
 9408SOL    HW239687   1.437   2.971   9.122  0.8815  0.8437 -0.3517
 9409SOL     OW39688   3.187   4.408   6.203  0.0738  0.3209  0.0735
 9409SOL    HW139689   3.253   4.414   6.134  1.1504 -0.8699  0.9864
 9409SOL    HW239690   3.153   4.318   6.197  1.3676 -0.0304 -1.8779
 9410SOL     OW39691   0.453   1.393   8.593 -0.2895  0.4829 -0.0471
 9410SOL    HW139692   0.489   1.415   8.679  0.4804 -1.1841  0.0559
 9410SOL    HW239693   0.529   1.351   8.553  0.0341 -1.3011  2.4000
 9411SOL     OW39694   3.360   3.886  10.224  0.5045 -0.0549  0.6733
 9411SOL    HW139695   3.412   3.830  10.281 -2.2111 -0.7596  2.4493
 9411SOL    HW239696   3.283   3.835  10.197  0.5115  0.6259 -0.6493
 9412SOL     OW39697   1.826   4.032  10.250  0.2315 -0.2195  0.5512
 9412SOL    HW139698   1.784   4.022  10.164  1.6292 -2.2740  0.1072
 9412SOL    HW239699   1.771   4.104  10.280 -2.7007 -1.6503 -1.2691
 9413SOL     OW39700   2.829   0.753   4.605 -0.6314  0.1867  0.1972
 9413SOL    HW139701   2.756   0.785   4.660 -1.4412 -1.3490  0.0162
 9413SOL    HW239702   2.896   0.807   4.645 -0.8274  1.3192 -1.0083
 9414SOL     OW39703   2.219   2.298   4.076 -0.4607 -0.8963 -0.5054
 9414SOL    HW139704   2.211   2.203   4.078 -2.9947 -0.6738 -0.3390
 9414SOL    HW239705   2.233   2.310   3.982  3.0135 -0.4702  0.0569
 9415SOL     OW39706   0.176   1.882   2.407  0.4507 -0.0125 -0.7189
 9415SOL    HW139707   0.202   1.965   2.366 -0.9352  0.6691 -0.2113
 9415SOL    HW239708   0.241   1.820   2.374  0.3117 -0.9040  0.7104
 9416SOL     OW39709   1.120   3.808  14.573  0.1619 -0.3876  0.3976
 9416SOL    HW139710   1.124   3.872  14.502  2.6022 -0.5396  0.4215
 9416SOL    HW239711   1.213   3.791  14.585 -0.3068 -1.3127  2.7976
 9417SOL     OW39712   3.832   3.723  13.769  0.8325  0.1126  0.2836
 9417SOL    HW139713   3.847   3.641  13.723  3.3586 -0.9431  3.0661
 9417SOL    HW239714   3.853   3.695  13.858 -1.5102 -0.3420  0.7040
 9418SOL     OW39715   2.485   4.006   3.847 -0.6320 -0.0584  0.4572
 9418SOL    HW139716   2.397   4.021   3.814 -0.5363  1.6837  0.9693
 9418SOL    HW239717   2.507   3.930   3.795 -2.3824 -1.1103  1.2620
 9419SOL     OW39718   1.451   3.504  10.796  0.2840 -0.0873  0.6151
 9419SOL    HW139719   1.473   3.425  10.747  1.3734  0.9679 -0.5827
 9419SOL    HW239720   1.445   3.575  10.732  2.8234 -2.4554 -2.2145
 9420SOL     OW39721   3.069   1.559  16.133  0.4697  0.0569 -0.1564
 9420SOL    HW139722   3.088   1.516  16.050 -1.5503  2.3343 -1.8216
 9420SOL    HW239723   3.004   1.514  16.186 -0.6048  1.1081 -0.5911
 9421SOL     OW39724   2.830   0.206  15.821  0.7538 -0.2282 -0.1565
 9421SOL    HW139725   2.843   0.202  15.726 -0.1593 -0.3740 -0.2734
 9421SOL    HW239726   2.845   0.300  15.837 -1.2506  0.3738 -1.8595
 9422SOL     OW39727   0.603   4.590   7.022  0.9153  0.0258  0.0918
 9422SOL    HW139728   0.549   4.548   6.955  0.7611 -0.4429  0.5061
 9422SOL    HW239729   0.658   4.639   6.961  2.5208 -0.4524  1.1607
 9423SOL     OW39730   3.002   0.015   2.605 -0.1780  0.2591 -0.3916
 9423SOL    HW139731   3.094   0.007   2.580  0.6805  0.4339  2.7424
 9423SOL    HW239732   2.973   0.057   2.524 -2.3012 -0.5481 -0.0433
 9424SOL     OW39733   0.461   0.339   7.052 -0.2274 -0.1507 -0.3166
 9424SOL    HW139734   0.545   0.340   7.099  0.2308 -0.8545 -1.1233
 9424SOL    HW239735   0.473   0.385   6.969 -0.2222 -0.9332 -0.7451
 9425SOL     OW39736   2.988   3.761  13.156  0.3268  0.2371 -0.4318
 9425SOL    HW139737   2.908   3.814  13.162  0.2731 -0.0161  1.0827
 9425SOL    HW239738   3.054   3.827  13.176  0.0108  0.4761 -0.1812
 9426SOL     OW39739   0.783   1.000   1.483 -0.3810  0.1182  0.1132
 9426SOL    HW139740   0.846   1.062   1.520  0.0861  0.5870 -1.4916
 9426SOL    HW239741   0.696   1.019   1.518 -0.9270 -1.1668 -0.5431
 9427SOL     OW39742   0.872   1.077   0.173 -0.8251 -0.2992 -0.5578
 9427SOL    HW139743   0.896   1.021   0.099 -0.2541 -1.4032  0.4750
 9427SOL    HW239744   0.958   1.102   0.205 -1.4654  1.3316 -0.1128
 9428SOL     OW39745   2.995   3.760   0.270 -0.4095 -0.1631  0.1552
 9428SOL    HW139746   3.015   3.853   0.281  0.9704 -0.7483  2.5445
 9428SOL    HW239747   2.970   3.741   0.361  1.2305  1.5725  0.9755
 9429SOL     OW39748   0.012   1.584   7.693 -0.0679  0.8574  0.4471
 9429SOL    HW139749   0.031   1.632   7.612  0.7942 -0.2294  0.0199
 9429SOL    HW239750   0.024   1.491   7.676 -1.1345  0.8326 -0.1968
 9430SOL     OW39751   1.104   1.770   7.537  0.3782 -0.3101  0.3553
 9430SOL    HW139752   1.074   1.858   7.558 -1.2295 -0.8930  0.5019
 9430SOL    HW239753   1.014   1.738   7.534  1.1314 -2.4240 -0.3176
 9431SOL     OW39754   0.157   0.262   6.793  0.3570  0.2968 -0.0634
 9431SOL    HW139755   0.220   0.218   6.850 -0.2607  0.8899  1.0839
 9431SOL    HW239756   0.070   0.235   6.823 -0.0297  1.7013  0.0805
 9432SOL     OW39757   1.835   2.836  14.315 -0.2610  0.2888 -0.1081
 9432SOL    HW139758   1.915   2.848  14.366  1.3812  0.1999 -2.6889
 9432SOL    HW239759   1.876   2.842  14.229 -1.4865  0.8880 -0.6587
 9433SOL     OW39760   2.963   3.373   4.823  0.4845 -0.0914  0.3144
 9433SOL    HW139761   2.981   3.385   4.730 -0.6141 -0.4750  0.0565
 9433SOL    HW239762   2.900   3.445   4.826  1.1462  0.4538  1.1099
 9434SOL     OW39763   1.341   0.481   4.364  0.1837 -0.2066  0.2227
 9434SOL    HW139764   1.302   0.395   4.350 -0.7517  0.1523  0.6684
 9434SOL    HW239765   1.259   0.529   4.365  1.7468  2.4880 -0.3587
 9435SOL     OW39766   2.982   1.782   6.387 -0.9170 -0.2237 -0.0959
 9435SOL    HW139767   3.044   1.829   6.443  0.0363 -2.6305  0.8355
 9435SOL    HW239768   3.035   1.749   6.315 -2.3328 -0.6946 -0.9279
 9436SOL     OW39769   0.029   2.662   1.703  0.2368 -0.0538  0.4179
 9436SOL    HW139770   4.665   2.624   1.685 -0.1546  0.9635  0.1251
 9436SOL    HW239771   0.017   2.747   1.661  3.2529  0.0251 -0.3184
 9437SOL     OW39772   0.468   1.758   3.822 -0.2770  0.1623 -0.0434
 9437SOL    HW139773   0.442   1.838   3.868  3.7848  1.6076 -0.3323
 9437SOL    HW239774   0.531   1.715   3.880  0.8081  1.0052 -0.5962
 9438SOL     OW39775   0.612   0.482   3.891 -0.0633  0.0461  0.0868
 9438SOL    HW139776   0.665   0.547   3.937 -0.2783 -0.2173  0.7125
 9438SOL    HW239777   0.661   0.453   3.815 -3.0137 -1.4428 -1.2525
 9439SOL     OW39778   2.059   0.206   8.716  0.4532 -0.2881  0.2971
 9439SOL    HW139779   2.135   0.180   8.664  2.2431  1.4038  2.0932
 9439SOL    HW239780   2.081   0.299   8.716 -0.3820 -0.0970  0.3335
 9440SOL     OW39781   2.609   2.578   9.653  0.2217  0.4313 -0.2052
 9440SOL    HW139782   2.682   2.638   9.637 -1.2847  1.6407 -2.6183
 9440SOL    HW239783   2.585   2.592   9.745  2.0433  0.6325  0.2258
 9441SOL     OW39784   3.810   4.220  12.271  0.4409  0.1018  0.3142
 9441SOL    HW139785   3.744   4.156  12.298 -0.6866 -0.7766 -4.5631
 9441SOL    HW239786   3.805   4.282  12.344  0.8257  2.4444 -1.6388
 9442SOL     OW39787   0.110   0.270   7.772 -0.1210  0.4214 -0.6661
 9442SOL    HW139788   0.125   0.214   7.848 -2.9372 -0.3900 -0.7000
 9442SOL    HW239789   0.071   0.344   7.818  1.7792  1.5723 -0.9136
 9443SOL     OW39790   1.629   3.570  15.749 -0.1921 -0.2286  0.2812
 9443SOL    HW139791   1.582   3.558  15.667 -0.3066 -0.3535  0.3650
 9443SOL    HW239792   1.669   3.656  15.734 -2.3999  0.8236  0.3833
 9444SOL     OW39793   3.268   1.226  10.610  0.2681 -0.1425 -0.4232
 9444SOL    HW139794   3.322   1.287  10.661  0.2682 -1.4362  1.1207
 9444SOL    HW239795   3.195   1.283  10.587 -0.2816 -1.5775 -2.2589
 9445SOL     OW39796   4.157   2.184   9.266  0.5971 -0.5781 -0.0061
 9445SOL    HW139797   4.135   2.192   9.173 -0.8629  0.3649  0.4238
 9445SOL    HW239798   4.151   2.089   9.280  0.1088 -0.3111  1.5404
 9446SOL     OW39799   2.441   2.666   0.580 -1.0049 -0.0637  0.4212
 9446SOL    HW139800   2.431   2.691   0.488  0.6335  2.4349  0.9238
 9446SOL    HW239801   2.482   2.581   0.565 -0.2987 -0.0466  2.2500
 9447SOL     OW39802   2.947   2.710   7.068  0.1681  0.2724  0.4831
 9447SOL    HW139803   2.899   2.656   7.131 -1.4145  0.4540 -0.5884
 9447SOL    HW239804   2.950   2.659   6.987 -1.4918  1.5178 -0.3280
 9448SOL     OW39805   4.364   1.591   2.955 -0.3923  0.1934 -0.0094
 9448SOL    HW139806   4.378   1.664   3.016 -0.7156  0.5851 -0.4021
 9448SOL    HW239807   4.279   1.566   2.990 -0.0271 -1.1420 -0.0639
 9449SOL     OW39808   3.442   1.348  11.436 -0.3239 -0.4350  0.1559
 9449SOL    HW139809   3.526   1.322  11.474 -1.5071 -1.0490  2.3709
 9449SOL    HW239810   3.455   1.320  11.345 -1.3641  0.6996 -0.3323
 9450SOL     OW39811   1.490   4.717   6.969 -0.0327 -0.2769 -0.3913
 9450SOL    HW139812   1.545   0.013   6.893  0.1806  0.6596 -0.0110
 9450SOL    HW239813   1.445   4.638   6.940  0.4069 -0.5402 -0.3661
 9451SOL     OW39814   3.776   2.906  12.538 -0.0151 -0.5854 -0.0407
 9451SOL    HW139815   3.851   2.925  12.594  0.4415 -1.4824 -0.3457
 9451SOL    HW239816   3.762   2.814  12.556  1.5391 -0.7248  0.4014
 9452SOL     OW39817   1.758   1.425  17.109 -0.4179 -0.0944  0.2754
 9452SOL    HW139818   1.813   1.400  17.183 -0.9045  1.0759  1.0269
 9452SOL    HW239819   1.808   1.378  17.043  1.4459 -0.5921  2.0566
 9453SOL     OW39820   1.073   0.724   6.577  0.2743  0.0416  0.0131
 9453SOL    HW139821   1.007   0.657   6.593 -0.1018  0.9992  2.3926
 9453SOL    HW239822   1.013   0.798   6.578  1.5413  1.0770 -0.2235
 9454SOL     OW39823   0.545   1.444  13.784  0.3287  0.1173 -0.8917
 9454SOL    HW139824   0.558   1.476  13.694  1.8398  0.2292 -0.6370
 9454SOL    HW239825   0.461   1.398  13.776 -1.6212  3.4426  0.4927
 9455SOL     OW39826   3.841   2.199   6.852 -0.2472 -0.0961  0.3138
 9455SOL    HW139827   3.831   2.286   6.891  0.2199  0.3972 -0.6739
 9455SOL    HW239828   3.807   2.209   6.763 -2.3934 -0.1293  1.1184
 9456SOL     OW39829   2.493   3.131   1.827 -0.0940  0.2222 -0.5033
 9456SOL    HW139830   2.573   3.086   1.799 -0.3425 -0.3720 -0.2617
 9456SOL    HW239831   2.424   3.069   1.803  1.4914 -1.6925 -0.1701
 9457SOL     OW39832   2.146   1.677   8.849 -0.0276 -0.6530  0.0945
 9457SOL    HW139833   2.200   1.661   8.926 -2.1190 -1.3606  1.4149
 9457SOL    HW239834   2.101   1.593   8.842 -0.7910 -0.2864  0.5809
 9458SOL     OW39835   1.577   2.656   0.326  0.1972  0.0429  0.1460
 9458SOL    HW139836   1.640   2.682   0.259 -0.1949 -2.7486 -1.3154
 9458SOL    HW239837   1.490   2.666   0.285  0.2510  1.8653  0.4893
 9459SOL     OW39838   0.369   3.953   6.702  0.2194  0.4934  0.2407
 9459SOL    HW139839   0.302   3.942   6.635  0.0505  0.2771  0.4476
 9459SOL    HW239840   0.362   3.868   6.745 -0.3444  0.9412  1.0197
 9460SOL     OW39841   1.077   3.114  16.905 -0.1953 -0.1460 -0.0063
 9460SOL    HW139842   1.093   3.208  16.901 -0.9025  0.0274  1.4137
 9460SOL    HW239843   1.108   3.113  16.814 -0.7115  0.3694 -0.1865
 9461SOL     OW39844   1.483   1.333   5.599  0.2108 -0.4429 -0.5742
 9461SOL    HW139845   1.496   1.326   5.694 -2.4385  0.8826 -0.1288
 9461SOL    HW239846   1.564   1.292   5.567  0.7444 -0.1027  0.3522
 9462SOL     OW39847   4.683   2.005   3.702  0.5282 -0.0151 -0.0711
 9462SOL    HW139848   4.681   2.087   3.751 -2.3951 -0.7313  1.0011
 9462SOL    HW239849   4.588   1.998   3.688  0.4419  0.6112  0.2205
 9463SOL     OW39850   1.277   0.235   6.377  0.3172  0.5740 -0.1753
 9463SOL    HW139851   1.357   0.288   6.380  0.9120 -0.3838  1.2982
 9463SOL    HW239852   1.298   0.181   6.300  0.8658  0.4529  0.0586
 9464SOL     OW39853   3.881   3.612   6.255 -0.4341  0.1389  0.6703
 9464SOL    HW139854   3.915   3.696   6.286  1.0913 -0.7572  1.4287
 9464SOL    HW239855   3.817   3.644   6.191  1.3155  0.5202 -0.8807
 9465SOL     OW39856   1.422   0.051   4.006  0.0222  0.0890 -0.0664
 9465SOL    HW139857   1.464   0.072   3.922  0.5480 -1.7433 -0.2524
 9465SOL    HW239858   1.422   4.678   3.996 -1.9076 -0.0911  1.6697
 9466SOL     OW39859   2.526   0.007   3.667  0.9143 -0.2664 -0.0761
 9466SOL    HW139860   2.443   0.054   3.665  2.3147  2.1304 -1.7611
 9466SOL    HW239861   2.482   4.649   3.637 -1.0173  0.9606 -0.5422
 9467SOL     OW39862   4.076   2.005  14.859  0.6070 -0.5335 -0.3797
 9467SOL    HW139863   4.139   1.993  14.930 -1.0964 -0.6237  1.1215
 9467SOL    HW239864   4.020   1.928  14.869  0.5534 -0.2911  1.1177
 9468SOL     OW39865   2.146   4.583   9.771 -0.6254 -0.0775  0.4794
 9468SOL    HW139866   2.172   4.587   9.679  0.8617 -0.2132  0.8940
 9468SOL    HW239867   2.071   4.642   9.768 -0.6215 -0.2363 -2.2062
 9469SOL     OW39868   3.958   3.663  14.003 -0.1278  0.4389 -0.0486
 9469SOL    HW139869   4.052   3.679  14.009 -0.0404 -1.2774  3.5467
 9469SOL    HW239870   3.913   3.735  14.047  0.7801 -0.3697  2.2322
 9470SOL     OW39871   2.718   0.082   4.821 -0.2350 -0.2844  0.2872
 9470SOL    HW139872   2.739   0.129   4.740 -1.7098 -0.1958 -0.0469
 9470SOL    HW239873   2.692   4.716   4.793  2.4328 -0.8048 -0.5746
 9471SOL     OW39874   1.320   2.894  16.294 -0.1490  0.6724 -0.1425
 9471SOL    HW139875   1.292   2.804  16.282 -0.0757  0.5259  0.8146
 9471SOL    HW239876   1.358   2.916  16.209  1.7208 -2.2625 -0.0386
 9472SOL     OW39877   3.753   1.787   3.958 -0.4058 -0.1851 -0.4780
 9472SOL    HW139878   3.740   1.877   3.988  0.4658 -0.9371  2.1444
 9472SOL    HW239879   3.845   1.797   3.933 -0.1168 -1.9153 -0.0778
 9473SOL     OW39880   2.013   4.233  16.601  0.1689  0.1180  0.3016
 9473SOL    HW139881   2.046   4.300  16.662  1.3885  0.7058 -0.9883
 9473SOL    HW239882   1.920   4.229  16.623  0.7362 -2.1994  2.2788
 9474SOL     OW39883   4.553   1.675  12.065  0.2427 -0.0291  0.2672
 9474SOL    HW139884   4.464   1.695  12.036 -0.2683 -0.6043  1.4296
 9474SOL    HW239885   4.604   1.702  11.989 -2.2516 -0.4152 -1.5178
 9475SOL     OW39886   0.664   2.932   7.986 -0.2204 -0.3038  0.2220
 9475SOL    HW139887   0.649   2.844   8.021 -0.7698  0.3705  1.6657
 9475SOL    HW239888   0.665   2.982   8.068 -0.4722  1.3600 -0.8107
 9476SOL     OW39889   3.259   4.491   9.700  0.4121 -0.1944  0.2224
 9476SOL    HW139890   3.346   4.524   9.721  1.2453 -1.3623 -1.4209
 9476SOL    HW239891   3.229   4.477   9.790 -0.3600 -2.3314 -0.3643
 9477SOL     OW39892   4.696   4.150  15.888 -0.0097 -0.2360  0.0429
 9477SOL    HW139893   4.604   4.176  15.876  0.0381 -0.1580 -0.1626
 9477SOL    HW239894   4.694   4.082  15.955 -4.3864  0.7541  0.9122
 9478SOL     OW39895   2.192   0.318   3.125 -0.0847  0.3587  0.3622
 9478SOL    HW139896   2.217   0.227   3.107  1.0542  0.9374 -0.9210
 9478SOL    HW239897   2.154   0.351   3.044  1.1244  0.1286 -0.3021
 9479SOL     OW39898   2.199   1.941   6.021  0.0503 -0.6747  0.2266
 9479SOL    HW139899   2.285   1.981   6.026 -0.9573  1.2645  1.9431
 9479SOL    HW239900   2.155   1.997   5.956 -0.2405 -0.7757  0.3352
 9480SOL     OW39901   0.274   0.132   6.563  0.5654 -0.1044  0.1964
 9480SOL    HW139902   0.221   0.126   6.643  0.0971  2.5808  0.0821
 9480SOL    HW239903   0.214   0.100   6.496  1.7481  0.7826 -1.2874
 9481SOL     OW39904   3.390   1.190   2.486 -0.6054  0.3566  0.0521
 9481SOL    HW139905   3.464   1.168   2.542 -1.1427 -0.9563  0.2355
 9481SOL    HW239906   3.421   1.171   2.397  1.0975 -0.4464  0.8088
 9482SOL     OW39907   4.554   1.814   5.738 -0.0471 -0.0312  0.4747
 9482SOL    HW139908   4.505   1.857   5.668  0.8019 -1.3672 -0.9318
 9482SOL    HW239909   4.629   1.776   5.692 -1.9075 -0.0024 -2.5921
 9483SOL     OW39910   3.682   3.230  14.488 -0.4185 -0.1098  0.5248
 9483SOL    HW139911   3.698   3.281  14.567  1.3275  1.9125 -1.1355
 9483SOL    HW239912   3.762   3.195  14.449 -2.5803 -0.0706 -3.9706
 9484SOL     OW39913   4.171   4.640   6.758  0.4128  0.0471  0.0841
 9484SOL    HW139914   4.106   4.687   6.705 -1.0102 -1.1919  0.7231
 9484SOL    HW239915   4.249   4.658   6.706  1.6056 -1.5653  1.3479
 9485SOL     OW39916   1.354   1.669   6.461  0.4883  0.3370  0.0352
 9485SOL    HW139917   1.376   1.576   6.455  0.8035  0.5621 -2.4995
 9485SOL    HW239918   1.278   1.667   6.402  1.2847  0.6914 -1.0141
 9486SOL     OW39919   4.184   1.038   2.480 -0.2377  0.2791  0.7704
 9486SOL    HW139920   4.169   1.117   2.428  2.1280  1.0292  1.2287
 9486SOL    HW239921   4.183   0.966   2.416 -1.6398  1.8484 -0.9565
 9487SOL     OW39922   3.594   4.404  10.106  0.0700  0.0293  0.0578
 9487SOL    HW139923   3.635   4.345  10.169  1.4322  0.1717 -0.6883
 9487SOL    HW239924   3.600   4.488  10.150  1.3401 -0.1690  0.2742
 9488SOL     OW39925   4.511   0.459   0.760 -0.6743 -0.2012 -0.1714
 9488SOL    HW139926   4.438   0.397   0.768  1.3362 -2.6285 -1.0335
 9488SOL    HW239927   4.524   0.446   0.667 -1.2582  1.4311 -0.4841
 9489SOL     OW39928   0.249   3.376  11.844 -0.2299  0.2099  1.2664
 9489SOL    HW139929   0.273   3.402  11.933  1.0144 -0.5174  1.1381
 9489SOL    HW239930   0.156   3.359  11.860 -0.5230 -0.6636 -1.2784
 9490SOL     OW39931   2.895   1.972   3.892 -0.4590 -0.4477 -0.3807
 9490SOL    HW139932   2.876   2.008   3.979  2.4752  0.6505 -0.1934
 9490SOL    HW239933   2.927   1.886   3.920  0.3354  0.6593  2.1432
 9491SOL     OW39934   4.270   0.970  12.983 -1.1575 -0.5000  0.2797
 9491SOL    HW139935   4.343   1.031  12.980  0.4629 -2.4429 -0.0566
 9491SOL    HW239936   4.312   0.893  13.022 -1.1849 -1.0589 -0.7617
 9492SOL     OW39937   0.092   3.680   1.921 -0.0025 -0.0502  0.2328
 9492SOL    HW139938   0.181   3.654   1.897  0.5406  2.1005 -0.0973
 9492SOL    HW239939   0.103   3.733   2.000 -0.9371 -2.0646  1.7104
 9493SOL     OW39940   1.351   3.951   7.902  0.2562  0.4185  0.0339
 9493SOL    HW139941   1.425   3.960   7.842  0.2180 -0.5996 -0.1819
 9493SOL    HW239942   1.377   3.897   7.976  0.3823 -0.7384 -0.8459
 9494SOL     OW39943   1.617   0.374  11.860 -0.1717 -0.2650 -0.0520
 9494SOL    HW139944   1.654   0.286  11.854  1.3929  0.4846 -1.4865
 9494SOL    HW239945   1.578   0.373  11.772  1.5734 -5.9577 -0.6970
 9495SOL     OW39946   2.410   0.538   5.689 -0.1310 -0.3719  0.3302
 9495SOL    HW139947   2.463   0.542   5.609  0.3089  0.2994  0.6656
 9495SOL    HW239948   2.469   0.573   5.755 -0.2671 -0.4066  0.4691
 9496SOL     OW39949   1.800   3.112   8.833  0.5428 -0.3208  0.4878
 9496SOL    HW139950   1.798   3.107   8.737 -0.2617  1.4435  0.4279
 9496SOL    HW239951   1.810   3.018   8.851  1.8619  0.0652  1.6907
 9497SOL     OW39952   3.985   3.630   2.912  0.2392  0.6603  0.1285
 9497SOL    HW139953   3.905   3.641   2.962  0.7480  0.0965  1.0808
 9497SOL    HW239954   3.980   3.535   2.904 -1.0424  0.7622 -0.3187
 9498SOL     OW39955   1.519   3.382   8.211  0.1745 -0.8480  0.3256
 9498SOL    HW139956   1.481   3.426   8.135  2.3804  0.8598  0.1793
 9498SOL    HW239957   1.488   3.438   8.282  0.3462 -1.5032  0.9175
 9499SOL     OW39958   3.857   4.687   5.302  0.1709  0.0342  0.4499
 9499SOL    HW139959   3.867   4.597   5.270 -0.7785  0.0981 -0.0305
 9499SOL    HW239960   3.949   4.712   5.308  0.9809 -2.5394 -1.2017
 9500SOL     OW39961   4.241   4.301   1.665 -0.5809 -0.2641 -0.0028
 9500SOL    HW139962   4.297   4.307   1.743 -2.0399  0.5730  0.9872
 9500SOL    HW239963   4.223   4.207   1.670  1.2884 -0.7612 -2.7378
 9501SOL     OW39964   2.826   1.219   5.889  0.0492  0.6335 -0.7995
 9501SOL    HW139965   2.831   1.153   5.959 -1.2844 -0.1984 -1.5119
 9501SOL    HW239966   2.731   1.226   5.887 -0.1777 -2.6761 -1.6326
 9502SOL     OW39967   4.150   1.756   2.562  0.1580 -0.5589 -0.4815
 9502SOL    HW139968   4.101   1.693   2.616  0.3202  1.1493  1.6461
 9502SOL    HW239969   4.138   1.714   2.477 -2.5727 -1.8502  0.5397
 9503SOL     OW39970   4.130   0.960  17.004 -0.4275 -0.1182 -0.2576
 9503SOL    HW139971   4.208   0.978  16.952 -0.2114  0.4109  0.2414
 9503SOL    HW239972   4.156   0.869  17.016 -1.2785 -0.2741  0.3787
 9504SOL     OW39973   3.830   4.040   9.474 -0.0772  0.7058 -0.0883
 9504SOL    HW139974   3.756   4.085   9.512 -0.6165  0.6637 -1.0910
 9504SOL    HW239975   3.857   3.990   9.551 -2.9097 -0.5825  0.0719
 9505SOL     OW39976   3.687   0.041   8.604  0.3525 -0.4155 -0.4745
 9505SOL    HW139977   3.722   0.047   8.693 -0.0660  0.9730 -0.4032
 9505SOL    HW239978   3.732   0.119   8.570 -1.8625  0.5422 -1.2343
 9506SOL     OW39979   1.420   2.091   2.767  0.3467  0.3564 -0.2611
 9506SOL    HW139980   1.468   2.042   2.700  1.5642  0.5652  0.4539
 9506SOL    HW239981   1.460   2.175   2.744 -0.1780  0.7820  0.4002
 9507SOL     OW39982   3.370   0.834   7.214  0.6547  0.0444  0.0583
 9507SOL    HW139983   3.457   0.870   7.229  0.2609  0.8606  0.3464
 9507SOL    HW239984   3.339   0.822   7.304  1.0761 -0.2745  0.1619
 9508SOL     OW39985   1.240   1.629   5.597 -0.2513 -0.5609 -0.4645
 9508SOL    HW139986   1.251   1.587   5.683  1.1155 -1.6743 -1.1811
 9508SOL    HW239987   1.289   1.708   5.619  0.4617 -0.2223 -3.3234
 9509SOL     OW39988   1.151   2.121  12.002 -0.4184 -0.2860 -0.2388
 9509SOL    HW139989   1.076   2.081  11.958  0.5137 -0.9698 -1.2195
 9509SOL    HW239990   1.171   2.075  12.084  0.9299  0.9674  0.1441
 9510SOL     OW39991   1.487   4.198  15.754 -0.4245  0.2557 -0.2012
 9510SOL    HW139992   1.537   4.195  15.673  0.9465 -0.4268  0.6802
 9510SOL    HW239993   1.401   4.233  15.730 -0.3790  3.1206  3.9402
 9511SOL     OW39994   1.399   0.217  13.160 -0.6786  0.4490 -0.0984
 9511SOL    HW139995   1.365   0.149  13.102 -0.1400  0.2120 -0.1400
 9511SOL    HW239996   1.406   0.290  13.098  0.4684  0.6700  0.2954
 9512SOL     OW39997   1.898   1.027   0.376  0.2449  0.2493  0.0229
 9512SOL    HW139998   1.924   1.099   0.433 -0.1604 -0.1731  0.7424
 9512SOL    HW239999   1.809   1.015   0.410  0.1534  1.7555  0.3018
 9513SOL     OW40000   0.474   1.189  16.095 -0.2674  0.3055 -0.0907
 9513SOL    HW140001   0.468   1.249  16.020 -0.2980 -0.6032 -0.8098
 9513SOL    HW240002   0.541   1.237  16.144 -0.7040  0.1788  0.6386
 9514SOL     OW40003   2.062   0.438   6.572  0.0005  0.3009 -0.2677
 9514SOL    HW140004   1.998   0.497   6.612  0.0172 -0.8992  1.5082
 9514SOL    HW240005   2.027   0.351   6.587  1.6452 -0.1036  1.1501
 9515SOL     OW40006   3.509   4.224   5.993  0.4072  0.2952 -0.0978
 9515SOL    HW140007   3.541   4.244   6.080  0.1985  0.6186 -0.0947
 9515SOL    HW240008   3.524   4.306   5.946  1.9605  0.2429  0.2970
 9516SOL     OW40009   2.467   0.755   8.654 -0.1079 -0.1090  0.7130
 9516SOL    HW140010   2.517   0.769   8.573 -1.2846 -1.4537 -0.2413
 9516SOL    HW240011   2.395   0.704   8.619 -0.0851 -0.0487  0.5759
 9517SOL     OW40012   1.996   3.756   3.187 -0.0638 -0.7065  0.3116
 9517SOL    HW140013   2.067   3.779   3.128  0.6796  2.2254  2.3659
 9517SOL    HW240014   1.940   3.712   3.123  0.7120 -1.0977 -0.1019
 9518SOL     OW40015   1.464   2.192   4.732 -0.1026  0.2533 -0.2972
 9518SOL    HW140016   1.483   2.185   4.826  2.0687  1.0242 -0.6790
 9518SOL    HW240017   1.378   2.149   4.734  0.5803 -1.1377 -0.7204
 9519SOL     OW40018   0.881   3.124   2.671  0.5611  0.1195 -0.4141
 9519SOL    HW140019   0.903   3.205   2.717  1.0768 -0.1471 -0.1940
 9519SOL    HW240020   0.954   3.072   2.704  0.0578 -0.1827  0.2160
 9520SOL     OW40021   2.119   1.088   8.069 -0.0669 -0.2116 -0.1324
 9520SOL    HW140022   2.130   1.085   7.974  0.9507 -2.9200  0.0691
 9520SOL    HW240023   2.055   1.158   8.082  1.5282  1.3781 -0.8169
 9521SOL     OW40024   4.400   3.569   9.771 -0.0453 -0.2055 -0.0667
 9521SOL    HW140025   4.484   3.582   9.815 -0.1495 -1.1289  0.4052
 9521SOL    HW240026   4.359   3.495   9.815  1.8934 -1.6413 -0.6704
 9522SOL     OW40027   2.039   0.547   4.519  0.2585 -0.2787 -0.7962
 9522SOL    HW140028   2.111   0.526   4.579 -0.5952  0.2528  0.4327
 9522SOL    HW240029   2.019   0.634   4.554  1.8118  0.0211 -0.6615
 9523SOL     OW40030   3.362   3.780   5.348 -0.0610 -0.5963  0.5367
 9523SOL    HW140031   3.439   3.828   5.316  0.0619 -0.0270  1.7204
 9523SOL    HW240032   3.299   3.852   5.341 -0.2319 -0.9859 -2.2014
 9524SOL     OW40033   3.508   3.549   8.696  0.2303 -0.2258 -0.2968
 9524SOL    HW140034   3.512   3.555   8.601 -0.9815 -1.3134 -0.4083
 9524SOL    HW240035   3.599   3.574   8.709 -0.1789  0.6231  1.0104
 9525SOL     OW40036   0.838   0.779   1.623 -0.0764  0.0716  0.1718
 9525SOL    HW140037   0.849   0.714   1.554  0.1154  0.1927  0.0895
 9525SOL    HW240038   0.805   0.852   1.570  0.2184  0.2778  0.2768
 9526SOL     OW40039   3.887   2.714   6.318 -0.2407 -0.4859  0.3034
 9526SOL    HW140040   3.798   2.680   6.324  0.1995 -0.6077  6.0958
 9526SOL    HW240041   3.914   2.703   6.410  0.7556  1.9044  0.2983
 9527SOL     OW40042   2.370   3.006   8.528  0.5872 -0.0473 -0.2222
 9527SOL    HW140043   2.314   3.002   8.606 -0.8697 -2.0106 -1.3871
 9527SOL    HW240044   2.382   3.101   8.530 -0.1393  0.0784 -1.4684
 9528SOL     OW40045   3.038   0.468   3.666  0.1730  0.0130 -0.0265
 9528SOL    HW140046   3.013   0.396   3.724  0.8888 -1.2721 -1.3327
 9528SOL    HW240047   3.124   0.491   3.699  0.7943 -1.5637 -0.5493
 9529SOL     OW40048   2.876   2.483   2.545 -0.3282 -0.5702  0.0459
 9529SOL    HW140049   2.870   2.510   2.637 -0.5533 -3.4179  0.8727
 9529SOL    HW240050   2.813   2.544   2.508  0.6144  0.0738 -0.4993
 9530SOL     OW40051   4.074   0.386   1.352  0.1184  0.4110  0.0251
 9530SOL    HW140052   4.143   0.440   1.390  2.2200 -3.0096  1.0254
 9530SOL    HW240053   4.118   0.362   1.271  0.0330  1.8141 -0.4391
 9531SOL     OW40054   2.900   2.467   8.919  0.6404 -0.0426  0.0858
 9531SOL    HW140055   2.864   2.379   8.933  0.4542  0.2024  1.1570
 9531SOL    HW240056   2.983   2.428   8.889  1.2828  0.2765  1.4353
 9532SOL     OW40057   3.439   0.975   0.018  1.0159 -0.0026  0.2514
 9532SOL    HW140058   3.419   1.018  17.624  0.5591 -2.3173 -0.8395
 9532SOL    HW240059   3.420   1.042   0.083 -1.9823  1.1815 -1.8423
 9533SOL     OW40060   0.817   0.073   3.713  0.7226 -0.9353  0.4382
 9533SOL    HW140061   0.724   0.097   3.723  1.2565  0.9632  0.8429
 9533SOL    HW240062   0.815   4.706   3.678  1.7180 -0.7061 -0.1980
 9534SOL     OW40063   0.309   2.725   1.462  0.0488  0.2727 -0.4258
 9534SOL    HW140064   0.356   2.738   1.545 -2.3340 -0.0189  0.9630
 9534SOL    HW240065   0.273   2.636   1.463  0.0516  0.2839  0.6194
 9535SOL     OW40066   1.366   1.936   7.753 -0.0751 -0.1628  0.1886
 9535SOL    HW140067   1.347   1.960   7.843 -2.9123 -0.5936 -0.2878
 9535SOL    HW240068   1.462   1.940   7.748 -0.0485 -1.5096 -0.4593
 9536SOL     OW40069   2.482   0.232  10.114  0.3757  0.1758  0.1267
 9536SOL    HW140070   2.455   0.269  10.198 -2.8895 -1.7028 -0.0644
 9536SOL    HW240071   2.417   0.163  10.100  1.3990 -0.5237 -1.1608
 9537SOL     OW40072   0.348   1.114   7.670  0.0434 -0.0541 -0.4446
 9537SOL    HW140073   0.322   1.156   7.752  0.4663  1.5758 -1.1476
 9537SOL    HW240074   0.262   1.114   7.628  0.6955 -0.2665 -1.7881
 9538SOL     OW40075   4.404   4.117  11.888 -0.3208 -0.1383 -0.4482
 9538SOL    HW140076   4.309   4.119  11.897  0.0970  2.0957  3.6344
 9538SOL    HW240077   4.417   4.022  11.880  0.1938 -0.1012 -0.0613
 9539SOL     OW40078   4.126   0.059   5.327  0.1433  0.1500 -0.4804
 9539SOL    HW140079   4.134   0.118   5.252  0.4813  0.3942 -0.2534
 9539SOL    HW240080   4.208   0.090   5.365 -0.8776  0.5218  1.4399
 9540SOL     OW40081   1.399   3.662   6.833 -0.4528 -0.0753  0.2570
 9540SOL    HW140082   1.427   3.586   6.783 -3.6310 -0.1092 -1.4013
 9540SOL    HW240083   1.345   3.620   6.900  1.1918 -2.2880  0.1769
 9541SOL     OW40084   0.054   0.867   1.074  0.3956  0.6602 -0.0283
 9541SOL    HW140085   0.121   0.909   1.020 -1.1080  1.1140 -1.5182
 9541SOL    HW240086   0.004   0.827   1.002  1.7372  1.3720 -1.3462
 9542SOL     OW40087   4.301   0.134   7.541  0.3024  0.0546  0.1340
 9542SOL    HW140088   4.346   0.209   7.579  1.1914  0.2472 -1.3185
 9542SOL    HW240089   4.217   0.150   7.584 -0.1376 -3.0878  0.4660
 9543SOL     OW40090   3.978   0.222   8.663 -0.2007 -0.9828 -0.0945
 9543SOL    HW140091   3.897   0.269   8.642  2.4817  3.8566  0.4448
 9543SOL    HW240092   3.984   0.157   8.594 -0.1119  1.0485 -2.0098
 9544SOL     OW40093   0.451   0.529   8.627 -0.0701  0.3377  0.2130
 9544SOL    HW140094   0.367   0.536   8.673  0.5857  2.2105  1.1105
 9544SOL    HW240095   0.473   0.614   8.589  1.9572 -0.1740  0.2513
 9545SOL     OW40096   1.168   2.445   2.525  0.3665 -0.3157  0.3625
 9545SOL    HW140097   1.184   2.357   2.492  1.1591  0.1786 -0.5871
 9545SOL    HW240098   1.237   2.497   2.483 -2.2297  0.4494 -2.9255
 9546SOL     OW40099   2.688   4.192  12.867 -0.0314 -0.3050 -0.1409
 9546SOL    HW140100   2.641   4.116  12.900  0.8885 -0.0079  1.8457
 9546SOL    HW240101   2.625   4.261  12.887 -1.1980 -1.3806 -0.0847
 9547SOL     OW40102   1.538   2.973   8.504  0.3040 -0.2409 -0.9829
 9547SOL    HW140103   1.624   3.010   8.526 -0.4246  0.7789  0.1225
 9547SOL    HW240104   1.532   2.919   8.583  1.0439  0.7379 -0.2542
 9548SOL     OW40105   1.729   1.858   2.348  0.2438  0.2258  0.7093
 9548SOL    HW140106   1.664   1.852   2.278 -1.4842 -2.7975  2.5790
 9548SOL    HW240107   1.751   1.951   2.342 -3.0500  0.9379 -0.3493
 9549SOL     OW40108   0.161   1.750  12.249  0.3135  0.3402  0.1853
 9549SOL    HW140109   0.253   1.760  12.274  0.0628 -1.2573  1.7725
 9549SOL    HW240110   0.113   1.812  12.305 -0.2942 -0.1747  0.2327
 9550SOL     OW40111   2.062   0.736   7.780  0.0361 -0.2475 -0.2214
 9550SOL    HW140112   1.993   0.717   7.844 -0.8065  0.0657 -1.0420
 9550SOL    HW240113   2.042   0.684   7.702 -1.1600  1.1805 -0.8733
 9551SOL     OW40114   2.169   2.693   8.357 -0.5554  0.2240  0.0552
 9551SOL    HW140115   2.083   2.659   8.330 -0.9033  1.2214 -0.0823
 9551SOL    HW240116   2.200   2.738   8.279 -0.6884 -0.9507 -0.6765
 9552SOL     OW40117   2.202   4.074  12.532 -0.6547  0.2698 -0.8998
 9552SOL    HW140118   2.126   4.130  12.518 -0.1717  1.6022  1.7551
 9552SOL    HW240119   2.169   3.988  12.506 -0.8291 -0.7247  2.6689
 9553SOL     OW40120   0.594   4.275  15.664 -0.3650 -0.5410 -0.4210
 9553SOL    HW140121   0.552   4.303  15.746 -1.7466 -1.0526 -0.9587
 9553SOL    HW240122   0.591   4.358  15.617  1.1721  0.4270  1.1848
 9554SOL     OW40123   3.939   0.726   4.054 -0.3858  0.0578 -0.2278
 9554SOL    HW140124   4.022   0.773   4.061  1.0528 -2.2925 -1.7196
 9554SOL    HW240125   3.940   0.698   3.962  0.8700 -1.9709  0.4138
 9555SOL     OW40126   4.696   3.789   3.246 -0.0891  0.7460  0.2412
 9555SOL    HW140127   0.003   3.725   3.180 -2.3378 -0.3158  0.3178
 9555SOL    HW240128   4.711   3.870   3.198  0.9715  0.8227  0.6941
 9556SOL     OW40129   1.863   1.279   5.242  0.3555  0.4370  0.1000
 9556SOL    HW140130   1.807   1.203   5.259 -0.2480  0.8660  0.0154
 9556SOL    HW240131   1.820   1.356   5.278 -1.2607  1.6218 -4.3929
 9557SOL     OW40132   2.611   2.098   9.450  0.5759 -0.5444  0.0666
 9557SOL    HW140133   2.660   2.100   9.533 -1.1139  0.1650  1.0393
 9557SOL    HW240134   2.635   2.188   9.430 -0.3693 -0.1150  0.8948
 9558SOL     OW40135   2.848   2.483   7.203  0.3000 -0.6332  0.2459
 9558SOL    HW140136   2.774   2.444   7.249  0.5173 -0.6002  0.6221
 9558SOL    HW240137   2.886   2.528   7.278 -0.2664  2.7881 -1.4895
 9559SOL     OW40138   1.698   3.281   9.190 -0.4981  0.4430 -0.0051
 9559SOL    HW140139   1.709   3.187   9.177  1.3738  0.4745  1.4346
 9559SOL    HW240140   1.761   3.302   9.259 -1.7435 -0.8696  1.5478
 9560SOL     OW40141   3.504   1.269   9.769  0.2982  0.2698  0.0709
 9560SOL    HW140142   3.497   1.331   9.842  1.4568  1.3996 -0.7816
 9560SOL    HW240143   3.424   1.296   9.724 -0.9028  0.0902  2.0581
 9561SOL     OW40144   3.011   4.716   3.031  0.6037  0.0916 -0.7482
 9561SOL    HW140145   3.027   0.081   3.068  0.5312 -0.3502  0.2984
 9561SOL    HW240146   3.052   4.659   3.096 -0.1191  1.2994  0.7521
 9562SOL     OW40147   2.276   4.245  13.966 -0.0146 -0.2430 -0.4352
 9562SOL    HW140148   2.318   4.329  13.948 -1.8930  0.1916 -2.8938
 9562SOL    HW240149   2.356   4.197  13.982 -1.5838 -2.6484  0.1359
 9563SOL     OW40150   4.075   4.424   3.400 -0.1880 -0.5592 -0.2333
 9563SOL    HW140151   4.016   4.450   3.472 -1.1624 -1.2639 -0.7763
 9563SOL    HW240152   4.121   4.355   3.447  3.5709  1.3546 -1.1761
 9564SOL     OW40153   1.061   2.746   5.142  0.1566  0.0816 -0.0934
 9564SOL    HW140154   1.117   2.679   5.181  2.0044  0.7842 -1.5978
 9564SOL    HW240155   1.112   2.785   5.071 -2.4681 -1.7354 -2.9878
 9565SOL     OW40156   1.996   2.062  13.916 -0.8169  0.2373  1.0347
 9565SOL    HW140157   2.029   2.138  13.869 -3.7117  2.2369  2.2074
 9565SOL    HW240158   1.921   2.098  13.962 -0.3561 -0.6569  2.5060
 9566SOL     OW40159   1.321   2.452   7.025  0.0985 -0.5003 -0.2131
 9566SOL    HW140160   1.378   2.392   7.074  1.3104  0.4092 -0.4979
 9566SOL    HW240161   1.260   2.391   6.983 -0.2678  1.2156 -2.1478
 9567SOL     OW40162   0.115   3.497  15.659 -0.1793 -0.1439  0.2584
 9567SOL    HW140163   0.084   3.570  15.713  0.4411 -0.4024  0.9606
 9567SOL    HW240164   0.084   3.424  15.713 -0.5657 -0.0486  0.1677
 9568SOL     OW40165   1.325   0.588   0.576  0.2454 -0.0427  0.2440
 9568SOL    HW140166   1.353   0.508   0.621  2.9409  0.4877 -0.4527
 9568SOL    HW240167   1.249   0.609   0.629 -0.6071 -2.7943  0.0585
   4.72169   4.72169  17.68902
